IDTBR P3HT melt
60192
    1HTM     C1    1   0.953   5.096   9.452 -0.1162  0.1338  0.3780
    1HTM     C2    2   1.077   5.048   9.481 -0.0361  0.5049  0.6673
    1HTM     C3    3   1.082   4.975   9.605 -0.1542  0.3481  0.5810
    1HTM     C4    4   0.963   4.968   9.670 -0.3242 -0.1425  0.2263
    1HTM     S1    5   0.833   5.053   9.579 -0.3487 -0.4470 -0.0283
    2TAL     C5    6   1.217   4.929   9.653 -0.3042  0.0436 -0.0704
    2TAL     C6    7   1.230   4.854   9.787 -0.1437  0.1854  0.7348
    2TAL     C7    8   1.375   4.822   9.838 -0.6798  0.4398  1.5713
    2TAL     C8    9   1.377   4.721   9.954  0.1244 -0.4272  0.1275
    2TAL     C9   10   1.283   4.595   9.939 -0.0090 -1.2626  1.0010
    2TAL    C10   11   1.228   4.555  10.068  0.0193 -0.0632  0.3432
    3HTM    C11   12   0.920   4.901   9.793 -0.3946 -0.2143  0.5311
    3HTM    C12   13   0.855   4.949   9.903 -0.7875 -0.3861  0.3760
    3HTM    C13   14   0.802   4.846   9.988 -0.8677 -0.5239  0.1624
    3HTM    C14   15   0.828   4.720   9.944 -0.5361 -0.4570  0.1539
    3HTM     S2   16   0.920   4.721   9.789 -0.0932 -0.2130  0.4175
    4TAL    C15   17   0.747   4.872  10.128  0.0405 -0.3442 -0.4803
    4TAL    C16   18   0.783   4.993  10.215 -0.2862  0.9852  0.2962
    4TAL    C17   19   0.929   4.962  10.241 -0.7649  0.0567 -0.6093
    4TAL    C18   20   0.996   5.059  10.333 -0.4597  0.2051  0.6058
    4TAL    C19   21   1.095   5.157  10.257  0.5963  0.5367 -0.5587
    4TAL    C20   22   1.116   5.267  10.357 -0.2740  0.0152 -0.1283
    5HTM    C21   23   0.794   4.581   9.991  0.0124  0.0283  0.2057
    5HTM    C22   24   0.689   4.542  10.068  0.0347  0.0690  0.2565
    5HTM    C23   25   0.690   4.403  10.102 -0.0008  0.0690  0.2584
    5HTM    C24   26   0.797   4.335  10.052 -0.0501  0.0285  0.2089
    5HTM     S3   27   0.904   4.443   9.956 -0.0557 -0.0133  0.1557
    6TAL    C25   28   0.575   4.332  10.179  0.5622  0.8194  0.0001
    6TAL    C26   29   0.423   4.369  10.166 -1.1406 -0.1447 -0.5542
    6TAL    C27   30   0.377   4.372  10.019  0.2481  0.8440 -0.0170
    6TAL    C28   31   0.235   4.427   9.989 -0.3722 -0.0406 -0.6705
    6TAL    C29   32   0.114   4.376  10.061  0.1698  0.3033 -0.8294
    6TAL    C30   33   0.002   4.449   9.999 -0.4354 -0.1595  0.4297
    7HTM    C31   34   0.838   4.193  10.065  0.3055  0.1377  0.1197
    7HTM    C32   35   0.956   4.144  10.111  0.3800 -0.2841 -0.5038
    7HTM    C33   36   0.956   4.001  10.130  0.0602 -0.3196 -0.7565
    7HTM    C34   37   0.837   3.941  10.099 -0.2582  0.0749 -0.3254
    7HTM     S4   38   0.716   4.062  10.042 -0.1781  0.5257  0.4391
    8TAL    C35   39   1.089   3.935  10.180  0.0600  0.2211  0.2475
    8TAL    C36   40   1.159   4.007  10.291 -0.6645 -0.7161 -0.6467
    8TAL    C37   41   1.239   3.914  10.379  0.8881 -0.3125  1.0085
    8TAL    C38   42   1.355   3.823  10.322  0.4082  0.2979  0.0483
    8TAL    C39   43   1.324   3.676  10.359  0.3413 -0.5775  0.6149
    8TAL    C40   44   1.436   3.586  10.292  0.7470 -0.3456  0.4641
    9HTM    C41   45   0.801   3.801  10.125  0.7090  0.3660  0.5203
    9HTM    C42   46   0.722   3.757  10.227  0.6952  0.2303  0.4518
    9HTM    C43   47   0.709   3.614  10.233  0.2740  0.2428 -0.0539
    9HTM    C44   48   0.778   3.549  10.135 -0.0333  0.3883 -0.3716
    9HTM     S5   49   0.865   3.664  10.027  0.1872  0.5216 -0.0536
   10TAL    C45   50   0.615   3.562  10.335  0.3384 -0.2066 -0.5909
   10TAL    C46   51   0.491   3.491  10.279 -0.9124 -0.6357  0.0276
   10TAL    C47   52   0.359   3.504  10.362  0.1851  0.2931  0.0191
   10TAL    C48   53   0.249   3.411  10.302  0.3347  0.4536 -0.2095
   10TAL    C49   54   0.101   3.451  10.337 -0.3570  0.7872 -0.0368
   10TAL    C50   55   0.058   3.555  10.233 -0.9121 -0.4328 -0.2960
   11HTM    C51   56   0.805   3.406  10.126  0.9277  0.0763 -0.1728
   11HTM    C52   57   0.849   3.330  10.021  2.2685  0.1330  0.3021
   11HTM    C53   58   0.881   3.195  10.056  2.2911  0.2446  0.7212
   11HTM    C54   59   0.862   3.166  10.188  0.9675  0.2732  0.5654
   11HTM     S6   60   0.802   3.310  10.279 -0.4209  0.1603 -0.1274
   12TAL    C55   61   0.927   3.090   9.947  0.5529 -0.0080  0.2141
   12TAL    C56   62   1.075   3.078   9.927 -1.3001  0.7450 -0.7304
   12TAL    C57   63   1.134   2.943   9.915 -0.2536  0.5856 -0.5141
   12TAL    C58   64   1.282   2.911   9.919  0.2131  0.0746 -0.1261
   12TAL    C59   65   1.337   2.899   9.775 -0.1865  0.5938  0.5704
   12TAL    C60   66   1.457   2.811   9.771 -0.3969  0.4416 -0.7933
   13HTM    C61   67   0.883   3.052  10.281  0.1865  0.0557  0.0269
   13HTM    C62   68   0.911   3.074  10.413  0.1843 -0.0241  0.0408
   13HTM    C63   69   0.934   2.953  10.488  0.4414 -0.0578 -0.0880
   13HTM    C64   70   0.923   2.840  10.414  0.6397 -0.0033 -0.2003
   13HTM     S7   71   0.884   2.876  10.242  0.5162  0.0951 -0.1513
   14TAL    C65   72   0.964   2.955  10.632  1.1473  0.6095  0.0564
   14TAL    C66   73   1.097   2.996  10.683 -0.2927 -0.0666 -0.2216
   14TAL    C67   74   1.081   2.973  10.841 -0.1619 -0.4234 -0.3785
   14TAL    C68   75   1.150   3.065  10.948  0.2433  0.6505 -0.2982
   14TAL    C69   76   1.103   3.210  10.946 -0.3436  0.3642 -0.4587
   14TAL    C70   77   1.146   3.308  11.051 -0.9534  0.5352 -0.3704
   15HTM    C71   78   0.927   2.703  10.440 -0.5754  0.4670  0.4138
   15HTM    C72   79   0.850   2.601  10.391 -0.6069  0.5493  0.2890
   15HTM    C73   80   0.886   2.472  10.444 -0.4180  0.4249 -0.1297
   15HTM    C74   81   0.989   2.476  10.533 -0.2424  0.2477 -0.3237
   15HTM     S8   82   1.050   2.644  10.557 -0.3025  0.2241  0.0093
   16TAL    C75   83   0.832   2.346  10.388  0.1831  0.5931 -0.9581
   16TAL    C76   84   0.839   2.310  10.245  0.4010  0.8401  0.2087
   16TAL    C77   85   0.717   2.356  10.163  0.1761 -0.7661 -0.1810
   16TAL    C78   86   0.711   2.360  10.008 -0.7780  0.9565 -0.0946
   16TAL    C79   87   0.577   2.395   9.958 -0.6429 -0.2875  1.1321
   16TAL    C80   88   0.569   2.371   9.804  0.0550  0.3651 -0.3591
   17HTM    C81   89   1.066   2.369  10.600  0.5679 -0.1264 -0.4282
   17HTM    C82   90   1.199   2.350  10.581  0.4119 -0.8328 -0.8686
   17HTM    C83   91   1.254   2.243  10.661  0.1669 -0.9379 -0.8399
   17HTM    C84   92   1.162   2.182  10.741  0.1361 -0.3116 -0.3784
   17HTM     S9   93   0.998   2.254  10.721  0.4164  0.4655  0.0598
   18TAL    C85   94   1.405   2.211  10.668  0.4522 -0.0884  0.2638
   18TAL    C86   95   1.506   2.254  10.767  0.3039 -0.2089  0.4293
   18TAL    C87   96   1.464   2.270  10.917  0.9025 -0.5131 -0.0318
   18TAL    C88   97   1.548   2.344  11.016 -0.3023  0.4597  0.4382
   18TAL    C89   98   1.705   2.322  11.006 -0.3393 -0.7370  0.7903
   18TAL    C90   99   1.771   2.435  11.088  0.0794  0.9191 -0.5368
   19HTM    C91  100   1.165   2.066  10.832  0.0703 -0.1195 -0.7012
   19HTM    C92  101   1.098   2.050  10.950 -0.1784  0.0736 -0.8156
   19HTM    C93  102   1.148   1.943  11.031 -0.2862  0.2699 -0.4871
   19HTM    C94  103   1.254   1.877  10.976 -0.1198  0.2266 -0.1225
   19HTM    S10  104   1.298   1.946  10.815  0.1885 -0.0679 -0.1661
   20TAL    C95  105   1.080   1.911  11.167  1.2613 -0.8455 -0.6350
   20TAL    C96  106   1.075   2.037  11.266 -0.8089 -0.0239  0.5916
   20TAL    C97  107   1.203   2.069  11.337 -0.0547 -0.1481  0.1163
   20TAL    C98  108   1.164   2.176  11.435  0.1924 -0.1222  0.1344
   20TAL    C99  109   1.259   2.204  11.556 -0.1108  0.0303  0.7205
   20TAL   C100  110   1.291   2.078  11.638  0.1038 -0.3139  0.0299
   21HTM   C101  111   1.342   1.776  11.028  0.9546  0.1201  0.2090
   21HTM   C102  112   1.455   1.727  10.968  1.5109  0.4232  0.9782
   21HTM   C103  113   1.514   1.617  11.039  1.2946  0.5499  1.3623
   21HTM   C104  114   1.447   1.582  11.153  0.5735  0.3435  0.8859
   21HTM    S11  115   1.302   1.686  11.179  0.1080 -0.0299 -0.0922
   22TAL   C105  116   1.637   1.548  10.994 -0.5242 -0.2225  0.2691
   22TAL   C106  117   1.722   1.589  10.869 -0.8849 -0.1466 -0.8666
   22TAL   C107  118   1.767   1.464  10.789 -0.3703  0.8193  0.6947
   22TAL   C108  119   1.835   1.352  10.867  1.1680 -0.7706  0.0578
   22TAL   C109  120   1.839   1.247  10.777 -0.3318  0.5504  0.5244
   22TAL   C110  121   1.882   1.113  10.837 -0.6598  0.5996  0.2756
   23HTM   C111  122   1.483   1.494  11.261 -0.7855 -0.0910 -0.1573
   23HTM   C112  123   1.609   1.462  11.301 -0.5384  0.5969 -0.3676
   23HTM   C113  124   1.615   1.394  11.427  0.0613  0.7692 -0.2949
   23HTM   C114  125   1.492   1.373  11.484  0.2715  0.2126 -0.0292
   23HTM    S12  126   1.360   1.439  11.381 -0.2759 -0.5784  0.1511
   24TAL   C115  127   1.756   1.341  11.474  0.7103  0.0456 -0.2569
   24TAL   C116  128   1.789   1.192  11.452 -0.5046  0.2902 -0.1809
   24TAL   C117  129   1.764   1.134  11.308 -0.0498 -0.5383 -0.1245
   24TAL   C118  130   1.816   0.995  11.285 -0.3615  0.1064  0.7279
   24TAL   C119  131   1.963   0.978  11.263  0.0564 -0.6939  0.0566
   24TAL   C120  132   2.003   0.848  11.224  0.0692  0.8045  0.1095
   25HTM   C121  133   1.448   1.295  11.591  0.4988  0.6028  0.6585
   25HTM   C122  134   1.321   1.246  11.591  0.3150  1.0613  0.2589
   25HTM   C123  135   1.296   1.151  11.697 -0.1076  0.4989 -0.3355
   25HTM   C124  136   1.404   1.128  11.777 -0.2461 -0.3885 -0.3889
   25HTM    S13  137   1.547   1.225  11.725  0.1497 -0.5841  0.3128
   26TAL   C125  138   1.162   1.074  11.725  0.9783  0.2524  1.2453
   26TAL   C126  139   1.162   0.951  11.634 -0.6885 -0.6889 -0.3737
   26TAL   C127  140   1.208   0.816  11.678 -0.2173  0.1902  0.1281
   26TAL   C128  141   1.210   0.726  11.564 -1.5121  1.0265 -0.1698
   26TAL   C129  142   1.300   0.742  11.444 -0.8491  1.4024  1.1920
   26TAL   C130  143   1.244   0.677  11.306 -0.5609  0.0191 -0.2181
   27HTM   C131  144   1.419   1.038  11.888  0.2588  0.2452 -0.3384
   27HTM   C132  145   1.340   0.997  11.991 -0.0279  0.1616 -0.5839
   27HTM   C133  146   1.406   0.904  12.080 -0.2845  0.0587 -0.5014
   27HTM   C134  147   1.534   0.874  12.043 -0.1934  0.0638 -0.1931
   27HTM    S14  148   1.582   0.962  11.893  0.2266  0.2000  0.0192
   28TAL   C135  149   1.348   0.856  12.209 -0.3484  0.1901  0.2947
   28TAL   C136  150   1.202   0.822  12.218  0.0463 -0.4804 -0.3118
   28TAL   C137  151   1.150   0.731  12.333  0.2843 -0.5019  0.8023
   28TAL   C138  152   1.149   0.781  12.481 -0.1715  0.0515  0.8157
   28TAL   C139  153   1.082   0.680  12.566 -0.9748  0.4965 -0.3118
   28TAL   C140  154   1.081   0.711  12.714  0.5863  0.4017 -0.4507
   29HTM   C141  155   1.642   0.809  12.110 -0.1396  0.6138  0.1086
   29HTM   C142  156   1.719   0.707  12.063 -0.1704  0.7244 -0.1848
   29HTM   C143  157   1.816   0.659  12.158 -0.2586  0.3469 -0.2813
   29HTM   C144  158   1.813   0.725  12.278 -0.2951 -0.0516 -0.0615
   29HTM    S15  159   1.685   0.853  12.280 -0.2203  0.0196  0.2869
   30TAL   C145  160   1.908   0.536  12.132 -0.0348 -0.7464  0.4558
   30TAL   C146  161   1.847   0.428  12.052  0.5844 -0.3535  0.2813
   30TAL   C147  162   1.952   0.313  12.036  0.4641 -1.1503 -1.1296
   30TAL   C148  163   1.892   0.191  11.966 -0.6909 -1.0648 -0.7522
   30TAL   C149  164   1.971   0.133  11.852  0.1519  0.1103 -0.4821
   30TAL   C150  165   2.073   0.029  11.889  0.7358 -0.2072  0.6966
   31HTM   C151  166   1.900   0.719  12.393 -0.0716  0.5344 -0.5485
   31HTM   C152  167   2.001   0.631  12.420  0.0066  0.5451 -0.7973
   31HTM   C153  168   2.079   0.666  12.536 -0.0151  0.2956 -0.7062
   31HTM   C154  169   2.038   0.781  12.597 -0.1099  0.0948 -0.3877
   31HTM    S16  170   1.896   0.854  12.513 -0.1796  0.2060 -0.1765
   32TAL   C155  171   2.194   0.578  12.579  0.2707  0.2700  0.5327
   32TAL   C156  172   2.291   0.518  12.478  0.2896 -1.1578 -0.1425
   32TAL   C157  173   2.386   0.429  12.548 -0.5679  0.1708 -0.6966
   32TAL   C158  174   2.496   0.351  12.473  0.1062 -0.3161 -0.1973
   32TAL   C159  175   2.465   0.246  12.359  0.7988 -0.5079 -0.2650
   32TAL   C160  176   2.589   0.176  12.331  0.0846  0.5167  0.9428
   33HTM   C161  177   2.082   0.849  12.720 -0.6888  0.1955  0.9948
   33HTM   C162  178   2.002   0.900  12.818  0.0934  0.5061  1.4825
   33HTM   C163  179   2.075   0.942  12.935  1.0199  0.6715  0.8714
   33HTM   C164  180   2.210   0.922  12.926  0.9440  0.4870 -0.0823
   33HTM    S17  181   2.256   0.849  12.768 -0.3130  0.0869 -0.2838
   34TAL   C165  182   1.991   1.007  13.043 -0.6008 -0.0729 -0.0598
   34TAL   C166  183   1.953   1.151  13.009 -0.4153  0.6879 -1.1066
   34TAL   C167  184   1.898   1.220  13.136  0.0462  1.2941 -0.7437
   34TAL   C168  185   1.895   1.368  13.130 -0.2997  0.5898 -0.5637
   34TAL   C169  186   1.823   1.444  13.247  1.2170 -0.6395  0.2116
   34TAL   C170  187   1.848   1.587  13.266  0.5578  0.0733 -0.0386
   35HTM   C171  188   2.311   0.962  13.023  0.0783 -0.5258  0.0599
   35HTM   C172  189   2.431   1.018  12.991  0.4033 -1.2803 -0.0880
   35HTM   C173  190   2.504   1.070  13.104  0.4957 -1.0213 -0.2620
   35HTM   C174  191   2.439   1.052  13.223  0.2412 -0.0693 -0.2470
   35HTM    S18  192   2.280   0.970  13.200 -0.1379  0.5790 -0.0098
   36TAL   C175  193   2.645   1.125  13.095  0.8975  0.9880 -0.0153
   36TAL   C176  194   2.748   1.017  13.091 -0.3970 -0.9716 -0.4606
   36TAL   C177  195   2.878   1.095  13.096 -1.1038  0.5580  0.1806
   36TAL   C178  196   3.018   1.021  13.091  0.0396 -0.4014  0.5130
   36TAL   C179  197   3.056   0.906  13.186  0.2097  0.2880  0.4448
   36TAL   C180  198   3.193   0.846  13.162  0.0354  0.2796  0.4045
   37HTM   C181  199   2.472   1.081  13.364 -0.3473 -0.4349 -0.1800
   37HTM   C182  200   2.594   1.060  13.421 -0.3407 -0.4156 -0.1867
   37HTM   C183  201   2.594   1.079  13.564 -0.3160 -0.3321 -0.1979
   37HTM   C184  202   2.473   1.115  13.615 -0.3037 -0.2879 -0.1993
   37HTM    S19  203   2.348   1.127  13.486 -0.3226 -0.3487 -0.1872
   38TAL   C185  204   2.722   1.077  13.639  0.5709 -1.0405  0.6487
   38TAL   C186  205   2.782   0.953  13.680  0.8329 -0.0864 -0.1125
   38TAL   C187  206   2.922   0.986  13.722 -0.3969  0.2650 -0.1896
   38TAL   C188  207   2.987   0.880  13.811 -0.4917  0.8550  0.4673
   38TAL   C189  208   3.118   0.921  13.882  0.8902 -0.8550  0.0311
   38TAL   C190  209   3.194   0.823  13.967 -1.6059  0.5919 -0.1419
   39HTM   C191  210   2.429   1.156  13.752  0.1817 -0.8909  0.6898
   39HTM   C192  211   2.301   1.141  13.795  0.2760 -1.2137  0.8700
   39HTM   C193  212   2.269   1.220  13.911  0.0243 -0.6813  0.4478
   39HTM   C194  213   2.373   1.295  13.957 -0.2619  0.0474 -0.0544
   39HTM    S20  214   2.521   1.272  13.856 -0.2356  0.1183 -0.0326
   40TAL   C195  215   2.137   1.188  13.974  0.4178  0.9097  0.7123
   40TAL   C196  216   2.016   1.261  13.913 -0.7561  0.5977  0.0032
   40TAL   C197  217   1.899   1.178  13.949 -1.8387  0.6960  0.2762
   40TAL   C198  218   1.780   1.210  13.874  0.3593 -0.0930  0.6442
   40TAL   C199  219   1.673   1.123  13.931 -0.3946  0.2769 -0.9674
   40TAL   C200  220   1.544   1.093  13.856 -0.1632  0.0797  0.2804
   41HTM   C201  221   2.379   1.398  14.056  0.0990  0.1524  0.4289
   41HTM   C202  222   2.336   1.405  14.185  0.2055  0.4045  0.4537
   41HTM   C203  223   2.371   1.527  14.253  0.1052  0.6146  0.1295
   41HTM   C204  224   2.442   1.614  14.175 -0.0779  0.5228 -0.1428
   41HTM    S21  225   2.469   1.547  14.010 -0.1383  0.1610 -0.0095
   42TAL   C205  226   2.333   1.559  14.397 -0.1520  0.6859 -1.0985
   42TAL   C206  227   2.240   1.470  14.482 -0.3000  0.6583 -0.3996
   42TAL   C207  228   2.301   1.336  14.500  0.1455  0.2289  0.0718
   42TAL   C208  229   2.220   1.225  14.565 -1.1284  0.4134 -0.6840
   42TAL   C209  230   2.229   1.090  14.497  0.1535 -0.6857 -1.5206
   42TAL   C210  231   2.131   1.095  14.389  0.9517 -0.1560  0.4204
   43HTM   C211  232   2.496   1.744  14.214  0.5405  0.5354  1.1585
   43HTM   C212  233   2.615   1.785  14.266  0.1996  1.1694  1.4639
   43HTM   C213  234   2.630   1.928  14.271 -0.3713  1.2505  1.0376
   43HTM   C214  235   2.522   1.996  14.223 -0.4657  0.6783  0.4071
   43HTM    S22  236   2.392   1.884  14.168  0.1639 -0.0127  0.3022
   44TAL   C215  237   2.763   1.985  14.326  0.2304  0.4148  0.1508
   44TAL   C216  238   2.897   1.913  14.303 -0.3473 -1.0852 -0.2750
   44TAL   C217  239   3.008   1.943  14.409  0.7980 -0.9863  0.5134
   44TAL   C218  240   2.978   1.929  14.557 -0.6904 -1.0008 -1.0195
   44TAL   C219  241   2.906   1.817  14.620  0.0876  0.6846 -0.5376
   44TAL   C220  242   2.962   1.676  14.589  1.3806 -0.0334 -0.0239
   45HTM   C221  243   2.524   2.133  14.184 -0.2126  0.2561  0.1105
   45HTM   C222  244   2.441   2.183  14.088 -0.5701  0.3085  0.4401
   45HTM   C223  245   2.457   2.325  14.066 -0.6265  0.3144  0.4387
   45HTM   C224  246   2.551   2.382  14.146 -0.3121  0.2665  0.1081
   45HTM    S23  247   2.628   2.262  14.255  0.0828  0.2098 -0.2301
   46TAL   C225  248   2.364   2.406  13.963 -0.8257  1.0540  0.0212
   46TAL   C226  249   2.335   2.346  13.826 -0.2220  0.6912  0.3772
   46TAL   C227  250   2.461   2.352  13.732  0.2721 -0.2388 -0.2130
   46TAL   C228  251   2.431   2.310  13.596  0.9913  0.0341  0.2665
   46TAL   C229  252   2.551   2.326  13.507 -0.0488 -0.2357 -0.7589
   46TAL   C230  253   2.533   2.279  13.356 -0.4526 -0.7270 -0.6852
   47HTM   C231  254   2.608   2.520  14.148 -0.5802 -0.3456  0.2299
   47HTM   C232  255   2.627   2.605  14.253 -1.0124 -0.3272  0.2978
   47HTM   C233  256   2.695   2.727  14.217 -0.8675 -0.3318  0.5553
   47HTM   C234  257   2.728   2.735  14.085 -0.3248 -0.3536  0.6838
   47HTM    S24  258   2.675   2.588  13.994  0.0483 -0.3703  0.4883
   48TAL   C235  259   2.677   2.860  14.292  0.0035 -0.0077 -0.3981
   48TAL   C236  260   2.772   2.887  14.413  0.2011 -0.5509 -0.1297
   48TAL   C237  261   2.695   2.952  14.526  0.3474 -0.1258 -0.3021
   48TAL   C238  262   2.672   3.105  14.508 -0.7281 -0.3995  0.2305
   48TAL   C239  263   2.558   3.144  14.597 -0.4662  0.9934 -0.7825
   48TAL   C240  264   2.511   3.284  14.588 -0.5487  0.5977  0.3371
    1HTM     C1  265   2.951   1.295   7.495  0.0233 -0.0474 -0.1695
    1HTM     C2  266   3.083   1.329   7.502 -0.1158  0.4763  0.0216
    1HTM     C3  267   3.123   1.429   7.407 -0.3926  0.7119  0.1482
    1HTM     C4  268   3.021   1.471   7.326 -0.4647  0.3677  0.0536
    1HTM     S1  269   2.866   1.388   7.365 -0.1863 -0.2857 -0.2047
    2TAL     C5  270   3.268   1.475   7.387 -0.0449  0.5080  0.7487
    2TAL     C6  271   3.384   1.370   7.420 -1.1418 -0.4281 -0.6508
    2TAL     C7  272   3.510   1.382   7.345 -0.4314 -0.1815  0.2225
    2TAL     C8  273   3.624   1.292   7.382 -0.0497  0.8701  1.0326
    2TAL     C9  274   3.600   1.144   7.346  0.0120 -0.7147  0.0813
    2TAL    C10  275   3.704   1.041   7.344 -0.3704  0.1074  0.2974
    3HTM    C11  276   3.014   1.571   7.224  0.0248  0.3916  0.4725
    3HTM    C12  277   2.928   1.560   7.119 -0.0852  0.1660  0.5859
    3HTM    C13  278   2.946   1.661   7.018 -0.0895 -0.1400  0.2775
    3HTM    C14  279   3.046   1.749   7.046  0.0171 -0.1478 -0.0713
    3HTM     S2  280   3.125   1.712   7.203  0.1322  0.2337 -0.0368
    4TAL    C15  281   2.858   1.659   6.891 -1.2596 -0.5564  0.7134
    4TAL    C16  282   2.707   1.665   6.897 -0.4683 -0.5390 -0.1354
    4TAL    C17  283   2.642   1.730   7.016 -0.7085 -0.0681  0.1359
    4TAL    C18  284   2.497   1.691   7.035  0.4167  0.5361  0.0358
    4TAL    C19  285   2.423   1.760   7.152 -0.3901  0.2770 -0.1211
    4TAL    C20  286   2.298   1.679   7.200  0.1275  0.0354 -0.3537
    5HTM    C21  287   3.092   1.851   6.966  0.6080  0.2445 -0.0907
    5HTM    C22  288   3.218   1.892   6.933  0.6261  0.5884  0.3709
    5HTM    C23  289   3.221   2.007   6.847  0.6421  0.8477  0.7157
    5HTM    C24  290   3.098   2.055   6.815  0.6361  0.7017  0.5168
    5HTM     S3  291   2.967   1.957   6.891  0.6097  0.2216 -0.1262
    6TAL    C25  292   3.361   2.074   6.804  1.1370 -0.0101 -0.7418
    6TAL    C26  293   3.439   2.144   6.921 -0.2431  0.3813  0.4518
    6TAL    C27  294   3.570   2.228   6.885  0.0622  0.2592  0.0843
    6TAL    C28  295   3.562   2.294   6.745  0.7980 -0.7172  0.4104
    6TAL    C29  296   3.632   2.428   6.766 -1.0960  0.0628  0.3354
    6TAL    C30  297   3.557   2.521   6.681  0.0795 -0.0351  0.1611
    7HTM    C31  298   3.061   2.154   6.713 -0.2292 -0.3796  0.1153
    7HTM    C32  299   3.123   2.273   6.688  0.4779 -0.7994 -0.2116
    7HTM    C33  300   3.061   2.348   6.581  0.8019 -0.6370 -0.2863
    7HTM    C34  301   2.953   2.286   6.526  0.3419 -0.0932 -0.0164
    7HTM     S4  302   2.920   2.127   6.604 -0.5432  0.2586  0.3559
    8TAL    C35  303   3.120   2.490   6.532  0.0365  0.1496 -0.2477
    8TAL    C36  304   3.086   2.612   6.613 -0.1792 -1.2946  0.5692
    8TAL    C37  305   3.158   2.745   6.571  0.2476 -0.1256  0.1588
    8TAL    C38  306   3.137   2.841   6.686 -0.2073 -1.2907  0.4970
    8TAL    C39  307   3.230   2.956   6.717 -0.1072 -0.0265  0.9324
    8TAL    C40  308   3.380   2.947   6.673 -0.1846  0.4017  0.1674
    9HTM    C41  309   2.883   2.312   6.405  0.0315  0.3618  0.4401
    9HTM    C42  310   2.786   2.238   6.344 -0.4531  0.6628  0.8273
    9HTM    C43  311   2.758   2.280   6.209 -0.9052  0.7816  0.9543
    9HTM    C44  312   2.834   2.386   6.168 -0.7652  0.5711  0.6640
    9HTM     S5  313   2.947   2.441   6.297 -0.0460  0.2039  0.2042
   10TAL    C45  314   2.645   2.222   6.134 -1.0812 -0.0172  1.2845
   10TAL    C46  315   2.658   2.065   6.079 -0.2726 -1.2340 -0.1301
   10TAL    C47  316   2.541   1.995   6.012  0.1803 -0.4905 -0.9991
   10TAL    C48  317   2.397   2.066   6.037 -0.4081  0.2526 -0.7514
   10TAL    C49  318   2.260   1.997   6.053  0.4359  0.0433 -0.7474
   10TAL    C50  319   2.245   1.921   6.182 -0.4394  0.5332  0.2779
   11HTM    C51  320   2.834   2.473   6.050 -0.1790  0.5752  0.0901
   11HTM    C52  321   2.927   2.571   6.031 -0.7396  1.1022 -0.0148
   11HTM    C53  322   2.914   2.638   5.904 -1.0308  0.7772 -0.1627
   11HTM    C54  323   2.811   2.592   5.827 -0.6921  0.0024 -0.1703
   11HTM     S6  324   2.722   2.459   5.910  0.0264 -0.3798  0.0100
   12TAL    C55  325   3.015   2.751   5.879 -0.0151 -0.5271  0.1310
   12TAL    C56  326   3.112   2.723   5.764 -0.6249  0.1915  0.3009
   12TAL    C57  327   3.197   2.837   5.736  0.2016 -0.5697 -0.7535
   12TAL    C58  328   3.283   2.792   5.624 -0.3487  0.1719 -0.0496
   12TAL    C59  329   3.340   2.909   5.551 -0.6908 -0.4735  0.1083
   12TAL    C60  330   3.436   2.877   5.437  0.0365  0.0855 -0.4537
   13HTM    C61  331   2.777   2.632   5.699  0.1297  0.4686  0.2170
   13HTM    C62  332   2.788   2.752   5.636 -0.4700  0.6543  0.4538
   13HTM    C63  333   2.725   2.756   5.506 -0.6204  0.6441  0.5261
   13HTM    C64  334   2.666   2.638   5.471 -0.1354  0.4508  0.3448
   13HTM     S7  335   2.686   2.513   5.599  0.5543  0.2651  0.0663
   14TAL    C65  336   2.709   2.881   5.434  0.3261 -0.4996  0.6907
   14TAL    C66  337   2.803   2.924   5.316  0.2198  0.8554 -0.2535
   14TAL    C67  338   2.948   2.900   5.343 -0.1332 -0.1982 -0.4369
   14TAL    C68  339   3.046   2.911   5.225 -0.0747 -1.5426 -0.6347
   14TAL    C69  340   3.011   2.840   5.108  0.1727  0.3657  0.6801
   14TAL    C70  341   3.113   2.802   5.003  0.1165  0.0733 -0.2230
   15HTM    C71  342   2.605   2.602   5.348  0.2240 -0.0591  0.0559
   15HTM    C72  343   2.474   2.564   5.341  0.1774  0.0618  0.2332
   15HTM    C73  344   2.432   2.526   5.208  0.0214 -0.1083  0.3294
   15HTM    C74  345   2.531   2.536   5.115 -0.0509 -0.3590  0.2254
   15HTM     S8  346   2.686   2.593   5.187  0.0734 -0.4000 -0.0037
   16TAL    C75  347   2.291   2.482   5.170  0.6122  0.6230 -0.6851
   16TAL    C76  348   2.182   2.594   5.147 -0.6327 -0.0553 -0.2569
   16TAL    C77  349   2.054   2.547   5.075 -0.9127 -0.0632 -0.2090
   16TAL    C78  350   2.066   2.503   4.933  0.3776 -0.1113  0.6022
   16TAL    C79  351   1.959   2.404   4.900  0.7273  0.1075 -0.2787
   16TAL    C80  352   1.971   2.307   4.784  0.3163  0.6905  0.6349
   17HTM    C81  353   2.534   2.495   4.966  0.2592  0.0573 -0.0460
   17HTM    C82  354   2.648   2.474   4.894  0.2913 -0.6419  0.1951
   17HTM    C83  355   2.625   2.416   4.765  0.2694 -1.0648  0.3844
   17HTM    C84  356   2.494   2.392   4.737  0.2206 -0.6879  0.2881
   17HTM     S9  357   2.388   2.442   4.875  0.1984  0.2375 -0.0522
   18TAL    C85  358   2.732   2.390   4.658  1.0855  0.3245  0.5143
   18TAL    C86  359   2.781   2.238   4.665 -0.0055 -0.4051 -0.4370
   18TAL    C87  360   2.881   2.193   4.558  0.1504 -0.1718 -0.4249
   18TAL    C88  361   2.998   2.281   4.508  0.5803  0.4819  0.7771
   18TAL    C89  362   3.086   2.371   4.586  0.3815 -0.6299 -1.4618
   18TAL    C90  363   3.223   2.322   4.621 -0.1144 -0.4117  0.4316
   19HTM    C91  364   2.424   2.342   4.615 -0.1479 -0.1486  0.2284
   19HTM    C92  365   2.388   2.396   4.495 -0.0387 -0.2084  0.1682
   19HTM    C93  366   2.310   2.308   4.412 -0.0621 -0.2075  0.1897
   19HTM    C94  367   2.286   2.186   4.469 -0.1891 -0.1472  0.2660
   19HTM    S10  368   2.361   2.174   4.633 -0.2898 -0.0862  0.3172
   20TAL    C95  369   2.263   2.350   4.277 -0.5938  1.4028  0.7737
   20TAL    C96  370   2.123   2.414   4.251  0.4160 -0.3607  0.8222
   20TAL    C97  371   2.078   2.532   4.327 -0.2984 -0.9715  0.0876
   20TAL    C98  372   2.180   2.640   4.377 -0.2400 -0.3910 -0.6478
   20TAL    C99  373   2.094   2.714   4.482 -0.0446  0.0075 -0.0101
   20TAL   C100  374   2.177   2.798   4.580 -0.5576 -0.0585 -0.7548
   21HTM   C101  375   2.216   2.077   4.414 -0.2565  0.6700 -0.1103
   21HTM   C102  376   2.277   1.959   4.380 -0.0251  0.6950  0.2098
   21HTM   C103  377   2.186   1.857   4.336  0.1886  0.4379  0.3576
   21HTM   C104  378   2.055   1.896   4.336  0.1200  0.2168  0.1502
   21HTM    S11  379   2.037   2.067   4.392 -0.2222  0.3169 -0.2511
   22TAL   C105  380   2.224   1.718   4.289 -0.2624  0.3138 -0.6596
   22TAL   C106  381   2.372   1.677   4.319  0.8665 -0.0050  0.4730
   22TAL   C107  382   2.397   1.522   4.286 -1.0436 -0.5813 -0.1143
   22TAL   C108  383   2.422   1.486   4.145  0.6182  0.3617  0.6362
   22TAL   C109  384   2.529   1.570   4.065  0.3121 -0.1498 -0.5788
   22TAL   C110  385   2.668   1.542   4.106 -0.5188 -0.0884  0.7205
   23HTM   C111  386   1.934   1.815   4.331  0.1007  0.1676 -0.2655
   23HTM   C112  387   1.903   1.701   4.400  0.2185  0.1951 -0.1655
   23HTM   C113  388   1.767   1.657   4.380  0.2275  0.1064 -0.0287
   23HTM   C114  389   1.695   1.738   4.297  0.1165  0.0112 -0.0244
   23HTM    S12  390   1.793   1.876   4.236 -0.0089  0.0264 -0.1941
   24TAL   C115  391   1.724   1.530   4.446  2.0287  0.6645 -1.0507
   24TAL   C116  392   1.767   1.511   4.596  0.4625 -0.0140  0.2822
   24TAL   C117  393   1.701   1.594   4.703 -0.4185  0.4450 -0.8002
   24TAL   C118  394   1.802   1.638   4.808 -0.9588 -0.9297 -0.8865
   24TAL   C119  395   1.731   1.726   4.907 -0.8039 -0.2144  0.2833
   24TAL   C120  396   1.827   1.786   5.017  0.4921 -0.4945  0.3923
   25HTM   C121  397   1.553   1.738   4.263 -0.2871  0.0014  0.5373
   25HTM   C122  398   1.476   1.851   4.261 -0.6264 -0.2310 -0.4320
   25HTM   C123  399   1.336   1.824   4.243 -0.4478 -0.7337 -1.1597
   25HTM   C124  400   1.306   1.692   4.231  0.0276 -0.8846 -0.7454
   25HTM    S13  401   1.454   1.589   4.242  0.2886 -0.3998  0.6067
   26TAL   C125  402   1.236   1.930   4.211 -0.0910 -0.9883  0.1528
   26TAL   C126  403   1.197   2.008   4.330 -0.2729 -0.4550  0.5254
   26TAL   C127  404   1.088   2.113   4.298  0.2587 -0.3176 -0.5877
   26TAL   C128  405   1.062   2.226   4.401 -0.0068  0.0149  0.1043
   26TAL   C129  406   1.043   2.356   4.346  1.2801  0.3617 -0.6432
   26TAL   C130  407   1.158   2.446   4.358 -0.0891 -0.0198  0.9071
   27HTM   C131  408   1.173   1.640   4.217 -0.3242  0.7219 -0.6269
   27HTM   C132  409   1.136   1.583   4.099 -0.3361  1.2189 -0.8699
   27HTM   C133  410   0.997   1.545   4.094 -0.2225  0.7893 -0.8255
   27HTM   C134  411   0.929   1.573   4.208 -0.1240 -0.0352 -0.5488
   27HTM    S14  412   1.035   1.651   4.332 -0.1674 -0.3354 -0.3207
   28TAL   C135  413   0.938   1.473   3.969 -0.6365  1.0114  0.6415
   28TAL   C136  414   0.956   1.546   3.832  0.5253  0.0507 -0.8490
   28TAL   C137  415   0.889   1.681   3.821 -0.8267  0.3592  0.2393
   28TAL   C138  416   0.884   1.708   3.664 -0.2487 -0.9336 -0.7615
   28TAL   C139  417   0.767   1.801   3.627  0.4574  0.1956 -0.7426
   28TAL   C140  418   0.715   1.774   3.489  0.6823  0.2957 -0.2707
   29HTM   C141  419   0.791   1.561   4.248  0.2070  0.4494  0.0703
   29HTM   C142  420   0.685   1.564   4.161  0.2395 -0.2100 -0.0042
   29HTM   C143  421   0.557   1.562   4.226  0.2044 -0.6566 -0.0809
   29HTM   C144  422   0.564   1.558   4.362  0.1452 -0.3377 -0.0650
   29HTM    S15  423   0.735   1.555   4.419  0.1290  0.5583  0.0492
   30TAL   C145  424   0.427   1.578   4.137 -0.0289 -0.3189  0.2043
   30TAL   C146  425   0.394   1.482   4.030  0.3154 -0.8527 -0.3508
   30TAL   C147  426   0.312   1.543   3.917 -0.3127 -0.2165 -0.6547
   30TAL   C148  427   0.261   1.437   3.820  0.7511 -0.0032  0.8807
   30TAL   C149  428   0.346   1.324   3.758 -1.2394 -0.8587  0.0853
   30TAL   C150  429   0.278   1.246   3.655 -0.3954  0.0941 -0.3236
   31HTM   C151  430   0.462   1.568   4.465 -0.1207  1.1300 -0.1106
   31HTM   C152  431   0.325   1.569   4.460 -0.1271  1.4990  0.0579
   31HTM   C153  432   0.263   1.606   4.584  0.1182  0.9063  0.3666
   31HTM   C154  433   0.351   1.634   4.684  0.3117  0.0853  0.4334
   31HTM    S16  434   0.522   1.615   4.629  0.1981 -0.0036  0.1093
   32TAL   C155  435   0.112   1.617   4.593 -0.1822  0.6421 -1.1746
   32TAL   C156  436   0.060   1.734   4.527  0.2156 -1.1109 -0.7505
   32TAL   C157  437   0.057   1.743   4.370 -0.3304 -0.9379 -0.3239
   32TAL   C158  438   0.052   1.896   4.314 -0.3916  1.1743 -0.5710
   32TAL   C159  439   0.018   1.910   4.165  0.5160  0.1032 -0.3611
   32TAL   C160  440   0.130   1.978   4.076  0.1043 -0.2229 -0.6419
   33HTM   C161  441   0.335   1.671   4.820 -0.3716 -0.3772 -0.5391
   33HTM   C162  442   0.418   1.638   4.924 -0.4314 -0.8119 -0.6272
   33HTM   C163  443   0.363   1.667   5.053 -0.3556 -1.0146 -0.5486
   33HTM   C164  444   0.238   1.723   5.049 -0.2380 -0.7345 -0.4004
   33HTM    S17  445   0.180   1.743   4.879 -0.2136 -0.1887 -0.3486
   34TAL   C165  446   0.439   1.650   5.182 -0.3068 -0.4932 -0.2906
   34TAL   C166  447   0.555   1.748   5.200  0.4720  0.0482 -0.0039
   34TAL   C167  448   0.685   1.671   5.194 -0.2093 -0.6588  0.5642
   34TAL   C168  449   0.787   1.763   5.121 -0.1912  0.1493 -0.3751
   34TAL   C169  450   0.934   1.715   5.075  0.0060  0.4317  0.1267
   34TAL   C170  451   1.002   1.620   5.178 -0.3659  0.2863 -0.2506
   35HTM   C171  452   0.136   1.773   5.136  0.3770 -0.4319  0.0591
   35HTM   C172  453   0.010   1.723   5.145  0.6197 -1.0785 -0.0856
   35HTM   C173  454  -0.062   1.764   5.262  0.1832 -1.2376 -0.2906
   35HTM   C174  455   0.010   1.847   5.344 -0.3924 -0.7122 -0.3026
   35HTM    S18  456   0.174   1.879   5.278 -0.4280  0.0300 -0.0537
   36TAL   C175  457  -0.203   1.712   5.309 -0.2101 -0.0002  0.1176
   36TAL   C176  458  -0.329   1.779   5.261 -0.7835 -0.3423  0.1700
   36TAL   C177  459  -0.410   1.686   5.166  0.4164 -1.1582  0.5257
   36TAL   C178  460  -0.378   1.660   5.019 -1.1061 -0.3755 -0.2937
   36TAL   C179  461  -0.354   1.773   4.919  0.2296 -1.2479  0.3548
   36TAL   C180  462  -0.264   1.718   4.808  0.5055 -0.1011  0.0985
   37HTM   C181  463  -0.029   1.913   5.465 -0.2759 -0.3592  0.1440
   37HTM   C182  464   0.016   1.894   5.592 -0.4184 -0.6946  0.1458
   37HTM   C183  465  -0.054   1.972   5.691 -0.4184 -0.8293  0.2543
   37HTM   C184  466  -0.152   2.051   5.638 -0.2757 -0.5966  0.3352
   37HTM    S19  467  -0.164   2.032   5.459 -0.1294 -0.1860  0.2804
   38TAL   C185  468  -0.006   1.975   5.837  0.5984  0.0205  0.1179
   38TAL   C186  469   0.103   1.871   5.887  0.5098 -0.9221 -0.4665
   38TAL   C187  470   0.138   1.879   6.039  0.0135 -0.0165  0.3619
   38TAL   C188  471   0.243   1.794   6.096 -0.0698  1.1332 -0.2328
   38TAL   C189  472   0.288   1.842   6.231 -0.0776  0.5977 -0.3728
   38TAL   C190  473   0.367   1.730   6.302 -0.1854 -0.1306 -0.3294
   39HTM   C191  474  -0.231   2.166   5.695  0.3658  0.5394  0.5445
   39HTM   C192  475  -0.278   2.275   5.628  0.5748  0.7237  0.6990
   39HTM   C193  476  -0.355   2.365   5.710  0.2960  0.4840  0.7007
   39HTM   C194  477  -0.367   2.323   5.840 -0.1256  0.1168  0.5474
   39HTM    S20  478  -0.282   2.167   5.868 -0.2039  0.0449  0.3878
   40TAL   C195  479  -0.396   2.507   5.653 -0.2282  0.0239  0.0823
   40TAL   C196  480  -0.492   2.512   5.535 -0.2008 -0.4553  0.3847
   40TAL   C197  481  -0.502   2.659   5.477  0.5030  0.2021  0.4582
   40TAL   C198  482  -0.452   2.665   5.337 -0.1996 -0.2656  0.8226
   40TAL   C199  483  -0.309   2.724   5.331  0.4969  1.2250  0.8427
   40TAL   C200  484  -0.226   2.670   5.212  0.6655 -0.1540 -0.2695
   41HTM   C201  485  -0.425   2.383   5.959  0.3531 -0.2272 -0.2295
   41HTM   C202  486  -0.544   2.357   6.020  0.1631 -0.1668 -0.5711
   41HTM   C203  487  -0.566   2.434   6.140 -0.1230 -0.1875 -0.6092
   41HTM   C204  488  -0.464   2.519   6.170 -0.1512 -0.2638 -0.2966
   41HTM    S21  489  -0.331   2.508   6.049  0.1843 -0.3157  0.0731
   42TAL   C205  490  -0.695   2.433   6.222  0.5945  0.1964  0.7615
   42TAL   C206  491  -0.821   2.493   6.142 -0.1386  0.1578  0.4823
   42TAL   C207  492  -0.964   2.490   6.213 -0.4448 -0.4028  1.4733
   42TAL   C208  493  -0.989   2.636   6.259 -0.7299  0.4971  0.1402
   42TAL   C209  494  -1.108   2.661   6.355  1.5603  0.1552  1.1216
   42TAL   C210  495  -1.140   2.803   6.385  0.4283  0.0950 -0.0260
   43HTM   C211  496  -0.450   2.621   6.269 -0.7266 -0.0224  0.1590
   43HTM   C212  497  -0.430   2.751   6.232 -0.2775 -0.0513  0.2861
   43HTM   C213  498  -0.442   2.845   6.341  0.5285 -0.1504  0.4762
   43HTM   C214  499  -0.472   2.786   6.461  0.6940 -0.1971  0.4942
   43HTM    S22  500  -0.486   2.607   6.445 -0.1620 -0.1189  0.2706
   44TAL   C215  501  -0.403   2.986   6.321 -0.0942 -0.4729 -0.3814
   44TAL   C216  502  -0.510   3.067   6.241 -0.5078  0.3635 -0.2481
   44TAL   C217  503  -0.486   3.223   6.242  0.5057  1.0786  0.1652
   44TAL   C218  504  -0.527   3.292   6.377  0.6205  0.8912  0.1410
   44TAL   C219  505  -0.563   3.437   6.339  0.6340  1.2018 -0.3311
   44TAL   C220  506  -0.577   3.526   6.458 -0.0848 -0.8515  0.3692
   45HTM   C221  507  -0.460   2.851   6.589  0.4717  0.2044 -0.1408
   45HTM   C222  508  -0.380   2.810   6.691  0.8997  0.4984 -0.3508
   45HTM   C223  509  -0.375   2.903   6.802  0.9284  0.5619 -0.4052
   45HTM   C224  510  -0.451   3.014   6.783  0.5225  0.3163 -0.2364
   45HTM    S23  511  -0.536   3.011   6.624  0.0689 -0.0168  0.0061
   46TAL   C225  512  -0.285   2.883   6.923 -0.2906 -0.0933  0.2184
   46TAL   C226  513  -0.271   2.744   6.972  0.2487 -0.0875 -0.3901
   46TAL   C227  514  -0.224   2.753   7.119 -0.1529 -1.2357  0.3563
   46TAL   C228  515  -0.161   2.630   7.170 -0.0639 -0.4610 -0.4219
   46TAL   C229  516  -0.130   2.631   7.315 -0.6336 -0.5468  0.7906
   46TAL   C230  517  -0.042   2.513   7.342 -0.4635  0.6553  0.6140
   47HTM   C231  518  -0.449   3.131   6.872  0.4462 -0.1571  0.4634
   47HTM   C232  519  -0.553   3.179   6.945  0.4389 -0.6428  0.7812
   47HTM   C233  520  -0.527   3.307   7.006  0.0032 -0.4817  0.6361
   47HTM   C234  521  -0.403   3.357   6.979 -0.3215  0.1270  0.2077
   47HTM    S24  522  -0.308   3.244   6.874 -0.1008  0.5472 -0.0477
   48TAL   C235  523  -0.630   3.363   7.099 -0.9228 -0.2887 -0.3975
   48TAL   C236  524  -0.780   3.349   7.074 -0.3548  0.3305  0.7599
   48TAL   C237  525  -0.856   3.362   7.204 -0.5397  0.5828 -0.5980
   48TAL   C238  526  -1.004   3.345   7.214  0.2180 -0.8281 -0.3320
   48TAL   C239  527  -1.076   3.250   7.305  0.2445 -0.1184  0.3567
   48TAL   C240  528  -1.066   3.105   7.265  1.0244 -0.7238  0.4288
    1HTM     C1  529   2.356   4.391  14.381  0.2917 -0.5256  0.3986
    1HTM     C2  530   2.303   4.336  14.494  0.7010 -0.8190  0.4499
    1HTM     C3  531   2.247   4.205  14.474  0.6293 -0.7675  0.3128
    1HTM     C4  532   2.257   4.160  14.346  0.1653 -0.4350  0.1571
    1HTM     S1  533   2.338   4.281  14.239 -0.2198 -0.1590  0.1715
    2TAL     C5  534   2.192   4.132  14.596 -0.1871  0.5942  0.0954
    2TAL     C6  535   2.093   4.018  14.570 -0.1473 -1.1568  0.2743
    2TAL     C7  536   2.076   3.922  14.690  0.2779  0.1114  0.1267
    2TAL     C8  537   2.125   3.786  14.675  0.2027  0.3728 -0.5933
    2TAL     C9  538   2.067   3.694  14.570 -0.7103  0.1269  0.1687
    2TAL    C10  539   2.172   3.594  14.556  0.3815  0.2524  0.1075
    3HTM    C11  540   2.200   4.050  14.275 -0.0952  0.1991  0.1709
    3HTM    C12  541   2.239   3.920  14.290 -0.2604  0.1131 -0.1178
    3HTM    C13  542   2.176   3.829  14.198 -0.5292  0.3678 -0.1881
    3HTM    C14  543   2.089   3.890  14.112 -0.5690  0.6481  0.0467
    3HTM     S2  544   2.079   4.067  14.141 -0.2675  0.6115  0.3774
    4TAL    C15  545   2.197   3.680  14.210 -0.0354 -0.2445  0.4391
    4TAL    C16  546   2.317   3.622  14.121 -0.7189  0.3612 -0.2296
    4TAL    C17  547   2.434   3.592  14.225  0.2685  0.1532  1.1704
    4TAL    C18  548   2.572   3.605  14.164  0.0481  0.1016  1.2994
    4TAL    C19  549   2.640   3.475  14.166 -0.2983  0.7645  0.1723
    4TAL    C20  550   2.762   3.500  14.085 -0.1345 -0.1738  0.8578
    5HTM    C21  551   2.006   3.851  14.003 -0.0956  0.0450  0.5992
    5HTM    C22  552   1.914   3.926  13.937 -0.2232  0.0736  0.8094
    5HTM    C23  553   1.832   3.851  13.845 -0.3829  0.1180  0.9136
    5HTM    C24  554   1.863   3.718  13.841 -0.3770  0.1232  0.7829
    5HTM     S3  555   1.998   3.678  13.954 -0.1677  0.0722  0.5153
    6TAL    C25  556   1.723   3.930  13.769  0.4965 -0.8563 -1.0360
    6TAL    C26  557   1.756   4.033  13.662 -1.0788 -0.5191  0.2359
    6TAL    C27  558   1.651   4.138  13.644 -0.2681  0.5394  0.5619
    6TAL    C28  559   1.678   4.222  13.520 -0.4382 -0.3638  1.3379
    6TAL    C29  560   1.794   4.315  13.517 -0.2555  0.5633 -0.6527
    6TAL    C30  561   1.853   4.322  13.379 -0.3346  0.8629  0.3256
    7HTM    C31  562   1.801   3.612  13.770 -0.1179  0.1625  0.2435
    7HTM    C32  563   1.823   3.479  13.791  0.2733  0.1909  0.0429
    7HTM    C33  564   1.767   3.394  13.689  0.4873  0.1754 -0.0632
    7HTM    C34  565   1.703   3.462  13.590  0.2593  0.1351  0.0561
    7HTM     S4  566   1.708   3.640  13.618 -0.2473  0.1136  0.3139
    8TAL    C35  567   1.787   3.248  13.702 -0.5755  0.2503  0.0666
    8TAL    C36  568   1.925   3.195  13.656  0.4547  0.6066  0.2022
    8TAL    C37  569   2.036   3.202  13.756  0.2351  0.0230 -0.5498
    8TAL    C38  570   2.172   3.155  13.705  0.2918 -0.3355  0.1459
    8TAL    C39  571   2.274   3.135  13.818  0.0979  0.0346 -0.2557
    8TAL    C40  572   2.423   3.118  13.791 -0.9442  0.3839  0.0317
    9HTM    C41  573   1.645   3.415  13.468  0.6038  0.0003 -0.3394
    9HTM    C42  574   1.597   3.491  13.366  0.6105  0.2431 -0.1638
    9HTM    C43  575   1.537   3.414  13.260 -0.0945  0.5281  0.0110
    9HTM    C44  576   1.541   3.280  13.281 -0.6389  0.5025 -0.0313
    9HTM     S5  577   1.620   3.239  13.438 -0.3006  0.1135 -0.2976
   10TAL    C45  578   1.496   3.493  13.140 -0.4970 -0.3493  0.3532
   10TAL    C46  579   1.372   3.578  13.144  1.4476  0.5409  0.2289
   10TAL    C47  580   1.247   3.498  13.180 -0.0649  0.8024 -0.5881
   10TAL    C48  581   1.165   3.558  13.290  0.8336 -0.5924  1.3725
   10TAL    C49  582   1.228   3.576  13.430  0.8304 -0.7030 -1.1431
   10TAL    C50  583   1.232   3.441  13.499  0.7123 -0.0215  0.1469
   11HTM    C51  584   1.497   3.160  13.197  0.0698  0.1662  0.1898
   11HTM    C52  585   1.459   3.039  13.246  0.4664 -0.0991 -0.1395
   11HTM    C53  586   1.410   2.948  13.146  0.6630  0.0492 -0.3726
   11HTM    C54  587   1.410   3.000  13.020  0.4163  0.4276 -0.2212
   11HTM     S6  588   1.474   3.169  13.018 -0.0874  0.6276  0.2311
   12TAL    C55  589   1.370   2.813  13.195  0.8650  0.8139  0.5903
   12TAL    C56  590   1.241   2.757  13.270 -0.0189 -0.1939  0.7997
   12TAL    C57  591   1.122   2.846  13.321 -1.2590  0.1048 -0.0722
   12TAL    C58  592   1.018   2.877  13.219 -1.0220 -0.0758  1.1466
   12TAL    C59  593   1.048   2.973  13.101 -0.0636  0.3810 -0.0732
   12TAL    C60  594   1.051   3.114  13.156  0.1592 -0.2977  0.3471
   13HTM    C61  595   1.326   2.947  12.911  0.4218  0.3795  0.3018
   13HTM    C62  596   1.337   2.821  12.860  1.3099  0.5307  0.0970
   13HTM    C63  597   1.271   2.803  12.733  1.5605  0.3086 -0.0045
   13HTM    C64  598   1.209   2.916  12.688  0.8636 -0.0121  0.1227
   13HTM     S7  599   1.230   3.054  12.802 -0.1715 -0.0587  0.3830
   14TAL    C65  600   1.253   2.667  12.672 -0.1889 -1.0547  0.3079
   14TAL    C66  601   1.362   2.601  12.601  1.3441  0.4050  0.6933
   14TAL    C67  602   1.438   2.671  12.485  0.2910  0.4526  0.1877
   14TAL    C68  603   1.528   2.597  12.376 -0.5755 -0.4364 -1.4088
   14TAL    C69  604   1.645   2.510  12.428 -0.3515 -0.5829 -0.7179
   14TAL    C70  605   1.770   2.569  12.494  0.2477 -0.2749  0.1134
   15HTM    C71  606   1.129   2.945  12.565  0.0700  0.3280 -0.2578
   15HTM    C72  607   1.002   2.907  12.534  0.0468  0.3049 -0.1359
   15HTM    C73  608   0.955   2.960  12.409 -0.0696  0.2650 -0.1094
   15HTM    C74  609   1.046   3.037  12.344 -0.1352  0.2577 -0.2113
   15HTM     S8  610   1.200   3.050  12.437 -0.0544  0.3010 -0.3496
   16TAL    C75  611   0.813   2.927  12.364 -0.4966  0.2472  0.5470
   16TAL    C76  612   0.801   2.819  12.260  0.2067 -0.4228  0.6332
   16TAL    C77  613   0.880   2.690  12.278  0.7224 -0.2754 -0.0836
   16TAL    C78  614   0.859   2.594  12.168 -0.6602  0.4452 -0.0791
   16TAL    C79  615   0.955   2.464  12.171  0.4167 -0.4717  0.3772
   16TAL    C80  616   1.107   2.496  12.180  0.7575  0.7545  0.2108
   17HTM    C81  617   1.057   3.106  12.214  0.1178 -0.1625 -0.4568
   17HTM    C82  618   0.982   3.090  12.101  0.2384 -0.2040 -0.5312
   17HTM    C83  619   1.030   3.166  11.988  0.3215 -0.1949 -0.4892
   17HTM    C84  620   1.142   3.239  12.015  0.2642 -0.1465 -0.3837
   17HTM     S9  621   1.195   3.219  12.186  0.0996 -0.1083 -0.3276
   18TAL    C85  622   0.958   3.170  11.857  0.1727  0.5858  0.7417
   18TAL    C86  623   0.882   3.047  11.796 -0.2987  0.3562 -0.1183
   18TAL    C87  624   0.865   3.048  11.644 -0.4450  1.1684  0.5510
   18TAL    C88  625   0.931   3.163  11.556  0.3026  0.3134 -0.5121
   18TAL    C89  626   0.835   3.281  11.561  0.8517 -0.1561 -0.3554
   18TAL    C90  627   0.875   3.393  11.475  0.0894 -0.4931  0.7946
   19HTM    C91  628   1.237   3.304  11.924  0.5016 -0.2298  0.2434
   19HTM    C92  629   1.202   3.383  11.819  0.1226 -0.6210  0.0670
   19HTM    C93  630   1.314   3.447  11.755 -0.1639 -0.3532 -0.1731
   19HTM    C94  631   1.434   3.417  11.812 -0.0035  0.2422 -0.1794
   19HTM    S10  632   1.415   3.304  11.951  0.5261  0.5129  0.1188
   20TAL    C95  633   1.296   3.550  11.640 -0.6310  1.2878  0.2320
   20TAL    C96  634   1.280   3.486  11.498  1.3452  0.9287 -0.0673
   20TAL    C97  635   1.374   3.547  11.397 -0.5045 -0.1082  0.3129
   20TAL    C98  636   1.307   3.590  11.274  1.0045 -0.1477  0.3086
   20TAL    C99  637   1.256   3.734  11.265 -0.5320 -0.0025  0.8560
   20TAL   C100  638   1.360   3.844  11.217  0.6427  0.8265 -1.0615
   21HTM   C101  639   1.568   3.465  11.775  0.3812 -0.5783  0.6139
   21HTM   C102  640   1.624   3.474  11.651 -0.0015 -0.1423  0.4654
   21HTM   C103  641   1.751   3.542  11.650 -0.3323  0.4910  0.1926
   21HTM   C104  642   1.792   3.584  11.773 -0.2017  0.5379  0.1333
   21HTM    S11  643   1.672   3.542  11.901  0.3533 -0.2199  0.4195
   22TAL   C105  644   1.841   3.557  11.527 -0.2455  0.0492 -0.9525
   22TAL   C106  645   1.772   3.595  11.392 -0.4208  0.9604  0.6693
   22TAL   C107  646   1.879   3.623  11.288 -0.5513 -0.4721 -0.3997
   22TAL   C108  647   1.818   3.657  11.148 -0.3472  0.0502 -0.3156
   22TAL   C109  648   1.896   3.630  11.025  0.7281 -0.6683 -0.1438
   22TAL   C110  649   1.933   3.485  10.989  1.4114  0.7601  0.1953
   23HTM   C111  650   1.912   3.660  11.812 -0.3147  0.5894  0.7680
   23HTM   C112  651   2.008   3.637  11.905 -0.3868  1.1927  1.0028
   23HTM   C113  652   2.106   3.742  11.916 -0.2034  1.1193  0.1526
   23HTM   C114  653   2.084   3.846  11.830  0.0087  0.4599 -0.7300
   23HTM    S12  654   1.937   3.818  11.729 -0.0071 -0.1239 -0.5548
   24TAL   C115  655   2.240   3.718  11.988 -0.6379  0.2510  0.3384
   24TAL   C116  656   2.233   3.624  12.103  0.2269 -0.2780  0.4244
   24TAL   C117  657   2.352   3.587  12.183  0.4106  0.0588 -0.0138
   24TAL   C118  658   2.405   3.704  12.258  0.2274  0.9311  0.0584
   24TAL   C119  659   2.523   3.657  12.347  0.3845 -1.1158 -0.5488
   24TAL   C120  660   2.553   3.762  12.462 -0.4375  0.2754  0.3891
   25HTM   C121  661   2.139   3.973  11.843 -0.4083  0.0190 -0.4351
   25HTM   C122  662   2.056   4.081  11.850 -0.2394  0.2202 -1.2946
   25HTM   C123  663   2.126   4.207  11.866 -0.0746  0.1432 -1.4026
   25HTM   C124  664   2.261   4.194  11.871 -0.1179 -0.1168 -0.6260
   25HTM    S13  665   2.312   4.021  11.856 -0.3720 -0.2856  0.3096
   26TAL   C125  666   2.034   4.327  11.840  0.0825  0.4060 -0.3575
   26TAL   C126  667   2.001   4.418  11.949 -0.5749  0.0799 -0.1250
   26TAL   C127  668   1.883   4.512  11.914 -1.3595 -0.5362  0.3307
   26TAL   C128  669   1.841   4.596  12.025  0.1032  0.7667 -1.4421
   26TAL   C129  670   1.745   4.707  12.027 -0.0207 -0.6258 -0.3726
   26TAL   C130  671   1.776   4.844  11.965 -0.0504  0.0885  0.7300
   27HTM   C131  672   2.357   4.299  11.857  0.0992  0.4209 -0.1000
   27HTM   C132  673   2.426   4.336  11.745  0.1764  0.4503 -0.0427
   27HTM   C133  674   2.502   4.457  11.762  0.4339  0.2660  0.1471
   27HTM   C134  675   2.491   4.513  11.886  0.5530  0.0962  0.2345
   27HTM    S14  676   2.383   4.415  11.992  0.3474  0.1564  0.0828
   28TAL   C135  677   2.608   4.490  11.659  0.0820 -0.9619 -0.0406
   28TAL   C136  678   2.732   4.407  11.682  0.1547  0.5285  0.0295
   28TAL   C137  679   2.856   4.447  11.592  0.6921  0.2229 -0.4739
   28TAL   C138  680   2.976   4.356  11.622 -0.0208 -0.6854  0.9708
   28TAL   C139  681   2.981   4.200  11.619  0.8444 -0.1914 -0.9159
   28TAL   C140  682   2.892   4.120  11.530  0.9182 -0.2894  0.3150
   29HTM   C141  683   2.575   4.613  11.946  0.2640  0.0144  0.0063
   29HTM   C142  684   2.707   4.645  11.932  0.3380 -0.0608  0.5209
   29HTM   C143  685   2.747   4.761  12.008  0.1769 -0.2542  0.9060
   29HTM   C144  686   2.646   4.817  12.079 -0.0200 -0.3263  0.6851
   29HTM    S15  687   2.491   4.728  12.056 -0.0171 -0.1542 -0.0321
   30TAL   C145  688   2.889   4.825  11.989  0.3875  0.1667  0.6074
   30TAL   C146  689   3.012   4.752  12.019  0.4406  0.0524  0.6950
   30TAL   C147  690   3.132   4.837  11.998  0.1271 -0.4089 -0.2062
   30TAL   C148  691   3.269   4.778  11.995 -0.0242 -0.6408  0.2527
   30TAL   C149  692   3.316   4.673  11.899 -0.3444 -0.0289  0.5229
   30TAL   C150  693   3.317   4.688  11.747 -0.2280 -0.6484  0.4426
   31HTM   C151  694   2.635   4.935  12.158 -0.5437  0.6603 -0.0528
   31HTM   C152  695   2.530   4.982  12.231 -0.3515  0.2592  0.5009
   31HTM   C153  696   2.564   5.090  12.320 -0.1158 -0.2322  1.0207
   31HTM   C154  697   2.696   5.126  12.315 -0.1283 -0.2058  0.8634
   31HTM    S16  698   2.787   5.025  12.197 -0.4412  0.4471  0.0405
   32TAL   C155  699   2.467   5.137  12.416  0.2265 -0.6286  0.4146
   32TAL   C156  700   2.435   5.062  12.546  0.0714  0.0683 -0.1200
   32TAL   C157  701   2.328   5.101  12.650  0.2273  0.9525 -0.0695
   32TAL   C158  702   2.339   4.997  12.771 -0.1982  0.1033  0.8128
   32TAL   C159  703   2.413   5.031  12.904 -0.6685  1.1550 -0.9111
   32TAL   C160  704   2.553   5.088  12.901 -0.0418  1.2905 -0.0534
   33HTM   C161  705   2.770   5.226  12.387 -0.5781  0.1896  0.0163
   33HTM   C162  706   2.905   5.223  12.401 -0.6002 -0.2220  0.1605
   33HTM   C163  707   2.959   5.335  12.475 -0.3273 -0.3279  0.1259
   33HTM   C164  708   2.864   5.423  12.516 -0.0973  0.0029 -0.0448
   33HTM    S17  709   2.698   5.372  12.466 -0.2081  0.4775 -0.1759
   34TAL   C165  710   3.117   5.350  12.468  0.6674 -0.1064 -0.5138
   34TAL   C166  711   3.186   5.297  12.585  0.0031  0.7600 -0.2794
   34TAL   C167  712   3.329   5.338  12.634  0.1412  0.0494 -0.2120
   34TAL   C168  713   3.322   5.475  12.712  0.1428  0.5819 -0.1506
   34TAL   C169  714   3.456   5.552  12.715  0.0578 -0.2221 -0.0333
   34TAL   C170  715   3.443   5.687  12.780 -0.3196  0.2673  0.7914
   35HTM   C171  716   2.865   5.552  12.577  0.2700  0.1291 -0.9422
   35HTM   C172  717   2.965   5.598  12.658  0.3775 -0.1314 -0.9241
   35HTM   C173  718   2.941   5.730  12.709  0.2982 -0.4120 -0.2177
   35HTM   C174  719   2.823   5.785  12.668  0.1302 -0.3653  0.3029
   35HTM    S18  720   2.733   5.673  12.559  0.0586  0.0397 -0.0615
   36TAL   C175  721   3.035   5.791  12.805 -0.8764  0.4929 -0.3674
   36TAL   C176  722   3.012   5.738  12.947 -1.6363 -0.0219 -0.8958
   36TAL   C177  723   3.090   5.811  13.073 -1.0098  0.2133 -0.4956
   36TAL   C178  724   3.244   5.868  13.044 -0.4553 -0.3858 -0.2832
   36TAL   C179  725   3.324   5.927  13.160  0.7169  0.0225  0.6915
   36TAL   C180  726   3.444   5.972  13.091  0.1414 -0.2789 -0.4272
   37HTM   C181  727   2.758   5.914  12.712  0.2995  0.1620  0.3167
   37HTM   C182  728   2.632   5.941  12.668  0.4402  0.2736 -0.0246
   37HTM   C183  729   2.576   6.062  12.723  0.3840  0.3030 -0.1464
   37HTM   C184  730   2.660   6.127  12.809  0.2003  0.2141  0.1017
   37HTM    S19  731   2.817   6.040  12.827  0.0833  0.0851  0.5119
   38TAL   C185  732   2.436   6.096  12.692  0.5248  0.0653  0.9959
   38TAL   C186  733   2.322   6.007  12.744  0.5678 -0.3510 -0.5600
   38TAL   C187  734   2.327   5.979  12.896  0.1579  0.0814  0.1272
   38TAL   C188  735   2.288   6.107  12.977 -0.3116  0.4340 -0.8333
   38TAL   C189  736   2.243   6.073  13.118  0.6368  0.0571 -0.1395
   38TAL   C190  737   2.224   6.198  13.192 -0.6729  0.0344 -0.1763
   39HTM   C191  738   2.654   6.264  12.868 -0.5439  0.0202 -0.6567
   39HTM   C192  739   2.556   6.331  12.933 -0.6714 -0.0777 -0.7458
   39HTM   C193  740   2.586   6.470  12.956 -0.4432 -0.2474  0.0610
   39HTM   C194  741   2.707   6.509  12.907 -0.1415 -0.2788  0.7648
   39HTM    S20  742   2.794   6.371  12.828 -0.1222 -0.0951  0.4613
   40TAL   C195  743   2.502   6.549  13.055 -0.4570 -0.0423  0.6397
   40TAL   C196  744   2.383   6.610  12.977 -0.4135  0.2588 -0.3784
   40TAL   C197  745   2.321   6.726  13.063  0.8254  0.2501 -0.1408
   40TAL   C198  746   2.171   6.757  13.054 -0.0210 -0.4159 -0.5060
   40TAL   C199  747   2.071   6.648  13.117 -0.9258 -0.4517  0.2847
   40TAL   C200  748   1.923   6.680  13.130  0.0967  0.0558 -0.5740
   41HTM   C201  749   2.749   6.646  12.884  0.4545 -0.6118 -0.4705
   41HTM   C202  750   2.821   6.722  12.972  0.6406 -0.8831 -0.3862
   41HTM   C203  751   2.853   6.853  12.923  0.2711 -0.6195  0.0658
   41HTM   C204  752   2.806   6.878  12.798 -0.1968 -0.1470  0.3260
   41HTM    S21  753   2.717   6.736  12.731 -0.2071  0.0026  0.0179
   42TAL   C205  754   2.913   6.962  13.018  0.2021 -0.1419  0.2758
   42TAL   C206  755   3.049   6.942  13.071 -0.0304 -0.1507  0.3420
   42TAL   C207  756   3.101   7.044  13.169 -0.5510 -0.1514 -1.1196
   42TAL   C208  757   3.182   6.978  13.290 -1.0073 -0.1931 -0.4686
   42TAL   C209  758   3.236   7.085  13.389 -1.1366 -1.0065 -0.1048
   42TAL   C210  759   3.138   7.187  13.450  0.3796  0.3656  1.4470
   43HTM   C211  760   2.808   7.000  12.709 -0.4692  0.3147 -0.3055
   43HTM   C212  761   2.746   7.009  12.588 -0.7249  0.5299 -0.1614
   43HTM   C213  762   2.761   7.138  12.525 -0.5258  0.5199 -0.1378
   43HTM   C214  763   2.833   7.227  12.599 -0.1182  0.2972 -0.2638
   43HTM    S22  764   2.890   7.155  12.754  0.0471  0.0812 -0.4234
   44TAL   C215  765   2.723   7.168  12.378  0.5138 -1.1213  0.1230
   44TAL   C216  766   2.650   7.049  12.316 -0.0557 -0.1695  1.1654
   44TAL   C217  767   2.613   7.063  12.166  0.3164  0.9028  0.1792
   44TAL   C218  768   2.527   7.188  12.126 -0.3714 -0.5542 -0.1286
   44TAL   C219  769   2.398   7.222  12.180  1.3223  0.1201 -0.1448
   44TAL   C220  770   2.286   7.177  12.088 -0.1573 -0.0297 -0.3418
   45HTM   C221  771   2.858   7.367  12.589  0.7251 -0.0848 -0.3909
   45HTM   C222  772   2.839   7.457  12.691  1.4202 -0.4236  0.0498
   45HTM   C223  773   2.867   7.593  12.654  1.3200 -0.3172  0.3631
   45HTM   C224  774   2.907   7.608  12.524  0.5483  0.1030  0.1612
   45HTM    S23  775   2.913   7.450  12.438 -0.1168  0.3989 -0.4449
   46TAL   C225  776   2.843   7.697  12.759  0.9357 -0.2533 -0.0806
   46TAL   C226  777   2.962   7.709  12.851 -0.5887 -0.3619  0.2381
   46TAL   C227  778   2.943   7.817  12.958 -0.1274 -0.0438 -0.8777
   46TAL   C228  779   3.081   7.881  13.019 -0.4201  0.1447  0.3012
   46TAL   C229  780   3.174   7.961  12.921  0.3683 -0.7112 -0.1002
   46TAL   C230  781   3.096   8.065  12.833 -0.6948 -0.3296  0.6138
   47HTM   C231  782   2.937   7.729  12.448  0.0619  0.2367 -0.7690
   47HTM   C232  783   2.866   7.789  12.349  0.3100  0.9211 -0.5393
   47HTM   C233  784   2.935   7.898  12.286  0.5322  1.2699  0.2766
   47HTM   C234  785   3.060   7.921  12.336  0.4535  0.8514  0.6691
   47HTM    S24  786   3.099   7.805  12.469  0.0899 -0.0224  0.0344
   48TAL   C235  787   2.852   7.988  12.197 -0.5333  0.5548 -0.3382
   48TAL   C236  788   2.739   7.940  12.112 -0.7996  0.3123 -0.2049
   48TAL   C237  789   2.652   8.040  12.039 -0.6279 -0.1637 -0.4017
   48TAL   C238  790   2.742   8.095  11.925  1.1374  0.7007  0.0405
   48TAL   C239  791   2.691   8.223  11.856 -0.2732  0.2535  0.5080
   48TAL   C240  792   2.682   8.359  11.924 -0.0661 -0.7157  1.5913
    1HTM     C1  793   0.904   3.981   8.821 -0.3123 -0.2458  0.2304
    1HTM     C2  794   0.845   4.006   8.941  0.1086 -0.5864  0.5138
    1HTM     C3  795   0.897   4.122   9.008  0.1769 -0.6384  0.5522
    1HTM     C4  796   0.995   4.186   8.939 -0.1918 -0.3374  0.2977
    1HTM     S1  797   1.031   4.104   8.783 -0.6576  0.0378 -0.0121
    2TAL     C5  798   0.841   4.171   9.135 -0.8670  0.9197  0.4262
    2TAL     C6  799   0.918   4.111   9.261 -0.0790 -0.5176  0.3413
    2TAL     C7  800   0.900   4.207   9.382 -0.0423 -0.3728 -0.6498
    2TAL     C8  801   1.006   4.316   9.394  0.9280 -0.4279  0.2974
    2TAL     C9  802   0.997   4.401   9.522  0.7525 -0.7067 -0.1405
    2TAL    C10  803   1.111   4.497   9.503 -0.0275 -0.3119 -0.1051
    3HTM    C11  804   1.063   4.316   8.957  0.6679  0.5995 -1.5194
    3HTM    C12  805   1.016   4.443   8.946  1.2388  0.8091 -1.6079
    3HTM    C13  806   1.112   4.544   8.983  1.2933  0.3570 -0.4327
    3HTM    C14  807   1.232   4.493   9.022  0.7640 -0.1973  0.5513
    3HTM     S2  808   1.233   4.313   9.015  0.1509 -0.1913  0.0662
    4TAL    C15  809   1.076   4.685   8.976 -0.0224  0.2098 -0.9740
    4TAL    C16  810   0.961   4.743   8.889  0.0441 -1.2625 -0.1957
    4TAL    C17  811   0.930   4.894   8.904 -1.0914  0.6621  0.6527
    4TAL    C18  812   1.033   4.996   8.961  0.1893  0.3456 -0.2135
    4TAL    C19  813   1.105   5.067   8.855  0.0980 -0.6088  0.6462
    4TAL    C20  814   1.216   5.004   8.778 -0.7091  0.3753  0.3319
    5HTM    C21  815   1.356   4.556   9.071  0.1801 -0.4474  0.2930
    5HTM    C22  816   1.485   4.515   9.051  0.1921 -0.4791  0.4385
    5HTM    C23  817   1.582   4.605   9.107  0.1553 -0.4300  0.4239
    5HTM    C24  818   1.528   4.714   9.169  0.1151 -0.3608  0.2678
    5HTM     S3  819   1.348   4.711   9.161  0.1208 -0.3522  0.1257
    6TAL    C25  820   1.731   4.572   9.099 -0.2621  0.8063 -0.7313
    6TAL    C26  821   1.801   4.598   8.974 -1.0532 -0.5502 -0.1152
    6TAL    C27  822   1.948   4.578   8.997 -0.6878  0.0934 -0.2199
    6TAL    C28  823   2.039   4.573   8.866  0.4012 -0.0057 -0.6339
    6TAL    C29  824   2.073   4.695   8.786 -0.0673 -1.0074 -0.8140
    6TAL    C30  825   2.188   4.654   8.691 -0.4753 -0.3049 -0.5640
    7HTM    C31  826   1.584   4.817   9.262  0.1716  0.2001  0.3144
    7HTM    C32  827   1.534   4.942   9.283  0.4318  0.3388  0.1261
    7HTM    C33  828   1.625   5.030   9.351  0.6019  0.2402  0.0281
    7HTM    C34  829   1.745   4.973   9.381  0.4712  0.0265  0.1413
    7HTM     S4  830   1.752   4.801   9.326  0.1206 -0.0674  0.3827
    8TAL    C35  831   1.578   5.166   9.391  0.4061  0.5632  0.4297
    8TAL    C36  832   1.493   5.171   9.519  0.0161 -1.0311  0.4722
    8TAL    C37  833   1.552   5.175   9.661 -0.9679 -0.3340  0.4333
    8TAL    C38  834   1.643   5.298   9.696 -0.4695 -0.0183 -0.8535
    8TAL    C39  835   1.681   5.332   9.841 -0.6062  0.1067  0.5589
    8TAL    C40  836   1.564   5.395   9.924 -1.6207 -0.6998  0.3248
    9HTM    C41  837   1.866   5.019   9.448  0.0964 -0.0955  0.3854
    9HTM    C42  838   1.944   4.940   9.528  0.5469  0.1705  0.2182
    9HTM    C43  839   2.070   5.000   9.563  0.4757  0.5569 -0.1624
    9HTM    C44  840   2.089   5.124   9.510 -0.0289  0.5856 -0.2862
    9HTM     S5  841   1.948   5.176   9.411 -0.4567  0.1232  0.0715
   10TAL    C45  842   2.168   4.932   9.658 -0.6505 -1.3823 -0.6404
   10TAL    C46  843   2.132   4.934   9.803  0.1129 -0.3376 -0.6007
   10TAL    C47  844   2.063   5.058   9.859  0.3363  0.3272 -0.0786
   10TAL    C48  845   2.064   5.087  10.013  0.3865 -0.0582  0.2950
   10TAL    C49  846   2.073   5.242  10.031 -1.0471  0.7683 -0.9812
   10TAL    C50  847   2.135   5.283  10.164 -1.1532 -0.4888 -0.0882
   11HTM    C51  848   2.203   5.209   9.514  0.0472 -0.2524 -0.0572
   11HTM    C52  849   2.244   5.281   9.406  0.2684 -0.4222 -0.0889
   11HTM    C53  850   2.372   5.345   9.424  0.4141 -0.7157 -0.0770
   11HTM    C54  851   2.429   5.320   9.546  0.3039 -0.7699 -0.0363
   11HTM     S6  852   2.324   5.215   9.648  0.0054 -0.4518 -0.0092
   12TAL    C55  853   2.414   5.443   9.308  0.5945 -1.0756 -0.4133
   12TAL    C56  854   2.368   5.590   9.318 -0.2013  0.3996 -0.4873
   12TAL    C57  855   2.457   5.672   9.411  0.3570  0.9637  0.3322
   12TAL    C58  856   2.418   5.817   9.407  0.2298 -0.6488 -0.4971
   12TAL    C59  857   2.445   5.909   9.293 -0.7434  0.6768  0.2905
   12TAL    C60  858   2.557   5.868   9.197  0.2630 -0.4653 -0.3169
   13HTM    C61  859   2.548   5.379   9.606 -0.1215  0.1016  0.2255
   13HTM    C62  860   2.663   5.427   9.550  0.0306  0.0859  0.5221
   13HTM    C63  861   2.768   5.452   9.646 -0.0871 -0.2786  0.7515
   13HTM    C64  862   2.732   5.423   9.775 -0.3289 -0.5411  0.6291
   13HTM     S7  863   2.563   5.362   9.785 -0.4275 -0.3466  0.2121
   14TAL    C65  864   2.884   5.525   9.593 -1.5549 -0.4562 -0.0583
   14TAL    C66  865   2.875   5.657   9.522 -0.4547  0.0871 -0.2059
   14TAL    C67  866   2.796   5.768   9.591  0.4344 -0.0502  0.5082
   14TAL    C68  867   2.783   5.905   9.536 -0.9784  0.1867 -0.1831
   14TAL    C69  868   2.904   5.993   9.527 -1.1494 -0.8386  0.6723
   14TAL    C70  869   2.870   6.128   9.467 -0.1334  0.5088  0.0983
   15HTM    C71  870   2.811   5.426   9.894  0.4430 -0.2262 -1.1860
   15HTM    C72  871   2.777   5.352  10.003 -0.0861 -0.3061 -1.3981
   15HTM    C73  872   2.879   5.350  10.105 -0.7473 -0.0198 -0.7141
   15HTM    C74  873   2.990   5.422  10.074 -0.7224  0.2784  0.0192
   15HTM     S8  874   2.975   5.500   9.911  0.1449  0.2207 -0.0979
   16TAL    C75  875   2.876   5.279  10.234  0.1788  0.0453  0.4594
   16TAL    C76  876   2.847   5.130  10.217 -0.2276  0.0956 -0.1215
   16TAL    C77  877   2.952   5.046  10.290  0.1132 -0.2691 -0.7230
   16TAL    C78  878   3.011   4.943  10.190 -0.6056  0.4380  0.2345
   16TAL    C79  879   2.913   4.845  10.145  0.2098 -0.2145  0.8329
   16TAL    C80  880   2.971   4.719  10.084  0.4637  0.2218  0.3262
   17HTM    C81  881   3.104   5.458  10.144  0.0059 -0.2790  0.5536
   17HTM    C82  882   3.215   5.387  10.181 -0.1875 -0.1743  1.3888
   17HTM    C83  883   3.322   5.469  10.232 -0.4154 -0.0057  1.6017
   17HTM    C84  884   3.292   5.602  10.234 -0.3958  0.0181  0.9290
   17HTM     S9  885   3.126   5.635  10.172 -0.0856 -0.1721 -0.0331
   18TAL    C85  886   3.466   5.415  10.251  0.6358 -0.1978 -0.5498
   18TAL    C86  887   3.511   5.278  10.206  0.0203  0.4242 -0.1810
   18TAL    C87  888   3.513   5.224  10.061  0.8113 -0.4649 -0.5591
   18TAL    C88  889   3.617   5.271   9.966  1.1572 -0.3328  0.9150
   18TAL    C89  890   3.636   5.188   9.840 -0.4022  0.4795  0.1289
   18TAL    C90  891   3.733   5.076   9.853 -0.4869  0.4144  0.7919
   19HTM    C91  892   3.366   5.707  10.290  0.1504  0.3032 -0.1493
   19HTM    C92  893   3.340   5.757  10.414 -0.2183  0.8112 -0.4263
   19HTM    C93  894   3.444   5.841  10.466 -0.3247  0.9371 -0.4148
   19HTM    C94  895   3.550   5.855  10.381 -0.0372  0.5251 -0.1293
   19HTM    S10  896   3.526   5.762  10.229  0.3935 -0.0584  0.1497
   20TAL    C95  897   3.438   5.904  10.606  0.0992  0.3319 -0.0586
   20TAL    C96  898   3.419   5.811  10.736  0.1105  0.0359  1.0992
   20TAL    C97  899   3.548   5.793  10.798 -0.0414  0.2654 -0.5520
   20TAL    C98  900   3.602   5.928  10.861  0.0665 -0.2901  1.3711
   20TAL    C99  901   3.721   5.926  10.964  0.5575 -0.0625 -0.3363
   20TAL   C100  902   3.845   5.873  10.893  0.4107 -0.3080 -0.1676
   21HTM   C101  903   3.684   5.918  10.395 -0.0256  0.3996 -0.5679
   21HTM   C102  904   3.749   5.980  10.497  0.0282 -0.0224 -0.3421
   21HTM   C103  905   3.883   6.022  10.464  0.2408 -0.4491 -0.0360
   21HTM   C104  906   3.920   5.991  10.336  0.3492 -0.3525 -0.0282
   21HTM    S11  907   3.787   5.907  10.247  0.1899  0.2898 -0.4097
   22TAL   C105  908   3.953   6.085  10.589  0.4891 -0.2476  0.5185
   22TAL   C106  909   4.055   6.204  10.581  0.2000 -0.2287 -0.0001
   22TAL   C107  910   3.975   6.337  10.580 -0.2883 -0.1152  0.4208
   22TAL   C108  911   4.057   6.470  10.559  0.0544  0.4102 -0.9934
   22TAL   C109  912   4.007   6.598  10.628  0.4999 -0.0823 -0.2958
   22TAL   C110  913   3.858   6.629  10.596 -0.5679 -0.0905 -0.5084
   23HTM   C111  914   4.045   6.017  10.267 -0.0245  0.2868 -0.1214
   23HTM   C112  915   4.115   6.131  10.237  0.1966  0.1884  0.0238
   23HTM   C113  916   4.244   6.105  10.178  0.1985  0.0103  0.1040
   23HTM   C114  917   4.272   5.973  10.163 -0.0210 -0.0270  0.0194
   23HTM    S12  918   4.137   5.869  10.222 -0.2488  0.1614 -0.1688
   24TAL   C115  919   4.338   6.218  10.188 -0.8649 -0.1792  0.1587
   24TAL   C116  920   4.401   6.255  10.328 -0.2329 -0.2997 -1.0101
   24TAL   C117  921   4.493   6.385  10.326 -0.2769  0.8010  0.1850
   24TAL   C118  922   4.423   6.507  10.285  0.0808  0.1548 -0.6970
   24TAL   C119  923   4.507   6.632  10.301 -0.4463 -0.6355  0.0051
   24TAL   C120  924   4.432   6.759  10.253 -0.0308 -0.6235  0.0497
   25HTM   C121  925   4.396   5.910  10.131 -0.1667  0.2885 -0.1070
   25HTM   C122  926   4.425   5.777  10.144 -0.1538  0.3273  0.2844
   25HTM   C123  927   4.551   5.739  10.087 -0.0994  0.1893  0.4933
   25HTM   C124  928   4.619   5.843  10.030 -0.0711  0.0452  0.2611
   25HTM    S13  929   4.528   5.998  10.045 -0.1107  0.0728 -0.2439
   26TAL   C125  930   4.583   5.587  10.087 -0.1667 -1.1920  0.0020
   26TAL   C126  931   4.513   5.492  10.187 -0.5162 -0.8905 -0.0353
   26TAL   C127  932   4.539   5.352  10.159  0.0690  0.9097  0.1772
   26TAL   C128  933   4.563   5.246  10.272  0.7960 -0.3787  0.0937
   26TAL   C129  934   4.693   5.265  10.345  0.3006  0.1215  0.0023
   26TAL   C130  935   4.688   5.153  10.461  0.3072 -0.1464 -0.0458
   27HTM   C131  936   4.743   5.850   9.957  0.0817 -0.3394 -0.1405
   27HTM   C132  937   4.855   5.774   9.969  0.0726 -0.3666 -0.2215
   27HTM   C133  938   4.970   5.828   9.902  0.0416 -0.3847 -0.2887
   27HTM   C134  939   4.945   5.946   9.837  0.0272 -0.3715 -0.2586
   27HTM    S14  940   4.774   5.997   9.858  0.0518 -0.3347 -0.1428
   28TAL   C135  941   5.106   5.765   9.903  0.1030  1.9786  1.0362
   28TAL   C136  942   5.145   5.672  10.020  0.7917  0.0589  0.6620
   28TAL   C137  943   5.161   5.742  10.150  0.0139 -0.2495  0.8021
   28TAL   C138  944   5.196   5.636  10.252  0.8885  0.2919 -0.4698
   28TAL   C139  945   5.323   5.549  10.240 -0.0997 -0.4125  0.6031
   28TAL   C140  946   5.352   5.465  10.355 -0.1018 -0.4806 -0.9368
   29HTM   C141  947   5.025   6.037   9.763 -0.4791  0.5663  0.4020
   29HTM   C142  948   5.002   6.080   9.636 -0.6130  1.1662  0.6230
   29HTM   C143  949   5.116   6.145   9.576 -0.4494  0.8428  0.5760
   29HTM   C144  950   5.225   6.152   9.658 -0.1908 -0.0038  0.3193
   29HTM    S15  951   5.192   6.075   9.818 -0.1334 -0.4618  0.1154
   30TAL   C145  952   5.098   6.193   9.434 -0.2516 -0.5065 -0.3922
   30TAL   C146  953   5.063   6.096   9.323  0.3535 -0.1531  0.0241
   30TAL   C147  954   5.157   6.125   9.214  0.2729  0.8552  0.8785
   30TAL   C148  955   5.099   6.115   9.065 -0.3303  0.1375 -0.2614
   30TAL   C149  956   5.005   6.211   9.030  0.5365 -0.5934  0.0248
   30TAL   C150  957   4.955   6.179   8.890  0.0054 -1.1321 -0.7769
   31HTM   C151  958   5.365   6.190   9.618  0.1865 -0.0858 -0.6087
   31HTM   C152  959   5.436   6.158   9.506  0.2487 -0.3717 -0.4890
   31HTM   C153  960   5.574   6.199   9.511  0.3239 -0.6311 -0.3934
   31HTM   C154  961   5.608   6.263   9.626  0.3193 -0.5433 -0.4400
   31HTM    S16  962   5.468   6.276   9.739  0.2187 -0.1228 -0.6101
   32TAL   C155  963   5.662   6.178   9.391 -0.5957 -0.1297  0.8745
   32TAL   C156  964   5.714   6.034   9.369  1.2406 -0.1149 -0.2142
   32TAL   C157  965   5.778   5.968   9.498 -0.2905 -0.3445 -0.3205
   32TAL   C158  966   5.784   5.811   9.518 -0.8439  0.0496  0.2270
   32TAL   C159  967   5.878   5.739   9.414  0.6866 -0.6545  0.2215
   32TAL   C160  968   6.021   5.780   9.373 -0.7613  0.5671  0.5446
   33HTM   C161  969   5.735   6.329   9.659  0.5278 -0.2200 -0.0978
   33HTM   C162  970   5.818   6.310   9.766  1.1486 -0.8012 -0.6642
   33HTM   C163  971   5.927   6.404   9.772  1.2066 -0.8594 -0.8039
   33HTM   C164  972   5.927   6.495   9.670  0.6302 -0.3222 -0.3441
   33HTM    S17  973   5.789   6.468   9.557 -0.0359  0.3033  0.3062
   34TAL   C165  974   6.031   6.394   9.888 -0.5408  0.1132  0.2146
   34TAL   C166  975   6.028   6.298  10.009  0.6201 -1.1051 -0.8814
   34TAL   C167  976   5.986   6.153   9.974 -0.4357  0.3057 -0.0562
   34TAL   C168  977   6.085   6.049   9.938 -0.5211 -0.0442 -0.0139
   34TAL   C169  978   6.091   6.027   9.787 -0.6543 -0.4276 -0.1467
   34TAL   C170  979   6.151   5.898   9.731 -0.2453  0.3932 -0.6720
   35HTM   C171  980   6.013   6.602   9.648  0.1991  0.0483  0.0655
   35HTM   C172  981   6.013   6.730   9.694 -0.0408  0.1448 -0.1996
   35HTM   C173  982   6.117   6.812   9.637 -0.0328  0.1523 -0.1740
   35HTM   C174  983   6.197   6.746   9.548  0.2132  0.0617  0.1105
   35HTM    S18  984   6.146   6.574   9.529  0.4556 -0.0412  0.3704
   36TAL   C175  985   6.129   6.955   9.662 -0.1813 -0.1596  1.1922
   36TAL   C176  986   6.028   7.040   9.597  0.1631 -0.3079  0.4243
   36TAL   C177  987   6.051   7.185   9.616 -0.9924 -0.4784 -0.3147
   36TAL   C178  988   5.949   7.292   9.584  0.7094  0.3558 -0.2432
   36TAL   C179  989   5.975   7.426   9.654  0.5243  0.5311  1.1437
   36TAL   C180  990   5.857   7.520   9.632  0.3848 -0.8903  0.0339
   37HTM   C181  991   6.313   6.774   9.463  0.5535 -0.0109 -0.2392
   37HTM   C182  992   6.408   6.686   9.420  0.9443  0.3250 -0.0739
   37HTM   C183  993   6.498   6.740   9.322  0.7572  0.5637 -0.1140
   37HTM   C184  994   6.472   6.870   9.289  0.2238  0.4096 -0.3102
   37HTM    S19  995   6.330   6.934   9.381 -0.0861 -0.0521 -0.4600
   38TAL   C185  996   6.595   6.635   9.268  0.0372  0.5127 -0.4483
   38TAL   C186  997   6.684   6.637   9.138 -0.2168  0.0594 -0.2664
   38TAL   C187  998   6.735   6.503   9.086  0.2918  0.7040 -0.7274
   38TAL   C188  999   6.808   6.421   9.185 -0.5876 -0.2430 -0.6455
   38TAL   C189 1000   6.869   6.288   9.136  0.1952  0.4511 -0.0728
   38TAL   C190 1001   6.775   6.166   9.109 -0.1174  0.4213 -0.0064
   39HTM   C191 1002   6.541   6.969   9.210 -0.0908  0.1478 -0.6374
   39HTM   C192 1003   6.484   7.012   9.093 -0.1283  0.4987 -0.4935
   39HTM   C193 1004   6.571   7.093   9.012 -0.1281  0.6796 -0.3154
   39HTM   C194 1005   6.694   7.112   9.066 -0.0905  0.4669 -0.3241
   39HTM    S20 1006   6.711   7.029   9.225 -0.0518  0.0178 -0.5589
   40TAL   C195 1007   6.537   7.134   8.874 -1.2702  0.6464  0.0371
   40TAL   C196 1008   6.393   7.153   8.823  0.2875 -0.4709 -0.4681
   40TAL   C197 1009   6.398   7.156   8.678  0.5286  0.1627 -0.0544
   40TAL   C198 1010   6.270   7.202   8.623  0.5735 -0.0984 -0.0718
   40TAL   C199 1011   6.248   7.240   8.479 -0.1035  0.2998 -0.7674
   40TAL   C200 1012   6.298   7.374   8.455  0.2382  0.3447 -0.2123
   41HTM   C201 1013   6.817   7.173   9.009 -0.0357  0.2593 -0.1299
   41HTM   C202 1014   6.829   7.294   8.947  0.5325  0.2865  0.0184
   41HTM   C203 1015   6.964   7.329   8.913  0.7335 -0.1700  0.3333
   41HTM   C204 1016   7.056   7.235   8.950  0.3184 -0.5452  0.4252
   41HTM    S21 1017   6.977   7.094   9.030 -0.3635 -0.3496  0.1189
   42TAL   C205 1018   7.004   7.458   8.841 -0.9802  1.0160 -0.9504
   42TAL   C206 1019   6.898   7.570   8.861  0.1088 -0.4462 -0.3757
   42TAL   C207 1020   6.824   7.641   8.750  0.2509  0.5219 -0.4121
   42TAL   C208 1021   6.770   7.541   8.645 -0.0249  0.6214 -0.3450
   42TAL   C209 1022   6.673   7.596   8.539 -0.9088 -0.1891  0.6119
   42TAL   C210 1023   6.545   7.656   8.576 -0.0223  0.5057 -0.3336
   43HTM   C211 1024   7.196   7.228   8.942  0.2120  0.1699 -0.1622
   43HTM   C212 1025   7.274   7.130   8.887  0.5339  0.2240  0.1924
   43HTM   C213 1026   7.415   7.157   8.897  0.4827  0.2698  0.9379
   43HTM   C214 1027   7.445   7.275   8.959  0.1218  0.2506  1.1517
   43HTM    S22 1028   7.295   7.362   9.011 -0.1836  0.1726  0.4218
   44TAL   C215 1029   7.521   7.073   8.839  0.1745  0.6531 -0.0776
   44TAL   C216 1030   7.513   6.997   8.707 -0.8816  0.6619  0.1473
   44TAL   C217 1031   7.425   7.047   8.592 -0.0448  0.1667 -0.0954
   44TAL   C218 1032   7.448   7.190   8.544  0.2097 -0.6072  0.2875
   44TAL   C219 1033   7.328   7.260   8.476  0.2500 -0.6790  0.2441
   44TAL   C220 1034   7.189   7.243   8.547 -0.1731 -0.8665  0.5889
   45HTM   C221 1035   7.561   7.343   8.980 -0.4046 -0.0091 -0.0002
   45HTM   C222 1036   7.565   7.463   9.045 -0.3951 -0.1603  0.2828
   45HTM   C223 1037   7.692   7.530   9.035 -0.3756 -0.1650  0.4787
   45HTM   C224 1038   7.785   7.461   8.962 -0.3704 -0.0174  0.3447
   45HTM    S23 1039   7.719   7.305   8.901 -0.3897  0.1402 -0.0419
   46TAL   C225 1040   7.721   7.676   9.088 -0.6616  0.8554 -0.5969
   46TAL   C226 1041   7.628   7.767   9.157  0.8058  0.1761  1.1181
   46TAL   C227 1042   7.495   7.786   9.090 -0.1561  0.3933 -0.2881
   46TAL   C228 1043   7.377   7.771   9.189  0.0384 -0.0824 -0.2774
   46TAL   C229 1044   7.255   7.799   9.124 -0.1092  0.3439  0.4945
   46TAL   C230 1045   7.141   7.796   9.218 -0.1798  0.8372 -0.2369
   47HTM   C231 1046   7.915   7.486   8.908 -0.2210  0.2371 -0.0523
   47HTM   C232 1047   8.031   7.447   8.969 -0.3711  0.4454  0.3803
   47HTM   C233 1048   8.149   7.510   8.915 -0.2413  0.3140  0.5078
   47HTM   C234 1049   8.122   7.598   8.813  0.0077  0.0056  0.1723
   47HTM    S24 1050   7.946   7.607   8.778  0.0984 -0.1440 -0.3342
   48TAL   C235 1051   8.288   7.483   8.963 -0.7885  0.6367  1.1266
   48TAL   C236 1052   8.405   7.554   8.917 -1.1404 -0.2481 -0.3782
   48TAL   C237 1053   8.533   7.514   9.002 -0.1169 -0.7343  0.2173
   48TAL   C238 1054   8.665   7.578   8.938 -0.3243  0.7653 -0.1525
   48TAL   C239 1055   8.776   7.549   9.043 -0.2521 -0.1562  0.5584
   48TAL   C240 1056   8.864   7.424   9.006  0.4073  0.6419 -0.5719
    1HTM     C1 1057   0.487   4.212  18.688  0.1190  0.2717 -0.0052
    1HTM     C2 1058   0.424   4.324  18.736  0.1628  0.3474 -0.1216
    1HTM     C3 1059   0.443   4.441  18.654  0.2708  0.2724 -0.2055
    1HTM     C4 1060   0.519   4.419  18.544  0.3093  0.1398 -0.1528
    1HTM     S1 1061   0.574   4.247  18.534  0.2114  0.0988  0.0072
    2TAL     C5 1062   0.379   4.573  18.689  0.0832 -0.3418  0.0091
    2TAL     C6 1063   0.410   4.621  18.830 -0.3589  0.0070 -0.3873
    2TAL     C7 1064   0.346   4.754  18.870 -0.2831  0.1518 -0.3977
    2TAL     C8 1065   0.402   4.833  18.990  0.1596  0.9720  0.4472
    2TAL     C9 1066   0.522   4.919  18.962 -0.5476  0.2497  1.5822
    2TAL    C10 1067   0.523   5.037  19.046 -0.2595 -0.1359 -1.1317
    3HTM    C11 1068   0.529   4.501  18.427  0.0034 -0.8724 -0.2414
    3HTM    C12 1069   0.620   4.601  18.410 -0.1449 -0.5647  0.6652
    3HTM    C13 1070   0.606   4.672  18.285  0.2927 -0.0166  0.9155
    3HTM    C14 1071   0.504   4.625  18.207  0.7745  0.0938  0.2007
    3HTM     S2 1072   0.418   4.488  18.286  0.7126 -0.4906 -0.8525
    4TAL    C15 1073   0.676   4.808  18.237  0.2850 -0.1730  0.4457
    4TAL    C16 1074   0.763   4.863  18.349 -0.0877  0.2541  0.2020
    4TAL    C17 1075   0.816   4.998  18.330  0.0616 -0.8801 -0.2528
    4TAL    C18 1076   0.911   5.003  18.200  1.0505 -0.4297  0.5675
    4TAL    C19 1077   1.018   5.116  18.195  0.3631 -0.0394  0.2286
    4TAL    C20 1078   1.104   5.102  18.075 -0.3365  0.3597  0.0345
    5HTM    C21 1079   0.461   4.651  18.068  0.5260 -0.7844 -0.5102
    5HTM    C22 1080   0.520   4.730  17.974  0.8761 -1.2485 -0.6866
    5HTM    C23 1081   0.439   4.752  17.857  0.7353 -0.6934 -0.4878
    5HTM    C24 1082   0.318   4.691  17.862  0.2778  0.1941 -0.1592
    5HTM     S3 1083   0.296   4.598  18.016 -0.0130  0.3991 -0.0745
    6TAL    C25 1084   0.493   4.839  17.737  0.7804  0.3747 -0.8122
    6TAL    C26 1085   0.508   4.987  17.772  0.5593 -0.4605  0.7079
    6TAL    C27 1086   0.387   5.076  17.771 -0.6617  0.0023  0.2827
    6TAL    C28 1087   0.382   5.154  17.638 -0.9011 -0.5942 -0.9629
    6TAL    C29 1088   0.248   5.177  17.568 -0.0176 -0.6398  0.5298
    6TAL    C30 1089   0.243   5.296  17.476 -1.0842 -0.6989  0.1483
    7HTM    C31 1090   0.201   4.684  17.774  0.0825  0.3781  0.8090
    7HTM    C32 1091   0.101   4.591  17.779  0.4400 -0.0260  0.6251
    7HTM    C33 1092   0.012   4.596  17.665  1.0332 -0.8596  0.1059
    7HTM    C34 1093   0.045   4.691  17.574  1.1278 -1.0913 -0.1066
    7HTM     S4 1094   0.191   4.784  17.625  0.4702 -0.2682  0.3372
    8TAL    C35 1095  -0.088   4.490  17.646  0.4829  0.0989 -0.6142
    8TAL    C36 1096  -0.179   4.475  17.766  0.1494  0.4963  0.0547
    8TAL    C37 1097  -0.285   4.372  17.745  0.0887  0.0155 -0.2117
    8TAL    C38 1098  -0.328   4.290  17.865  0.5489  0.1116 -1.2688
    8TAL    C39 1099  -0.460   4.200  17.841 -0.5404  0.7393 -0.4178
    8TAL    C40 1100  -0.489   4.098  17.956 -0.1197  0.0029  0.1917
    9HTM    C41 1101  -0.021   4.725  17.448 -0.3533 -0.1687  0.6289
    9HTM    C42 1102   0.058   4.759  17.342  0.1646  0.1014  1.0915
    9HTM    C43 1103  -0.015   4.784  17.221  0.7272  0.6868  0.8602
    9HTM    C44 1104  -0.150   4.769  17.234  0.6384  0.8631  0.2207
    9HTM     S5 1105  -0.195   4.721  17.402 -0.1691  0.2990 -0.1415
   10TAL    C45 1106   0.051   4.801  17.090  0.6623  0.6275  1.1164
   10TAL    C46 1107   0.063   4.928  17.021  0.1018 -0.6635  0.6859
   10TAL    C47 1108   0.116   5.048  17.104  0.8833  0.6978 -0.2661
   10TAL    C48 1109   0.022   5.166  17.070  0.8888 -0.4359 -0.1965
   10TAL    C49 1110   0.061   5.228  16.937  0.4084 -0.6575 -0.0213
   10TAL    C50 1111   0.006   5.344  16.873  0.4152 -0.9445 -0.3866
   11HTM    C51 1112  -0.262   4.772  17.139 -0.1232 -0.1884  0.0292
   11HTM    C52 1113  -0.339   4.668  17.097  0.2068 -0.2555 -0.4311
   11HTM    C53 1114  -0.434   4.704  16.995  0.4882 -0.2418 -0.6909
   11HTM    C54 1115  -0.429   4.835  16.959  0.3726 -0.1640 -0.4283
   11HTM     S6 1116  -0.303   4.924  17.051 -0.1043 -0.1015  0.1711
   12TAL    C55 1117  -0.551   4.607  16.961 -0.0203  1.8458 -0.2223
   12TAL    C56 1118  -0.682   4.663  17.015  0.0706  0.3349  0.2327
   12TAL    C57 1119  -0.726   4.640  17.158 -0.2258  0.1455 -0.6136
   12TAL    C58 1120  -0.698   4.509  17.211 -0.4893  2.1622 -0.7044
   12TAL    C59 1121  -0.734   4.500  17.360 -0.1112  0.4675  1.0575
   12TAL    C60 1122  -0.690   4.371  17.410  0.3515  0.4379  0.2971
   13HTM    C61 1123  -0.525   4.913  16.884 -0.7869 -0.5883  0.1461
   13HTM    C62 1124  -0.593   5.027  16.917 -1.0382 -0.6789 -0.0520
   13HTM    C63 1125  -0.697   5.061  16.824 -0.5211 -0.5736 -0.6051
   13HTM    C64 1126  -0.709   4.974  16.720  0.1248 -0.4028 -0.8286
   13HTM     S7 1127  -0.588   4.841  16.731  0.1298 -0.3610 -0.3544
   14TAL    C65 1128  -0.772   5.185  16.861  0.5258 -0.8478  1.6374
   14TAL    C66 1129  -0.927   5.170  16.891 -0.1349 -0.1727 -0.4519
   14TAL    C67 1130  -1.005   5.301  16.896  0.0765 -0.4052 -0.2194
   14TAL    C68 1131  -0.936   5.440  16.937  0.7992  0.3044  0.5828
   14TAL    C69 1132  -1.042   5.547  16.912  0.2549  0.3302  0.9160
   14TAL    C70 1133  -1.100   5.580  16.784  0.0450  0.5094  0.2303
   15HTM    C71 1134  -0.788   4.999  16.606  0.2166  0.0510  0.2576
   15HTM    C72 1135  -0.751   5.030  16.478  0.6263  0.6769  0.5145
   15HTM    C73 1136  -0.862   5.052  16.389  0.9112  1.3195  0.3114
   15HTM    C74 1137  -0.984   5.040  16.449  0.7187  1.1834 -0.1011
   15HTM     S8 1138  -0.968   4.997  16.624  0.1581  0.2258 -0.2656
   16TAL    C75 1139  -0.817   5.084  16.251 -0.4555 -1.0554  0.6524
   16TAL    C76 1140  -0.924   5.138  16.148 -0.7175 -0.5510  0.0093
   16TAL    C77 1141  -0.871   5.192  16.018  0.2147  1.1600 -0.4527
   16TAL    C78 1142  -0.975   5.246  15.925  0.7605  0.2059  0.6558
   16TAL    C79 1143  -0.932   5.310  15.796 -0.9462 -0.6129  1.0205
   16TAL    C80 1144  -1.036   5.361  15.695 -0.3608 -0.2069 -0.2114
   17HTM    C81 1145  -1.113   5.071  16.390  0.2108  0.1993  0.5173
   17HTM    C82 1146  -1.199   4.982  16.333  0.2476 -0.1366  0.9742
   17HTM    C83 1147  -1.309   5.044  16.263  0.0874 -0.5468  0.8559
   17HTM    C84 1148  -1.306   5.180  16.267 -0.0717 -0.5235  0.3106
   17HTM     S9 1149  -1.164   5.242  16.360 -0.0310  0.0225 -0.1015
   18TAL    C85 1150  -1.397   4.951  16.185  1.2716 -0.5463 -0.6327
   18TAL    C86 1151  -1.508   5.015  16.094 -0.8036 -0.9710  0.1477
   18TAL    C87 1152  -1.586   4.909  16.031 -0.1822  0.5946  0.7889
   18TAL    C88 1153  -1.530   4.827  15.917 -0.7575 -0.7628  0.9804
   18TAL    C89 1154  -1.613   4.703  15.890  0.8999  0.6739 -0.3003
   18TAL    C90 1155  -1.568   4.605  15.782 -0.5411 -0.6381  0.0098
   19HTM    C91 1156  -1.400   5.287  16.230 -0.3148 -0.1282  0.0149
   19HTM    C92 1157  -1.532   5.311  16.254 -0.3973 -0.0545 -0.4935
   19HTM    C93 1158  -1.588   5.416  16.172 -0.0142  0.0095 -0.6757
   19HTM    C94 1159  -1.498   5.472  16.086  0.3606 -0.0153 -0.3067
   19HTM    S10 1160  -1.335   5.395  16.102  0.2577 -0.1223  0.3045
   20TAL    C95 1161  -1.734   5.460  16.173 -0.0044 -0.1131 -0.2437
   20TAL    C96 1162  -1.829   5.435  16.288  0.1748  1.3861  1.1675
   20TAL    C97 1163  -1.843   5.558  16.383 -0.6190  0.9453  0.2724
   20TAL    C98 1164  -1.874   5.677  16.314 -0.1483 -0.9545  0.4990
   20TAL    C99 1165  -1.943   5.786  16.408 -0.7961  0.7960  0.1999
   20TAL   C100 1166  -1.943   5.919  16.338  0.5363 -0.3924  0.1434
   21HTM   C101 1167  -1.512   5.578  15.985  0.6061  0.4214  0.2938
   21HTM   C102 1168  -1.603   5.678  15.966  0.6886  0.5097  0.3631
   21HTM   C103 1169  -1.584   5.751  15.844  0.3325  0.1346  0.0770
   21HTM   C104 1170  -1.479   5.708  15.769 -0.0215 -0.2399 -0.2106
   21HTM    S11 1171  -1.395   5.569  15.848  0.0681 -0.1467 -0.1417
   22TAL   C105 1172  -1.669   5.868  15.820 -0.3407  0.0231  0.1582
   22TAL   C106 1173  -1.683   5.972  15.936 -0.0385  0.6063  0.5499
   22TAL   C107 1174  -1.700   6.112  15.877  0.1150  0.4003 -0.0836
   22TAL   C108 1175  -1.726   6.216  15.976  0.3965 -0.5023 -0.1221
   22TAL   C109 1176  -1.610   6.258  16.069 -0.0666 -0.2551  0.1491
   22TAL   C110 1177  -1.644   6.332  16.196  0.0298  0.5909  0.2856
   23HTM   C111 1178  -1.412   5.757  15.653  0.0448 -0.2335 -0.4171
   23HTM   C112 1179  -1.470   5.827  15.552  0.2202  0.1569 -0.2499
   23HTM   C113 1180  -1.376   5.875  15.454  0.3766  0.4350  0.0286
   23HTM   C114 1181  -1.247   5.840  15.480  0.3206  0.2567  0.0739
   23HTM    S12 1182  -1.233   5.745  15.632  0.0638 -0.2805 -0.2339
   24TAL   C115 1183  -1.412   5.953  15.321 -0.6670  0.0407 -0.5811
   24TAL   C116 1184  -1.540   6.038  15.312 -0.1154 -0.7716  0.1346
   24TAL   C117 1185  -1.586   6.123  15.431 -0.1648  1.1684  0.7140
   24TAL   C118 1186  -1.729   6.177  15.418  1.0757 -0.8398  0.3527
   24TAL   C119 1187  -1.849   6.121  15.501 -0.2528  0.0864 -0.3828
   24TAL   C120 1188  -1.873   5.975  15.508  0.3151 -0.4115  0.1847
   25HTM   C121 1189  -1.113   5.870  15.425 -0.1520 -0.0140  0.1487
   25HTM   C122 1190  -1.004   5.790  15.446 -0.1099  0.1292  0.4950
   25HTM   C123 1191  -0.894   5.819  15.357  0.0420  0.1062  0.6757
   25HTM   C124 1192  -0.919   5.921  15.270  0.1159 -0.0547  0.4673
   25HTM    S13 1193  -1.084   5.988  15.292 -0.0020 -0.1903  0.0233
   26TAL   C125 1194  -0.766   5.732  15.360 -0.4582 -0.6520  0.3926
   26TAL   C126 1195  -0.748   5.639  15.473  0.1987  0.2794 -0.2674
   26TAL   C127 1196  -0.629   5.545  15.491  0.0287 -0.0791 -0.5215
   26TAL   C128 1197  -0.601   5.473  15.358 -0.4918  0.4628  0.0105
   26TAL   C129 1198  -0.468   5.402  15.345  0.1440  0.2290  0.0264
   26TAL   C130 1199  -0.338   5.480  15.364  0.5124  0.0618  0.1536
   27HTM   C131 1200  -0.841   5.974  15.154 -0.0701  0.3329 -0.0859
   27HTM   C132 1201  -0.877   6.011  15.028  0.1569  0.0545 -0.2353
   27HTM   C133 1202  -0.768   6.067  14.951  0.4246 -0.6161 -0.3550
   27HTM   C134 1203  -0.650   6.072  15.018  0.4019 -0.8490 -0.2970
   27HTM    S14 1204  -0.666   6.006  15.186  0.0376 -0.2347 -0.0850
   28TAL   C135 1205  -0.793   6.112  14.808  0.8090  0.4941  0.5967
   28TAL   C136 1206  -0.926   6.163  14.754  0.6878 -0.3294 -0.6651
   28TAL   C137 1207  -0.929   6.172  14.606 -0.1548  0.3869 -1.1776
   28TAL   C138 1208  -1.066   6.216  14.568  0.0571  0.8076 -0.1441
   28TAL   C139 1209  -1.075   6.298  14.442  0.6213 -0.7030 -0.5627
   28TAL   C140 1210  -1.213   6.370  14.445 -0.7237  0.1822 -0.1502
   29HTM   C141 1211  -0.513   6.097  14.972  0.0931 -0.3218 -0.1476
   29HTM   C142 1212  -0.429   6.196  15.012  0.0044 -0.2017 -0.2604
   29HTM   C143 1213  -0.306   6.202  14.939 -0.1601  0.0643 -0.5205
   29HTM   C144 1214  -0.295   6.106  14.842 -0.1969  0.1469 -0.6067
   29HTM    S15 1215  -0.442   6.001  14.837 -0.0253 -0.1067 -0.3638
   30TAL   C145 1216  -0.198   6.295  14.974  0.3860 -0.7292 -0.0136
   30TAL   C146 1217  -0.094   6.243  15.076  0.1707  0.1535  0.2741
   30TAL   C147 1218   0.032   6.307  15.120  0.4146  0.8806  0.0870
   30TAL   C148 1219   0.144   6.351  15.024 -0.8342  0.0386 -0.3760
   30TAL   C149 1220   0.211   6.247  14.936  0.4569 -0.7054  0.1675
   30TAL   C150 1221   0.283   6.311  14.818  0.0812  0.2584 -0.1962
   31HTM   C151 1222  -0.192   6.081  14.740  0.0537 -0.2001 -0.6580
   31HTM   C152 1223  -0.124   5.967  14.711 -0.0685 -0.1550 -1.1353
   31HTM   C153 1224  -0.027   5.982  14.605  0.0308  0.2140 -0.9928
   31HTM   C154 1225  -0.022   6.109  14.554  0.2285  0.4502 -0.4066
   31HTM    S16 1226  -0.139   6.218  14.636  0.3055  0.2233  0.0142
   32TAL   C155 1227   0.056   5.864  14.565 -0.7613 -0.2000 -0.8366
   32TAL   C156 1228   0.092   5.744  14.656  0.7945 -0.2262  0.0716
   32TAL   C157 1229   0.213   5.663  14.615 -0.7025  0.9898 -0.1062
   32TAL   C158 1230   0.240   5.536  14.712 -0.9544 -0.3238 -0.0264
   32TAL   C159 1231   0.156   5.417  14.690 -0.7310 -0.5837 -0.9871
   32TAL   C160 1232   0.188   5.321  14.581 -0.3865  0.0914  0.3771
   33HTM   C161 1233   0.067   6.178  14.464 -0.4008  0.2392 -0.2000
   33HTM   C162 1234   0.162   6.120  14.384 -0.3343  0.0360  0.0231
   33HTM   C163 1235   0.242   6.216  14.312 -0.0797 -0.1401  0.0722
   33HTM   C164 1236   0.209   6.345  14.337  0.0478 -0.0711 -0.1130
   33HTM    S17 1237   0.072   6.358  14.454 -0.1452  0.2237 -0.3663
   34TAL   C165 1238   0.376   6.181  14.250  0.9003  0.1220  0.7814
   34TAL   C166 1239   0.446   6.054  14.268 -0.6555 -0.4452 -0.8381
   34TAL   C167 1240   0.523   6.038  14.399  0.1909  0.7474 -0.1842
   34TAL   C168 1241   0.582   5.891  14.418  0.0542  0.1409  0.5451
   34TAL   C169 1242   0.488   5.769  14.389  0.2802  0.0745 -0.0072
   34TAL   C170 1243   0.559   5.637  14.391 -0.0692  0.4255  1.1580
   35HTM   C171 1244   0.269   6.468  14.302  0.0420 -0.3129 -0.5111
   35HTM   C172 1245   0.255   6.516  14.175  0.3683 -0.0168 -0.4368
   35HTM   C173 1246   0.277   6.658  14.165  0.5729 -0.0185 -0.0811
   35HTM   C174 1247   0.307   6.718  14.283  0.4026 -0.3158  0.1150
   35HTM    S18 1248   0.310   6.600  14.419 -0.0327 -0.6190 -0.1355
   36TAL   C175 1249   0.266   6.738  14.040  0.4695  0.0635 -0.0045
   36TAL   C176 1250   0.321   6.678  13.909  0.3774  0.1202 -0.7720
   36TAL   C177 1251   0.347   6.772  13.794  0.2413  0.1476  0.0426
   36TAL   C178 1252   0.454   6.876  13.815  0.2895 -0.6094 -0.9871
   36TAL   C179 1253   0.586   6.807  13.824 -0.2411 -0.7368  0.7682
   36TAL   C180 1254   0.680   6.881  13.909 -0.5782  0.6239  0.0122
   37HTM   C181 1255   0.341   6.847  14.322 -0.5173 -0.0593  0.2223
   37HTM   C182 1256   0.372   6.947  14.235 -1.0082  0.0731  0.1919
   37HTM   C183 1257   0.413   7.070  14.299 -0.8929  0.0557  0.1538
   37HTM   C184 1258   0.412   7.063  14.435 -0.3141 -0.0900  0.1552
   37HTM    S19 1259   0.360   6.901  14.493  0.1338 -0.2176  0.2049
   38TAL   C185 1260   0.449   7.194  14.213  0.0950  0.2917  0.7377
   38TAL   C186 1261   0.571   7.200  14.123 -0.3160  0.9914  0.0600
   38TAL   C187 1262   0.568   7.344  14.063  0.0698  0.6380 -0.0567
   38TAL   C188 1263   0.689   7.396  13.984 -0.0181  1.3065  0.2227
   38TAL   C189 1264   0.785   7.301  13.923  0.4923  0.3835  0.8045
   38TAL   C190 1265   0.918   7.361  13.873  0.2227  0.1257  0.6317
   39HTM   C191 1266   0.437   7.163  14.534  0.0502 -0.0450  0.5198
   39HTM   C192 1267   0.443   7.130  14.666  0.5525 -0.1271  0.4799
   39HTM   C193 1268   0.476   7.241  14.752  0.8004 -0.1632  0.4330
   39HTM   C194 1269   0.495   7.358  14.685  0.4870 -0.1086  0.4370
   39HTM    S20 1270   0.472   7.338  14.507 -0.1504 -0.0066  0.5010
   40TAL   C195 1271   0.482   7.188  14.898  0.3481  0.1924 -0.4051
   40TAL   C196 1272   0.571   7.269  15.002  0.5707  0.8456 -0.0633
   40TAL   C197 1273   0.721   7.265  14.992  0.4253 -1.2171  0.9552
   40TAL   C198 1274   0.779   7.135  15.030 -0.3383  0.5130 -0.0065
   40TAL   C199 1275   0.920   7.145  14.974  0.0223 -0.4862  0.2637
   40TAL   C200 1276   0.999   7.023  15.000  1.0235 -0.0977 -0.5710
   41HTM   C201 1277   0.490   7.493  14.726 -0.3529  0.1549 -0.0967
   41HTM   C202 1278   0.375   7.561  14.754 -0.2479  0.5792 -0.6657
   41HTM   C203 1279   0.397   7.684  14.826 -0.1388  0.5946 -0.7248
   41HTM   C204 1280   0.528   7.709  14.853 -0.1607  0.1821 -0.2006
   41HTM    S21 1281   0.635   7.578  14.789 -0.3220 -0.2613  0.4132
   42TAL   C205 1282   0.285   7.778  14.844  0.6762 -0.4164 -0.2594
   42TAL   C206 1283   0.139   7.758  14.790  0.1263  0.8735  0.2905
   42TAL   C207 1284   0.107   7.714  14.646  0.4353  0.2298 -0.3169
   42TAL   C208 1285  -0.010   7.782  14.577 -0.2884 -0.0892  0.3208
   42TAL   C209 1286  -0.035   7.724  14.432  0.0710  0.5982 -0.1185
   42TAL   C210 1287  -0.038   7.838  14.328 -0.1347 -0.2529 -1.2427
   43HTM   C211 1288   0.605   7.816  14.921 -0.1856  0.4108 -0.2010
   43HTM   C212 1289   0.602   7.861  15.050 -0.2555  0.3432 -0.1788
   43HTM   C213 1290   0.675   7.983  15.070  0.0528  0.1316  0.0031
   43HTM   C214 1291   0.734   8.031  14.956  0.3578  0.0379  0.1199
   43HTM    S22 1292   0.701   7.925  14.814  0.2787  0.2109  0.0078
   44TAL   C215 1293   0.694   8.048  15.213 -0.4193 -0.9493  0.4731
   44TAL   C216 1294   0.616   7.979  15.326  0.1737  0.4011  0.1699
   44TAL   C217 1295   0.681   7.987  15.462 -0.5330 -0.1011 -0.5321
   44TAL   C218 1296   0.580   7.932  15.570 -1.1461  0.6249  0.0103
   44TAL   C219 1297   0.631   7.917  15.715 -1.0433  0.0956  1.3727
   44TAL   C220 1298   0.504   7.911  15.801 -0.4806 -0.0426 -0.3566
   45HTM   C221 1299   0.802   8.151  14.923 -0.7384  0.0091 -0.1006
   45HTM   C222 1300   0.824   8.192  14.795 -1.2644  0.0079 -0.1936
   45HTM   C223 1301   0.874   8.327  14.785 -0.6160 -0.2358 -0.3507
   45HTM   C224 1302   0.890   8.389  14.905  0.4043 -0.4204 -0.3772
   45HTM    S23 1303   0.844   8.281  15.042  0.6271 -0.2998 -0.2049
   46TAL   C225 1304   0.917   8.400  14.657  0.1994 -0.4961  0.3726
   46TAL   C226 1305   0.915   8.330  14.526  0.0164  0.6292 -0.1182
   46TAL   C227 1306   0.975   8.410  14.422 -1.2223 -1.4815 -1.2766
   46TAL   C228 1307   1.070   8.344  14.333  0.0195  0.2480  0.6356
   46TAL   C229 1308   1.188   8.304  14.403  0.0501  0.3186  0.1337
   46TAL   C230 1309   1.306   8.286  14.316  0.5127 -0.8952  0.3988
   47HTM   C231 1310   0.941   8.525  14.948 -0.0117 -0.0184 -0.1997
   47HTM   C232 1311   0.900   8.608  15.048 -0.2471  0.2596 -0.5231
   47HTM   C233 1312   0.988   8.719  15.071 -0.3526  0.3783 -0.6888
   47HTM   C234 1313   1.097   8.721  14.989 -0.1977  0.1908 -0.4916
   47HTM    S24 1314   1.096   8.581  14.875  0.0958 -0.1529 -0.0783
   48TAL   C235 1315   0.970   8.832  15.177 -0.2995 -0.0160 -0.6746
   48TAL   C236 1316   1.014   8.805  15.321 -0.3696  0.0673 -0.5814
   48TAL   C237 1317   0.915   8.730  15.403  0.3750 -0.4824  0.3148
   48TAL   C238 1318   0.922   8.761  15.552 -0.2417  0.0472  0.1393
   48TAL   C239 1319   1.002   8.656  15.627 -0.4799 -0.3044 -0.1774
   48TAL   C240 1320   1.059   8.687  15.762  0.4175 -0.2045 -0.3906
    1HTM     C1 1321   6.335   4.708   2.304 -0.2902 -0.2616 -0.2803
    1HTM     C2 1322   6.223   4.642   2.263 -0.3374 -0.2117 -0.2322
    1HTM     C3 1323   6.124   4.727   2.203 -0.3597 -0.1552 -0.1155
    1HTM     C4 1324   6.160   4.859   2.199 -0.3292 -0.1621 -0.0747
    1HTM     S1 1325   6.323   4.885   2.270 -0.2696 -0.2409 -0.1812
    2TAL     C5 1326   5.992   4.676   2.154  1.1255 -0.4312  0.2995
    2TAL     C6 1327   5.996   4.551   2.068 -0.1771 -0.0025 -0.7113
    2TAL     C7 1328   6.057   4.563   1.926  0.1595 -0.1744 -0.6043
    2TAL     C8 1329   5.997   4.668   1.837 -0.3445  0.7351  1.7036
    2TAL     C9 1330   5.862   4.633   1.772  0.2444 -0.3629  0.3787
    2TAL    C10 1331   5.847   4.504   1.695 -0.6622 -0.2959  0.4045
    3HTM    C11 1332   6.095   4.973   2.133 -0.5902 -0.2393  0.1295
    3HTM    C12 1333   6.156   5.094   2.125 -0.3390 -0.3549  0.2936
    3HTM    C13 1334   6.073   5.198   2.070 -0.0572 -0.1549  0.2419
    3HTM    C14 1335   5.948   5.156   2.035 -0.0934  0.1136  0.0386
    3HTM     S2 1336   5.926   4.981   2.070 -0.4893  0.1344 -0.1047
    4TAL    C15 1337   6.126   5.340   2.052 -0.6221 -0.0041  0.9003
    4TAL    C16 1338   6.262   5.331   1.979  0.4410 -0.3171  0.1561
    4TAL    C17 1339   6.354   5.455   1.947 -0.5729 -0.8659  0.4541
    4TAL    C18 1340   6.284   5.574   1.883 -0.5311  0.3140 -0.7573
    4TAL    C19 1341   6.170   5.647   1.960 -0.0043  0.6276  0.3023
    4TAL    C20 1342   6.226   5.755   2.051  0.0900 -0.3871 -0.7452
    5HTM    C21 1343   5.834   5.221   1.974 -0.0600 -0.0470 -0.1567
    5HTM    C22 1344   5.778   5.337   2.019  0.3802  0.1761 -0.1721
    5HTM    C23 1345   5.670   5.385   1.937  0.4678  0.5026 -0.0996
    5HTM    C24 1346   5.643   5.306   1.830  0.0942  0.5286 -0.0290
    5HTM     S3 1347   5.754   5.164   1.823 -0.4013  0.1394 -0.0487
    6TAL    C25 1348   5.584   5.499   1.996 -0.1336 -0.3925 -0.1852
    6TAL    C26 1349   5.584   5.637   1.932  0.4051  0.6283  0.1210
    6TAL    C27 1350   5.713   5.720   1.950 -0.2367  0.3848 -0.0765
    6TAL    C28 1351   5.728   5.854   1.890 -0.0128 -0.0121  0.5309
    6TAL    C29 1352   5.851   5.941   1.901  0.3295  0.1117  0.6498
    6TAL    C30 1353   5.847   5.994   2.056  0.3632 -0.4670  0.2135
    7HTM    C31 1354   5.529   5.319   1.741  0.2384  0.1174 -0.3823
    7HTM    C32 1355   5.447   5.424   1.713  0.1277  0.0023 -0.4974
    7HTM    C33 1356   5.343   5.394   1.619 -0.0274 -0.2930 -0.2333
    7HTM    C34 1357   5.345   5.265   1.575 -0.0352 -0.4031  0.0833
    7HTM     S4 1358   5.480   5.171   1.649  0.1544 -0.1404  0.0722
    8TAL    C35 1359   5.238   5.501   1.589  1.0853  0.4530 -0.2335
    8TAL    C36 1360   5.298   5.649   1.584  0.1472  0.5677  0.5811
    8TAL    C37 1361   5.192   5.761   1.598 -0.1122  0.4593  0.5235
    8TAL    C38 1362   5.141   5.792   1.736  1.3283 -0.6283  0.2235
    8TAL    C39 1363   5.194   5.757   1.876 -0.4361 -0.4018  0.5770
    8TAL    C40 1364   5.133   5.842   1.989 -0.3947  0.6150  0.6200
    9HTM    C41 1365   5.268   5.191   1.478 -0.4585  0.0550 -0.3583
    9HTM    C42 1366   5.243   5.221   1.348  0.2211 -0.8147 -0.7109
    9HTM    C43 1367   5.148   5.133   1.284  0.6464 -1.3142 -0.6638
    9HTM    C44 1368   5.101   5.035   1.367  0.2910 -0.8252 -0.2754
    9HTM     S5 1369   5.173   5.047   1.532 -0.6152  0.3124  0.0638
   10TAL    C45 1370   5.119   5.176   1.137 -0.4819  0.0236  0.2929
   10TAL    C46 1371   4.996   5.254   1.095 -0.1274  1.1017  0.3425
   10TAL    C47 1372   4.978   5.388   1.164 -0.0000 -0.7701 -0.1977
   10TAL    C48 1373   4.896   5.494   1.090  0.3670 -0.1053  0.3961
   10TAL    C49 1374   4.973   5.579   0.989 -0.7230 -0.6407  0.9315
   10TAL    C50 1375   4.873   5.684   0.947 -0.2696 -0.1973 -0.3233
   11HTM    C51 1376   4.997   4.938   1.347 -0.6364  0.0278  0.1873
   11HTM    C52 1377   4.902   4.897   1.436 -0.8539  0.2365  0.0512
   11HTM    C53 1378   4.793   4.825   1.375 -0.7105  0.1025 -0.0485
   11HTM    C54 1379   4.805   4.811   1.240 -0.3837 -0.2085  0.0115
   11HTM     S6 1380   4.956   4.887   1.178 -0.2305 -0.3572  0.2002
   12TAL    C55 1381   4.671   4.806   1.468 -0.0473  0.7707 -0.2870
   12TAL    C56 1382   4.687   4.706   1.582  0.6674 -0.6394 -0.6397
   12TAL    C57 1383   4.578   4.720   1.685 -0.6164 -0.3318 -0.8435
   12TAL    C58 1384   4.592   4.612   1.799 -0.7907 -0.1018  0.2481
   12TAL    C59 1385   4.485   4.583   1.906 -0.3598 -0.0654  0.6852
   12TAL    C60 1386   4.332   4.582   1.862 -0.7240 -1.4254  0.2591
   13HTM    C61 1387   4.729   4.715   1.153 -0.2218  0.7693  0.4735
   13HTM    C62 1388   4.720   4.717   1.017 -0.5139  1.1238  0.4965
   13HTM    C63 1389   4.635   4.615   0.962 -0.2481  0.9589  0.3863
   13HTM    C64 1390   4.579   4.534   1.057  0.2463  0.4786  0.2791
   13HTM     S7 1391   4.630   4.582   1.223  0.4162  0.1952  0.3093
   14TAL    C65 1392   4.608   4.603   0.816 -0.0315  0.8728  0.3965
   14TAL    C66 1393   4.693   4.499   0.750 -0.9301 -0.0993  0.9962
   14TAL    C67 1394   4.650   4.472   0.594  0.2808 -0.3461  0.1109
   14TAL    C68 1395   4.732   4.360   0.533 -1.1586 -0.8398 -0.2460
   14TAL    C69 1396   4.680   4.266   0.433 -0.8549  0.5656 -0.6200
   14TAL    C70 1397   4.759   4.133   0.430 -0.3057 -0.4621 -0.0458
   15HTM    C71 1398   4.464   4.444   1.055 -0.3144 -0.0253  0.0474
   15HTM    C72 1399   4.404   4.392   1.166 -0.3455  0.0496  0.0657
   15HTM    C73 1400   4.306   4.291   1.137 -0.3920  0.0839  0.1026
   15HTM    C74 1401   4.291   4.265   1.004 -0.3964  0.0352  0.1126
   15HTM     S8 1402   4.400   4.368   0.904 -0.3418 -0.0586  0.0757
   16TAL    C75 1403   4.238   4.221   1.251  1.0684  0.5634 -0.2319
   16TAL    C76 1404   4.268   4.253   1.402 -0.2714  0.0394  0.0957
   16TAL    C77 1405   4.234   4.153   1.507 -0.2609 -0.2638 -0.2715
   16TAL    C78 1406   4.273   4.199   1.648  0.0489 -0.3189 -0.3499
   16TAL    C79 1407   4.253   4.098   1.757 -0.1462 -0.1193  0.2687
   16TAL    C80 1408   4.267   4.177   1.883 -0.0293 -0.1937 -0.2109
   17HTM    C81 1409   4.211   4.173   0.930 -0.2441 -0.3028 -0.3059
   17HTM    C82 1410   4.166   4.047   0.953  0.2813 -0.5953 -0.8285
   17HTM    C83 1411   4.078   3.997   0.852  0.4728 -0.5375 -1.0253
   17HTM    C84 1412   4.055   4.085   0.750  0.0933 -0.2004 -0.6525
   17HTM     S9 1413   4.144   4.240   0.776 -0.5400  0.0720 -0.0193
   18TAL    C85 1414   4.011   3.861   0.859 -0.6239 -0.3333 -0.2967
   18TAL    C86 1415   4.094   3.729   0.886 -0.4552 -0.9379  0.1311
   18TAL    C87 1416   4.003   3.610   0.866  0.1189 -0.2523  0.2182
   18TAL    C88 1417   4.046   3.473   0.887  0.3409  1.1068  1.0942
   18TAL    C89 1418   3.964   3.358   0.821 -0.1959 -0.5656  0.8123
   18TAL    C90 1419   3.858   3.272   0.876 -0.2676 -0.0096 -0.8766
   19HTM    C91 1420   3.979   4.074   0.620  0.2072  0.0203 -0.0627
   19HTM    C92 1421   3.965   3.959   0.549  0.8945  0.0719 -0.2948
   19HTM    C93 1422   3.924   3.980   0.412  1.1076  0.1175 -0.3520
   19HTM    C94 1423   3.907   4.111   0.379  0.5827  0.1010 -0.1635
   19HTM    S10 1424   3.941   4.219   0.519 -0.2277  0.0257  0.1028
   20TAL    C95 1425   3.915   3.856   0.319 -0.1703 -0.6795  0.0830
   20TAL    C96 1426   3.797   3.772   0.349 -0.3434  0.8227  0.2662
   20TAL    C97 1427   3.835   3.617   0.340 -0.0765 -0.6276  0.2413
   20TAL    C98 1428   3.706   3.540   0.357  1.0566 -0.2147 -1.0922
   20TAL    C99 1429   3.733   3.383   0.367 -0.4945 -0.2788 -1.4583
   20TAL   C100 1430   3.619   3.281   0.361  0.8955 -1.4201  0.4108
   21HTM   C101 1431   3.887   4.172   0.249 -0.0965  0.1004  0.0018
   21HTM   C102 1432   3.764   4.157   0.191  0.0421 -0.3778 -0.1817
   21HTM   C103 1433   3.731   4.261   0.097 -0.1690 -0.5777 -0.3319
   21HTM   C104 1434   3.829   4.356   0.083 -0.4686 -0.2522 -0.2629
   21HTM    S11 1435   3.971   4.320   0.188 -0.5077  0.3371 -0.0008
   22TAL   C105 1436   3.585   4.265   0.050  0.7104 -1.3119 -0.2876
   22TAL   C106 1437   3.529   4.183  -0.065  0.3958  0.1732 -0.1616
   22TAL   C107 1438   3.388   4.213  -0.108 -0.2605  0.3633  0.0560
   22TAL   C108 1439   3.376   4.342  -0.182 -0.5262 -0.7436  0.6147
   22TAL   C109 1440   3.237   4.377  -0.222  0.3543  0.6916 -0.8037
   22TAL   C110 1441   3.229   4.495  -0.312 -0.2955  0.6080  1.4005
   23HTM   C111 1442   3.839   4.478   0.011 -0.2944  0.1474  0.5131
   23HTM   C112 1443   3.949   4.542  -0.036 -0.1301 -0.0305  0.6537
   23HTM   C113 1444   3.925   4.679  -0.074  0.0889 -0.0559  0.4172
   23HTM   C114 1445   3.796   4.719  -0.056  0.0916  0.1027  0.0968
   23HTM    S12 1446   3.694   4.586   0.011 -0.1844  0.2981  0.0677
   24TAL   C115 1447   4.043   4.771  -0.106 -1.3416  0.2624 -1.0655
   24TAL   C116 1448   4.196   4.743  -0.095  0.5424  0.1088  0.2992
   24TAL   C117 1449   4.244   4.666   0.026 -0.0013  0.0050  0.0345
   24TAL   C118 1450   4.366   4.585  -0.001  0.6514  0.5876  0.4249
   24TAL   C119 1451   4.430   4.502   0.103  0.4258  0.1380  0.1170
   24TAL   C120 1452   4.345   4.376   0.149  0.1939 -0.9827 -0.1691
   25HTM   C121 1453   3.735   4.852  -0.069 -0.5533  0.4539 -0.3631
   25HTM   C122 1454   3.733   4.946  -0.168 -0.8210  0.6680 -0.1583
   25HTM   C123 1455   3.675   5.071  -0.128 -0.4097  0.6979  0.3676
   25HTM   C124 1456   3.633   5.074   0.002  0.1716  0.5064  0.5628
   25HTM    S13 1457   3.665   4.916   0.084  0.2453  0.2719  0.0949
   26TAL   C125 1458   3.656   5.171  -0.237 -0.2501  0.1767 -0.8842
   26TAL   C126 1459   3.790   5.218  -0.299 -0.7857  0.6000 -0.2975
   26TAL   C127 1460   3.799   5.262  -0.441 -0.6405  0.7701 -0.2118
   26TAL   C128 1461   3.924   5.338  -0.470 -0.3485  0.1800  0.6073
   26TAL   C129 1462   3.881   5.485  -0.490 -1.0257  0.8512 -0.2948
   26TAL   C130 1463   3.986   5.591  -0.509  0.0912 -0.5621 -0.3102
   27HTM   C131 1464   3.575   5.171   0.091  0.2289  0.0198 -0.2539
   27HTM   C132 1465   3.462   5.155   0.166 -0.0616 -0.3450 -0.7577
   27HTM   C133 1466   3.423   5.274   0.238 -0.5229 -0.5946 -0.5902
   27HTM   C134 1467   3.506   5.380   0.218 -0.5841 -0.4201  0.0414
   27HTM    S14 1468   3.641   5.339   0.106 -0.0599  0.0768  0.4770
   28TAL   C135 1469   3.314   5.270   0.347 -0.6595  1.5564  0.1570
   28TAL   C136 1470   3.185   5.322   0.286 -0.9707  0.8722  0.1644
   28TAL   C137 1471   3.075   5.317   0.385 -0.7405 -0.0001 -0.5078
   28TAL   C138 1472   2.943   5.356   0.316 -0.9085  0.1440 -0.0358
   28TAL   C139 1473   2.847   5.360   0.430 -0.4774 -0.5271 -0.7927
   28TAL   C140 1474   2.827   5.500   0.493 -0.4956 -0.3466  0.1113
   29HTM   C141 1475   3.499   5.521   0.270  0.5671  0.0229 -0.0511
   29HTM   C142 1476   3.500   5.572   0.396  0.0398  0.0169 -0.0425
   29HTM   C143 1477   3.524   5.714   0.401 -0.7296  0.1527  0.0243
   29HTM   C144 1478   3.542   5.771   0.279 -0.7889  0.2623  0.0668
   29HTM    S15 1479   3.529   5.650   0.146  0.1295  0.2022  0.0253
   30TAL   C145 1480   3.526   5.795   0.528  0.2049  0.5230 -0.3007
   30TAL   C146 1481   3.391   5.808   0.606 -0.9932  0.4454  0.2845
   30TAL   C147 1482   3.280   5.884   0.552 -0.3655 -0.3110  0.2548
   30TAL   C148 1483   3.169   5.902   0.659  0.4745 -0.4744  0.9125
   30TAL   C149 1484   3.120   5.790   0.746 -0.2632  0.0934 -0.6094
   30TAL   C150 1485   2.970   5.779   0.761  0.6068  0.6188 -0.2524
   31HTM   C151 1486   3.581   5.911   0.246 -0.4307 -0.0647  0.4592
   31HTM   C152 1487   3.667   5.940   0.144 -0.7967 -0.1519  0.1222
   31HTM   C153 1488   3.710   6.077   0.142 -0.8928 -0.1235 -0.2249
   31HTM   C154 1489   3.658   6.153   0.243 -0.6000 -0.0146 -0.1526
   31HTM    S16 1490   3.549   6.056   0.348 -0.1770  0.0609  0.3635
   32TAL   C155 1491   3.811   6.128   0.031  0.8867 -0.4458  0.1338
   32TAL   C156 1492   3.746   6.226  -0.071 -0.2924  0.6706  1.0061
   32TAL   C157 1493   3.868   6.322  -0.120 -0.1166  0.2495 -0.3651
   32TAL   C158 1494   3.835   6.441  -0.201 -0.3905 -0.8557  0.5894
   32TAL   C159 1495   3.738   6.452  -0.321  0.0037  0.8112 -0.7359
   32TAL   C160 1496   3.721   6.594  -0.369  0.3543 -0.0919  0.8744
   33HTM   C161 1497   3.666   6.290   0.271  0.4081 -0.1090  0.4664
   33HTM   C162 1498   3.780   6.364   0.275  0.3411 -0.0089  0.5089
   33HTM   C163 1499   3.757   6.503   0.307  0.1671  0.0540  0.1221
   33HTM   C164 1500   3.626   6.534   0.327  0.1014  0.0017 -0.2154
   33HTM    S17 1501   3.520   6.389   0.307  0.2553 -0.1321 -0.0697
   34TAL   C165 1502   3.871   6.601   0.313  0.2302  0.5634  0.1131
   34TAL   C166 1503   3.917   6.675   0.196  0.2100  0.1809  0.1311
   34TAL   C167 1504   3.820   6.771   0.117  0.2346 -0.0570 -0.6588
   34TAL   C168 1505   3.895   6.881   0.036  0.8044  1.1444 -0.1123
   34TAL   C169 1506   3.967   6.993   0.101 -0.6796  0.5588  0.5147
   34TAL   C170 1507   4.035   7.074   0.002  0.2904 -0.2513  0.7909
   35HTM   C171 1508   3.561   6.660   0.363 -0.2827 -0.1466  0.5110
   35HTM   C172 1509   3.446   6.708   0.308 -0.6592 -0.7013  0.7881
   35HTM   C173 1510   3.403   6.834   0.363 -0.7870 -0.5964  0.4565
   35HTM   C174 1511   3.486   6.882   0.461 -0.5077  0.0383 -0.0734
   35HTM    S18 1512   3.625   6.770   0.490 -0.0584  0.5565 -0.1957
   36TAL   C175 1513   3.272   6.897   0.311 -0.0339 -0.4918  0.4194
   36TAL   C176 1514   3.267   6.945   0.156 -1.0817  1.4123 -0.0652
   36TAL   C177 1515   3.376   7.034   0.092 -0.1386 -0.7153 -0.6460
   36TAL   C178 1516   3.387   7.016  -0.057 -0.6908 -0.2908  0.1396
   36TAL   C179 1517   3.481   6.901  -0.075 -0.9101  0.2095  0.4114
   36TAL   C180 1518   3.487   6.862  -0.217  0.5694 -1.1589 -0.5978
   37HTM   C181 1519   3.490   7.013   0.517 -0.7501 -0.0320 -0.3059
   37HTM   C182 1520   3.586   7.054   0.605 -0.8646 -0.0659 -0.1649
   37HTM   C183 1521   3.557   7.181   0.667 -0.8767 -0.0213 -0.2613
   37HTM   C184 1522   3.439   7.236   0.626 -0.7715  0.0465 -0.4758
   37HTM    S19 1523   3.355   7.132   0.505 -0.6479  0.0595 -0.5734
   38TAL   C185 1524   3.655   7.252   0.764 -0.7380  0.4288 -0.7000
   38TAL   C186 1525   3.770   7.337   0.702  0.6277  0.4028  0.5652
   38TAL   C187 1526   3.887   7.252   0.648 -0.0515  0.5422  0.1273
   38TAL   C188 1527   3.964   7.143   0.734  0.7081  0.3482  1.2216
   38TAL   C189 1528   4.020   7.014   0.664  0.3862  0.8558 -0.1227
   38TAL   C190 1529   4.076   7.021   0.526 -0.3819  0.4037 -0.3618
   39HTM   C191 1530   3.373   7.358   0.660  0.2264  0.1147  0.2178
   39HTM   C192 1531   3.375   7.446   0.764  0.2106  0.2933  0.0695
   39HTM   C193 1532   3.292   7.562   0.744  0.4192  0.3886 -0.2523
   39HTM   C194 1533   3.227   7.563   0.624  0.5939  0.2829 -0.3492
   39HTM    S20 1534   3.265   7.416   0.527  0.5078  0.0527 -0.0393
   40TAL   C195 1535   3.289   7.680   0.842 -0.6925 -0.1582  0.0517
   40TAL   C196 1536   3.348   7.673   0.986  0.3389  0.8964  0.3759
   40TAL   C197 1537   3.315   7.788   1.084  0.2749  0.4589  0.5663
   40TAL   C198 1538   3.172   7.783   1.149  0.3555 -0.1258 -0.3301
   40TAL   C199 1539   3.053   7.820   1.064  0.3635  0.0207  0.3586
   40TAL   C200 1540   2.945   7.904   1.133 -0.6960 -1.0663  0.3238
   41HTM   C201 1541   3.148   7.665   0.559  0.0698 -0.6597  0.6335
   41HTM   C202 1542   3.147   7.678   0.423  0.0731 -0.9124  0.6077
   41HTM   C203 1543   3.063   7.786   0.377  0.5739 -0.5898  0.4417
   41HTM   C204 1544   3.001   7.855   0.477  0.9525 -0.0910  0.3408
   41HTM    S21 1545   3.044   7.789   0.639  0.7040  0.0106  0.4485
   42TAL   C205 1546   3.047   7.832   0.233 -0.3280  0.6708 -0.2128
   42TAL   C206 1547   3.144   7.757   0.151 -0.3601 -0.6333 -0.1274
   42TAL   C207 1548   3.085   7.718   0.017  0.0839 -0.6032 -0.1049
   42TAL   C208 1549   3.147   7.605  -0.066 -0.8028 -0.6849 -0.3269
   42TAL   C209 1550   3.176   7.465  -0.013  0.4048  1.2588  0.5917
   42TAL   C210 1551   3.230   7.364  -0.121 -0.0204 -0.7851 -0.6161
   43HTM   C211 1552   2.908   7.965   0.471 -0.6365  0.1155 -0.8702
   43HTM   C212 1553   2.824   8.007   0.372 -0.8529  0.8464 -0.3969
   43HTM   C213 1554   2.732   8.110   0.413 -0.4514  0.8935  0.4248
   43HTM   C214 1555   2.746   8.147   0.543  0.0712  0.1985  0.5781
   43HTM    S22 1556   2.877   8.053   0.625  0.0968 -0.5754 -0.3104
   44TAL   C215 1557   2.615   8.146   0.324 -1.0101 -0.4620 -0.6284
   44TAL   C216 1558   2.659   8.166   0.182 -0.4299  0.7231  0.3939
   44TAL   C217 1559   2.546   8.142   0.086 -0.9056  0.3176 -0.8263
   44TAL   C218 1560   2.581   8.119  -0.056  0.1752  0.2473 -0.0035
   44TAL   C219 1561   2.674   8.014  -0.113 -0.4283  0.2774  0.2133
   44TAL   C220 1562   2.815   7.994  -0.052 -0.4000  0.6983  0.5788
   45HTM   C221 1563   2.682   8.248   0.624  0.4508 -0.3789 -0.4816
   45HTM   C222 1564   2.741   8.355   0.685  0.7440 -0.3940 -0.7298
   45HTM   C223 1565   2.647   8.443   0.751  1.0086 -0.1367 -0.6909
   45HTM   C224 1566   2.517   8.402   0.739  0.9170  0.0747 -0.4130
   45HTM    S23 1567   2.503   8.250   0.644  0.4862 -0.0358 -0.1771
   46TAL   C225 1568   2.709   8.567   0.814 -0.6529  0.0497  0.3649
   46TAL   C226 1569   2.661   8.695   0.740 -0.0610 -0.3648  0.0385
   46TAL   C227 1570   2.709   8.713   0.594 -0.1206  0.2576  0.2709
   46TAL   C228 1571   2.635   8.815   0.503 -0.8763 -0.3172  0.0864
   46TAL   C229 1572   2.696   8.857   0.371  0.0836  0.1267  0.1094
   46TAL   C230 1573   2.834   8.921   0.369 -0.0941  0.0746 -0.1848
   47HTM   C231 1574   2.396   8.462   0.785  0.6464  0.4092 -0.3907
   47HTM   C232 1575   2.274   8.435   0.730  0.7800  0.8565 -0.9156
   47HTM   C233 1576   2.166   8.507   0.791  0.6930  0.7305 -0.9206
   47HTM   C234 1577   2.205   8.589   0.893  0.4930  0.1872 -0.3995
   47HTM    S24 1578   2.383   8.581   0.920  0.3982 -0.2106  0.1421
   48TAL   C235 1579   2.020   8.495   0.754  0.0115 -0.5773  1.0743
   48TAL   C236 1580   1.988   8.567   0.619 -0.6690 -0.6652  0.3797
   48TAL   C237 1581   2.019   8.724   0.611 -0.2578  0.1140  0.1238
   48TAL   C238 1582   2.128   8.772   0.505 -0.0787  0.0063 -0.4852
   48TAL   C239 1583   2.156   8.914   0.498 -0.3352 -1.2443  0.4213
   48TAL   C240 1584   2.259   8.934   0.381 -0.7518 -0.3403 -0.1447
    1HTM     C1 1585   7.302   5.670  25.874  0.4372 -0.4981 -0.2381
    1HTM     C2 1586   7.432   5.644  25.844  0.5238 -0.0201 -0.2794
    1HTM     C3 1587   7.522   5.751  25.882  0.2060  0.1092  0.1307
    1HTM     C4 1588   7.460   5.857  25.940 -0.1230 -0.2700  0.4838
    1HTM     S1 1589   7.282   5.831  25.952 -0.0564 -0.8243  0.3253
    2TAL     C5 1590   7.671   5.745  25.884 -0.2465 -0.1136 -0.1876
    2TAL     C6 1591   7.774   5.629  25.862  0.0586 -0.1236  0.1546
    2TAL     C7 1592   7.916   5.669  25.901 -0.6165 -0.1927 -0.3545
    2TAL     C8 1593   8.005   5.721  25.797 -1.2935  0.1223  1.6638
    2TAL     C9 1594   8.053   5.619  25.688  0.7416  0.8915 -0.5412
    2TAL    C10 1595   8.168   5.532  25.720 -0.3204  0.0333 -0.2051
    3HTM    C11 1596   7.511   5.985  25.993  0.8687 -0.3495 -0.6569
    3HTM    C12 1597   7.435   6.098  25.999  0.8081 -0.3663 -1.0614
    3HTM    C13 1598   7.501   6.209  26.062  0.4399 -0.3613 -0.6747
    3HTM    C14 1599   7.628   6.181  26.104  0.2198 -0.3405  0.0251
    3HTM     S2 1600   7.673   6.011  26.067  0.4624 -0.3256  0.2519
    4TAL    C15 1601   7.436   6.352  26.079 -0.5307 -0.4344 -1.5149
    4TAL    C16 1602   7.397   6.439  25.960  0.5011 -0.3136  0.2868
    4TAL    C17 1603   7.335   6.567  26.003  0.2273  0.0481 -0.8120
    4TAL    C18 1604   7.264   6.656  25.893  0.4760  1.2130 -0.0618
    4TAL    C19 1605   7.193   6.789  25.932 -0.4723  0.5483  0.3600
    4TAL    C20 1606   7.097   6.809  25.817  0.0295  0.2892  0.7212
    5HTM    C21 1607   7.723   6.255  26.179 -0.1703 -0.3239 -0.4354
    5HTM    C22 1608   7.789   6.372  26.159 -0.1305 -0.3505 -0.4587
    5HTM    C23 1609   7.881   6.406  26.264 -0.4636 -0.1261 -0.2365
    5HTM    C24 1610   7.885   6.314  26.365 -0.7575  0.0715 -0.0440
    5HTM     S3 1611   7.771   6.177  26.335 -0.6354 -0.0110 -0.1288
    6TAL    C25 1612   7.948   6.542  26.244  0.1934 -0.0217 -0.3567
    6TAL    C26 1613   7.893   6.684  26.273  0.6700  0.3762  0.2432
    6TAL    C27 1614   7.792   6.756  26.176 -0.3049  0.1744 -0.2329
    6TAL    C28 1615   7.769   6.899  26.214  0.3064 -0.3049  0.0500
    6TAL    C29 1616   7.694   6.970  26.114  0.6069  0.1454 -0.1987
    6TAL    C30 1617   7.553   6.991  26.163  0.1861  1.1474  0.2005
    7HTM    C31 1618   7.987   6.303  26.465 -0.3481 -0.2080  0.1213
    7HTM    C32 1619   8.086   6.212  26.480 -0.6897 -0.6349 -0.1721
    7HTM    C33 1620   8.162   6.227  26.602 -0.2788 -0.9687 -0.3786
    7HTM    C34 1621   8.120   6.331  26.680  0.3762 -0.7960 -0.2421
    7HTM     S4 1622   7.981   6.418  26.605  0.5260 -0.1938  0.1604
    8TAL    C35 1623   8.278   6.134  26.630 -0.3442 -0.2449 -0.7640
    8TAL    C36 1624   8.301   5.989  26.571 -1.3042  0.3081  1.4380
    8TAL    C37 1625   8.204   5.875  26.575  0.3235 -0.2930  0.2215
    8TAL    C38 1626   8.068   5.881  26.500  0.8559  0.8668  0.2182
    8TAL    C39 1627   8.034   5.772  26.395  0.1941  0.2087  0.0759
    8TAL    C40 1628   7.941   5.826  26.293  0.8670  0.3272 -0.2485
    9HTM    C41 1629   8.138   6.366  26.827 -0.4019 -0.8389  0.0345
    9HTM    C42 1630   8.057   6.435  26.911 -0.5717 -1.2941  0.2537
    9HTM    C43 1631   8.110   6.450  27.044 -0.3165 -1.0467  0.1259
    9HTM    C44 1632   8.232   6.392  27.062  0.0478 -0.4027 -0.1893
    9HTM     S5 1633   8.289   6.313  26.910  0.0974 -0.0563 -0.3531
   10TAL    C45 1634   8.039   6.545  27.136  0.4468 -0.3591 -0.0235
   10TAL    C46 1635   7.900   6.496  27.172  0.6736  0.4761  0.2030
   10TAL    C47 1636   7.815   6.590  27.258  0.1183  0.9487 -0.3855
   10TAL    C48 1637   7.684   6.511  27.302 -0.1204 -0.5238 -0.4374
   10TAL    C49 1638   7.620   6.544  27.431 -0.1814  0.0274 -0.2378
   10TAL    C50 1639   7.552   6.436  27.524  0.2154 -0.2683  0.2287
   11HTM    C51 1640   8.320   6.397  27.176  0.5689  0.1385 -0.5907
   11HTM    C52 1641   8.454   6.374  27.175  0.5391 -0.0536 -0.3405
   11HTM    C53 1642   8.519   6.406  27.300  0.2660 -0.6981 -0.0210
   11HTM    C54 1643   8.435   6.454  27.395  0.0877 -0.9972 -0.0263
   11HTM     S6 1644   8.265   6.461  27.335  0.2520 -0.4844 -0.4397
   12TAL    C55 1645   8.670   6.407  27.304  0.4248  0.3957 -0.1926
   12TAL    C56 1646   8.755   6.287  27.351  0.2180  0.1817  0.2360
   12TAL    C57 1647   8.725   6.218  27.486  0.0815  0.4163 -0.1357
   12TAL    C58 1648   8.733   6.300  27.618 -1.0611  0.1104  0.5267
   12TAL    C59 1649   8.875   6.336  27.669  0.6785  0.2875  0.2233
   12TAL    C60 1650   8.961   6.218  27.692 -0.5238 -0.0980  0.2417
   13HTM    C61 1651   8.464   6.488  27.525  0.0825  0.4526 -0.8208
   13HTM    C62 1652   8.407   6.447  27.643 -0.2832 -0.1489 -1.1950
   13HTM    C63 1653   8.466   6.508  27.759 -0.6594 -0.7190 -0.6967
   13HTM    C64 1654   8.567   6.595  27.731 -0.5805 -0.5521  0.0569
   13HTM     S7 1655   8.596   6.607  27.553 -0.0207  0.3447  0.1971
   14TAL    C65 1656   8.404   6.487  27.902 -0.3636  0.6210  0.1932
   14TAL    C66 1657   8.268   6.413  27.914 -0.2925  0.0975 -0.0349
   14TAL    C67 1658   8.275   6.274  27.972 -0.4027  0.2609 -0.2993
   14TAL    C68 1659   8.151   6.231  28.048  0.5551 -1.7270  0.2164
   14TAL    C69 1660   8.162   6.098  28.130  0.3581 -0.6124 -0.5536
   14TAL    C70 1661   8.184   5.961  28.067  0.5364 -0.0946  0.5024
   15HTM    C71 1662   8.658   6.665  27.822 -0.9758  0.4998  0.6364
   15HTM    C72 1663   8.651   6.794  27.867 -0.4950  0.4970  0.7343
   15HTM    C73 1664   8.747   6.825  27.969  0.1020  0.2675  0.2532
   15HTM    C74 1665   8.828   6.721  28.002  0.0764  0.0955 -0.2104
   15HTM     S8 1666   8.788   6.573  27.906 -0.7098  0.2106 -0.0755
   16TAL    C75 1667   8.752   6.965  28.029 -0.1645  0.2051 -0.1942
   16TAL    C76 1668   8.646   7.076  28.014  0.0222 -0.0770 -0.7355
   16TAL    C77 1669   8.645   7.153  27.886  0.1730 -0.9324 -0.1514
   16TAL    C78 1670   8.510   7.223  27.855  0.1034  0.7599 -0.5618
   16TAL    C79 1671   8.501   7.375  27.849 -0.2584 -0.2105  0.1884
   16TAL    C80 1672   8.532   7.447  27.984 -0.4913  0.1997 -0.0134
   17HTM    C81 1673   8.922   6.703  28.116  0.0749 -0.2285  0.2643
   17HTM    C82 1674   8.974   6.799  28.198  0.2937 -0.1811  0.0710
   17HTM    C83 1675   9.080   6.750  28.284  0.2763 -0.2162  0.0730
   17HTM    C84 1676   9.107   6.618  28.267  0.0441 -0.2907  0.2674
   17HTM     S9 1677   9.002   6.543  28.141 -0.1722 -0.3223  0.4653
   18TAL    C85 1678   9.143   6.822  28.407 -0.2850 -0.1156  0.0174
   18TAL    C86 1679   9.057   6.938  28.457  0.7366  0.4419  0.5821
   18TAL    C87 1680   9.149   7.056  28.488  1.0382  0.0905  0.1890
   18TAL    C88 1681   9.073   7.176  28.548 -0.1316 -0.6265  0.3795
   18TAL    C89 1682   8.974   7.263  28.459  0.2892  0.9448 -0.6292
   18TAL    C90 1683   8.919   7.379  28.534 -0.1415 -0.6235  0.0633
   19HTM    C91 1684   9.199   6.520  28.323 -0.1881 -0.2816  0.6212
   19HTM    C92 1685   9.184   6.385  28.341  0.4397 -0.4706 -0.1450
   19HTM    C93 1686   9.301   6.320  28.395  0.8387 -0.2905 -0.7706
   19HTM    C94 1687   9.405   6.405  28.418  0.5151  0.0357 -0.4809
   19HTM    S10 1688   9.364   6.575  28.373 -0.3252  0.1415  0.6134
   20TAL    C95 1689   9.289   6.180  28.436 -0.3477 -0.1017  0.0487
   20TAL    C96 1690   9.263   6.080  28.327 -1.4389  0.4723  0.4371
   20TAL    C97 1691   9.349   6.083  28.182 -0.2667  0.3606 -1.0440
   20TAL    C98 1692   9.481   6.021  28.200 -0.3868 -0.3020  1.2106
   20TAL    C99 1693   9.573   6.013  28.077 -0.4698 -0.2956  0.0645
   20TAL   C100 1694   9.720   5.974  28.099 -0.0588 -0.3241  0.0697
   21HTM   C101 1695   9.530   6.383  28.484 -0.0356  0.0470  0.1619
   21HTM   C102 1696   9.612   6.279  28.450 -0.2065 -0.1700  0.4125
   21HTM   C103 1697   9.747   6.294  28.496 -0.2035 -0.3291  0.4587
   21HTM   C104 1698   9.769   6.410  28.564 -0.0301 -0.2336  0.2440
   21HTM    S11 1699   9.619   6.510  28.576  0.1440  0.0672 -0.0366
   22TAL   C105 1700   9.857   6.201  28.461 -1.6476  0.5313  0.1270
   22TAL   C106 1701   9.870   6.061  28.511  0.2829  1.0953 -0.5024
   22TAL   C107 1702  10.005   5.996  28.547  0.8038 -0.6007 -0.3573
   22TAL   C108 1703  10.080   6.080  28.642 -1.0545  0.4831  0.3834
   22TAL   C109 1704  10.223   6.031  28.659 -0.1662 -0.6722 -0.4194
   22TAL   C110 1705  10.312   6.026  28.529 -0.6921  0.5684  0.8703
   23HTM   C111 1706   9.887   6.478  28.608 -0.1772  0.7414 -0.0734
   23HTM   C112 1707   9.958   6.575  28.544 -0.5238  1.1842  0.2074
   23HTM   C113 1708  10.053   6.643  28.628 -0.2956  0.8242  0.2422
   23HTM   C114 1709  10.056   6.597  28.756  0.2249  0.1070 -0.0133
   23HTM    S12 1710   9.937   6.463  28.781  0.4690 -0.1718 -0.3191
   24TAL   C115 1711  10.170   6.730  28.576 -0.5796  0.0682 -0.7849
   24TAL   C116 1712  10.150   6.828  28.457 -0.4772  1.3347  0.5962
   24TAL   C117 1713  10.267   6.817  28.362 -0.7322  0.3110  0.7223
   24TAL   C118 1714  10.381   6.922  28.351  0.2544  1.3338 -0.3512
   24TAL   C119 1715  10.337   7.062  28.319  0.2421  0.0107  0.1822
   24TAL   C120 1716  10.454   7.141  28.270 -0.1552  0.3069  0.3974
   25HTM   C121 1717  10.132   6.657  28.864 -0.2894  0.0834  0.3585
   25HTM   C122 1718  10.230   6.593  28.935 -0.3114  0.0610  0.3690
   25HTM   C123 1719  10.289   6.674  29.039 -0.0038  0.1954  0.0928
   25HTM   C124 1720  10.236   6.800  29.047  0.2530  0.3201 -0.1282
   25HTM    S13 1721  10.107   6.825  28.924  0.1250  0.2776 -0.0037
   26TAL   C125 1722  10.406   6.628  29.127 -0.5261 -0.1147 -0.1864
   26TAL   C126 1723  10.454   6.482  29.155 -0.5144  0.5822 -0.3211
   26TAL   C127 1724  10.331   6.394  29.194  1.6495 -0.0857  0.1752
   26TAL   C128 1725  10.373   6.270  29.266 -0.2880 -0.8187  0.1957
   26TAL   C129 1726  10.266   6.161  29.288  0.2747 -0.0300 -0.2414
   26TAL   C130 1727  10.169   6.146  29.168 -0.3279 -0.6306  0.8197
   27HTM   C131 1728  10.266   6.906  29.140 -0.5707 -0.2928  0.2583
   27HTM   C132 1729  10.198   7.024  29.138 -1.3812 -0.7206  0.9764
   27HTM   C133 1730  10.234   7.113  29.246 -1.5233 -0.8720  1.1509
   27HTM   C134 1731  10.329   7.062  29.329 -0.8212 -0.5600  0.5657
   27HTM    S14 1732  10.381   6.897  29.278  0.0810 -0.0464 -0.2575
   28TAL   C135 1733  10.177   7.252  29.270  0.0845 -0.7652  0.0384
   28TAL   C136 1734  10.087   7.320  29.158  0.0224  0.2448  0.3449
   28TAL   C137 1735  10.061   7.468  29.181 -0.0706  0.5658  0.5020
   28TAL   C138 1736   9.994   7.531  29.057 -0.2375  0.4940 -0.1984
   28TAL   C139 1737   9.999   7.683  29.046  0.2775 -0.3039  0.3769
   28TAL   C140 1738   9.961   7.734  28.911  0.2531  0.2091  0.3505
   29HTM   C141 1739  10.413   7.125  29.442  0.5699  1.0197  0.2021
   29HTM   C142 1740  10.389   7.233  29.522  0.9362  1.0182  0.3191
   29HTM   C143 1741  10.484   7.249  29.629  0.8237  0.4070  0.5180
   29HTM   C144 1742  10.581   7.153  29.631  0.3718 -0.0575  0.5526
   29HTM    S15 1743  10.559   7.034  29.497  0.0506  0.2432  0.3349
   30TAL   C145 1744  10.456   7.373  29.714  0.6048 -0.3872  0.1608
   30TAL   C146 1745  10.440   7.367  29.867  0.4133 -0.0952 -0.6533
   30TAL   C147 1746  10.356   7.261  29.933  0.2887  0.5577  0.0045
   30TAL   C148 1747  10.329   7.280  30.073 -0.1321 -0.5150 -0.5752
   30TAL   C149 1748  10.268   7.150  30.144 -0.1254  0.5836 -0.4493
   30TAL   C150 1749  10.356   7.016  30.145 -0.0088 -0.5632 -0.5916
   31HTM   C151 1750  10.678   7.108  29.729  0.2192  0.5523  0.1380
   31HTM   C152 1751  10.657   7.070  29.858 -0.0094  0.0834 -0.0303
   31HTM   C153 1752  10.776   7.026  29.926 -0.1293 -0.1677  0.0186
   31HTM   C154 1753  10.888   7.030  29.847  0.0079  0.1094  0.2241
   31HTM    S16 1754  10.851   7.090  29.682  0.3013  0.7139  0.3730
   32TAL   C155 1755  10.763   6.979  30.064 -0.6133  0.7378  0.3246
   32TAL   C156 1756  10.716   7.084  30.166  0.2352  0.9510  0.3230
   32TAL   C157 1757  10.703   7.027  30.308 -0.6359  0.1327 -0.1801
   32TAL   C158 1758  10.722   7.126  30.424  0.8903  0.1132 -0.0947
   32TAL   C159 1759  10.610   7.237  30.436  0.3773 -0.4591 -0.2829
   32TAL   C160 1760  10.667   7.349  30.531  0.2142 -0.8402  0.3082
   33HTM   C161 1761  11.030   7.027  29.892  0.0499  0.3448 -0.0804
   33HTM   C162 1762  11.082   7.060  30.013  0.0709  0.4877 -0.1277
   33HTM   C163 1763  11.225   7.043  30.022  0.0269  0.1709 -0.0250
   33HTM   C164 1764  11.282   6.996  29.908 -0.0278 -0.2134  0.1005
   33HTM    S17 1765  11.159   6.971  29.778 -0.0277 -0.2050  0.0988
   34TAL   C165 1766  11.301   7.081  30.159  0.9245 -0.6273  0.1951
   34TAL   C166 1767  11.321   7.227  30.179 -0.6038 -0.4259  0.7845
   34TAL   C167 1768  11.209   7.328  30.205  0.6858  0.2433 -0.5881
   34TAL   C168 1769  11.111   7.290  30.316  0.0714 -1.2306 -0.5125
   34TAL   C169 1770  11.144   7.386  30.436  0.0650 -0.4990 -0.3199
   34TAL   C170 1771  11.060   7.365  30.563 -0.8539  0.8271  0.2073
   35HTM   C171 1772  11.424   6.986  29.872  0.3034  1.0625  0.4141
   35HTM   C172 1773  11.536   6.970  29.948  0.6214  1.5621  0.0597
   35HTM   C173 1774  11.657   6.958  29.871  0.3089  1.0980 -0.3716
   35HTM   C174 1775  11.637   6.965  29.736 -0.2474  0.2446 -0.3460
   35HTM    S18 1776  11.463   6.987  29.696 -0.4212 -0.0417  0.2292
   36TAL   C175 1777  11.795   6.935  29.944  0.0903  0.0719  1.0393
   36TAL   C176 1778  11.810   6.891  30.090 -0.0615  0.2947  0.7743
   36TAL   C177 1779  11.949   6.877  30.154  0.3679  1.1646  0.0482
   36TAL   C178 1780  11.946   6.798  30.287  0.2415  0.5050  0.7189
   36TAL   C179 1781  11.895   6.646  30.289 -0.8715 -0.1858  0.5959
   36TAL   C180 1782  11.971   6.557  30.188 -0.0311 -0.6184 -0.3200
   37HTM   C181 1783  11.735   6.949  29.630 -0.0284  0.3589  0.2769
   37HTM   C182 1784  11.770   7.024  29.521 -0.0815  0.3783  0.2732
   37HTM   C183 1785  11.854   6.954  29.427 -0.2701  0.3368  0.1340
   37HTM   C184 1786  11.884   6.826  29.464 -0.3609  0.2857  0.0315
   37HTM    S19 1787  11.807   6.784  29.622 -0.2139  0.2861  0.1035
   38TAL   C185 1788  11.902   7.010  29.301 -0.6515 -0.2289  0.1453
   38TAL   C186 1789  12.045   7.078  29.315  1.1930  0.0277  0.1535
   38TAL   C187 1790  12.063   7.211  29.385 -0.7965  0.0164 -0.7272
   38TAL   C188 1791  12.041   7.210  29.539 -0.9217 -0.0715  0.1165
   38TAL   C189 1792  12.156   7.133  29.610  0.3865  0.4320 -0.4140
   38TAL   C190 1793  12.130   7.134  29.759  0.4678 -0.5419 -0.6245
   39HTM   C191 1794  11.953   6.714  29.394  0.0868 -0.3407 -0.0435
   39HTM   C192 1795  11.911   6.584  29.385  0.5828 -0.5212  0.2019
   39HTM   C193 1796  11.992   6.503  29.298  1.0084 -0.4261  0.5047
   39HTM   C194 1797  12.096   6.571  29.241  0.8369 -0.1735  0.4902
   39HTM    S20 1798  12.099   6.744  29.292  0.1189 -0.0348  0.0898
   40TAL   C195 1799  11.971   6.356  29.270  0.2150 -0.2746  0.0607
   40TAL   C196 1800  11.967   6.256  29.388 -0.2270  0.6100  0.0808
   40TAL   C197 1801  12.069   6.284  29.504  0.1847  0.0900  0.0196
   40TAL   C198 1802  12.176   6.178  29.525 -0.1016 -0.8156 -0.4077
   40TAL   C199 1803  12.297   6.209  29.612 -0.0836 -0.5286 -0.5872
   40TAL   C200 1804  12.387   6.096  29.611 -0.1027 -0.4747  0.2156
   41HTM   C201 1805  12.194   6.527  29.141  0.4583 -0.0479  0.2109
   41HTM   C202 1806  12.207   6.560  29.009  0.6266  0.2198  0.2925
   41HTM   C203 1807  12.313   6.490  28.942  0.5553  0.1752  0.2266
   41HTM   C204 1808  12.381   6.404  29.022  0.3327 -0.1265  0.0948
   41HTM    S21 1809  12.317   6.404  29.190  0.1947 -0.3795  0.0432
   42TAL   C205 1810  12.337   6.498  28.789  0.2401  0.3643  0.4339
   42TAL   C206 1811  12.428   6.617  28.755  0.8645  0.3357  0.0291
   42TAL   C207 1812  12.401   6.676  28.618  0.4007  0.2661  1.0783
   42TAL   C208 1813  12.253   6.714  28.574  0.3294 -1.0722  0.2562
   42TAL   C209 1814  12.244   6.792  28.444  0.4593 -0.6020 -0.0495
   42TAL   C210 1815  12.272   6.706  28.320  0.9573 -0.7568  0.1448
   43HTM   C211 1816  12.494   6.318  28.988 -0.1691  0.4440 -0.0437
   43HTM   C212 1817  12.603   6.350  28.913 -0.2850  0.3141 -0.2714
   43HTM   C213 1818  12.694   6.240  28.891 -0.4443  0.2139 -0.4348
   43HTM   C214 1819  12.653   6.124  28.950 -0.4499  0.2673 -0.3316
   43HTM    S22 1820  12.497   6.144  29.037 -0.2529  0.4501 -0.0177
   44TAL   C215 1821  12.827   6.271  28.819  0.1582 -0.5831  0.0693
   44TAL   C216 1822  12.861   6.424  28.782 -0.1929  1.4155 -0.5971
   44TAL   C217 1823  12.999   6.457  28.736 -0.1701  0.7921 -0.1899
   44TAL   C218 1824  12.990   6.605  28.699  1.6210  0.6639 -0.0761
   44TAL   C219 1825  13.120   6.676  28.660 -0.6630  1.6630 -0.9963
   44TAL   C220 1826  13.137   6.823  28.689  0.2918 -0.1924  0.3747
   45HTM   C221 1827  12.717   5.990  28.941  0.3454  0.0491  0.2593
   45HTM   C222 1828  12.658   5.873  28.905  0.1632  0.0995  0.3886
   45HTM   C223 1829  12.752   5.765  28.883  0.0226  0.0147  0.1980
   45HTM   C224 1830  12.882   5.800  28.903  0.0979 -0.1005 -0.0767
   45HTM    S23 1831  12.897   5.973  28.952  0.3539 -0.1108 -0.1162
   46TAL   C225 1832  12.708   5.623  28.837  0.0161  0.3921  0.2697
   46TAL   C226 1833  12.641   5.532  28.943 -0.9895 -0.6276 -0.8464
   46TAL   C227 1834  12.724   5.510  29.067  0.1822 -0.1421  0.5962
   46TAL   C228 1835  12.641   5.438  29.162  1.3361  0.3738  0.5376
   46TAL   C229 1836  12.721   5.428  29.283  0.1764 -0.3938  0.2712
   46TAL   C230 1837  12.643   5.371  29.395 -0.7903  0.5655 -0.3641
   47HTM   C231 1838  13.009   5.730  28.874  0.0441 -0.0737 -0.6506
   47HTM   C232 1839  13.029   5.618  28.800  0.7038 -0.0999 -0.4454
   47HTM   C233 1840  13.168   5.583  28.784  0.8754  0.1980  0.3335
   47HTM   C234 1841  13.253   5.668  28.848  0.3466  0.4515  0.7224
   47HTM    S24 1842  13.164   5.800  28.932 -0.4149  0.3328  0.1302
   48TAL   C235 1843  13.198   5.443  28.730  0.8599  1.2475 -0.9284
   48TAL   C236 1844  13.342   5.414  28.701 -0.1197  0.3309  0.2731
   48TAL   C237 1845  13.414   5.505  28.592 -0.4863 -0.5002  1.1064
   48TAL   C238 1846  13.371   5.508  28.447 -0.1676 -0.1365 -0.2806
   48TAL   C239 1847  13.238   5.459  28.406  1.4944  0.3000  0.6367
   48TAL   C240 1848  13.218   5.481  28.245 -0.4397  0.0958  0.6671
    1HTM     C1 1849   2.824   6.354  10.224 -0.0199 -0.1721  0.0266
    1HTM     C2 1850   2.745   6.330  10.115 -0.1551 -0.1026  0.1085
    1HTM     C3 1851   2.816   6.340   9.990 -0.2944 -0.0921  0.0305
    1HTM     C4 1852   2.948   6.371  10.003 -0.2652 -0.1534 -0.1105
    1HTM     S1 1853   2.994   6.391  10.177 -0.0580 -0.2300 -0.1564
    2TAL     C5 1854   2.739   6.338   9.863  0.2504 -0.6994  1.0285
    2TAL     C6 1855   2.637   6.224   9.846 -0.5456  0.2047  1.2580
    2TAL     C7 1856   2.571   6.203   9.711 -1.1377 -0.1862  0.3249
    2TAL     C8 1857   2.477   6.090   9.695 -0.0805 -0.5765 -0.0157
    2TAL     C9 1858   2.347   6.097   9.783 -0.0391 -0.6352  0.3992
    2TAL    C10 1859   2.258   5.984   9.743  0.0715 -0.4415 -0.5462
    3HTM    C11 1860   3.053   6.377   9.906 -0.3057  0.1028 -0.4888
    3HTM    C12 1861   3.159   6.460   9.927 -0.9413  1.0397 -0.8626
    3HTM    C13 1862   3.251   6.465   9.816 -0.9305  1.1729 -0.8483
    3HTM    C14 1863   3.214   6.385   9.711 -0.2868  0.3371 -0.4631
    3HTM     S2 1864   3.060   6.298   9.745  0.3609 -0.6906 -0.0862
    4TAL    C15 1865   3.374   6.550   9.828  0.3275  0.7221 -0.2232
    4TAL    C16 1866   3.407   6.641   9.951  0.1839  0.8558 -0.0196
    4TAL    C17 1867   3.557   6.673   9.945 -0.7186  0.4199  0.6561
    4TAL    C18 1868   3.593   6.799  10.019 -1.0517  0.2265 -0.3303
    4TAL    C19 1869   3.746   6.801  10.063  0.1814  0.3929 -0.0969
    4TAL    C20 1870   3.784   6.908  10.169 -0.0251 -0.1200  0.7750
    5HTM    C21 1871   3.294   6.337   9.598  0.0987  0.1187 -0.2540
    5HTM    C22 1872   3.315   6.206   9.565  0.6513  0.1320  0.0203
    5HTM    C23 1873   3.401   6.188   9.451  0.9118  0.2451  0.1957
    5HTM    C24 1874   3.446   6.305   9.397  0.5579  0.3181  0.0557
    5HTM     S3 1875   3.382   6.448   9.486 -0.1374  0.2492 -0.3114
    6TAL    C25 1876   3.416   6.047   9.409 -0.0534 -0.6963  0.0419
    6TAL    C26 1877   3.317   5.966   9.324 -0.2668  0.5662  0.1513
    6TAL    C27 1878   3.396   5.858   9.253 -1.3021 -0.7936  0.6499
    6TAL    C28 1879   3.481   5.764   9.328 -0.5480 -0.0822  0.1009
    6TAL    C29 1880   3.606   5.698   9.277 -0.9410 -1.2852  0.1479
    6TAL    C30 1881   3.717   5.800   9.222  0.7352 -0.3206 -0.0607
    7HTM    C31 1882   3.541   6.336   9.288  0.2282  0.2845  0.5515
    7HTM    C32 1883   3.563   6.453   9.222  0.3308  0.4371  0.8538
    7HTM    C33 1884   3.664   6.443   9.119  0.0936  0.5305  0.6089
    7HTM    C34 1885   3.718   6.319   9.107 -0.1899  0.4486  0.1200
    7HTM     S4 1886   3.646   6.203   9.225 -0.1792  0.2460 -0.0710
    8TAL    C35 1887   3.715   6.564   9.050  0.8138  0.8285  0.3380
    8TAL    C36 1888   3.776   6.674   9.142  0.9018 -1.2134 -0.4412
    8TAL    C37 1889   3.876   6.623   9.247 -0.3994 -0.4638 -0.2223
    8TAL    C38 1890   4.013   6.566   9.195  0.4750 -0.7108 -0.0955
    8TAL    C39 1891   4.094   6.681   9.155 -0.0479  0.3292  0.7028
    8TAL    C40 1892   4.158   6.650   9.021  0.4680  0.5316 -0.0551
    9HTM    C41 1893   3.814   6.262   9.015  0.1258 -0.1116 -0.4103
    9HTM    C42 1894   3.809   6.257   8.879  0.3599 -0.1512 -0.4179
    9HTM    C43 1895   3.904   6.166   8.821  0.3332 -0.3084 -0.2167
    9HTM    C44 1896   3.982   6.102   8.913  0.0790 -0.3889 -0.0554
    9HTM     S5 1897   3.941   6.152   9.081 -0.1484 -0.2712 -0.1459
   10TAL    C45 1898   3.904   6.139   8.674  0.8740 -0.3283 -0.7101
   10TAL    C46 1899   3.768   6.098   8.618  0.4309 -0.6617  0.0987
   10TAL    C47 1900   3.772   6.093   8.464 -0.0467  0.4651  0.1961
   10TAL    C48 1901   3.641   6.042   8.403 -0.8013  0.1604 -0.9565
   10TAL    C49 1902   3.628   5.978   8.266  0.9498  0.2511 -0.3918
   10TAL    C50 1903   3.707   5.852   8.236 -0.0718 -0.0836  0.5262
   11HTM    C51 1904   4.097   6.017   8.896 -0.1081 -0.3185 -0.1032
   11HTM    C52 1905   4.212   6.058   8.837 -0.1409 -0.5913 -0.3619
   11HTM    C53 1906   4.327   5.981   8.874 -0.1559 -0.5515 -0.2310
   11HTM    C54 1907   4.300   5.880   8.961 -0.1344 -0.2485  0.1280
   11HTM     S6 1908   4.125   5.875   9.004 -0.0933  0.0122  0.3302
   12TAL    C55 1909   4.460   6.034   8.827 -0.9112  0.2095 -0.1787
   12TAL    C56 1910   4.485   6.177   8.774 -0.1461 -1.5379 -0.4490
   12TAL    C57 1911   4.600   6.194   8.685 -0.2541 -0.4469  0.2695
   12TAL    C58 1912   4.612   6.098   8.574  0.6418 -0.3971 -0.4793
   12TAL    C59 1913   4.746   6.077   8.524 -0.1219 -0.5188 -0.9543
   12TAL    C60 1914   4.753   5.995   8.391  0.2108  0.6436  0.4072
   13HTM    C61 1915   4.386   5.770   9.019  0.0606 -0.1616 -0.4962
   13HTM    C62 1916   4.354   5.669   9.104 -0.0709 -0.4274 -0.8564
   13HTM    C63 1917   4.467   5.589   9.144 -0.1632 -0.6727 -1.0827
   13HTM    C64 1918   4.585   5.629   9.090 -0.1021 -0.5942 -0.8946
   13HTM     S7 1919   4.563   5.772   8.982  0.0783 -0.2009 -0.4140
   14TAL    C65 1920   4.437   5.470   9.243 -0.8648  0.0955 -0.4520
   14TAL    C66 1921   4.337   5.464   9.355  0.0616 -0.4875  0.1638
   14TAL    C67 1922   4.339   5.322   9.400  0.4855 -0.8224 -0.2023
   14TAL    C68 1923   4.227   5.285   9.505 -1.1606 -0.0299 -0.6561
   14TAL    C69 1924   4.272   5.342   9.645 -0.3111 -0.1725  1.1506
   14TAL    C70 1925   4.164   5.359   9.743 -0.0570 -0.7126 -0.1549
   15HTM    C71 1926   4.726   5.584   9.117  0.1370  0.3225 -0.0517
   15HTM    C72 1927   4.832   5.628   9.045  0.4153  0.2747  0.3240
   15HTM    C73 1928   4.958   5.570   9.086  0.1915 -0.0970  0.4971
   15HTM    C74 1929   4.947   5.482   9.189 -0.2578 -0.3324  0.2534
   15HTM     S8 1930   4.776   5.465   9.243 -0.4341 -0.1014 -0.2171
   16TAL    C75 1931   5.093   5.600   9.012  0.9151  0.0836 -0.2522
   16TAL    C76 1932   5.111   5.605   8.865  0.2223 -0.4949 -0.0812
   16TAL    C77 1933   5.246   5.654   8.827  0.2659 -0.2983  0.8949
   16TAL    C78 1934   5.239   5.805   8.804 -0.6795 -0.3762  0.8341
   16TAL    C79 1935   5.353   5.836   8.701 -0.7780  0.1983 -0.3081
   16TAL    C80 1936   5.389   5.976   8.667 -0.8603 -0.8667  0.5812
   17HTM    C81 1937   5.048   5.390   9.253 -0.1006  0.3068  0.8112
   17HTM    C82 1938   5.176   5.378   9.208 -0.1698  0.1794  0.6468
   17HTM    C83 1939   5.255   5.283   9.282 -0.2947 -0.2283  0.2677
   17HTM    C84 1940   5.187   5.223   9.384 -0.3205 -0.4119  0.1428
   17HTM     S9 1941   5.017   5.282   9.394 -0.1883 -0.0815  0.4972
   18TAL    C85 1942   5.396   5.256   9.242  0.2737 -0.1574 -0.7177
   18TAL    C86 1943   5.498   5.374   9.250  0.1202  1.6325  0.9910
   18TAL    C87 1944   5.495   5.444   9.113  0.2732  0.0110 -0.9700
   18TAL    C88 1945   5.600   5.553   9.134 -0.2354 -0.0126  0.0323
   18TAL    C89 1946   5.640   5.657   9.036  0.7285 -0.1377  0.2644
   18TAL    C90 1947   5.556   5.781   9.052 -0.5535 -0.6087  0.1441
   19HTM    C91 1948   5.224   5.133   9.490 -0.4972 -0.0666  0.6833
   19HTM    C92 1949   5.142   5.074   9.581  0.1427 -0.1184  1.2386
   19HTM    C93 1950   5.209   4.979   9.667  0.8031  0.0236  0.8936
   19HTM    C94 1951   5.342   4.966   9.640  0.6669  0.1838  0.0753
   19HTM    S10 1952   5.394   5.072   9.504 -0.3138  0.1676 -0.3263
   20TAL    C95 1953   5.120   4.912   9.785 -0.6537 -1.0195  0.9557
   20TAL    C96 1954   5.064   4.783   9.745  0.3033  0.0623  0.6055
   20TAL    C97 1955   4.920   4.774   9.696 -0.1224 -0.5928  0.7349
   20TAL    C98 1956   4.868   4.637   9.642 -0.5203  0.2001 -0.4152
   20TAL    C99 1957   4.719   4.626   9.609  0.1890  0.5166  0.1908
   20TAL   C100 1958   4.620   4.611   9.724  0.2377  0.5284 -0.2111
   21HTM   C101 1959   5.457   4.894   9.700  0.2996 -0.5165 -0.1318
   21HTM   C102 1960   5.589   4.907   9.666  0.4133 -0.8391  0.1767
   21HTM   C103 1961   5.676   4.821   9.741  0.0364 -0.9999  0.4394
   21HTM   C104 1962   5.612   4.744   9.833 -0.3649 -0.8002  0.3313
   21HTM    S11 1963   5.434   4.773   9.831 -0.2974 -0.3902 -0.1140
   22TAL   C105 1964   5.820   4.811   9.702  0.0901 -1.6469 -0.4926
   22TAL   C106 1965   5.905   4.906   9.787 -0.4336 -0.0016 -0.1881
   22TAL   C107 1966   6.049   4.902   9.729 -0.0463  1.2472 -0.2096
   22TAL   C108 1967   6.143   4.804   9.791 -0.0289  0.1893  0.3927
   22TAL   C109 1968   6.159   4.759   9.939  0.1413 -0.4781  0.5284
   22TAL   C110 1969   6.267   4.829  10.018 -0.1450 -0.1239 -0.2380
   23HTM   C111 1970   5.673   4.637   9.914 -0.1671 -0.2202 -0.6759
   23HTM   C112 1971   5.616   4.577  10.023 -0.2136 -0.6040 -0.9072
   23HTM   C113 1972   5.702   4.481  10.087  0.0048 -0.3569 -0.8266
   23HTM   C114 1973   5.824   4.468  10.028  0.2181  0.2151 -0.5338
   23HTM    S12 1974   5.840   4.576   9.885  0.1587  0.4883 -0.3354
   24TAL   C115 1975   5.650   4.424  10.229 -0.6984  0.0744  0.0964
   24TAL   C116 1976   5.512   4.447  10.278  0.3740  0.5741 -0.3990
   24TAL   C117 1977   5.457   4.372  10.400  0.0763  0.5232 -0.7801
   24TAL   C118 1978   5.487   4.227  10.419  0.0243  0.1434  0.0163
   24TAL   C119 1979   5.442   4.147  10.536 -1.2519  0.0638 -0.8722
   24TAL   C120 1980   5.523   4.027  10.544  0.8767  0.3904  1.0707
   25HTM   C121 1981   5.937   4.386  10.058  0.2515 -0.3871 -0.9332
   25HTM   C122 1982   6.055   4.377   9.990  0.2307 -1.1845 -0.8874
   25HTM   C123 1983   6.146   4.280  10.045 -0.2540 -1.4673 -0.5610
   25HTM   C124 1984   6.098   4.215  10.154 -0.6029 -0.8851 -0.3574
   25HTM    S13 1985   5.932   4.271  10.198 -0.3441  0.0725 -0.5645
   26TAL   C125 1986   6.270   4.252   9.965 -0.2849 -0.2074  0.7787
   26TAL   C126 1987   6.265   4.214   9.817 -0.0860  0.2315  0.1374
   26TAL   C127 1988   6.198   4.077   9.756 -0.1972  1.1191 -0.1472
   26TAL   C128 1989   6.277   3.944   9.766  0.1088 -0.9188  0.2935
   26TAL   C129 1990   6.421   3.945   9.718 -0.5901 -0.3621  0.3119
   26TAL   C130 1991   6.471   3.966   9.568 -0.0692 -0.5483  0.3593
   27HTM   C131 1992   6.163   4.124  10.247  0.0250  0.7391  0.4434
   27HTM   C132 1993   6.102   4.070  10.356 -0.1776  1.0782  0.5031
   27HTM   C133 1994   6.186   3.979  10.429 -0.6818  0.4287  0.2918
   27HTM   C134 1995   6.311   3.964  10.376 -0.8640 -0.4057  0.0714
   27HTM    S14 1996   6.332   4.064  10.228 -0.4094 -0.4361  0.1138
   28TAL   C135 1997   6.122   3.897  10.545 -0.4005 -0.0286  0.5916
   28TAL   C136 1998   6.023   3.967  10.642 -0.1133 -0.1038  0.3342
   28TAL   C137 1999   6.092   4.063  10.735 -0.6703 -0.9903 -0.3290
   28TAL   C138 2000   6.026   4.129  10.857  0.4154 -0.6051  0.0069
   28TAL   C139 2001   6.123   4.188  10.954  0.0607 -0.9451  0.5849
   28TAL   C140 2002   6.056   4.219  11.084  0.8906 -0.6413  0.8153
   29HTM   C141 2003   6.423   3.888  10.414  0.2008 -0.5089 -0.0855
   29HTM   C142 2004   6.496   3.796  10.345  0.0331 -1.0783  0.4675
   29HTM   C143 2005   6.607   3.741  10.419 -0.0753 -0.8408  0.8094
   29HTM   C144 2006   6.618   3.791  10.545  0.0096 -0.0903  0.5173
   29HTM    S15 2007   6.489   3.912  10.581  0.2351  0.3784 -0.2182
   30TAL   C145 2008   6.712   3.663  10.343  0.4937  0.2969  0.7798
   30TAL   C146 2009   6.680   3.621  10.197 -0.8513  0.0328  0.2555
   30TAL   C147 2010   6.738   3.728  10.102 -1.1744 -0.3272 -0.4490
   30TAL   C148 2011   6.694   3.710   9.958  1.2939  0.0245  0.9167
   30TAL   C149 2012   6.713   3.825   9.862  0.3505  0.2486  0.1726
   30TAL   C150 2013   6.794   3.945   9.905 -0.1400 -0.0294 -0.2056
   31HTM   C151 2014   6.726   3.786  10.634 -0.6016  0.5873  0.4465
   31HTM   C152 2015   6.831   3.873  10.643 -0.9726  1.0326  0.5832
   31HTM   C153 2016   6.907   3.858  10.765 -0.4889  0.6722  0.2439
   31HTM   C154 2017   6.860   3.761  10.848  0.2510 -0.0481 -0.1516
   31HTM    S16 2018   6.715   3.679  10.779  0.3952 -0.3290 -0.1256
   32TAL   C155 2019   7.025   3.951  10.785  0.5722  0.0193 -0.9026
   32TAL   C156 2020   6.993   4.059  10.885 -0.0156  1.4950  0.4466
   32TAL   C157 2021   7.109   4.158  10.913  0.6229 -0.1520  0.3953
   32TAL   C158 2022   7.082   4.275  11.015 -0.7826  1.3308  1.1853
   32TAL   C159 2023   7.173   4.265  11.136  0.5065 -0.0747 -0.0946
   32TAL   C160 2024   7.256   4.393  11.138 -0.2348  0.0527  0.2623
   33HTM   C161 2025   6.907   3.705  10.980 -0.2638  0.0653 -0.4467
   33HTM   C162 2026   7.026   3.719  11.045 -0.0572  0.3516 -0.8788
   33HTM   C163 2027   7.034   3.645  11.168  0.6262  0.2508 -0.9792
   33HTM   C164 2028   6.922   3.573  11.197  0.9407 -0.1125 -0.6230
   33HTM    S17 2029   6.795   3.595  11.070  0.3940 -0.3572 -0.1299
   34TAL   C165 2030   7.162   3.638  11.252  0.4168 -1.3765  1.1300
   34TAL   C166 2031   7.264   3.755  11.266  0.2967 -0.0302  0.8648
   34TAL   C167 2032   7.355   3.784  11.156 -0.4202 -0.3676  0.2892
   34TAL   C168 2033   7.465   3.694  11.118  0.0904  0.6587  0.0258
   34TAL   C169 2034   7.584   3.675  11.211  0.0488 -0.7523 -0.4302
   34TAL   C170 2035   7.695   3.591  11.167 -0.2391 -1.9182  0.0190
   35HTM   C171 2036   6.889   3.469  11.300  0.1456 -0.4547 -0.3306
   35HTM   C172 2037   6.801   3.366  11.289  0.3328 -0.6304 -0.1910
   35HTM   C173 2038   6.795   3.282  11.406  0.1640 -0.2246  0.0951
   35HTM   C174 2039   6.879   3.322  11.506 -0.1518  0.2604  0.1736
   35HTM    S18 2040   6.972   3.469  11.460 -0.2614  0.2422 -0.1096
   36TAL   C175 2041   6.711   3.155  11.416  0.4981 -0.7832  0.0034
   36TAL   C176 2042   6.744   3.027  11.330  0.7792 -0.4697  0.5666
   36TAL   C177 2043   6.871   2.957  11.364  0.0395  0.1800 -0.3325
   36TAL   C178 2044   6.952   2.891  11.261  0.0161  0.7093 -0.1019
   36TAL   C179 2045   6.887   2.762  11.201 -0.1015 -0.0452 -0.7815
   36TAL   C180 2046   6.935   2.631  11.256 -0.5510  0.0854  0.3575
   37HTM   C181 2047   6.882   3.269  11.644 -0.0416 -0.0893 -0.3754
   37HTM   C182 2048   6.879   3.139  11.685  0.2501 -0.0613 -0.2599
   37HTM   C183 2049   6.897   3.122  11.827  0.4179  0.0952 -0.2620
   37HTM   C184 2050   6.914   3.240  11.894  0.2544  0.1866 -0.3794
   37HTM    S19 2051   6.908   3.382  11.783 -0.1273  0.0811 -0.4969
   38TAL   C185 2052   6.883   2.988  11.893  0.8345 -1.3117 -0.9434
   38TAL   C186 2053   6.763   2.900  11.860 -0.4108 -0.1929  0.2795
   38TAL   C187 2054   6.752   2.761  11.931 -0.0735  0.0720 -0.1908
   38TAL   C188 2055   6.865   2.653  11.903  0.3283 -0.2346  0.0571
   38TAL   C189 2056   6.886   2.633  11.748 -1.3352 -0.2707 -0.6894
   38TAL   C190 2057   7.012   2.552  11.733  0.2875  0.6550 -0.7850
   39HTM   C191 2058   6.969   3.272  12.027  0.3923 -0.2804  0.1106
   39HTM   C192 2059   7.011   3.395  12.071  0.2476 -0.2217  0.0839
   39HTM   C193 2060   7.063   3.393  12.205  0.1481 -0.1100  0.1245
   39HTM   C194 2061   7.062   3.270  12.263  0.2167 -0.0833  0.1823
   39HTM    S20 2062   6.994   3.145  12.152  0.4143 -0.1983  0.1898
   40TAL   C195 2063   7.128   3.506  12.291  0.6622  1.0506  0.5441
   40TAL   C196 2064   7.173   3.637  12.236  0.6924  0.7768  0.6668
   40TAL   C197 2065   7.066   3.744  12.206  0.9483  0.3229 -0.5794
   40TAL   C198 2066   7.001   3.741  12.070  0.6003  0.4134  1.4249
   40TAL   C199 2067   6.862   3.824  12.065  0.3548  0.5727 -0.0242
   40TAL   C200 2068   6.786   3.770  11.949 -0.0513  0.4650  0.4530
   41HTM   C201 2069   7.102   3.223  12.386 -0.1270 -0.4016 -0.0222
   41HTM   C202 2070   7.038   3.210  12.505 -0.4277 -1.1604 -0.2501
   41HTM   C203 2071   7.108   3.129  12.601 -0.1774 -0.9562 -0.2584
   41HTM   C204 2072   7.226   3.079  12.555  0.3142 -0.0418 -0.0367
   41HTM    S21 2073   7.258   3.132  12.385  0.5007  0.6378  0.2012
   42TAL   C205 2074   7.057   3.117  12.730  0.1108  0.1369  0.6622
   42TAL   C206 2075   6.988   2.990  12.780 -0.4192 -0.5074 -0.0696
   42TAL   C207 2076   6.961   3.019  12.929 -0.3362  0.7614  0.4206
   42TAL   C208 2077   6.871   2.918  13.021 -0.4218 -0.3366 -0.2555
   42TAL   C209 2078   6.722   2.931  12.999 -0.4986  0.7362  0.0011
   42TAL   C210 2079   6.636   2.846  13.091  0.9975 -0.9797 -0.8167
   43HTM   C211 2080   7.313   2.983  12.610  0.0861 -0.0459 -0.3940
   43HTM   C212 2081   7.376   2.988  12.730 -0.1197  0.3303 -0.2997
   43HTM   C213 2082   7.449   2.869  12.763 -0.2154  0.4111  0.2227
   43HTM   C214 2083   7.441   2.772  12.668 -0.0827  0.0965  0.5275
   43HTM    S22 2084   7.340   2.824  12.528  0.1754 -0.3294  0.1751
   44TAL   C215 2085   7.542   2.874  12.906  0.9682 -0.0056  0.4000
   44TAL   C216 2086   7.525   2.998  12.998  0.2249 -0.9866 -0.0411
   44TAL   C217 2087   7.411   2.972  13.100 -0.0381 -0.7671 -0.3231
   44TAL   C218 2088   7.423   2.855  13.202  0.8098  0.1835 -0.0095
   44TAL   C219 2089   7.536   2.870  13.296 -0.4649 -0.6183 -1.3619
   44TAL   C220 2090   7.528   2.972  13.413 -0.1616  0.1771  0.9204
   45HTM   C221 2091   7.521   2.641  12.663  0.6389 -0.2109  0.1044
   45HTM   C222 2092   7.576   2.588  12.549  0.7213 -0.2723  0.1726
   45HTM   C223 2093   7.641   2.462  12.570  0.3579 -0.4542  0.2115
   45HTM   C224 2094   7.635   2.417  12.699 -0.0015 -0.5314  0.1726
   45HTM    S23 2095   7.548   2.534  12.805  0.0918 -0.3793  0.0835
   46TAL   C225 2096   7.691   2.398  12.444 -0.1651  0.5095  0.6542
   46TAL   C226 2097   7.582   2.327  12.352 -0.2803  0.0106 -0.2012
   46TAL   C227 2098   7.630   2.254  12.228  0.2711  0.6937 -0.0305
   46TAL   C228 2099   7.767   2.196  12.193 -0.0429  1.2121  0.5602
   46TAL   C229 2100   7.819   2.082  12.289 -0.0789  0.0447  0.0723
   46TAL   C230 2101   7.962   2.052  12.270 -0.3699 -0.2663  0.0716
   47HTM   C231 2102   7.674   2.294  12.767 -0.3709 -0.0305 -0.8236
   47HTM   C232 2103   7.641   2.245  12.890 -0.8860  0.1044 -0.9027
   47HTM   C233 2104   7.705   2.119  12.921 -0.9267  0.1927 -0.4535
   47HTM   C234 2105   7.787   2.073  12.822 -0.4428  0.1251 -0.0320
   47HTM    S24 2106   7.789   2.185  12.680  0.1062 -0.0568 -0.1712
   48TAL   C235 2107   7.665   2.044  13.050 -0.5519 -0.5755 -0.4464
   48TAL   C236 2108   7.534   2.080  13.130  0.7160  0.1601  0.2123
   48TAL   C237 2109   7.521   2.021  13.263  1.2015  1.0176 -0.3189
   48TAL   C238 2110   7.391   2.013  13.344 -0.1609  0.3946 -0.6743
   48TAL   C239 2111   7.378   1.925  13.470 -0.0239  0.4017 -0.3111
   48TAL   C240 2112   7.247   1.929  13.553 -0.3275  0.5795  0.0741
    1HTM     C1 2113   3.986   2.006  14.372  0.3356 -0.1695 -0.4464
    1HTM     C2 2114   4.027   2.100  14.461  0.7198 -0.6921 -0.0594
    1HTM     C3 2115   3.921   2.152  14.544  0.9623 -0.7226  0.2770
    1HTM     C4 2116   3.799   2.098  14.517  0.7630 -0.2232  0.1468
    1HTM     S1 2117   3.809   1.975  14.385  0.2497  0.3285 -0.4163
    2TAL     C5 2118   3.933   2.268  14.646 -0.3281 -0.5788 -0.0370
    2TAL     C6 2119   3.992   2.408  14.604 -0.0051  0.0351  0.3179
    2TAL     C7 2120   3.915   2.493  14.509  0.5146 -0.2864 -1.0739
    2TAL     C8 2121   3.765   2.505  14.552  0.3486 -0.3752 -0.8584
    2TAL     C9 2122   3.691   2.549  14.423  0.6115  0.1343 -0.0066
    2TAL    C10 2123   3.551   2.585  14.474 -0.8903 -0.5318 -0.2429
    3HTM    C11 2124   3.664   2.135  14.576  0.4570 -0.1983  0.3290
    3HTM    C12 2125   3.625   2.144  14.706 -0.0283 -0.2936  0.1922
    3HTM    C13 2126   3.484   2.169  14.722 -0.1172 -0.4392 -0.3102
    3HTM    C14 2127   3.416   2.180  14.604  0.3004 -0.4548 -0.5562
    3HTM     S2 2128   3.526   2.159  14.463  0.8424 -0.2857 -0.1696
    4TAL    C15 2129   3.429   2.175  14.861 -0.4009  1.1345 -0.4222
    4TAL    C16 2130   3.498   2.274  14.953 -0.2077  0.0113 -1.2473
    4TAL    C17 2131   3.500   2.427  14.932  0.1929  0.4212  0.3159
    4TAL    C18 2132   3.383   2.508  14.889  1.3931  0.0310  0.4114
    4TAL    C19 2133   3.238   2.468  14.948  0.0704 -0.2151 -0.0054
    4TAL    C20 2134   3.120   2.550  14.891  0.7335  0.2004  0.0460
    5HTM    C21 2135   3.283   2.210  14.570  0.0078  0.4159 -0.0999
    5HTM    C22 2136   3.247   2.278  14.457 -0.1845  0.7883  0.1798
    5HTM    C23 2137   3.110   2.323  14.458 -0.3426  0.3252  0.3426
    5HTM    C24 2138   3.042   2.291  14.571 -0.2707 -0.4004  0.1869
    5HTM     S3 2139   3.146   2.199  14.687  0.0043 -0.5561 -0.1795
    6TAL    C25 2140   3.052   2.373  14.327  0.7174  0.2433 -0.2177
    6TAL    C26 2141   3.112   2.333  14.189  0.2580 -0.4724 -0.4881
    6TAL    C27 2142   3.030   2.395  14.077 -0.5146 -1.8990  0.3545
    6TAL    C28 2143   3.083   2.353  13.938  1.0003 -0.1190 -0.3364
    6TAL    C29 2144   3.013   2.403  13.819  0.9560 -0.1875  0.2075
    6TAL    C30 2145   2.917   2.309  13.754 -0.9129 -0.4664  1.1896
    7HTM    C31 2146   2.904   2.326  14.600  0.1806  0.4255  0.0179
    7HTM    C32 2147   2.826   2.253  14.684  0.3191  0.0677 -0.1571
    7HTM    C33 2148   2.696   2.311  14.707  0.1642 -0.2928 -0.0989
    7HTM    C34 2149   2.676   2.429  14.640 -0.0926 -0.2097  0.1211
    7HTM     S4 2150   2.821   2.475  14.543 -0.1591  0.3344  0.2725
    8TAL    C35 2151   2.606   2.245  14.802 -0.2729  0.2589 -1.8944
    8TAL    C36 2152   2.504   2.152  14.736 -0.6806 -0.0742 -0.3190
    8TAL    C37 2153   2.562   2.014  14.696  0.6650  0.3751 -0.2437
    8TAL    C38 2154   2.473   1.931  14.598  0.3248  0.1632 -0.3421
    8TAL    C39 2155   2.337   1.882  14.661 -0.2665  0.5769 -0.4347
    8TAL    C40 2156   2.327   1.834  14.801 -0.5784  0.5790 -0.6037
    9HTM    C41 2157   2.558   2.520  14.642 -0.0169 -0.2552 -0.0704
    9HTM    C42 2158   2.463   2.547  14.547 -0.1513 -0.0625  0.1173
    9HTM    C43 2159   2.371   2.651  14.585  0.1567  0.1501  0.2854
    9HTM    C44 2160   2.396   2.705  14.708  0.5260  0.1194  0.2261
    9HTM     S5 2161   2.538   2.626  14.787  0.5132 -0.1827 -0.0489
   10TAL    C45 2162   2.277   2.707  14.472  0.7950 -0.7955 -0.5769
   10TAL    C46 2163   2.342   2.759  14.347  0.3942  0.2169  0.0357
   10TAL    C47 2164   2.283   2.864  14.259 -0.2518  0.4795 -0.5805
   10TAL    C48 2165   2.307   2.996  14.329 -0.1556 -0.8414 -0.1139
   10TAL    C49 2166   2.326   3.105  14.219 -0.4007  0.0504  0.1970
   10TAL    C50 2167   2.463   3.180  14.190  0.2804 -0.5050 -0.6631
   11HTM    C51 2168   2.337   2.823  14.775 -0.1786 -0.4031  0.2833
   11HTM    C52 2169   2.402   2.903  14.864  0.1962 -0.4066  0.0176
   11HTM    C53 2170   2.330   3.022  14.899  0.6590 -0.0504 -0.2139
   11HTM    C54 2171   2.209   3.034  14.837  0.6372  0.2248 -0.1242
   11HTM     S6 2172   2.178   2.893  14.728  0.0255  0.0539  0.2619
   12TAL    C55 2173   2.381   3.136  14.983 -1.5332 -0.0453  0.0064
   12TAL    C56 2174   2.533   3.114  15.017  0.3237  0.0849  0.4388
   12TAL    C57 2175   2.592   3.220  15.115  0.2206 -0.2559 -0.3771
   12TAL    C58 2176   2.737   3.194  15.157  0.0282 -1.0270  0.7836
   12TAL    C59 2177   2.798   3.304  15.242  0.4282 -0.5775 -0.2937
   12TAL    C60 2178   2.945   3.302  15.282  0.6529  1.1432 -0.6669
   13HTM    C61 2179   2.105   3.137  14.839 -0.0452 -0.2425  0.3506
   13HTM    C62 2180   2.045   3.196  14.732 -0.3474 -0.9284  0.1328
   13HTM    C63 2181   1.955   3.303  14.767 -0.4721 -0.8923 -0.2823
   13HTM    C64 2182   1.946   3.325  14.901 -0.2650 -0.1789 -0.3810
   13HTM     S7 2183   2.052   3.213  14.994  0.1064  0.5079  0.0456
   14TAL    C65 2184   1.878   3.385  14.673  0.8222  0.0833  0.6632
   14TAL    C66 2185   1.791   3.328  14.566 -0.1794  0.6208  0.5107
   14TAL    C67 2186   1.846   3.268  14.437  0.8643 -0.0500  1.0652
   14TAL    C68 2187   1.920   3.360  14.339  0.2631 -0.5725  0.4901
   14TAL    C69 2188   1.957   3.292  14.202 -0.1538 -0.2583 -0.4420
   14TAL    C70 2189   1.848   3.270  14.095 -0.4155  0.4414 -0.2254
   15HTM    C71 2190   1.869   3.413  14.981  0.2389  0.1783  0.2603
   15HTM    C72 2191   1.911   3.534  15.027 -0.2354  0.3455  0.2725
   15HTM    C73 2192   1.822   3.595  15.123 -0.6441  0.1481  0.0226
   15HTM    C74 2193   1.712   3.520  15.149 -0.4813 -0.1697 -0.1801
   15HTM     S8 2194   1.711   3.366  15.055  0.2059 -0.2448 -0.0703
   16TAL    C75 2195   1.854   3.737  15.180  0.3813 -0.0944 -0.9660
   16TAL    C76 2196   1.999   3.770  15.224  0.5688  0.5763 -0.2974
   16TAL    C77 2197   2.071   3.693  15.336  0.3984  0.1256 -0.2659
   16TAL    C78 2198   2.074   3.539  15.356 -0.5017  0.5610  0.9690
   16TAL    C79 2199   2.202   3.469  15.297 -0.5233  0.9087 -0.5088
   16TAL    C80 2200   2.339   3.483  15.369  0.3005 -0.9920 -0.6832
   17HTM    C81 2201   1.600   3.537  15.231 -0.5179 -0.8553 -0.6109
   17HTM    C82 2202   1.478   3.587  15.197 -0.8137 -1.8825 -1.1292
   17HTM    C83 2203   1.378   3.571  15.300 -0.7519 -1.5405 -1.0135
   17HTM    C84 2204   1.424   3.509  15.412 -0.4089 -0.2526 -0.4067
   17HTM     S9 2205   1.598   3.466  15.397 -0.1353  0.6351  0.0689
   18TAL    C85 2206   1.234   3.598  15.275  0.3676  0.4530  0.4721
   18TAL    C86 2207   1.192   3.581  15.131 -0.4135  0.2523 -0.0071
   18TAL    C87 2208   1.037   3.589  15.123 -0.0901  0.9159 -0.3532
   18TAL    C88 2209   0.955   3.464  15.176 -0.0057  0.3687 -0.6032
   18TAL    C89 2210   0.955   3.346  15.089  0.3524 -0.5562 -0.6132
   18TAL    C90 2211   0.893   3.221  15.153 -0.3877  0.6023 -0.7646
   19HTM    C91 2212   1.363   3.480  15.532  0.2286 -0.2995 -0.0335
   19HTM    C92 2213   1.294   3.363  15.547  0.3463 -0.3806 -0.1159
   19HTM    C93 2214   1.247   3.341  15.682  0.2239 -0.4426 -0.1693
   19HTM    C94 2215   1.279   3.441  15.768  0.0129 -0.4089 -0.1276
   19HTM    S10 2216   1.373   3.571  15.687 -0.0481 -0.2954 -0.0170
   20TAL    C95 2217   1.149   3.225  15.719  0.4017  0.2125  0.2498
   20TAL    C96 2218   1.155   3.105  15.632 -0.1394 -0.2008 -0.1171
   20TAL    C97 2219   1.253   2.991  15.666 -0.7596  0.1452  1.0961
   20TAL    C98 2220   1.408   3.009  15.632  0.0802  0.8052 -0.0856
   20TAL    C99 2221   1.469   2.873  15.650  0.4278 -0.4291  0.2532
   20TAL   C100 2222   1.624   2.873  15.619  0.5613  0.0598 -0.1918
   21HTM   C101 2223   1.254   3.461  15.917 -0.7009 -0.0804  0.3869
   21HTM   C102 2224   1.196   3.574  15.967 -0.5125 -0.0473  0.5345
   21HTM   C103 2225   1.191   3.579  16.111  0.2838  0.1740  0.5636
   21HTM   C104 2226   1.246   3.469  16.171  0.7027  0.3097  0.4381
   21HTM    S11 2227   1.308   3.351  16.050  0.1193  0.1673  0.2712
   22TAL   C105 2228   1.155   3.722  16.170 -0.1683  0.1677 -0.2782
   22TAL   C106 2229   1.045   3.798  16.101  0.3313 -0.6918 -0.1726
   22TAL   C107 2230   0.906   3.731  16.095 -1.8307 -0.8273 -0.5706
   22TAL   C108 2231   0.835   3.767  15.972  0.8540  0.2822  1.3520
   22TAL   C109 2232   0.863   3.700  15.840  0.5690 -0.2985  0.5075
   22TAL   C110 2233   0.824   3.555  15.848  0.3675 -0.4104 -0.5385
   23HTM   C111 2234   1.261   3.438  16.305 -0.1508  0.6077 -0.1877
   23HTM   C112 2235   1.352   3.346  16.348 -0.4485  0.1371 -0.5455
   23HTM   C113 2236   1.376   3.351  16.490 -0.4201 -0.4940 -0.5198
   23HTM   C114 2237   1.305   3.448  16.554 -0.1007 -0.5047 -0.1417
   23HTM    S12 2238   1.200   3.540  16.440  0.1912  0.2878  0.2133
   24TAL   C115 2239   1.477   3.260  16.554 -0.1104  0.8235  0.2520
   24TAL   C116 2240   1.602   3.321  16.612 -1.2778  0.3340 -0.0820
   24TAL   C117 2241   1.713   3.236  16.687  0.1864  0.2150 -0.1476
   24TAL   C118 2242   1.682   3.159  16.811 -0.0196 -0.3021  0.3665
   24TAL   C119 2243   1.621   3.224  16.930 -0.0211 -0.1137 -0.2784
   24TAL   C120 2244   1.655   3.138  17.061 -0.2976  0.1133  0.6130
   25HTM   C121 2245   1.316   3.489  16.690  0.2120 -0.3163  0.0762
   25HTM   C122 2246   1.247   3.441  16.798  0.5403 -0.3009  0.2956
   25HTM   C123 2247   1.297   3.489  16.924  0.8011 -0.1211  0.1268
   25HTM   C124 2248   1.404   3.573  16.913  0.6717  0.0005 -0.2215
   25HTM    S13 2249   1.450   3.598  16.740  0.2067 -0.1033 -0.3650
   26TAL   C125 2250   1.208   3.453  17.052 -0.6282  0.5516 -1.3076
   26TAL   C126 2251   1.164   3.311  17.078 -0.5244  0.0758 -0.1612
   26TAL   C127 2252   1.282   3.216  17.100 -0.0725  0.8861 -0.0970
   26TAL   C128 2253   1.261   3.071  17.132  0.2935 -0.0551  0.5648
   26TAL   C129 2254   1.192   3.038  17.262  0.7425 -0.6441  0.0038
   26TAL   C130 2255   1.180   2.884  17.275  0.4073 -0.1759  0.6274
   27HTM   C131 2256   1.477   3.641  17.020  0.7049  0.0721 -0.4541
   27HTM   C132 2257   1.538   3.763  17.022  0.8293  0.0066  0.0505
   27HTM   C133 2258   1.606   3.791  17.145  0.1170 -0.2028  0.5054
   27HTM   C134 2259   1.597   3.691  17.237 -0.5506 -0.2970  0.3490
   27HTM    S14 2260   1.501   3.552  17.175 -0.3296 -0.1272 -0.3920
   28TAL   C135 2261   1.685   3.919  17.140  0.7861  0.7919 -0.4913
   28TAL   C136 2262   1.821   3.899  17.067 -1.1494 -0.3559 -0.7131
   28TAL   C137 2263   1.918   4.017  17.044 -0.4602 -0.2105  0.0768
   28TAL   C138 2264   1.862   4.120  16.943 -0.7272 -0.7148  0.2092
   28TAL   C139 2265   1.938   4.250  16.940 -0.0478  0.4591  0.6515
   28TAL   C140 2266   1.987   4.294  16.803 -0.6957 -0.5893  0.3947
   29HTM   C141 2267   1.659   3.690  17.369 -0.4917  0.0090 -0.0141
   29HTM   C142 2268   1.630   3.590  17.457 -0.9298  0.3534  0.2389
   29HTM   C143 2269   1.704   3.598  17.580 -0.9339  0.3687  0.2408
   29HTM   C144 2270   1.790   3.704  17.586 -0.4987  0.0358 -0.0122
   29HTM    S15 2271   1.784   3.802  17.435 -0.0466 -0.3253 -0.2725
   30TAL   C145 2272   1.686   3.495  17.686 -0.4869 -0.5637 -0.1723
   30TAL   C146 2273   1.776   3.443  17.808  0.4986 -0.9216 -0.6909
   30TAL   C147 2274   1.697   3.416  17.938  0.7528 -0.7198 -0.7746
   30TAL   C148 2275   1.755   3.335  18.054  1.2446  1.0472  0.4044
   30TAL   C149 2276   1.829   3.210  18.009  0.0934 -0.7240 -0.3009
   30TAL   C150 2277   1.784   3.105  17.902  0.2164 -0.4719 -0.7283
   31HTM   C151 2278   1.858   3.758  17.700  0.1053 -0.1039 -0.3023
   31HTM   C152 2279   1.960   3.691  17.759 -0.1625 -0.0688  0.2103
   31HTM   C153 2280   2.023   3.764  17.867 -0.5615  0.0540  0.3619
   31HTM   C154 2281   1.967   3.886  17.889 -0.5979  0.1125 -0.0351
   31HTM    S16 2282   1.832   3.920  17.775 -0.1274  0.0163 -0.6352
   32TAL   C155 2283   2.141   3.707  17.936 -0.9090  0.0979 -1.1467
   32TAL   C156 2284   2.154   3.571  18.015  0.7577  0.2886  1.7836
   32TAL   C157 2285   2.254   3.568  18.124 -0.0680 -0.0468  0.6127
   32TAL   C158 2286   2.242   3.440  18.201 -1.0315  0.0143 -0.1650
   32TAL   C159 2287   2.381   3.414  18.275  0.8971 -0.2050 -0.1221
   32TAL   C160 2288   2.389   3.298  18.381 -1.5550 -0.4286  0.8720
   33HTM   C161 2289   1.985   3.968  18.004  0.5737 -0.3077  0.3953
   33HTM   C162 2290   2.081   4.063  18.023  0.6007 -0.3554  0.4954
   33HTM   C163 2291   2.049   4.157  18.128  0.3600 -0.1117  0.2108
   33HTM   C164 2292   1.929   4.133  18.189  0.1495  0.1218 -0.1061
   33HTM    S17 2293   1.846   3.990  18.117  0.2397  0.0513 -0.0696
   34TAL   C165 2294   2.136   4.268  18.155  0.1974 -0.2698 -0.1342
   34TAL   C166 2295   2.261   4.233  18.237 -0.0033  0.9212  0.3819
   34TAL   C167 2296   2.352   4.350  18.251 -0.3077 -0.4411  0.5041
   34TAL   C168 2297   2.488   4.297  18.303 -0.2475 -0.3849 -0.4437
   34TAL   C169 2298   2.579   4.420  18.309  0.7029 -0.2883  0.2888
   34TAL   C170 2299   2.683   4.436  18.195  1.0089  0.6457  0.5581
   35HTM   C171 2300   1.874   4.201  18.295  0.3436  0.2387 -0.3037
   35HTM   C172 2301   1.931   4.222  18.417  0.1446  0.3326 -0.2246
   35HTM   C173 2302   1.841   4.277  18.515 -0.1390 -0.0209 -0.2837
   35HTM   C174 2303   1.715   4.298  18.468 -0.1562 -0.3844 -0.4067
   35HTM    S18 2304   1.701   4.250  18.294  0.1870 -0.3078 -0.4587
   36TAL   C175 2305   1.894   4.300  18.652 -0.1448  0.4912 -0.0707
   36TAL   C176 2306   1.967   4.424  18.677 -1.1447  0.4679  0.4093
   36TAL   C177 2307   2.068   4.408  18.797  0.7070  0.6422  0.3346
   36TAL   C178 2308   2.170   4.508  18.810 -0.6648 -1.0879  0.1769
   36TAL   C179 2309   2.253   4.503  18.942  0.0789  0.3371  1.4524
   36TAL   C180 2310   2.252   4.646  19.003 -0.3334  1.4578  0.5585
   37HTM   C181 2311   1.593   4.335  18.545  0.3777 -0.1782 -0.0687
   37HTM   C182 2312   1.560   4.449  18.613  0.7356 -0.3303  0.3753
   37HTM   C183 2313   1.427   4.446  18.668  0.6573 -0.0583  0.2046
   37HTM   C184 2314   1.359   4.331  18.643  0.2397  0.3012 -0.3702
   37HTM    S19 2315   1.459   4.215  18.546 -0.0896  0.3244 -0.7431
   38TAL   C185 2316   1.357   4.569  18.709  0.1298 -0.1687  0.9113
   38TAL   C186 2317   1.438   4.684  18.765 -0.0161 -0.7370 -0.0656
   38TAL   C187 2318   1.518   4.772  18.670 -0.5748 -0.4161 -0.9328
   38TAL   C188 2319   1.628   4.850  18.750 -0.0956 -0.2441 -0.3201
   38TAL   C189 2320   1.742   4.780  18.819  0.4061 -0.0679 -0.7069
   38TAL   C190 2321   1.842   4.880  18.884  0.1058  0.6283 -0.5986
   39HTM   C191 2322   1.224   4.287  18.696  0.1920 -0.1742  0.2678
   39HTM   C192 2323   1.100   4.344  18.704  0.2175 -0.1215  0.2861
   39HTM   C193 2324   1.005   4.265  18.778  0.1970 -0.0762  0.3080
   39HTM   C194 2325   1.056   4.148  18.825  0.1559 -0.0946  0.3078
   39HTM    S20 2326   1.229   4.128  18.780  0.1398 -0.1709  0.2781
   40TAL   C195 2327   0.861   4.314  18.810 -1.3369 -0.5069  0.1981
   40TAL   C196 2328   0.880   4.408  18.931  0.0787 -0.3558  0.7008
   40TAL   C197 2329   0.738   4.466  18.987  0.5920  0.2456 -0.3066
   40TAL   C198 2330   0.646   4.360  19.067 -0.6796  0.1453 -0.2978
   40TAL   C199 2331   0.569   4.409  19.196 -0.6326 -0.5591 -0.2457
   40TAL   C200 2332   0.499   4.545  19.201 -0.6871 -0.3734  0.3174
   41HTM   C201 2333   0.993   4.039  18.894  0.4890  0.3148  0.1724
   41HTM   C202 2334   0.941   3.923  18.845  0.8023  0.2534 -0.0238
   41HTM   C203 2335   0.880   3.840  18.946  0.5904  0.1470 -0.2370
   41HTM   C204 2336   0.886   3.893  19.072  0.1155  0.1273 -0.2036
   41HTM    S21 2337   0.970   4.053  19.072 -0.1026  0.2424  0.1031
   42TAL   C205 2338   0.795   3.712  18.914  0.2750 -0.5581 -0.0475
   42TAL   C206 2339   0.665   3.719  18.832 -0.8170  0.6918  0.5800
   42TAL   C207 2340   0.622   3.578  18.803  0.2813 -1.3681  1.4184
   42TAL   C208 2341   0.477   3.568  18.773 -0.3369  0.0490  0.3279
   42TAL   C209 2342   0.425   3.439  18.696  0.0091 -0.5174 -1.0463
   42TAL   C210 2343   0.409   3.318  18.785 -0.1739  0.0168  0.5597
   43HTM   C211 2344   0.870   3.832  19.199  0.6413  0.0895  0.5316
   43HTM   C212 2345   0.927   3.720  19.251  0.0755 -0.2249  0.4983
   43HTM   C213 2346   0.885   3.690  19.385 -0.6525 -0.4885  0.2179
   43HTM   C214 2347   0.794   3.779  19.436 -0.6418 -0.3751  0.0379
   43HTM    S22 2348   0.756   3.909  19.316  0.2959  0.0768  0.2097
   44TAL   C215 2349   0.944   3.579  19.472 -0.5357  0.0297 -0.4268
   44TAL   C216 2350   1.093   3.545  19.474  0.3980  0.1453  0.4490
   44TAL   C217 2351   1.206   3.648  19.468 -0.2048 -0.4189  1.0758
   44TAL   C218 2352   1.208   3.777  19.551 -0.3085 -0.4259 -0.7393
   44TAL   C219 2353   1.168   3.745  19.696 -1.1085  0.8945  0.2779
   44TAL   C220 2354   1.182   3.870  19.779 -0.4893 -0.1719 -0.0652
   45HTM   C221 2355   0.711   3.793  19.553 -0.0533  0.4959  0.1586
   45HTM   C222 2356   0.576   3.784  19.569 -0.0883  0.7680  0.0367
   45HTM   C223 2357   0.532   3.806  19.705 -0.1417  0.6108  0.0453
   45HTM   C224 2358   0.633   3.832  19.792 -0.1474  0.2191  0.1731
   45HTM    S23 2359   0.793   3.831  19.709 -0.0853  0.0165  0.2945
   46TAL   C225 2360   0.390   3.787  19.754  0.4350  0.0308  0.5648
   46TAL   C226 2361   0.256   3.842  19.693 -0.0841 -0.5546 -0.2018
   46TAL   C227 2362   0.260   3.998  19.698  0.5574 -0.4216 -0.4385
   46TAL   C228 2363   0.181   4.090  19.605 -0.3001  0.4383 -0.2798
   46TAL   C229 2364   0.183   4.038  19.460 -0.1509 -0.5290 -0.1334
   46TAL   C230 2365   0.334   4.047  19.400  0.1267 -0.0405 -0.5545
   47HTM   C231 2366   0.634   3.868  19.933  0.0242  0.1014 -0.2103
   47HTM   C232 2367   0.719   3.820  20.028 -0.2656 -0.3101 -0.1554
   47HTM   C233 2368   0.695   3.873  20.160 -0.4509 -0.6235 -0.0601
   47HTM   C234 2369   0.591   3.962  20.165 -0.3023 -0.4510 -0.0416
   47HTM    S24 2370   0.516   3.985  20.003  0.0860  0.1251 -0.1451
   48TAL   C235 2371   0.756   3.811  20.290 -0.1815  0.1931  0.4950
   48TAL   C236 2372   0.726   3.877  20.415 -0.6469  0.0406 -1.0194
   48TAL   C237 2373   0.861   3.885  20.505 -0.2287  0.0243 -0.2154
   48TAL   C238 2374   0.920   3.750  20.542 -0.0543 -0.5265 -0.1087
   48TAL   C239 2375   0.836   3.661  20.629  0.1240  0.7285 -0.6177
   48TAL   C240 2376   0.915   3.536  20.650  0.3187 -0.1022  0.2655
    1HTM     C1 2377   1.696   0.797   3.868  0.5721 -0.3577  0.5545
    1HTM     C2 2378   1.757   0.731   3.766  0.4690 -0.3553  0.4916
    1HTM     C3 2379   1.888   0.781   3.735  0.2540 -0.0501  0.0522
    1HTM     C4 2380   1.928   0.885   3.813  0.1931  0.1802 -0.2198
    1HTM     S1 2381   1.801   0.929   3.934  0.4043  0.0283  0.0600
    2TAL     C5 2382   1.983   0.693   3.646 -0.0658 -0.7528  1.2103
    2TAL     C6 2383   2.111   0.739   3.572  0.7349 -0.2493  0.7745
    2TAL     C7 2384   2.103   0.732   3.417 -0.4499  0.1000  1.2021
    2TAL     C8 2385   2.235   0.812   3.366  0.3879 -0.5469 -0.8356
    2TAL     C9 2386   2.246   0.863   3.226 -0.1208 -0.2634  0.3706
    2TAL    C10 2387   2.225   0.760   3.114 -0.3664 -0.6209  0.5417
    3HTM    C11 2388   2.036   0.978   3.812 -0.1163  0.4725 -0.1462
    3HTM    C12 2389   2.150   0.987   3.886  0.1349  0.6824 -0.5480
    3HTM    C13 2390   2.218   1.113   3.873 -0.2019  0.8499 -0.7135
    3HTM    C14 2391   2.157   1.200   3.787 -0.7100  0.7678 -0.4378
    3HTM     S2 2392   2.006   1.129   3.718 -0.8033  0.4702  0.0560
    4TAL    C15 2393   2.341   1.146   3.966  0.3154 -1.3966 -0.5372
    4TAL    C16 2394   2.414   1.049   4.041 -0.4931 -0.1251 -0.0559
    4TAL    C17 2395   2.533   1.101   4.117  0.2389 -1.3655  0.0661
    4TAL    C18 2396   2.676   1.134   4.045 -0.6473 -0.4571 -0.7150
    4TAL    C19 2397   2.783   1.099   4.155  0.9838 -0.5099 -0.4728
    4TAL    C20 2398   2.920   1.101   4.093 -0.4324 -0.2675  0.8062
    5HTM    C21 2399   2.181   1.338   3.763 -0.6797  1.2082 -0.1052
    5HTM    C22 2400   2.084   1.433   3.760 -0.0866  1.8428  0.2150
    5HTM    C23 2401   2.134   1.568   3.765  0.7696  1.5197  0.6350
    5HTM    C24 2402   2.270   1.576   3.773  0.8293  0.6389  0.6350
    5HTM     S3 2403   2.345   1.412   3.773 -0.1993  0.1453  0.1005
    6TAL    C25 2404   2.018   1.664   3.758 -1.0624  0.4602 -0.0574
    6TAL    C26 2405   1.933   1.688   3.887 -0.9628  0.2309 -0.2756
    6TAL    C27 2406   1.847   1.808   3.877  0.6265  0.3088 -0.0023
    6TAL    C28 2407   1.708   1.771   3.823  0.3662 -0.2739  0.1172
    6TAL    C29 2408   1.603   1.855   3.893  0.2285 -0.6673  0.5114
    6TAL    C30 2409   1.463   1.834   3.830  0.3359  0.4419 -0.4727
    7HTM    C31 2410   2.349   1.699   3.783 -0.1805 -0.3807  0.0929
    7HTM    C32 2411   2.468   1.703   3.718 -0.2251 -0.2535  0.0185
    7HTM    C33 2412   2.528   1.834   3.715 -0.2779 -0.2264  0.1429
    7HTM    C34 2413   2.453   1.930   3.778 -0.2738 -0.3330  0.3123
    7HTM     S4 2414   2.301   1.861   3.846 -0.2022 -0.4769  0.3278
    8TAL    C35 2415   2.676   1.859   3.676  0.7690 -0.7617  0.6381
    8TAL    C36 2416   2.776   1.759   3.705  0.0710 -0.3020  0.5593
    8TAL    C37 2417   2.920   1.781   3.654 -0.2818 -0.7588 -0.3387
    8TAL    C38 2418   2.983   1.920   3.691  0.1128  0.8227 -0.8274
    8TAL    C39 2419   3.108   1.941   3.612 -0.8855 -0.6832 -0.0282
    8TAL    C40 2420   3.166   2.076   3.661  0.1344 -0.3222  0.0948
    9HTM    C41 2421   2.470   2.071   3.797  0.4783 -0.6926 -0.1053
    9HTM    C42 2422   2.570   2.147   3.744  0.8182 -1.1014 -0.0650
    9HTM    C43 2423   2.566   2.285   3.786  0.9184 -0.9151 -0.6528
    9HTM    C44 2424   2.464   2.313   3.871  0.6549 -0.3642 -1.1414
    9HTM     S5 2425   2.364   2.168   3.905  0.2567 -0.0355 -0.8950
   10TAL    C45 2426   2.685   2.374   3.752 -0.7424  0.0354 -0.2390
   10TAL    C46 2427   2.833   2.339   3.717  1.3646  1.2660 -0.1447
   10TAL    C47 2428   2.893   2.455   3.656 -0.7660 -0.2924  0.0879
   10TAL    C48 2429   3.048   2.437   3.663 -0.2232 -0.2163 -0.8735
   10TAL    C49 2430   3.127   2.528   3.568 -0.5183 -0.0310 -0.6089
   10TAL    C50 2431   3.174   2.481   3.434 -0.0075 -0.2738 -0.3100
   11HTM    C51 2432   2.420   2.450   3.920 -0.2729  0.0826 -0.0602
   11HTM    C52 2433   2.324   2.528   3.863 -0.3783 -0.0368 -0.0453
   11HTM    C53 2434   2.314   2.659   3.922 -0.5644 -0.0659 -0.0113
   11HTM    C54 2435   2.402   2.681   4.023 -0.6008  0.0314 -0.0001
   11HTM     S6 2436   2.507   2.537   4.052 -0.4014  0.1682 -0.0320
   12TAL    C55 2437   2.222   2.771   3.876 -0.9229 -0.4259  0.2741
   12TAL    C56 2438   2.079   2.750   3.881  0.4491 -0.6957  0.0369
   12TAL    C57 2439   2.004   2.713   4.017 -0.0852  0.0801  0.8736
   12TAL    C58 2440   1.888   2.798   4.071 -0.1205 -0.2349 -0.8302
   12TAL    C59 2441   1.774   2.711   4.132 -1.0337 -0.3912 -0.4268
   12TAL    C60 2442   1.697   2.656   4.018  0.7193  0.4116  0.3074
   13HTM    C61 2443   2.434   2.786   4.120  0.4291  0.1109  0.3083
   13HTM    C62 2444   2.404   2.918   4.112  0.1971  0.0714  0.4926
   13HTM    C63 2445   2.457   2.997   4.221 -0.1712 -0.0287  0.7442
   13HTM    C64 2446   2.526   2.923   4.313 -0.2198 -0.0656  0.7521
   13HTM     S7 2447   2.532   2.749   4.268  0.1988  0.0241  0.4394
   14TAL    C65 2448   2.424   3.139   4.212 -0.5639  0.3337 -0.2807
   14TAL    C66 2449   2.282   3.175   4.259  0.9083  1.5445 -0.5396
   14TAL    C67 2450   2.222   3.120   4.384 -0.3906  0.0371 -0.3976
   14TAL    C68 2451   2.286   3.162   4.513 -0.6966 -0.6737 -0.4915
   14TAL    C69 2452   2.271   3.314   4.537 -0.9181  1.5108  0.4013
   14TAL    C70 2453   2.375   3.340   4.649 -0.6349  0.3855 -0.3193
   15HTM    C71 2454   2.578   2.948   4.439  0.0442  0.3253  0.1331
   15HTM    C72 2455   2.556   2.869   4.547  0.0004  0.1817  0.0194
   15HTM    C73 2456   2.613   2.920   4.669  0.1559 -0.0965  0.0660
   15HTM    C74 2457   2.678   3.039   4.654  0.3184 -0.1650  0.2153
   15HTM     S8 2458   2.673   3.096   4.482  0.2873  0.1187  0.3092
   16TAL    C75 2459   2.591   2.840   4.792  0.2520 -0.2016 -0.1904
   16TAL    C76 2460   2.450   2.852   4.848  0.0311 -1.2098 -0.6911
   16TAL    C77 2461   2.390   2.990   4.882 -1.1291 -0.1847  0.0829
   16TAL    C78 2462   2.241   2.990   4.874  0.3674 -1.0920  0.0224
   16TAL    C79 2463   2.153   2.878   4.931  0.0075 -0.5779 -0.4481
   16TAL    C80 2464   2.012   2.914   4.913  0.3133 -0.3737 -0.5418
   17HTM    C81 2465   2.731   3.135   4.753  0.3371  1.1757 -0.9930
   17HTM    C82 2466   2.676   3.242   4.817  0.3502  1.2427 -1.0929
   17HTM    C83 2467   2.766   3.306   4.910 -0.0164  0.5834 -0.2595
   17HTM    C84 2468   2.889   3.248   4.917 -0.3090  0.0137  0.4762
   17HTM     S9 2469   2.902   3.107   4.805 -0.1429  0.2674  0.1708
   18TAL    C85 2470   2.714   3.426   4.992  0.2351  0.5783 -0.3335
   18TAL    C86 2471   2.597   3.398   5.090 -0.5245  0.0521  0.9934
   18TAL    C87 2472   2.510   3.513   5.146  0.3321 -0.2608 -0.2221
   18TAL    C88 2473   2.383   3.471   5.213  0.3046 -0.8012 -0.4375
   18TAL    C89 2474   2.271   3.394   5.149 -0.1707 -0.6973  0.4238
   18TAL    C90 2475   2.292   3.249   5.152 -0.0363 -0.3148 -0.1356
   19HTM    C91 2476   3.012   3.268   4.986  0.0691 -0.1835  0.8417
   19HTM    C92 2477   3.035   3.360   5.084  0.3197  0.1697  0.4576
   19HTM    C93 2478   3.166   3.349   5.144  0.4949  0.4236  0.1281
   19HTM    C94 2479   3.242   3.249   5.091  0.3779  0.2642  0.2611
   19HTM    S10 2480   3.154   3.160   4.962  0.0347 -0.2229  0.8168
   20TAL    C95 2481   3.192   3.443   5.265  0.3414 -0.1289  1.1059
   20TAL    C96 2482   3.113   3.432   5.389  0.2565 -0.9449 -0.0100
   20TAL    C97 2483   3.165   3.332   5.482  0.4666 -0.8661  0.1058
   20TAL    C98 2484   3.295   3.361   5.556  0.6507  0.2340 -0.2405
   20TAL    C99 2485   3.364   3.239   5.612 -0.4635  0.7035 -0.2741
   20TAL   C100 2486   3.488   3.273   5.684 -0.6995  0.0734  0.2464
   21HTM   C101 2487   3.372   3.201   5.127  0.0144  0.0041  0.1882
   21HTM   C102 2488   3.418   3.072   5.123 -0.0382 -0.0133  0.1302
   21HTM   C103 2489   3.553   3.058   5.172 -0.0001 -0.0718  0.0085
   21HTM   C104 2490   3.609   3.175   5.213  0.0818 -0.0991 -0.0263
   21HTM    S11 2491   3.496   3.314   5.193  0.1171 -0.0526  0.0929
   22TAL   C105 2492   3.622   2.921   5.180  0.0315  1.1384  0.3409
   22TAL   C106 2493   3.705   2.881   5.058  0.4470 -0.1254 -0.2214
   22TAL   C107 2494   3.635   2.841   4.923 -0.9637 -0.3594 -0.3284
   22TAL   C108 2495   3.548   2.708   4.926  0.7461  0.2093 -0.5068
   22TAL   C109 2496   3.641   2.583   4.964  1.5211  0.4400 -0.3762
   22TAL   C110 2497   3.561   2.455   4.962 -0.8236  0.7731  0.6264
   23HTM   C111 2498   3.734   3.203   5.276 -0.5634  0.4651 -0.3560
   23HTM   C112 2499   3.840   3.119   5.294 -1.0413 -0.1863 -0.5298
   23HTM   C113 2500   3.938   3.168   5.386 -0.8486 -1.0396 -0.2601
   23HTM   C114 2501   3.908   3.290   5.438 -0.2238 -1.0386  0.1194
   23HTM    S12 2502   3.751   3.353   5.375  0.1728  0.0483  0.1659
   24TAL   C115 2503   4.072   3.103   5.402 -1.0223  0.0978  0.3514
   24TAL   C116 2504   4.160   3.120   5.273  0.3317  0.1809  0.7143
   24TAL   C117 2505   4.300   3.104   5.307 -0.8954 -0.4632 -0.2427
   24TAL   C118 2506   4.355   3.239   5.378 -0.5884  0.3319 -0.0523
   24TAL   C119 2507   4.501   3.237   5.352 -1.3781  0.4557 -0.5848
   24TAL   C120 2508   4.573   3.370   5.393  0.1776  0.4349 -0.0950
   25HTM   C121 2509   3.962   3.344   5.563  0.0896 -0.5471  0.0708
   25HTM   C122 2510   3.915   3.453   5.629  0.0183 -0.4668 -0.1119
   25HTM   C123 2511   3.976   3.475   5.757  0.0985 -0.1356 -0.2046
   25HTM   C124 2512   4.071   3.382   5.789  0.2308  0.0368 -0.0927
   25HTM    S13 2513   4.090   3.259   5.658  0.2650 -0.2079  0.1404
   26TAL   C125 2514   3.920   3.576   5.849 -0.0375 -0.2111  0.3034
   26TAL   C126 2515   3.778   3.551   5.889  0.3168  0.9976 -0.0481
   26TAL   C127 2516   3.725   3.591   6.033 -0.5708  0.9559 -0.4263
   26TAL   C128 2517   3.786   3.523   6.161 -0.4886  0.3429 -0.4919
   26TAL   C129 2518   3.817   3.373   6.156  0.5324  0.6031 -0.7639
   26TAL   C130 2519   3.714   3.268   6.192  0.7787  0.5807  0.0496
   27HTM   C131 2520   4.156   3.370   5.910 -0.2643 -0.1899  0.3141
   27HTM   C132 2521   4.204   3.252   5.957 -0.2114  0.0026  0.7614
   27HTM   C133 2522   4.293   3.265   6.069  0.1593  0.5047  0.4187
   27HTM   C134 2523   4.312   3.394   6.109  0.3890  0.6950 -0.2900
   27HTM    S14 2524   4.220   3.510   6.006  0.1532  0.2514 -0.5817
   28TAL   C135 2525   4.353   3.134   6.131 -0.5643 -0.6030  0.0583
   28TAL   C136 2526   4.247   3.057   6.205  0.3369 -0.1985  0.3435
   28TAL   C137 2527   4.299   2.951   6.302 -0.1404  0.8271  0.6003
   28TAL   C138 2528   4.301   2.976   6.450  0.9469 -0.0970  0.5720
   28TAL   C139 2529   4.152   2.966   6.498 -0.1438  0.4122 -0.1277
   28TAL   C140 2530   4.151   2.919   6.636 -0.3978 -0.0844  0.0272
   29HTM   C141 2531   4.403   3.432   6.211 -0.1728 -0.1165  0.1471
   29HTM   C142 2532   4.378   3.498   6.327 -0.0576 -0.0242  0.1203
   29HTM   C143 2533   4.493   3.513   6.412  0.0339  0.0740 -0.0216
   29HTM   C144 2534   4.607   3.458   6.359 -0.0117  0.0566 -0.1030
   29HTM    S15 2535   4.576   3.383   6.198 -0.1747 -0.0863 -0.0057
   30TAL   C145 2536   4.469   3.567   6.556 -0.2145 -0.1927 -0.3853
   30TAL   C146 2537   4.399   3.463   6.646  0.5704  0.1565  1.0237
   30TAL   C147 2538   4.477   3.395   6.759  0.5951 -0.2928  0.3126
   30TAL   C148 2539   4.402   3.327   6.879 -0.9695 -0.4100  0.1910
   30TAL   C149 2540   4.359   3.189   6.864  0.0135  0.0563  0.3930
   30TAL   C150 2541   4.286   3.115   6.968  0.3144 -0.1961  1.0207
   31HTM   C151 2542   4.745   3.449   6.415  0.2388  0.0278 -0.1051
   31HTM   C152 2543   4.850   3.390   6.351  0.5059  0.7361 -0.3452
   31HTM   C153 2544   4.971   3.389   6.428  0.5658  1.1385 -0.4309
   31HTM   C154 2545   4.959   3.448   6.550  0.3441  0.7370 -0.2561
   31HTM    S16 2546   4.792   3.509   6.578  0.0401 -0.1876  0.0325
   32TAL   C155 2547   5.097   3.318   6.367 -0.2215 -0.2968 -0.7232
   32TAL   C156 2548   5.169   3.228   6.472 -0.0510  0.8342  0.4396
   32TAL   C157 2549   5.107   3.088   6.511  0.8879 -0.2981  0.0722
   32TAL   C158 2550   5.184   3.033   6.630  0.2348  0.9988 -0.9552
   32TAL   C159 2551   5.337   3.000   6.606 -0.3231  0.8100 -0.1461
   32TAL   C160 2552   5.414   2.936   6.714  0.3017  0.2176 -0.4132
   33HTM   C161 2553   5.057   3.478   6.653  0.0682 -0.2675  0.2519
   33HTM   C162 2554   5.134   3.590   6.666 -0.1136 -0.1431  0.2652
   33HTM   C163 2555   5.214   3.591   6.785 -0.2097  0.0321  0.3290
   33HTM   C164 2556   5.199   3.480   6.863 -0.1012  0.0412  0.3642
   33HTM    S17 2557   5.080   3.365   6.791  0.1325 -0.1722  0.3192
   34TAL   C165 2558   5.315   3.707   6.810  0.0225  1.3907  0.8381
   34TAL   C166 2559   5.277   3.834   6.866  1.3790  1.3067  0.5372
   34TAL   C167 2560   5.177   3.835   6.985  0.3469 -0.4243  0.1178
   34TAL   C168 2561   5.154   3.966   7.054 -0.0877 -0.2717  0.5008
   34TAL   C169 2562   5.254   4.035   7.153  0.1820  0.5925 -0.2003
   34TAL   C170 2563   5.292   3.954   7.279  0.1387 -0.7349 -0.5387
   35HTM   C171 2564   5.268   3.438   6.986  0.3627 -0.0566 -0.4774
   35HTM   C172 2565   5.297   3.501   7.103 -0.0612  0.0091 -0.4053
   35HTM   C173 2566   5.344   3.412   7.207 -0.6006  0.0410 -0.1258
   35HTM   C174 2567   5.351   3.281   7.168 -0.5880 -0.0005  0.0152
   35HTM    S18 2568   5.299   3.260   6.997  0.1116 -0.0836 -0.1956
   36TAL   C175 2569   5.370   3.489   7.335  0.3567  0.2547 -0.9307
   36TAL   C176 2570   5.509   3.538   7.353 -0.4783 -0.5093 -0.3807
   36TAL   C177 2571   5.533   3.666   7.433 -0.6173  0.9262  0.2848
   36TAL   C178 2572   5.528   3.665   7.582 -0.5097 -0.6307 -0.2504
   36TAL   C179 2573   5.545   3.809   7.633 -0.0429 -0.0574  0.6565
   36TAL   C180 2574   5.486   3.827   7.769  0.1553  0.4007  0.1657
   37HTM   C181 2575   5.391   3.159   7.233 -1.1074 -0.0345  0.3260
   37HTM   C182 2576   5.446   3.049   7.174 -0.8814  0.1713  0.1470
   37HTM   C183 2577   5.497   2.952   7.267 -0.1715  0.3734 -0.0180
   37HTM   C184 2578   5.481   2.988   7.398  0.1437  0.3216  0.0352
   37HTM    S19 2579   5.400   3.149   7.413 -0.4361  0.0113  0.2998
   38TAL   C185 2580   5.538   2.809   7.219  0.0901 -0.5786 -0.0964
   38TAL   C186 2581   5.417   2.731   7.177 -0.3384  0.9497 -0.7832
   38TAL   C187 2582   5.407   2.582   7.214 -0.2044  0.3888 -0.9796
   38TAL   C188 2583   5.436   2.548   7.362 -0.2615  0.0518  0.0585
   38TAL   C189 2584   5.445   2.401   7.401 -0.3804 -0.1402  0.2314
   38TAL   C190 2585   5.576   2.335   7.398 -0.3884  0.2674  0.3938
   39HTM   C191 2586   5.489   2.901   7.515 -0.1433 -0.3060  0.2978
   39HTM   C192 2587   5.401   2.889   7.618  0.2495  0.0007  0.6790
   39HTM   C193 2588   5.450   2.809   7.727  0.6982  0.3921  0.7714
   39HTM   C194 2589   5.576   2.760   7.708  0.6477  0.3840  0.4607
   39HTM    S20 2590   5.642   2.812   7.548  0.0246 -0.1227  0.0238
   40TAL   C195 2591   5.361   2.775   7.845 -0.0338 -0.5768 -0.4111
   40TAL   C196 2592   5.409   2.799   7.991  0.5195 -0.0384 -0.0047
   40TAL   C197 2593   5.467   2.937   8.012  0.7098 -0.0668 -0.2075
   40TAL   C198 2594   5.370   3.060   8.036 -1.4177  0.3205  0.0427
   40TAL   C199 2595   5.277   3.104   7.924 -0.1343 -0.5196  0.1028
   40TAL   C200 2596   5.137   3.117   7.961 -0.2675 -0.4197 -0.8256
   41HTM   C201 2597   5.645   2.650   7.763 -0.2933  0.0243 -0.2203
   41HTM   C202 2598   5.652   2.593   7.887 -0.4127  0.1189 -0.1700
   41HTM   C203 2599   5.726   2.470   7.891 -0.1270  0.2961  0.0579
   41HTM   C204 2600   5.776   2.433   7.769  0.2103  0.3365  0.1815
   41HTM    S21 2601   5.732   2.551   7.640  0.1929  0.1527  0.0184
   42TAL   C205 2602   5.749   2.389   8.020  1.1714  0.8778 -0.1685
   42TAL   C206 2603   5.884   2.392   8.089  0.1554 -0.1569 -0.5802
   42TAL   C207 2604   5.902   2.306   8.224 -0.2871 -0.7012 -0.4110
   42TAL   C208 2605   6.031   2.225   8.226  0.0656 -0.1875 -0.7563
   42TAL   C209 2606   6.155   2.313   8.247 -0.2685 -1.0194  0.3968
   42TAL   C210 2607   6.270   2.213   8.277  0.2210  0.3222  0.6710
   43HTM   C211 2608   5.831   2.311   7.718 -0.2164 -0.2908 -0.3010
   43HTM   C212 2609   5.776   2.191   7.685 -0.2140 -0.1940 -0.6741
   43HTM   C213 2610   5.873   2.089   7.653 -0.1991 -0.1827 -0.6644
   43HTM   C214 2611   6.002   2.132   7.661 -0.1901 -0.2712 -0.2839
   43HTM    S22 2612   6.011   2.306   7.710 -0.1998 -0.3762  0.0947
   44TAL   C215 2613   5.831   1.943   7.633  0.6729 -0.2951 -0.6989
   44TAL   C216 2614   5.731   1.905   7.522 -0.1001  0.3262 -1.0335
   44TAL   C217 2615   5.761   1.762   7.481  0.9243 -0.6010 -0.0129
   44TAL   C218 2616   5.675   1.702   7.359 -0.1054 -0.5112  0.1349
   44TAL   C219 2617   5.529   1.687   7.388  0.1578 -0.2542  0.5762
   44TAL   C220 2618   5.432   1.637   7.281 -0.1426 -0.0206 -1.4493
   45HTM   C221 2619   6.139   2.078   7.648  0.7241  0.2363 -0.2934
   45HTM   C222 2620   6.254   2.149   7.630  0.6698  0.0583 -1.4699
   45HTM   C223 2621   6.371   2.066   7.613  0.5070 -0.1188 -1.7605
   45HTM   C224 2622   6.345   1.932   7.619  0.4371 -0.0760 -0.8056
   45HTM    S23 2623   6.170   1.900   7.646  0.5724  0.1936  0.5454
   46TAL   C225 2624   6.511   2.132   7.603  0.1931  0.3971 -0.2534
   46TAL   C226 2625   6.550   2.170   7.459 -0.0590 -0.8273 -0.1991
   46TAL   C227 2626   6.487   2.299   7.401  0.2315 -0.9196 -0.3864
   46TAL   C228 2627   6.518   2.438   7.475 -0.1516  0.3891  0.5149
   46TAL   C229 2628   6.481   2.570   7.392 -0.9534  0.0773 -0.7091
   46TAL   C230 2629   6.344   2.617   7.421 -0.4909 -0.4667  0.5155
   47HTM   C231 2630   6.442   1.825   7.603 -0.0239  0.8208  0.1553
   47HTM   C232 2631   6.410   1.700   7.647 -0.1463  1.1701  1.1051
   47HTM   C233 2632   6.519   1.606   7.637 -0.3498  0.8924  1.4622
   47HTM   C234 2633   6.633   1.659   7.585 -0.3824  0.3313  0.7847
   47HTM    S24 2634   6.612   1.834   7.545 -0.1571  0.1085 -0.3658
   48TAL   C235 2635   6.512   1.456   7.680 -0.2904 -0.9970 -0.9517
   48TAL   C236 2636   6.647   1.382   7.687 -0.3681  0.4984 -0.2033
   48TAL   C237 2637   6.654   1.263   7.790 -0.0545  0.6756  0.5530
   48TAL   C238 2638   6.634   1.287   7.941  0.0290  0.5927  0.1769
   48TAL   C239 2639   6.678   1.154   8.010 -0.1844 -0.1306  0.5347
   48TAL   C240 2640   6.642   1.166   8.151  0.2272  0.8095 -0.7834
    1HTM     C1 2641   5.659   6.493   2.966 -0.0479  0.1041  0.0932
    1HTM     C2 2642   5.687   6.458   2.838  0.2145 -0.0662  0.1949
    1HTM     C3 2643   5.680   6.316   2.813 -0.1413 -0.0648  0.2750
    1HTM     C4 2644   5.647   6.243   2.924 -0.6745  0.1062  0.2343
    1HTM     S1 2645   5.622   6.348   3.068 -0.7700  0.2804  0.0907
    2TAL     C5 2646   5.720   6.265   2.677 -0.1238 -0.1251  0.2145
    2TAL     C6 2647   5.644   6.325   2.557 -0.9242 -0.7020  0.6872
    2TAL     C7 2648   5.505   6.284   2.549  0.2454 -0.0291  0.0893
    2TAL     C8 2649   5.417   6.386   2.483  0.7269  0.5085  0.9374
    2TAL     C9 2650   5.305   6.342   2.380  0.5717 -0.0078 -0.5977
    2TAL    C10 2651   5.193   6.245   2.445  0.6241 -1.4781  0.2497
    3HTM    C11 2652   5.615   6.107   2.933  0.0531  0.0599 -0.2374
    3HTM    C12 2653   5.493   6.048   2.921  0.0079  0.2334 -0.6664
    3HTM    C13 2654   5.496   5.905   2.932 -0.2669  0.2482 -0.3667
    3HTM    C14 2655   5.621   5.854   2.952 -0.4313  0.0858  0.2907
    3HTM     S2 2656   5.745   5.984   2.959 -0.2504 -0.0998  0.5847
    4TAL    C15 2657   5.376   5.818   2.898  0.3719 -0.4183  0.6673
    4TAL    C16 2658   5.312   5.829   2.760 -0.1673  0.0525  0.2317
    4TAL    C17 2659   5.375   5.823   2.621 -0.8864  0.2482  0.4991
    4TAL    C18 2660   5.500   5.744   2.589  0.2406 -0.9680 -0.2333
    4TAL    C19 2661   5.517   5.699   2.441 -0.2357 -0.3491  0.0662
    4TAL    C20 2662   5.491   5.809   2.339  0.3529  0.6050  1.0453
    5HTM    C21 2663   5.659   5.717   2.989 -0.0215 -0.0720  0.2760
    5HTM    C22 2664   5.716   5.620   2.913  0.2269 -0.0805  0.4711
    5HTM    C23 2665   5.759   5.505   2.989  0.3792  0.1125  0.6801
    5HTM    C24 2666   5.734   5.515   3.123  0.2468  0.2682  0.6445
    5HTM     S3 2667   5.655   5.672   3.163 -0.0831  0.1824  0.3418
    6TAL    C25 2668   5.827   5.373   2.925 -0.6321 -0.3518 -0.0768
    6TAL    C26 2669   5.733   5.255   2.912 -0.4421 -0.3425 -0.1242
    6TAL    C27 2670   5.804   5.127   2.859  0.4881 -0.1125  0.9167
    6TAL    C28 2671   5.712   5.000   2.858  0.0229 -1.1200 -0.6722
    6TAL    C29 2672   5.773   4.870   2.882 -0.8006  0.6934 -1.0308
    6TAL    C30 2673   5.670   4.762   2.860  0.3972  0.2767 -0.7353
    7HTM    C31 2674   5.763   5.445   3.242  0.1167  0.2788 -0.2151
    7HTM    C32 2675   5.748   5.311   3.265 -0.5397  0.3725 -0.0802
    7HTM    C33 2676   5.766   5.274   3.403 -0.6857  0.4133 -0.0491
    7HTM    C34 2677   5.796   5.379   3.485 -0.1407  0.3510 -0.1602
    7HTM     S4 2678   5.803   5.534   3.393  0.6051  0.2349 -0.3140
    8TAL    C35 2679   5.749   5.130   3.456  0.7246 -0.0518  0.1658
    8TAL    C36 2680   5.831   5.041   3.368  0.2557  0.6901 -0.3833
    8TAL    C37 2681   5.791   4.885   3.370  0.1162 -0.3598  0.6554
    8TAL    C38 2682   5.878   4.807   3.278 -0.6948 -0.0892 -0.4266
    8TAL    C39 2683   6.008   4.769   3.355 -0.1089  0.1989  0.8545
    8TAL    C40 2684   6.083   4.659   3.291 -0.9239  0.2012  0.0747
    9HTM    C41 2685   5.840   5.367   3.619 -0.7350 -0.1920  0.4676
    9HTM    C42 2686   5.783   5.403   3.738 -0.7424 -0.6964  0.6201
    9HTM    C43 2687   5.875   5.399   3.849 -0.5512 -0.4315  0.4737
    9HTM    C44 2688   6.001   5.361   3.815 -0.3982  0.2749  0.2095
    9HTM     S5 2689   6.014   5.326   3.638 -0.4841  0.6633  0.1245
   10TAL    C45 2690   5.823   5.454   3.983 -0.3198  0.1991  0.2641
   10TAL    C46 2691   5.722   5.366   4.072 -1.5039  1.0978  0.3581
   10TAL    C47 2692   5.778   5.228   4.130  0.7895 -0.0602 -0.2025
   10TAL    C48 2693   5.706   5.206   4.267 -0.0802  0.3560  0.2942
   10TAL    C49 2694   5.773   5.092   4.347 -0.0140 -0.1079  0.9047
   10TAL    C50 2695   5.735   5.106   4.495 -1.0450 -0.3130  0.2902
   11HTM    C51 2696   6.118   5.327   3.890 -0.2966  0.3816  0.2372
   11HTM    C52 2697   6.245   5.334   3.840 -0.3854  0.8944  0.0767
   11HTM    C53 2698   6.347   5.302   3.936 -0.1534  0.9502 -0.1500
   11HTM    C54 2699   6.299   5.270   4.059  0.1124  0.4795 -0.1621
   11HTM     S6 2700   6.119   5.279   4.064  0.0899 -0.0748  0.1137
   12TAL    C55 2701   6.491   5.315   3.899  0.3434 -0.0439  0.2854
   12TAL    C56 2702   6.532   5.452   3.881 -0.2406 -0.2809  0.2413
   12TAL    C57 2703   6.676   5.477   3.877 -0.8871 -1.3995  0.1533
   12TAL    C58 2704   6.691   5.629   3.859 -0.6431 -0.0292  0.6230
   12TAL    C59 2705   6.832   5.685   3.837  0.4459 -0.1171  0.1410
   12TAL    C60 2706   6.935   5.640   3.951 -0.2634 -0.7454  0.7169
   13HTM    C61 2707   6.354   5.237   4.189  0.2284  0.3168 -0.1186
   13HTM    C62 2708   6.310   5.255   4.316  0.0994  0.6092 -0.2034
   13HTM    C63 2709   6.409   5.225   4.417 -0.0248  0.7663 -0.0317
   13HTM    C64 2710   6.528   5.184   4.365  0.0094  0.5937  0.1838
   13HTM     S7 2711   6.525   5.179   4.185  0.2027  0.2166  0.1869
   14TAL    C65 2712   6.381   5.246   4.566  0.3124 -0.4819  0.1787
   14TAL    C66 2713   6.336   5.121   4.640 -0.3186 -0.2400 -0.8346
   14TAL    C67 2714   6.283   5.149   4.776  0.4154  0.0525 -0.2833
   14TAL    C68 2715   6.396   5.167   4.884 -0.6698 -0.6171  0.0240
   14TAL    C69 2716   6.399   5.040   4.961 -0.8438 -0.4264 -0.2513
   14TAL    C70 2717   6.538   5.014   5.032 -0.0199 -0.2216 -0.6189
   15HTM    C71 2718   6.648   5.134   4.425  0.2721  0.5274  0.1326
   15HTM    C72 2719   6.765   5.126   4.356  0.3115  0.2370  0.2302
   15HTM    C73 2720   6.872   5.065   4.430  0.0753 -0.1103  0.2878
   15HTM    C74 2721   6.837   5.026   4.556 -0.1440 -0.0850  0.2341
   15HTM     S8 2722   6.664   5.064   4.590 -0.0690  0.3833  0.1058
   16TAL    C75 2723   7.010   5.078   4.388 -0.0980  1.1505  0.4840
   16TAL    C76 2724   7.051   5.107   4.243  1.0545  0.3082  0.2135
   16TAL    C77 2725   7.206   5.109   4.222  0.6380 -0.3527  0.7119
   16TAL    C78 2726   7.250   5.172   4.082  0.3682  0.4406  0.1195
   16TAL    C79 2727   7.383   5.239   4.107 -0.4885 -0.0456  0.2686
   16TAL    C80 2728   7.434   5.302   3.974  0.9851 -0.5768  0.3087
   17HTM    C81 2729   6.895   4.952   4.665  0.1986  0.8555 -0.1747
   17HTM    C82 2730   6.990   4.854   4.664 -0.1078  0.5586 -0.4808
   17HTM    C83 2731   7.019   4.799   4.794 -0.3617 -0.0268 -0.6644
   17HTM    C84 2732   6.946   4.856   4.894 -0.2488 -0.1763 -0.4981
   17HTM     S9 2733   6.835   4.983   4.832  0.1902  0.4152 -0.0936
   18TAL    C85 2734   7.138   4.696   4.804  0.7195 -0.8902  1.4931
   18TAL    C86 2735   7.280   4.744   4.830  0.3744 -0.1293  0.2349
   18TAL    C87 2736   7.359   4.660   4.919 -1.5755  0.0434  0.5659
   18TAL    C88 2737   7.512   4.685   4.924 -0.9623 -0.8022 -1.3021
   18TAL    C89 2738   7.545   4.834   4.948 -1.5458 -0.5745  1.5162
   18TAL    C90 2739   7.690   4.868   4.953 -0.1658 -0.5671 -1.1589
   19HTM    C91 2740   6.937   4.827   5.038  0.0075  0.5691  0.3194
   19HTM    C92 2741   6.924   4.911   5.145 -0.5745  0.1568  0.5826
   19HTM    C93 2742   6.922   4.843   5.272 -0.9122 -0.3092  0.3365
   19HTM    C94 2743   6.934   4.708   5.262 -0.5876 -0.2519 -0.1140
   19HTM    S10 2744   6.948   4.655   5.090  0.1759  0.3998 -0.2638
   20TAL    C95 2745   6.916   4.927   5.404 -0.5396  0.3089 -0.3088
   20TAL    C96 2746   6.934   5.069   5.383 -0.2503 -0.5203 -0.6633
   20TAL    C97 2747   6.879   5.154   5.498  0.2491 -1.1187  0.3653
   20TAL    C98 2748   6.858   5.311   5.470 -0.2254  0.6968 -0.2202
   20TAL    C99 2749   6.986   5.393   5.441  0.5721  0.1389  0.0332
   20TAL   C100 2750   6.959   5.536   5.482 -0.6262  0.3403 -0.2419
   21HTM   C101 2751   6.934   4.605   5.363 -0.1612  0.2208 -0.0653
   21HTM   C102 2752   6.853   4.500   5.398 -0.3151  0.4876  0.3891
   21HTM   C103 2753   6.910   4.415   5.499 -0.2717  0.6202  0.4767
   21HTM   C104 2754   7.034   4.455   5.541 -0.0849  0.4548  0.0894
   21HTM    S11 2755   7.089   4.604   5.455  0.0519  0.1159 -0.4203
   22TAL   C105 2756   6.841   4.285   5.546  0.6275  0.6766 -0.3630
   22TAL   C106 2757   6.688   4.285   5.560  0.0643  0.9374 -0.5833
   22TAL   C107 2758   6.618   4.230   5.693 -0.1048 -0.3172  0.7752
   22TAL   C108 2759   6.470   4.268   5.692  0.2533  0.2436  0.7771
   22TAL   C109 2760   6.362   4.176   5.752  0.5674  0.2122 -0.2992
   22TAL   C110 2761   6.370   4.036   5.696  0.2930  0.1026 -0.0053
   23HTM   C111 2762   7.129   4.383   5.630 -0.3867  0.4312  0.2132
   23HTM   C112 2763   7.203   4.272   5.603 -0.6524  0.3587 -0.2373
   23HTM   C113 2764   7.292   4.234   5.710 -0.3859 -0.0038 -0.5826
   23HTM   C114 2765   7.286   4.316   5.818  0.0829 -0.2082 -0.3952
   23HTM    S12 2766   7.166   4.449   5.794  0.2256  0.0436  0.2365
   24TAL   C115 2767   7.399   4.122   5.692  0.2375 -0.5306  0.0956
   24TAL   C116 2768   7.523   4.157   5.604  0.1711 -0.1818  0.0959
   24TAL   C117 2769   7.612   4.033   5.596 -0.0644  0.0395  0.1044
   24TAL   C118 2770   7.743   4.045   5.512 -0.2476 -1.0034  0.3285
   24TAL   C119 2771   7.729   4.053   5.361 -0.7078  0.2232 -0.1919
   24TAL   C120 2772   7.862   4.071   5.288 -0.3815  0.4064 -0.6312
   25HTM   C121 2773   7.363   4.328   5.937 -0.1395 -0.2495 -0.4083
   25HTM   C122 2774   7.312   4.386   6.049 -0.4139 -0.2401 -0.5356
   25HTM   C123 2775   7.410   4.409   6.152 -0.6304 -0.0736 -0.3643
   25HTM   C124 2776   7.536   4.368   6.118 -0.5211  0.0442 -0.1062
   25HTM    S13 2777   7.540   4.297   5.952 -0.1333 -0.0468 -0.0593
   26TAL   C125 2778   7.367   4.465   6.286  0.3732 -0.8736  0.3045
   26TAL   C126 2779   7.312   4.606   6.277 -0.6999  0.7603 -0.2114
   26TAL   C127 2780   7.153   4.619   6.274 -0.5713 -0.4063 -1.4421
   26TAL   C128 2781   7.098   4.746   6.216  0.0092  0.8482 -0.2603
   26TAL   C129 2782   6.960   4.757   6.281  0.4187 -0.0585 -0.3634
   26TAL   C130 2783   6.858   4.869   6.251 -0.7244 -0.4683 -1.0998
   27HTM   C131 2784   7.658   4.383   6.195 -0.1018  0.0339  0.2760
   27HTM   C132 2785   7.688   4.353   6.324 -0.0657  0.2563  0.3202
   27HTM   C133 2786   7.829   4.342   6.350 -0.0616  0.2126  0.2794
   27HTM   C134 2787   7.907   4.364   6.240 -0.0946 -0.0436  0.2041
   27HTM    S14 2788   7.807   4.400   6.094 -0.1336 -0.2508  0.1788
   28TAL   C135 2789   7.869   4.299   6.492  0.2191  0.3502 -0.6686
   28TAL   C136 2790   7.921   4.424   6.566  0.2847  0.4121 -0.8784
   28TAL   C137 2791   7.975   4.393   6.708  0.0158  0.5836 -0.6675
   28TAL   C138 2792   8.094   4.305   6.725 -0.9691  0.5088 -0.5590
   28TAL   C139 2793   8.106   4.253   6.870  0.1716  0.3825  0.1582
   28TAL   C140 2794   8.248   4.191   6.905 -0.2673 -0.6233  0.0217
   29HTM   C141 2795   8.051   4.357   6.210 -0.2324  0.0143 -0.2896
   29HTM   C142 2796   8.154   4.340   6.297 -0.2058 -0.0408 -0.3312
   29HTM   C143 2797   8.277   4.301   6.235 -0.2601 -0.1372 -0.3779
   29HTM   C144 2798   8.268   4.288   6.099 -0.3280 -0.1556 -0.3717
   29HTM    S15 2799   8.102   4.324   6.040 -0.3288 -0.0520 -0.3061
   30TAL   C145 2800   8.405   4.288   6.320  0.0014 -0.6108  0.0396
   30TAL   C146 2801   8.417   4.153   6.394 -0.7033  0.0473 -0.9897
   30TAL   C147 2802   8.519   4.173   6.512 -0.3719  0.2363  0.3511
   30TAL   C148 2803   8.593   4.045   6.563  0.2622 -1.3649  0.1067
   30TAL   C149 2804   8.705   3.984   6.476  1.0078  0.2418 -1.0207
   30TAL   C150 2805   8.664   3.909   6.354  0.6751 -0.1128  0.3768
   31HTM   C151 2806   8.367   4.241   5.996  0.6813  0.3911 -0.1713
   31HTM   C152 2807   8.484   4.174   6.011  0.6343  0.3157 -0.1408
   31HTM   C153 2808   8.557   4.155   5.888  0.5194  0.0229 -0.1637
   31HTM   C154 2809   8.494   4.207   5.779  0.4787 -0.1248 -0.2115
   31HTM    S16 2810   8.338   4.286   5.823  0.5832  0.0959 -0.2316
   32TAL   C155 2811   8.679   4.076   5.890 -0.2959 -0.3604  0.0420
   32TAL   C156 2812   8.662   3.921   5.903 -1.2377 -0.1996 -0.3541
   32TAL   C157 2813   8.562   3.851   5.824  0.4737 -0.5744 -0.0239
   32TAL   C158 2814   8.528   3.704   5.873 -0.0616 -0.2839  0.2853
   32TAL   C159 2815   8.448   3.618   5.787  0.4226 -0.6387 -0.5514
   32TAL   C160 2816   8.433   3.483   5.856 -0.7064 -0.3660  0.0933
   33HTM   C161 2817   8.535   4.199   5.643  0.1662  0.3745  0.1142
   33HTM   C162 2818   8.618   4.111   5.580  0.0519  0.0485  0.4086
   33HTM   C163 2819   8.618   4.124   5.436 -0.1360 -0.6214  0.3395
   33HTM   C164 2820   8.535   4.222   5.390 -0.1651 -0.8064 -0.0079
   33HTM    S17 2821   8.450   4.305   5.526  0.0443 -0.1435 -0.2765
   34TAL   C165 2822   8.704   4.034   5.346 -0.1599 -0.5328 -0.6153
   34TAL   C166 2823   8.633   3.927   5.261  0.6516 -0.1467 -0.5973
   34TAL   C167 2824   8.587   3.815   5.348  0.2581  0.8683  0.9975
   34TAL   C168 2825   8.595   3.685   5.275 -1.0114 -0.1422 -0.3712
   34TAL   C169 2826   8.532   3.563   5.334 -0.0442 -0.1791 -0.6936
   34TAL   C170 2827   8.589   3.486   5.454 -0.3549  0.3405 -0.0742
   35HTM   C171 2828   8.531   4.289   5.258  0.1609 -0.3547 -0.0407
   35HTM   C172 2829   8.428   4.279   5.170  0.1434 -0.4098 -0.0143
   35HTM   C173 2830   8.447   4.357   5.050 -0.0362 -0.2108  0.0848
   35HTM   C174 2831   8.564   4.426   5.047 -0.1556 -0.0039  0.1339
   35HTM    S18 2832   8.661   4.398   5.197 -0.0496 -0.0445  0.0582
   36TAL   C175 2833   8.351   4.373   4.932 -0.0053 -0.0686 -0.2036
   36TAL   C176 2834   8.208   4.316   4.914  0.1067  1.0735 -0.6551
   36TAL   C177 2835   8.187   4.165   4.951  1.1544  0.1283  0.8690
   36TAL   C178 2836   8.262   4.069   4.859 -0.3852  0.3066  0.1139
   36TAL   C179 2837   8.218   3.928   4.879  0.4857 -0.1880  0.2746
   36TAL   C180 2838   8.252   3.847   5.002 -0.2563 -0.2393  0.6742
   37HTM   C181 2839   8.625   4.509   4.949 -0.1107 -0.0444  0.4546
   37HTM   C182 2840   8.621   4.509   4.812 -1.0959  0.2198  0.4680
   37HTM   C183 2841   8.679   4.627   4.753 -1.9205  0.5391  0.2695
   37HTM   C184 2842   8.727   4.716   4.844 -1.5641  0.5182  0.1046
   37HTM    S19 2843   8.702   4.659   5.013 -0.1484  0.0906  0.1879
   38TAL   C185 2844   8.692   4.648   4.604 -0.0189  0.3327  0.6011
   38TAL   C186 2845   8.564   4.685   4.535  0.0165  0.8384 -0.2467
   38TAL   C187 2846   8.594   4.730   4.388 -0.1812 -0.0470  0.0924
   38TAL   C188 2847   8.478   4.806   4.338  0.0738 -1.3749  0.2830
   38TAL   C189 2848   8.513   4.903   4.220  0.3520  0.2737  0.3918
   38TAL   C190 2849   8.409   5.004   4.217 -0.3511 -0.6279  0.2766
   39HTM   C191 2850   8.794   4.843   4.833 -0.0931 -0.0589  0.0041
   39HTM   C192 2851   8.761   4.966   4.881 -0.3701 -0.1385  0.0184
   39HTM   C193 2852   8.862   5.066   4.859 -0.5755  0.0818  0.0684
   39HTM   C194 2853   8.973   5.019   4.795 -0.4551  0.3293  0.0922
   39HTM    S20 2854   8.958   4.843   4.756 -0.0700  0.3031  0.0531
   40TAL   C195 2855   8.846   5.203   4.918  0.7500  0.5644 -0.3439
   40TAL   C196 2856   8.727   5.241   5.011  0.2409 -0.5992 -0.1583
   40TAL   C197 2857   8.718   5.392   5.039 -0.4653 -0.7640  1.0499
   40TAL   C198 2858   8.838   5.477   5.080  0.9009 -0.1347 -1.3952
   40TAL   C199 2859   8.802   5.626   5.075  0.6496  0.1251  0.2594
   40TAL   C200 2860   8.882   5.716   5.172 -0.3718 -0.0418  0.0368
   41HTM   C201 2861   9.096   5.096   4.757  0.3034  0.2934  0.0293
   41HTM   C202 2862   9.134   5.222   4.792  0.7814  0.2904 -0.4423
   41HTM   C203 2863   9.267   5.258   4.749  0.8413 -0.2954 -0.7586
   41HTM   C204 2864   9.331   5.158   4.681  0.4090 -0.7389 -0.5282
   41HTM    S21 2865   9.227   5.011   4.666 -0.1114 -0.4492  0.1114
   42TAL   C205 2866   9.327   5.395   4.766  0.6902  0.0087 -0.4500
   42TAL   C206 2867   9.284   5.469   4.904  0.4061  0.0422  0.2357
   42TAL   C207 2868   9.341   5.417   5.033 -0.9162  0.3224  0.4127
   42TAL   C208 2869   9.495   5.428   5.032  0.4271  0.1422 -0.2043
   42TAL   C209 2870   9.587   5.317   5.083 -0.2865  0.2167  0.4255
   42TAL   C210 2871   9.545   5.171   5.067  0.3687  0.6457  0.6781
   43HTM   C211 2872   9.449   5.155   4.592  0.3946 -0.1249  0.1474
   43HTM   C212 2873   9.566   5.085   4.602  0.6500  0.3170  0.3550
   43HTM   C213 2874   9.667   5.127   4.509  0.4972  0.4097  0.2292
   43HTM   C214 2875   9.628   5.230   4.428  0.1253  0.0384 -0.0741
   43HTM    S22 2876   9.459   5.282   4.463 -0.0623 -0.4607 -0.2258
   44TAL   C215 2877   9.808   5.078   4.536  0.7341  0.8945  0.7720
   44TAL   C216 2878   9.905   5.043   4.426  0.4055  0.1383  0.2188
   44TAL   C217 2879   9.848   4.968   4.299  0.1882  0.7729  0.1279
   44TAL   C218 2880   9.936   4.974   4.178 -0.9698  0.1572 -0.5535
   44TAL   C219 2881  10.077   4.910   4.203 -0.4406 -0.5094  0.2051
   44TAL   C220 2882  10.161   4.908   4.080 -0.2871 -0.9894  0.3366
   45HTM   C221 2883   9.694   5.311   4.331  0.3210 -0.3642  0.3856
   45HTM   C222 2884   9.672   5.327   4.197 -0.1280  0.1284  0.5094
   45HTM   C223 2885   9.768   5.415   4.133 -0.4989  0.5732  0.5529
   45HTM   C224 2886   9.862   5.465   4.218 -0.3328  0.4194  0.4624
   45HTM    S23 2887   9.837   5.405   4.387  0.3100 -0.3046  0.3140
   46TAL   C225 2888   9.764   5.442   3.981 -0.8717 -0.3715  1.2088
   46TAL   C226 2889   9.624   5.488   3.922  0.0436 -0.4886 -0.2228
   46TAL   C227 2890   9.587   5.479   3.772 -0.2341  0.4589  0.6270
   46TAL   C228 2891   9.445   5.507   3.728  0.4131  1.2752 -0.1942
   46TAL   C229 2892   9.399   5.502   3.583 -0.5851 -0.4766  0.2206
   46TAL   C230 2893   9.397   5.377   3.495  0.2878  0.3910 -0.0184
   47HTM   C231 2894   9.972   5.556   4.197  0.0674 -0.3351 -0.6088
   47HTM   C232 2895  10.083   5.565   4.276  0.1065 -0.4581 -0.6486
   47HTM   C233 2896  10.171   5.673   4.240  0.0822 -0.3933 -0.5168
   47HTM   C234 2897  10.128   5.746   4.133  0.0246 -0.2208 -0.3764
   47HTM    S24 2898   9.971   5.684   4.070 -0.0035 -0.1261 -0.4000
   48TAL   C235 2899  10.312   5.687   4.302  0.4842  0.6452  0.0663
   48TAL   C236 2900  10.414   5.780   4.245 -0.1962 -0.2824 -0.5644
   48TAL   C237 2901  10.526   5.796   4.339 -0.9750  0.3840 -1.2370
   48TAL   C238 2902  10.599   5.922   4.321 -0.1940 -0.3680 -0.2375
   48TAL   C239 2903  10.710   5.940   4.426 -0.2941  0.6440  0.4738
   48TAL   C240 2904  10.798   6.056   4.389 -0.1643  0.2072  0.3422
    1HTM     C1 2905   5.324   5.066  11.230 -0.3872 -0.1927  0.5697
    1HTM     C2 2906   5.278   5.152  11.134 -0.6980 -0.1593  0.7458
    1HTM     C3 2907   5.370   5.258  11.103 -0.7995 -0.1467  0.4864
    1HTM     C4 2908   5.486   5.253  11.174 -0.5666 -0.1706  0.1129
    1HTM     S1 2909   5.488   5.113  11.288 -0.1974 -0.2108  0.0588
    2TAL     C5 2910   5.347   5.357  10.996  0.3747 -0.4472 -0.1441
    2TAL     C6 2911   5.423   5.322  10.862  0.5290 -1.4311 -0.5070
    2TAL     C7 2912   5.395   5.440  10.770 -0.1351  0.0334 -0.2158
    2TAL     C8 2913   5.472   5.578  10.790  0.4638 -0.7919  0.1495
    2TAL     C9 2914   5.613   5.607  10.809  0.4757  0.0162  0.1440
    2TAL    C10 2915   5.717   5.577  10.714  0.1929  0.1779 -0.9275
    3HTM    C11 2916   5.605   5.339  11.196  0.0232 -0.0155 -0.0189
    3HTM    C12 2917   5.643   5.450  11.126  0.2140 -0.1733 -0.1640
    3HTM    C13 2918   5.765   5.509  11.174  0.2959 -0.2965 -0.2177
    3HTM    C14 2919   5.820   5.445  11.281  0.1675 -0.2328 -0.1132
    3HTM     S2 2920   5.721   5.302  11.330 -0.0683 -0.0101  0.0626
    4TAL    C15 2921   5.801   5.648  11.110 -1.4696  0.0623 -0.6458
    4TAL    C16 2922   5.732   5.780  11.145  0.3066  0.1257  0.5383
    4TAL    C17 2923   5.777   5.813  11.286  0.3366 -0.4119  0.9402
    4TAL    C18 2924   5.915   5.885  11.310  0.2850 -0.4616  0.0287
    4TAL    C19 2925   5.949   5.918  11.453  0.5690 -0.2754  0.3527
    4TAL    C20 2926   6.041   6.029  11.437 -0.9444 -1.2844  0.1349
    5HTM    C21 2927   5.956   5.456  11.345  0.2110  0.0976  0.4340
    5HTM    C22 2928   5.985   5.439  11.477  0.6315  0.4377  0.3924
    5HTM    C23 2929   6.126   5.441  11.507  0.7241  0.6343 -0.0408
    5HTM    C24 2930   6.205   5.459  11.397  0.3741  0.4440 -0.3296
    5HTM     S3 2931   6.106   5.476  11.247 -0.1033 -0.0019 -0.0746
    6TAL    C25 2932   6.175   5.406  11.648  1.0241 -0.4156 -0.0251
    6TAL    C26 2933   6.162   5.509  11.757  0.7424 -0.6902 -0.0462
    6TAL    C27 2934   6.257   5.500  11.873 -0.5236  0.3147 -0.6806
    6TAL    C28 2935   6.396   5.542  11.824  0.1569  0.1456 -0.3666
    6TAL    C29 2936   6.491   5.565  11.942 -0.8219  0.7642 -0.3679
    6TAL    C30 2937   6.635   5.606  11.916  0.0343  0.4117 -0.1397
    7HTM    C31 2938   6.352   5.471  11.398 -0.3376  0.1344 -0.0781
    7HTM    C32 2939   6.421   5.577  11.448 -0.9080  0.8994 -0.8547
    7HTM    C33 2940   6.553   5.592  11.393 -1.0093  1.2558 -1.0080
    7HTM    C34 2941   6.585   5.497  11.301 -0.5161  0.7628 -0.3484
    7HTM     S4 2942   6.450   5.380  11.276  0.1198 -0.1972  0.5245
    8TAL    C35 2943   6.636   5.707  11.440  0.5673 -0.4096 -0.6787
    8TAL    C36 2944   6.581   5.840  11.383  0.5743 -0.3170  1.0407
    8TAL    C37 2945   6.655   5.958  11.433  0.1790  1.0472 -0.7227
    8TAL    C38 2946   6.602   6.079  11.362 -0.6452 -0.5402  0.2218
    8TAL    C39 2947   6.709   6.180  11.402  0.6788 -0.7458 -0.0615
    8TAL    C40 2948   6.699   6.308  11.314  1.2675 -0.0908 -0.8673
    9HTM    C41 2949   6.707   5.465  11.233  0.7448  0.1664  0.5382
    9HTM    C42 2950   6.764   5.341  11.226  1.0562  0.3041  0.6247
    9HTM    C43 2951   6.880   5.336  11.141  0.9177  0.4791  0.4239
    9HTM    C44 2952   6.911   5.455  11.083  0.5005  0.4746  0.1838
    9HTM     S5 2953   6.795   5.585  11.132  0.2484  0.2475  0.1933
   10TAL    C45 2954   6.945   5.192  11.120  0.1559 -1.6853  0.0125
   10TAL    C46 2955   6.939   5.085  11.224  0.7353 -1.1815  0.3811
   10TAL    C47 2956   6.993   4.952  11.201 -0.8914 -0.1564  0.6345
   10TAL    C48 2957   6.954   4.849  11.299  1.0518 -0.1033  0.4393
   10TAL    C49 2958   6.922   4.864  11.448 -0.1330 -0.5119 -0.0890
   10TAL    C50 2959   6.819   4.770  11.506  0.1290 -0.3485 -0.2947
   11HTM    C51 2960   7.010   5.499  10.998  0.5264 -0.0600 -0.1115
   11HTM    C52 2961   7.030   5.629  10.960  0.6957 -0.0843 -0.1094
   11HTM    C53 2962   7.139   5.646  10.868  0.6537 -0.2397 -0.1898
   11HTM    C54 2963   7.203   5.530  10.836  0.4525 -0.3341 -0.2538
   11HTM     S6 2964   7.130   5.389  10.920  0.2992 -0.2330 -0.2168
   12TAL    C55 2965   7.171   5.791  10.830 -0.9843  0.1750 -0.3710
   12TAL    C56 2966   7.226   5.878  10.937  0.0128 -0.9077  0.3953
   12TAL    C57 2967   7.311   6.003  10.914  0.2298 -1.2014  0.3206
   12TAL    C58 2968   7.280   6.090  10.787  0.2210  0.1385 -0.3204
   12TAL    C59 2969   7.410   6.156  10.720  0.5972  0.3396 -0.1170
   12TAL    C60 2970   7.402   6.244  10.595 -0.6841  0.3613  0.0153
   13HTM    C61 2971   7.301   5.508  10.734  0.7346  0.5816 -0.2574
   13HTM    C62 2972   7.407   5.589  10.709  0.8508  0.3785 -0.4339
   13HTM    C63 2973   7.500   5.536  10.613  0.8496 -0.0229 -0.2127
   13HTM    C64 2974   7.466   5.413  10.566  0.7326 -0.1259  0.1332
   13HTM     S7 2975   7.311   5.355  10.638  0.6139  0.2792  0.2063
   14TAL    C65 2976   7.627   5.614  10.593 -0.6137  0.0228 -0.0082
   14TAL    C66 2977   7.621   5.732  10.494 -0.5189  0.9648 -0.7787
   14TAL    C67 2978   7.742   5.824  10.521 -0.6943 -0.2543  0.9546
   14TAL    C68 2979   7.692   5.968  10.555  0.4083  0.7516 -0.5852
   14TAL    C69 2980   7.806   6.068  10.583  0.1386 -0.5158 -0.1040
   14TAL    C70 2981   7.773   6.206  10.579  0.7061 -0.4078 -0.1491
   15HTM    C71 2982   7.517   5.325  10.463 -0.3475 -0.2542 -0.4825
   15HTM    C72 2983   7.510   5.189  10.467 -0.1251 -0.2642 -0.3569
   15HTM    C73 2984   7.574   5.125  10.355  0.1105 -0.2680 -0.2191
   15HTM    C74 2985   7.631   5.212  10.267  0.0677 -0.2607 -0.2397
   15HTM     S8 2986   7.607   5.383  10.318 -0.2762 -0.2486 -0.4365
   16TAL    C75 2987   7.542   4.980  10.336  0.6102 -0.7217 -0.2506
   16TAL    C76 2988   7.601   4.875  10.433  0.5749  1.5840  0.7904
   16TAL    C77 2989   7.748   4.881  10.449 -0.3540  0.1967  0.1341
   16TAL    C78 2990   7.813   4.772  10.533 -0.8555 -0.3733 -0.3758
   16TAL    C79 2991   7.958   4.811  10.571  0.1092 -0.4380 -0.4066
   16TAL    C80 2992   8.019   4.692  10.641  0.2063 -0.3430 -0.0530
   17HTM    C81 2993   7.715   5.194  10.143 -0.5573 -0.0857 -0.2058
   17HTM    C82 2994   7.801   5.279  10.081 -0.3199 -0.1811 -0.0095
   17HTM    C83 2995   7.865   5.222   9.965  0.0728 -0.3366  0.2759
   17HTM    C84 2996   7.826   5.094   9.938  0.1349 -0.3597  0.2975
   17HTM     S9 2997   7.706   5.035  10.059 -0.3012 -0.1853 -0.0443
   18TAL    C85 2998   7.971   5.295   9.882 -0.1659  0.3034 -1.2819
   18TAL    C86 2999   8.102   5.322   9.946 -0.3514  0.6646 -0.0209
   18TAL    C87 3000   8.207   5.412   9.871  0.1636 -0.7001  0.7895
   18TAL    C88 3001   8.347   5.444   9.929  0.2612  1.7097 -0.5310
   18TAL    C89 3002   8.432   5.307   9.954 -0.6367  0.1141  0.0472
   18TAL    C90 3003   8.581   5.339   9.970  0.4749 -0.6001 -0.1313
   19HTM    C91 3004   7.864   4.996   9.835  0.6662 -0.0149  0.5154
   19HTM    C92 3005   7.887   5.003   9.700  0.4278  0.3504  0.4911
   19HTM    C93 3006   7.892   4.875   9.635 -0.0041  0.5389  0.0744
   19HTM    C94 3007   7.872   4.769   9.720 -0.0951  0.3173 -0.2192
   19HTM    S10 3008   7.846   4.825   9.890  0.3613 -0.1503  0.0100
   20TAL    C95 3009   7.903   4.877   9.484 -0.2985 -0.1747 -0.0168
   20TAL    C96 3010   7.976   4.765   9.411  0.6722  0.6961 -0.8815
   20TAL    C97 3011   8.053   4.801   9.287  0.1420 -0.3910 -0.1233
   20TAL    C98 3012   8.113   4.678   9.238 -0.2700  0.1675  0.3962
   20TAL    C99 3013   8.021   4.576   9.184  0.3073  0.6239  0.6346
   20TAL   C100 3014   8.087   4.485   9.082 -0.1198  0.2199 -0.1767
   21HTM   C101 3015   7.868   4.624   9.698  0.2259  0.1540  0.2450
   21HTM   C102 3016   7.755   4.561   9.655  0.2366  0.3297 -0.0458
   21HTM   C103 3017   7.771   4.419   9.638  0.1291  0.3408 -0.2499
   21HTM   C104 3018   7.896   4.373   9.669  0.0365  0.1736 -0.1151
   21HTM    S11 3019   8.004   4.508   9.721  0.0782 -0.0126  0.2835
   22TAL   C105 3020   7.662   4.329   9.584  0.2920  0.3020  1.3418
   22TAL   C106 3021   7.517   4.341   9.582  0.5794 -0.0965  0.6614
   22TAL   C107 3022   7.436   4.429   9.477  0.2723  0.6349  0.4715
   22TAL   C108 3023   7.474   4.401   9.331 -0.4356  0.2485  0.7395
   22TAL   C109 3024   7.413   4.278   9.254  0.7656 -0.9768 -0.1824
   22TAL   C110 3025   7.264   4.292   9.221  0.8426  0.3104 -0.3103
   23HTM   C111 3026   7.953   4.237   9.673  0.1048  0.0766  0.6979
   23HTM   C112 3027   7.887   4.118   9.683 -0.0456  0.1264  0.3176
   23HTM   C113 3028   7.975   4.004   9.699 -0.1676 -0.0848 -0.4389
   23HTM   C114 3029   8.107   4.037   9.701 -0.1103 -0.2958 -0.6357
   23HTM    S12 3030   8.132   4.215   9.684  0.1041 -0.2435  0.1260
   24TAL   C115 3031   7.911   3.870   9.711 -0.2904  1.1572  0.5527
   24TAL   C116 3032   7.879   3.817   9.852  0.1974  0.3081 -0.1429
   24TAL   C117 3033   7.749   3.869   9.907  0.5378  0.1686  0.4521
   24TAL   C118 3034   7.718   3.850  10.056  0.0545 -0.2911  0.4754
   24TAL   C119 3035   7.759   3.960  10.148  0.9632  1.1090  0.1649
   24TAL   C120 3036   7.686   3.946  10.285  0.3401  0.4901  0.6179
   25HTM   C121 3037   8.229   3.957   9.707 -0.3092 -0.2262 -0.1070
   25HTM   C122 3038   8.353   4.014   9.717 -0.3078 -0.2847  0.2356
   25HTM   C123 3039   8.461   3.919   9.711 -0.3287 -0.3119  0.2892
   25HTM   C124 3040   8.420   3.790   9.697 -0.3461 -0.2741 -0.0129
   25HTM    S13 3041   8.240   3.778   9.689 -0.3373 -0.2007 -0.3911
   26TAL   C125 3042   8.597   3.976   9.694 -0.6723 -1.1348  0.7502
   26TAL   C126 3043   8.630   4.111   9.768  0.1323  0.9851 -0.3062
   26TAL   C127 3044   8.701   4.083   9.898 -0.3113  0.9420  0.2481
   26TAL   C128 3045   8.769   4.199   9.965 -0.2028 -0.9385  0.6694
   26TAL   C129 3046   8.816   4.195  10.102 -0.9267 -0.3459 -0.5547
   26TAL   C130 3047   8.916   4.075  10.114  0.4421 -0.0099 -0.9336
   27HTM   C131 3048   8.494   3.667   9.704  0.4822  0.3976  0.1897
   27HTM   C132 3049   8.482   3.566   9.613 -0.6011  0.1090  0.6223
   27HTM   C133 3050   8.570   3.455   9.637 -1.2247 -0.3859  0.6442
   27HTM   C134 3051   8.649   3.470   9.747 -0.6168 -0.4747  0.2291
   27HTM    S14 3052   8.619   3.628   9.829  0.8014  0.0642 -0.2257
   28TAL   C135 3053   8.590   3.329   9.543 -0.2000 -0.8741 -0.0607
   28TAL   C136 3054   8.563   3.344   9.392  0.6689 -0.3249 -0.5789
   28TAL   C137 3055   8.624   3.470   9.328 -0.6366 -0.2598  0.4998
   28TAL   C138 3056   8.534   3.527   9.225  0.0269 -0.5995  0.3596
   28TAL   C139 3057   8.578   3.654   9.154  0.6870 -0.1019 -0.5769
   28TAL   C140 3058   8.478   3.690   9.055  0.4589 -1.0416 -0.4137
   29HTM   C141 3059   8.730   3.373   9.820 -0.4173  0.2406  0.0999
   29HTM   C142 3060   8.844   3.316   9.772 -0.6616 -0.3141  0.1597
   29HTM   C143 3061   8.930   3.264   9.874 -0.8953 -0.5930  0.2153
   29HTM   C144 3062   8.882   3.280  10.001 -0.8294 -0.2508  0.1974
   29HTM    S15 3063   8.722   3.364  10.000 -0.4640  0.4555  0.1089
   30TAL   C145 3064   9.070   3.212   9.841 -0.3124  0.3849 -0.0914
   30TAL   C146 3065   9.196   3.304   9.856 -0.7682 -0.3529 -0.3855
   30TAL   C147 3066   9.196   3.432   9.766 -0.7652 -0.2996  0.2137
   30TAL   C148 3067   9.117   3.562   9.794  0.4611  1.0787  0.0978
   30TAL   C149 3068   9.176   3.643   9.902  0.1654 -0.1109  0.2678
   30TAL   C150 3069   9.102   3.776   9.910 -0.0938  1.1180 -0.5902
   31HTM   C151 3070   8.946   3.223  10.114 -0.4747 -0.5598 -0.0520
   31HTM   C152 3071   8.946   3.096  10.163 -0.1481 -0.5487 -0.0210
   31HTM   C153 3072   9.036   3.078  10.275  0.2983 -0.4262 -0.3526
   31HTM   C154 3073   9.104   3.191  10.310  0.3122 -0.3441 -0.6368
   31HTM    S16 3074   9.059   3.330  10.205 -0.2418 -0.4155 -0.5059
   32TAL   C155 3075   9.061   2.937  10.323 -0.7066  0.0193 -0.4626
   32TAL   C156 3076   8.960   2.828  10.308 -0.6339  0.1947 -0.0386
   32TAL   C157 3077   8.958   2.755  10.161  0.7230  0.0290  0.2928
   32TAL   C158 3078   8.915   2.609  10.167  0.2389 -0.0786 -0.1758
   32TAL   C159 3079   8.768   2.596  10.212 -0.3778 -0.4622  0.3262
   32TAL   C160 3080   8.723   2.456  10.246 -0.1725 -0.2296 -0.0105
   33HTM   C161 3081   9.216   3.205  10.405 -0.0732 -0.4376 -0.2872
   33HTM   C162 3082   9.210   3.147  10.528 -0.2706 -0.3123 -0.2372
   33HTM   C163 3083   9.334   3.155  10.601 -0.4688  0.0222  0.0720
   33HTM   C164 3084   9.434   3.217  10.533 -0.4223  0.1519  0.2580
   33HTM    S17 3085   9.379   3.272  10.371 -0.1226 -0.1405  0.0554
   34TAL   C165 3086   9.354   3.084  10.738  0.1934 -0.5025 -0.0158
   34TAL   C166 3087   9.324   2.936  10.750 -0.9990 -0.3524 -0.0091
   34TAL   C167 3088   9.358   2.880  10.891  0.5473  0.7963 -0.1486
   34TAL   C168 3089   9.265   2.937  10.998 -0.7945  0.1766  0.0183
   34TAL   C169 3090   9.294   2.868  11.137  0.7220  0.4426  0.2547
   34TAL   C170 3091   9.268   2.949  11.262 -0.0442  1.1229  0.4707
   35HTM   C171 3092   9.564   3.260  10.591 -0.0219 -0.9112  0.6915
   35HTM   C172 3093   9.593   3.322  10.709  0.0092 -1.1263  0.7982
   35HTM   C173 3094   9.735   3.335  10.733  0.0221 -0.5887  0.4702
   35HTM   C174 3095   9.813   3.283  10.634  0.0009  0.0363  0.1137
   35HTM    S18 3096   9.713   3.213  10.501 -0.0373 -0.0060  0.1647
   36TAL   C175 3097   9.777   3.403  10.866 -0.2897 -0.0322  0.0736
   36TAL   C176 3098   9.767   3.303  10.978 -0.3487 -0.4310  0.0010
   36TAL   C177 3099   9.810   3.160  10.976  0.1674  0.3742  0.4382
   36TAL   C178 3100   9.789   3.109  11.122 -0.9955 -0.0040 -0.4772
   36TAL   C179 3101   9.654   3.080  11.168  0.4146  0.0279 -0.5634
   36TAL   C180 3102   9.657   3.018  11.306  0.1289 -0.0003  0.2639
   37HTM   C181 3103   9.951   3.284  10.610  0.2817  0.2761 -0.0807
   37HTM   C182 3104  10.046   3.378  10.639  0.6558 -0.0868 -0.1080
   37HTM   C183 3105  10.181   3.336  10.610  0.4838 -0.5899 -0.1924
   37HTM   C184 3106  10.188   3.210  10.558 -0.0213 -0.6105 -0.2300
   37HTM    S19 3107  10.025   3.134  10.543 -0.3214  0.0087 -0.1599
   38TAL   C185 3108  10.279   3.447  10.643 -0.3478  0.5093 -0.3684
   38TAL   C186 3109  10.351   3.501  10.518 -0.3429  0.5445  0.2875
   38TAL   C187 3110  10.458   3.610  10.553  0.5314 -0.2817  0.3628
   38TAL   C188 3111  10.406   3.736  10.629 -0.9298 -0.9164  0.9857
   38TAL   C189 3112  10.301   3.826  10.555 -0.0224  0.5279  0.2691
   38TAL   C190 3113  10.275   3.967  10.603  0.1349 -0.4169  0.1493
   39HTM   C191 3114  10.308   3.138  10.518  0.0804  0.3862  0.0821
   39HTM   C192 3115  10.308   3.018  10.454 -0.2208  0.4216  0.0172
   39HTM   C193 3116  10.439   2.962  10.432 -0.3439  0.2198 -0.2303
   39HTM   C194 3117  10.540   3.040  10.481 -0.1365  0.0305 -0.3538
   39HTM    S20 3118  10.476   3.191  10.558  0.2333  0.0929 -0.1656
   40TAL   C195 3119  10.456   2.829  10.369  0.3015 -0.8726 -0.0366
   40TAL   C196 3120  10.517   2.731  10.455  0.1869  0.2562 -0.9775
   40TAL   C197 3121  10.438   2.601  10.451  0.5097  0.7098 -0.4435
   40TAL   C198 3122  10.467   2.512  10.573  1.4590  0.2473 -0.9272
   40TAL   C199 3123  10.335   2.443  10.622 -0.5289  0.3609  1.4163
   40TAL   C200 3124  10.355   2.295  10.599  0.3030  0.4250 -0.3684
   41HTM   C201 3125  10.685   3.023  10.476  0.5279 -0.2162 -0.1728
   41HTM   C202 3126  10.770   3.077  10.384  0.9156 -0.5566 -0.0174
   41HTM   C203 3127  10.909   3.065  10.420  0.7776 -0.6366  0.5004
   41HTM   C204 3128  10.929   3.001  10.539  0.2847 -0.3570  0.7405
   41HTM    S21 3129  10.773   2.952  10.615 -0.0460  0.0318  0.3268
   42TAL   C205 3130  11.003   3.142  10.327  0.3210  0.6067 -0.2994
   42TAL   C206 3131  11.020   3.101  10.179 -0.3583  0.3189 -0.0527
   42TAL   C207 3132  11.027   2.947  10.143 -0.7513  0.4213 -0.1232
   42TAL   C208 3133  11.159   2.898  10.210  1.0024 -0.0837  0.1811
   42TAL   C209 3134  11.202   2.765  10.150  1.0599 -0.7120 -0.5641
   42TAL   C210 3135  11.107   2.646  10.164  0.0121  0.5034  0.1926
   43HTM   C211 3136  11.045   2.984  10.622 -0.4172 -0.1363  0.3307
   43HTM   C212 3137  11.059   3.016  10.754 -0.6377 -0.8803  0.5457
   43HTM   C213 3138  11.187   2.980  10.809 -0.6533 -1.0072  0.4990
   43HTM   C214 3139  11.271   2.920  10.720 -0.4446 -0.3600  0.2484
   43HTM    S22 3140  11.194   2.905  10.557 -0.2106  0.4663  0.0506
   44TAL   C215 3141  11.218   2.997  10.958  0.0426 -0.1056 -0.3374
   44TAL   C216 3142  11.139   3.109  11.037 -0.0264  1.3729 -0.6973
   44TAL   C217 3143  11.160   3.115  11.191 -0.4433 -0.5222  1.2059
   44TAL   C218 3144  11.020   3.098  11.244 -0.0216 -0.5672  0.2787
   44TAL   C219 3145  11.026   3.083  11.396 -0.3082  0.8913  0.3438
   44TAL   C220 3146  10.892   3.097  11.452  0.2333  0.0380  0.2511
   45HTM   C221 3147  11.397   2.861  10.750  0.0413 -0.0807 -0.2448
   45HTM   C222 3148  11.402   2.744  10.820  0.0352  0.0734  0.0169
   45HTM   C223 3149  11.533   2.712  10.870 -0.0403  0.3636  0.4115
   45HTM   C224 3150  11.628   2.804  10.838 -0.0921  0.4307  0.4506
   45HTM    S23 3151  11.559   2.940  10.742 -0.0489  0.1302 -0.0112
   46TAL   C225 3152  11.535   2.574  10.950  0.3679 -0.3715 -0.2867
   46TAL   C226 3153  11.542   2.442  10.882  0.0528  0.9486  0.4003
   46TAL   C227 3154  11.506   2.309  10.959  0.1819 -0.9923  0.0604
   46TAL   C228 3155  11.362   2.301  11.013  0.1024  0.3598 -0.3049
   46TAL   C229 3156  11.318   2.163  11.037  0.6164  0.5377  0.1536
   46TAL   C230 3157  11.166   2.144  11.071 -0.5085 -0.3890 -0.2723
   47HTM   C231 3158  11.764   2.817  10.877 -0.1760  0.1757  0.0308
   47HTM   C232 3159  11.821   2.941  10.881 -0.1953  0.1801  0.1545
   47HTM   C233 3160  11.946   2.945  10.954 -0.1618  0.1137  0.1004
   47HTM   C234 3161  11.984   2.824  11.004 -0.1168  0.0584 -0.0641
   47HTM    S24 3162  11.864   2.695  10.964 -0.1137  0.0865 -0.1643
   48TAL   C235 3163  12.011   3.076  10.976 -0.7007 -0.7349 -1.2487
   48TAL   C236 3164  12.127   3.073  11.079 -0.6796  0.3131  0.0407
   48TAL   C237 3165  12.207   3.204  11.080 -0.7767 -0.2828 -0.0097
   48TAL   C238 3166  12.308   3.221  10.964 -0.4387 -0.4978 -0.0828
   48TAL   C239 3167  12.428   3.304  11.013 -0.3664 -0.3313 -0.0913
   48TAL   C240 3168  12.555   3.300  10.940 -0.8195  0.2582  0.1582
    1HTM     C1 3169   0.182   6.456  17.861  0.4295 -0.1247 -0.1150
    1HTM     C2 3170   0.063   6.397  17.830  0.5789 -0.2096 -0.5465
    1HTM     C3 3171  -0.050   6.486  17.841  0.4390 -0.3725 -0.6480
    1HTM     C4 3172  -0.016   6.612  17.880  0.1832 -0.4119 -0.2940
    1HTM     S1 3173   0.161   6.629  17.906  0.0981 -0.2451  0.1996
    2TAL     C5 3174  -0.194   6.448  17.820  0.5824  0.6736  0.6589
    2TAL     C6 3175  -0.244   6.298  17.809 -0.3291 -0.8322  0.8142
    2TAL     C7 3176  -0.385   6.300  17.767  0.7801 -0.4272  0.1416
    2TAL     C8 3177  -0.444   6.159  17.753  0.8629 -0.3733  0.3314
    2TAL     C9 3178  -0.596   6.165  17.760 -0.3026  0.7844 -0.6072
    2TAL    C10 3179  -0.654   6.018  17.762  0.8410 -0.0720 -0.3623
    3HTM    C11 3180  -0.081   6.741  17.877 -0.2606 -0.6083 -0.4478
    3HTM    C12 3181  -0.034   6.857  17.822 -0.2476 -0.8690 -0.9966
    3HTM    C13 3182  -0.120   6.970  17.843  0.1011 -0.6145 -0.9227
    3HTM    C14 3183  -0.233   6.941  17.914  0.3538 -0.1598 -0.3167
    3HTM     S2 3184  -0.239   6.767  17.960  0.1699 -0.0167  0.2110
    4TAL    C15 3185  -0.093   7.098  17.766  0.5380 -0.3846 -0.5429
    4TAL    C16 3186  -0.096   7.069  17.614  0.2957  0.0754 -0.6482
    4TAL    C17 3187  -0.106   7.190  17.522  0.0224 -0.4757 -0.1460
    4TAL    C18 3188   0.020   7.264  17.468  0.2227  0.9357 -0.4081
    4TAL    C19 3189   0.100   7.181  17.364  0.9004 -0.1226  0.3729
    4TAL    C20 3190   0.188   7.281  17.302 -0.1047  0.2616 -0.8171
    5HTM    C21 3191  -0.350   7.018  17.950  0.1442  0.0513 -0.0031
    5HTM    C22 3192  -0.440   7.075  17.864  0.2439 -0.0592 -0.1802
    5HTM    C23 3193  -0.539   7.156  17.929  0.1709  0.0298 -0.4015
    5HTM    C24 3194  -0.525   7.162  18.064  0.0159  0.2080 -0.3921
    5HTM     S3 3195  -0.385   7.064  18.121 -0.0506  0.2780 -0.1021
    6TAL    C25 3196  -0.629   7.246  17.843  1.9444  0.7493 -0.1502
    6TAL    C26 3197  -0.583   7.347  17.756 -0.4162 -0.0840  0.3299
    6TAL    C27 3198  -0.678   7.442  17.681  0.4297  0.3207 -0.4987
    6TAL    C28 3199  -0.769   7.539  17.758  0.1551  0.4460 -0.6590
    6TAL    C29 3200  -0.886   7.485  17.840  0.2768 -0.4532  0.2936
    6TAL    C30 3201  -0.926   7.583  17.950  0.4553 -0.1054 -0.2916
    7HTM    C31 3202  -0.603   7.217  18.169 -0.0090  0.2222 -0.2131
    7HTM    C32 3203  -0.580   7.328  18.243  0.0889  0.1537 -0.1402
    7HTM    C33 3204  -0.690   7.366  18.328  0.1854  0.0993  0.0081
    7HTM    C34 3205  -0.797   7.282  18.319  0.1609  0.1261  0.0480
    7HTM     S4 3206  -0.767   7.149  18.201  0.0131  0.2232 -0.0988
    8TAL    C35 3207  -0.676   7.490  18.422  0.5595  0.3646 -0.2856
    8TAL    C36 3208  -0.687   7.619  18.360  0.0473 -0.9754 -0.7726
    8TAL    C37 3209  -0.594   7.660  18.239 -0.3760  0.1498  0.4370
    8TAL    C38 3210  -0.632   7.788  18.164  0.2027  1.0425 -0.4072
    8TAL    C39 3211  -0.531   7.830  18.063 -0.0929 -0.5121  0.4655
    8TAL    C40 3212  -0.591   7.959  17.998  0.2630  0.7816  0.4772
    9HTM    C41 3213  -0.932   7.299  18.384 -0.3575 -0.2572  0.3076
    9HTM    C42 3214  -0.985   7.262  18.503 -0.7483  0.4572  0.3667
    9HTM    C43 3215  -1.120   7.307  18.523 -0.5771  1.1749 -0.0434
    9HTM    C44 3216  -1.170   7.379  18.419 -0.0558  1.0078 -0.4139
    9HTM     S5 3217  -1.049   7.395  18.286  0.2617 -0.0775 -0.2732
   10TAL    C45 3218  -1.187   7.277  18.663 -0.1481 -0.7546  0.1988
   10TAL    C46 3219  -1.275   7.161  18.682 -0.3831  0.0719 -0.4656
   10TAL    C47 3220  -1.380   7.165  18.794 -0.3670  0.4985 -0.2766
   10TAL    C48 3221  -1.509   7.243  18.754 -0.1076  0.6166  0.2147
   10TAL    C49 3222  -1.572   7.340  18.854 -0.4292 -0.0488 -0.2672
   10TAL    C50 3223  -1.489   7.464  18.879  1.0715  0.2772  0.4002
   11HTM    C51 3224  -1.315   7.395  18.401 -0.2797 -0.2943  0.0029
   11HTM    C52 3225  -1.398   7.329  18.315 -0.4197 -0.2760  0.1225
   11HTM    C53 3226  -1.535   7.371  18.323 -0.3382 -0.0012  0.0744
   11HTM    C54 3227  -1.558   7.470  18.414 -0.1361  0.1900 -0.0825
   11HTM     S6 3228  -1.405   7.518  18.498 -0.0322  0.0366 -0.1817
   12TAL    C55 3229  -1.643   7.290  18.239  0.5516 -1.5561 -0.4418
   12TAL    C56 3230  -1.685   7.173  18.330  0.3817  0.1856  0.3019
   12TAL    C57 3231  -1.794   7.096  18.266  0.8859  0.0807 -0.3421
   12TAL    C58 3232  -1.808   6.964  18.329  0.6756  0.2877  0.9130
   12TAL    C59 3233  -1.843   6.968  18.480  0.0109  0.0189 -0.7268
   12TAL    C60 3234  -1.811   6.837  18.548 -0.2185  0.4884 -0.4642
   13HTM    C61 3235  -1.688   7.525  18.451  0.2570  0.0542 -0.6256
   13HTM    C62 3236  -1.797   7.459  18.500  0.5057 -0.1040 -0.2785
   13HTM    C63 3237  -1.906   7.546  18.537  0.7175 -0.2132  0.6442
   13HTM    C64 3238  -1.880   7.679  18.516  0.6305 -0.1383  1.0002
   13HTM     S7 3239  -1.715   7.704  18.448  0.2715  0.0776  0.1913
   14TAL    C65 3240  -2.035   7.503  18.598 -0.4867 -0.0571 -0.5848
   14TAL    C66 3241  -2.164   7.499  18.513  0.1777  0.6359 -0.7405
   14TAL    C67 3242  -2.168   7.414  18.384 -0.9078  0.0065 -0.8600
   14TAL    C68 3243  -2.117   7.272  18.402  0.3037  1.0107  0.6854
   14TAL    C69 3244  -2.221   7.168  18.446  0.0431 -0.0486 -0.5395
   14TAL    C70 3245  -2.354   7.148  18.376 -0.0076 -0.7209 -0.4792
   15HTM    C71 3246  -1.952   7.811  18.539 -0.3506 -0.0955  0.0104
   15HTM    C72 3247  -2.026   7.850  18.647 -0.7852  0.0172 -0.3200
   15HTM    C73 3248  -2.095   7.975  18.628 -0.5934  0.0715 -0.6733
   15HTM    C74 3249  -2.074   8.031  18.505 -0.0128  0.0001 -0.6137
   15HTM     S8 3250  -1.965   7.929  18.404  0.3398 -0.1423 -0.1004
   16TAL    C75 3251  -2.175   8.035  18.735 -0.3688  0.6166 -0.3425
   16TAL    C76 3252  -2.106   8.059  18.875 -0.4088 -0.7250  0.0049
   16TAL    C77 3253  -2.216   8.099  18.988  0.0268  0.3817 -0.5778
   16TAL    C78 3254  -2.155   8.125  19.125 -0.3897 -0.4197 -0.0272
   16TAL    C79 3255  -2.232   8.234  19.202  0.2849  0.3316 -0.3593
   16TAL    C80 3256  -2.162   8.365  19.213  0.3577 -0.7440  1.1169
   17HTM    C81 3257  -2.133   8.150  18.448  0.3724 -0.3408 -0.1465
   17HTM    C82 3258  -2.266   8.177  18.434  0.2127 -1.2971 -0.7095
   17HTM    C83 3259  -2.295   8.275  18.333 -0.0794 -1.5912 -0.9136
   17HTM    C84 3260  -2.184   8.322  18.269 -0.1423 -0.8592 -0.5051
   17HTM     S9 3261  -2.034   8.246  18.332  0.1646  0.2672  0.1725
   18TAL    C85 3262  -2.438   8.314  18.283 -0.5838  0.5809 -0.0042
   18TAL    C86 3263  -2.562   8.225  18.316  0.2899  0.2504 -0.0532
   18TAL    C87 3264  -2.566   8.091  18.243  0.7853  1.4777  0.1762
   18TAL    C88 3265  -2.521   8.095  18.093  0.1281 -0.7177 -0.1662
   18TAL    C89 3266  -2.574   7.978  18.015 -0.2494  0.1494  1.0280
   18TAL    C90 3267  -2.534   7.979  17.865 -0.2419 -0.0453 -1.1418
   19HTM    C91 3268  -2.172   8.417  18.160 -0.1592  0.1264  0.1182
   19HTM    C92 3269  -2.250   8.525  18.127 -0.4221 -0.1219 -0.0849
   19HTM    C93 3270  -2.229   8.573  17.993 -0.6195 -0.3897 -0.2136
   19HTM    C94 3271  -2.135   8.503  17.924 -0.5071 -0.3456 -0.1086
   19HTM    S10 3272  -2.066   8.369  18.022 -0.1404  0.0406  0.1634
   20TAL    C95 3273  -2.308   8.705  17.960 -0.8310  0.0309 -0.3960
   20TAL    C96 3274  -2.270   8.828  18.042  0.3299 -0.8914 -0.1126
   20TAL    C97 3275  -2.122   8.866  18.062  0.0517  0.2585  0.3256
   20TAL    C98 3276  -2.090   8.979  18.154  1.5903 -0.4170 -1.1384
   20TAL    C99 3277  -2.067   9.112  18.083 -0.2732 -0.0728 -0.2845
   20TAL   C100 3278  -2.204   9.193  18.087 -0.5515  0.0775 -0.2955
   21HTM   C101 3279  -2.113   8.503  17.775  0.3030  0.2191 -0.1872
   21HTM   C102 3280  -2.045   8.411  17.700  0.5747  0.3550 -0.1106
   21HTM   C103 3281  -2.061   8.429  17.558  0.5993  0.2483 -0.1268
   21HTM   C104 3282  -2.141   8.535  17.524  0.3463  0.0309 -0.2155
   21HTM    S11 3283  -2.202   8.620  17.671  0.0552 -0.0565 -0.2856
   22TAL   C105 3284  -2.004   8.343  17.452 -0.4228  0.3884  0.7696
   22TAL   C106 3285  -1.883   8.252  17.461  0.3923 -0.0061  0.0386
   22TAL   C107 3286  -1.857   8.171  17.336 -0.6818  1.1060  0.3041
   22TAL   C108 3287  -1.729   8.084  17.359  0.1801 -0.3630 -0.1464
   22TAL   C109 3288  -1.705   7.973  17.256 -0.3337  0.2587  0.4280
   22TAL   C110 3289  -1.787   7.839  17.268  0.4189 -0.3940  1.0673
   23HTM   C111 3290  -2.187   8.593  17.397 -0.2666  0.9181  0.4189
   23HTM   C112 3291  -2.312   8.571  17.346 -0.3754  0.9261  0.6804
   23HTM   C113 3292  -2.336   8.639  17.221 -0.3257  0.2311  0.2832
   23HTM   C114 3293  -2.230   8.712  17.177 -0.1787 -0.3069 -0.2803
   23HTM    S12 3294  -2.090   8.701  17.290 -0.0912  0.0252 -0.3550
   24TAL   C115 3295  -2.473   8.605  17.159  0.4371  0.8436  0.4822
   24TAL   C116 3296  -2.490   8.521  17.030  0.0143  0.6383 -0.1031
   24TAL   C117 3297  -2.432   8.378  17.036 -0.2677 -0.4388 -1.4589
   24TAL   C118 3298  -2.402   8.334  16.900 -0.4579  0.8824  1.4550
   24TAL   C119 3299  -2.365   8.188  16.871  0.1957  0.4249  0.1279
   24TAL   C120 3300  -2.235   8.141  16.933 -0.3525 -1.1886 -0.2794
   25HTM   C121 3301  -2.224   8.783  17.052  0.4727 -0.1701  0.5503
   25HTM   C122 3302  -2.316   8.824  16.961  0.3805 -0.6239  0.4358
   25HTM   C123 3303  -2.262   8.911  16.859  0.1551 -0.6573  0.2861
   25HTM   C124 3304  -2.129   8.937  16.874  0.0755 -0.2292  0.2878
   25HTM    S13 3305  -2.061   8.852  17.017  0.2803  0.2533  0.4783
   26TAL   C125 3306  -2.346   8.950  16.744  0.4637  0.2413 -0.1150
   26TAL   C126 3307  -2.467   9.049  16.763  0.2295  0.5995 -0.0713
   26TAL   C127 3308  -2.540   9.087  16.632 -0.0023 -0.7889  0.0191
   26TAL   C128 3309  -2.625   8.988  16.562 -0.8584 -0.0129  0.4106
   26TAL   C129 3310  -2.651   9.024  16.425  0.5211  0.1499  0.4980
   26TAL   C130 3311  -2.732   8.921  16.337  0.6336  0.2131  0.3373
   27HTM   C131 3312  -2.045   9.041  16.818  0.8515 -0.5129 -0.4982
   27HTM   C132 3313  -1.922   9.077  16.864  1.0489 -0.2720 -1.1873
   27HTM   C133 3314  -1.867   9.192  16.798  0.3278  0.0171 -1.3075
   27HTM   C134 3315  -1.948   9.244  16.702 -0.4192 -0.0033 -0.7107
   27HTM    S14 3316  -2.101   9.151  16.687 -0.2689 -0.3923  0.0561
   28TAL   C135 3317  -1.722   9.221  16.804 -0.0352  0.8689 -0.2481
   28TAL   C136 3318  -1.649   9.214  16.944  0.7142  0.4457 -0.8038
   28TAL   C137 3319  -1.676   9.328  17.036  0.5067  0.0938  0.3244
   28TAL   C138 3320  -1.649   9.309  17.183 -0.0305  0.8214 -0.7673
   28TAL   C139 3321  -1.687   9.416  17.282  0.2245 -0.7810 -0.3774
   28TAL   C140 3322  -1.622   9.561  17.281  0.6092  0.6163 -0.8081
   29HTM   C141 3323  -1.931   9.358  16.609 -0.1757  0.7066 -0.2378
   29HTM   C142 3324  -2.032   9.427  16.548 -0.1059  1.2441  0.2408
   29HTM   C143 3325  -1.986   9.536  16.465  0.0485  1.2974  0.3943
   29HTM   C144 3326  -1.850   9.549  16.462  0.0968  0.8004  0.0329
   29HTM    S15 3327  -1.769   9.425  16.565 -0.0505  0.2222 -0.5343
   30TAL   C145 3328  -2.064   9.619  16.370 -0.4406  0.3417 -0.3819
   30TAL   C146 3329  -2.100   9.542  16.240 -0.7200 -0.4501 -0.1527
   30TAL   C147 3330  -2.203   9.625  16.163  0.9665 -0.5594 -0.7900
   30TAL   C148 3331  -2.243   9.571  16.027 -1.0397  0.3012 -0.7363
   30TAL   C149 3332  -2.386   9.569  16.020  0.2218  0.1952  1.0928
   30TAL   C150 3333  -2.425   9.443  15.952  0.2299 -0.0944 -0.1640
   31HTM   C151 3334  -1.756   9.645  16.405 -0.7811  0.2574 -0.3014
   31HTM   C152 3335  -1.682   9.735  16.476 -1.3096  0.4927 -0.0367
   31HTM   C153 3336  -1.602   9.822  16.395 -1.0822  0.5587  0.2542
   31HTM   C154 3337  -1.614   9.799  16.261 -0.3798  0.3736  0.2112
   31HTM    S16 3338  -1.730   9.664  16.228  0.0518  0.0995 -0.2027
   32TAL   C155 3339  -1.516   9.941  16.430  0.1119 -0.6466  0.4959
   32TAL   C156 3340  -1.408   9.945  16.533  0.0223 -0.3359 -0.9439
   32TAL   C157 3341  -1.271   9.893  16.494 -0.5392 -0.6887 -0.0600
   32TAL   C158 3342  -1.246   9.807  16.375  0.2513  0.0697  0.5689
   32TAL   C159 3343  -1.097   9.785  16.328  0.3629 -1.0342 -0.1455
   32TAL   C160 3344  -1.080   9.693  16.212  0.7647  0.3944  0.8147
   33HTM   C161 3345  -1.553   9.867  16.144  0.1440 -0.1334  0.4386
   33HTM   C162 3346  -1.505   9.799  16.036 -0.4953 -0.1178  0.1330
   33HTM   C163 3347  -1.436   9.883  15.941 -0.7915 -0.1517 -0.1147
   33HTM   C164 3348  -1.432  10.014  15.976 -0.3782 -0.1932  0.0028
   33HTM    S17 3349  -1.515  10.043  16.133  0.4236 -0.1927  0.4384
   34TAL   C165 3350  -1.373   9.808  15.820 -0.2350 -0.0928  0.5783
   34TAL   C166 3351  -1.251   9.718  15.847  0.6287 -0.2559 -0.5018
   34TAL   C167 3352  -1.208   9.639  15.726  1.1555  0.3136 -0.3175
   34TAL   C168 3353  -1.106   9.515  15.730  0.5466 -0.5698 -0.6313
   34TAL   C169 3354  -1.133   9.424  15.848 -0.0143 -0.7284  0.4232
   34TAL   C170 3355  -1.251   9.332  15.839  0.1565  0.0621  0.8378
   35HTM   C171 3356  -1.374  10.136  15.924  0.1513  0.0733 -0.3123
   35HTM   C172 3357  -1.264  10.150  15.846  0.0774  0.3412 -0.3722
   35HTM   C173 3358  -1.234  10.286  15.810 -0.0072  0.4575 -0.0057
   35HTM   C174 3359  -1.323  10.376  15.861  0.0025  0.2783  0.3335
   35HTM    S18 3360  -1.451  10.296  15.959  0.1198 -0.0539  0.2159
   36TAL   C175 3361  -1.098  10.303  15.767 -0.7901 -0.2167  0.2329
   36TAL   C176 3362  -1.092  10.380  15.632 -0.1333 -0.4665 -0.3330
   36TAL   C177 3363  -0.962  10.439  15.583  0.7897  0.0292  0.4252
   36TAL   C178 3364  -0.941  10.569  15.662 -0.6751  0.4905 -0.3034
   36TAL   C179 3365  -0.807  10.632  15.642 -0.7016 -0.3833  0.6300
   36TAL   C180 3366  -0.771  10.757  15.725  1.1717  1.1966 -0.0874
   37HTM   C181 3367  -1.338  10.515  15.851  0.2335 -0.4306 -0.1451
   37HTM   C182 3368  -1.379  10.583  15.740 -0.1056 -0.6390 -0.1519
   37HTM   C183 3369  -1.413  10.720  15.765 -0.5555 -0.7393 -0.2084
   37HTM   C184 3370  -1.399  10.757  15.896 -0.5596 -0.6074 -0.2448
   37HTM    S19 3371  -1.341  10.620  15.997  0.0089 -0.3443 -0.2101
   38TAL   C185 3372  -1.463  10.820  15.665  0.3883 -0.1047  1.0337
   38TAL   C186 3373  -1.591  10.771  15.590  0.4119  0.1122  1.0327
   38TAL   C187 3374  -1.639  10.859  15.472 -0.8030  0.3536 -0.1335
   38TAL   C188 3375  -1.742  10.806  15.375  0.6944 -0.1398 -0.1832
   38TAL   C189 3376  -1.707  10.845  15.234 -0.2162 -0.2192  0.3564
   38TAL   C190 3377  -1.621  10.753  15.162  0.1826  0.8208  0.3793
   39HTM   C191 3378  -1.397  10.887  15.966  0.8838  0.4333 -0.0302
   39HTM   C192 3379  -1.472  10.999  15.944  1.0390  0.5050 -0.1936
   39HTM   C193 3380  -1.462  11.097  16.049  0.7862  0.4308 -0.0987
   39HTM   C194 3381  -1.380  11.060  16.151  0.4383  0.3026  0.1361
   39HTM    S20 3382  -1.308  10.897  16.122  0.4026  0.2652  0.2586
   40TAL   C195 3383  -1.549  11.226  16.048 -0.0976 -0.1714 -0.0832
   40TAL   C196 3384  -1.666  11.254  15.957  0.3945 -0.0822  0.7842
   40TAL   C197 3385  -1.794  11.190  16.001 -0.0786  0.8541 -0.8246
   40TAL   C198 3386  -1.895  11.195  15.884  0.0234 -0.1126 -0.8967
   40TAL   C199 3387  -2.035  11.149  15.900 -0.7988  0.1610  0.6966
   40TAL   C200 3388  -2.122  11.179  15.793  0.9313  0.8867 -0.2837
   41HTM   C201 3389  -1.337  11.130  16.269 -0.0481  0.5522  0.1428
   41HTM   C202 3390  -1.327  11.265  16.286 -0.7524  0.5364  0.7834
   41HTM   C203 3391  -1.264  11.304  16.409 -0.9552  0.2875  0.9685
   41HTM   C204 3392  -1.225  11.198  16.487 -0.4050  0.1135  0.4685
   41HTM    S21 3393  -1.266  11.041  16.409  0.4178  0.2516 -0.2797
   42TAL   C205 3394  -1.233  11.448  16.435 -0.5666 -0.9312 -1.5535
   42TAL   C206 3395  -1.353  11.551  16.427 -0.9530  1.0866 -0.2572
   42TAL   C207 3396  -1.461  11.541  16.541 -0.6152  0.4102  0.7298
   42TAL   C208 3397  -1.401  11.621  16.650  0.0577 -0.0782 -1.1241
   42TAL   C209 3398  -1.466  11.581  16.778 -0.1440 -0.3012 -0.6810
   42TAL   C210 3399  -1.400  11.628  16.905 -1.0881  0.4130 -0.5591
   43HTM   C211 3400  -1.148  11.206  16.606 -0.4277  0.2230  0.2324
   43HTM   C212 3401  -1.013  11.192  16.623 -0.4419 -0.1382  0.0782
   43HTM   C213 3402  -0.973  11.193  16.761 -0.2649 -0.0866  0.0257
   43HTM   C214 3403  -1.076  11.208  16.849 -0.1157  0.3139  0.1404
   43HTM    S22 3404  -1.234  11.221  16.763 -0.1877  0.6597  0.3247
   44TAL   C215 3405  -0.826  11.165  16.788  0.0285 -0.0609  0.0595
   44TAL   C216 3406  -0.782  11.045  16.853 -0.3802 -0.0297 -0.2506
   44TAL   C217 3407  -0.651  11.036  16.946 -0.1878 -0.7583 -0.5596
   44TAL   C218 3408  -0.635  10.891  16.993  1.2185 -0.0340  0.0008
   44TAL   C219 3409  -0.504  10.883  17.061 -0.4948 -0.4121 -0.4855
   44TAL   C220 3410  -0.460  10.747  17.118  0.3024 -0.1802 -0.3280
   45HTM   C221 3411  -1.068  11.237  16.988  0.3642 -0.0124  0.0606
   45HTM   C222 3412  -1.169  11.224  17.079  0.1510 -0.1612 -0.1965
   45HTM   C223 3413  -1.134  11.268  17.211 -0.2211 -0.1968 -0.0839
   45HTM   C224 3414  -1.006  11.314  17.222 -0.2917 -0.0752  0.2576
   45HTM    S23 3415  -0.919  11.306  17.064  0.1095  0.0951  0.4670
   46TAL   C225 3416  -1.237  11.273  17.325 -1.2007 -0.4781 -0.0238
   46TAL   C226 3417  -1.361  11.337  17.297 -0.0762  0.6373  1.3249
   46TAL   C227 3418  -1.472  11.301  17.393  0.3191  1.0950 -0.0566
   46TAL   C228 3419  -1.614  11.341  17.347 -0.4440 -0.0383  0.3418
   46TAL   C229 3420  -1.729  11.318  17.443 -0.7404 -0.0817  0.3094
   46TAL   C230 3421  -1.850  11.397  17.418 -0.7029 -0.0741  0.3536
   47HTM   C231 3422  -0.922  11.335  17.333  0.0200 -0.0828 -0.1021
   47HTM   C232 3423  -0.955  11.408  17.444 -0.3806 -0.3259 -0.0553
   47HTM   C233 3424  -0.847  11.419  17.540 -0.5651 -0.1198  0.1297
   47HTM   C234 3425  -0.733  11.355  17.502 -0.3050  0.2802  0.2249
   47HTM    S24 3426  -0.752  11.275  17.341  0.1968  0.4289  0.0862
   48TAL   C235 3427  -0.862  11.500  17.671 -1.1254 -1.1929 -0.6710
   48TAL   C236 3428  -0.957  11.615  17.686  0.0031  0.0574  0.9655
   48TAL   C237 3429  -0.937  11.692  17.815 -0.3975  1.0895  0.1145
   48TAL   C238 3430  -1.010  11.811  17.845  0.2173  0.1943 -0.1492
   48TAL   C239 3431  -0.957  11.857  17.976  1.0236 -0.0152  0.3204
   48TAL   C240 3432  -0.950  12.013  17.985  0.1939  0.1103  0.6748
    1HTM     C1 3433   0.609   2.391   7.110 -0.1524  0.0106  0.0645
    1HTM     C2 3434   0.521   2.404   7.006 -0.0202 -0.2571 -0.0842
    1HTM     C3 3435   0.545   2.520   6.924  0.0486 -0.4373 -0.3195
    1HTM     C4 3436   0.651   2.595   6.965 -0.0312 -0.3071 -0.3503
    1HTM     S1 3437   0.730   2.525   7.111 -0.2007  0.0561 -0.0824
    2TAL     C5 3438   0.442   2.554   6.810  0.0605  0.3503 -0.5149
    2TAL     C6 3439   0.508   2.521   6.679  0.3544 -0.3156  0.5906
    2TAL     C7 3440   0.390   2.515   6.577 -0.4218 -0.3141  0.1084
    2TAL     C8 3441   0.392   2.389   6.492 -0.7743 -0.7134 -0.4891
    2TAL     C9 3442   0.439   2.409   6.347 -0.2609  0.7221 -0.1942
    2TAL    C10 3443   0.435   2.280   6.261 -0.0212 -0.3439 -0.2333
    3HTM    C11 3444   0.712   2.723   6.905 -0.2367  0.3073 -0.3337
    3HTM    C12 3445   0.683   2.793   6.793 -0.4648  1.1058  0.2078
    3HTM    C13 3446   0.776   2.899   6.765 -0.4023  1.1700  0.6473
    3HTM    C14 3447   0.877   2.909   6.856 -0.1265  0.4204  0.4409
    3HTM     S2 3448   0.861   2.785   6.986  0.0772 -0.4312 -0.3304
    4TAL    C15 3449   0.745   2.984   6.638  0.1070  1.1836  0.6992
    4TAL    C16 3450   0.752   2.905   6.504 -0.4545  0.4249 -0.4973
    4TAL    C17 3451   0.889   2.853   6.466  0.3531  1.1024  1.1955
    4TAL    C18 3452   0.881   2.800   6.324  0.4661  0.6747 -0.0742
    4TAL    C19 3453   0.999   2.703   6.278 -0.6759 -0.0161 -0.4593
    4TAL    C20 3454   1.023   2.564   6.341 -1.1065  0.5788 -0.0991
    5HTM    C21 3455   1.003   2.997   6.840  0.3929 -0.0809  0.3584
    5HTM    C22 3456   1.117   2.978   6.913  0.7057  0.0325 -0.0902
    5HTM    C23 3457   1.221   3.073   6.884  0.4324  0.2520 -0.3711
    5HTM    C24 3458   1.187   3.165   6.790 -0.0885  0.3059 -0.1364
    5HTM     S3 3459   1.019   3.139   6.729 -0.2760  0.0820  0.4621
    6TAL    C25 3460   1.359   3.046   6.933 -0.6012 -0.2283  0.5182
    6TAL    C26 3461   1.372   3.103   7.075  0.8444  0.6299  0.8780
    6TAL    C27 3462   1.472   3.054   7.176  0.5928  0.0221 -0.2821
    6TAL    C28 3463   1.604   3.020   7.113 -0.4499  0.0338 -0.5657
    6TAL    C29 3464   1.717   2.955   7.198  0.2345  0.5210  0.9549
    6TAL    C30 3465   1.770   2.809   7.166  0.1881 -0.2008 -0.0296
    7HTM    C31 3466   1.269   3.272   6.731 -0.3139  0.0793 -0.4983
    7HTM    C32 3467   1.323   3.378   6.799 -0.9860  0.4604 -0.5401
    7HTM    C33 3468   1.410   3.460   6.719 -0.8727  0.5122 -0.3637
    7HTM    C34 3469   1.423   3.418   6.590 -0.1143  0.1707 -0.1873
    7HTM     S4 3470   1.325   3.269   6.559  0.5207 -0.2461 -0.2304
    8TAL    C35 3471   1.460   3.577   6.790 -1.1173 -0.8885 -0.1908
    8TAL    C36 3472   1.366   3.695   6.787 -1.0332  1.1051  0.5734
    8TAL    C37 3473   1.359   3.803   6.890 -1.1154  0.0338 -0.8277
    8TAL    C38 3474   1.320   3.756   7.027  0.2320 -1.0534 -0.5806
    8TAL    C39 3475   1.167   3.699   7.019 -0.5393 -0.6565 -0.5554
    8TAL    C40 3476   1.078   3.693   7.144 -0.9603  0.3131  1.1737
    9HTM    C41 3477   1.479   3.489   6.478  0.0582  0.1752  0.0241
    9HTM    C42 3478   1.441   3.464   6.349 -0.6323  0.3538  0.1831
    9HTM    C43 3479   1.495   3.558   6.254 -0.9014  0.3127 -0.0119
    9HTM    C44 3480   1.574   3.654   6.310 -0.4161  0.1030 -0.3199
    9HTM     S5 3481   1.586   3.634   6.489  0.4250 -0.0604 -0.3878
   10TAL    C45 3482   1.451   3.548   6.108  0.0896  0.3022 -0.7529
   10TAL    C46 3483   1.518   3.427   6.039  0.2595 -0.0383  0.1719
   10TAL    C47 3484   1.548   3.431   5.885 -0.1236  0.9979 -0.1585
   10TAL    C48 3485   1.580   3.571   5.827 -0.1955  0.3648 -0.1474
   10TAL    C49 3486   1.619   3.591   5.681  0.6120  0.2607  0.3137
   10TAL    C50 3487   1.614   3.732   5.624 -0.4014  0.0216  0.2391
   11HTM    C51 3488   1.641   3.772   6.251 -0.1232  0.3692  0.0823
   11HTM    C52 3489   1.652   3.892   6.313 -0.5015  0.6512 -0.3822
   11HTM    C53 3490   1.705   3.997   6.229 -0.4096  0.3822 -0.6615
   11HTM    C54 3491   1.733   3.956   6.102  0.0388 -0.1050 -0.4099
   11HTM     S6 3492   1.696   3.780   6.079  0.3824 -0.2631  0.2039
   12TAL    C55 3493   1.730   4.126   6.286 -0.6483 -1.3558 -0.3948
   12TAL    C56 3494   1.621   4.217   6.363 -0.5224  0.2108  0.8266
   12TAL    C57 3495   1.495   4.252   6.287 -0.1313 -0.1111 -0.5145
   12TAL    C58 3496   1.497   4.388   6.206  1.3577  0.6664 -1.1980
   12TAL    C59 3497   1.350   4.422   6.150 -0.3467 -0.5055  0.9958
   12TAL    C60 3498   1.378   4.512   6.027 -0.8735 -0.9215  0.6180
   13HTM    C61 3499   1.766   4.036   5.993 -0.7757 -0.6167 -0.0165
   13HTM    C62 3500   1.887   4.039   5.930 -0.9038 -1.8649 -0.3732
   13HTM    C63 3501   1.889   4.122   5.812 -0.4638 -2.0925 -0.5280
   13HTM    C64 3502   1.770   4.182   5.785 -0.0001 -1.0177 -0.2893
   13HTM     S7 3503   1.645   4.139   5.907 -0.0840  0.3759  0.1529
   14TAL    C65 3504   2.025   4.164   5.746  0.0455 -0.1319  0.1128
   14TAL    C66 3505   2.055   4.311   5.721 -0.4939 -0.1082 -0.4992
   14TAL    C67 3506   2.200   4.316   5.673  0.2629  0.0162  0.3162
   14TAL    C68 3507   2.235   4.460   5.640 -0.2884 -0.0153  0.0737
   14TAL    C69 3508   2.202   4.503   5.496  0.1306 -0.0270 -0.1577
   14TAL    C70 3509   2.269   4.624   5.440 -0.6579  0.0614 -0.6338
   15HTM    C71 3510   1.715   4.271   5.684 -0.6262 -0.0350  0.1001
   15HTM    C72 3511   1.678   4.402   5.685 -0.8301 -0.0787 -0.4596
   15HTM    C73 3512   1.652   4.457   5.554 -0.1180 -0.4553 -0.7696
   15HTM    C74 3513   1.669   4.367   5.453  0.6289 -0.6989 -0.4463
   15HTM     S8 3514   1.719   4.206   5.515  0.4898 -0.4698  0.2804
   16TAL    C75 3515   1.591   4.601   5.555  1.2991  0.2701 -0.4694
   16TAL    C76 3516   1.697   4.707   5.529  0.0046  0.4370  0.4108
   16TAL    C77 3517   1.852   4.696   5.577 -0.0986 -0.2302  0.2016
   16TAL    C78 3518   1.936   4.804   5.514  0.0590 -0.3219  0.0137
   16TAL    C79 3519   1.885   4.952   5.545 -0.8152  0.1009  1.0631
   16TAL    C80 3520   1.998   5.048   5.492  0.9252 -0.5056 -0.6921
   17HTM    C81 3521   1.651   4.378   5.313  0.7674 -0.2611 -0.4430
   17HTM    C82 3522   1.677   4.489   5.238  1.2327 -0.5416 -0.7151
   17HTM    C83 3523   1.649   4.473   5.098  0.8614 -0.6739 -0.6289
   17HTM    C84 3524   1.603   4.349   5.065  0.1131 -0.4943 -0.2910
   17HTM     S9 3525   1.590   4.242   5.210 -0.1830 -0.1416 -0.0538
   18TAL    C85 3526   1.657   4.600   5.021 -0.7116  1.2344 -0.0632
   18TAL    C86 3527   1.778   4.617   4.934  0.5226 -0.7690 -0.5658
   18TAL    C87 3528   1.908   4.648   5.029  1.0224  0.7303  0.6921
   18TAL    C88 3529   1.898   4.774   5.119 -0.9568  1.4289  1.3372
   18TAL    C89 3530   1.859   4.907   5.053  0.2181  0.7936  0.1707
   18TAL    C90 3531   1.842   5.017   5.156  0.5684  1.5872  0.1486
   19HTM    C91 3532   1.550   4.298   4.935  0.3647 -0.8544 -0.2811
   19HTM    C92 3533   1.462   4.194   4.930  0.7773 -1.1979 -0.6546
   19HTM    C93 3534   1.412   4.166   4.798  0.7125 -0.7607 -0.7275
   19HTM    C94 3535   1.463   4.248   4.702  0.2504 -0.0835 -0.4097
   19HTM    S10 3536   1.578   4.368   4.771 -0.1417  0.0552  0.0098
   20TAL    C95 3537   1.300   4.059   4.782 -1.0741 -0.6497  0.0406
   20TAL    C96 3538   1.339   3.917   4.829 -0.6142 -0.8559 -1.0113
   20TAL    C97 3539   1.223   3.829   4.808 -0.5537  0.4912  0.8751
   20TAL    C98 3540   1.276   3.694   4.861  0.0070 -0.6116  0.1865
   20TAL    C99 3541   1.173   3.611   4.938  0.0812 -0.6943  0.2805
   20TAL   C100 3542   1.242   3.474   4.968  0.2490 -0.2277  0.7750
   21HTM   C101 3543   1.435   4.250   4.557  0.3383 -0.3468 -0.0773
   21HTM   C102 3544   1.518   4.295   4.459  0.3977 -0.6025 -0.1479
   21HTM   C103 3545   1.458   4.300   4.328  0.4027 -0.7213 -0.1545
   21HTM   C104 3546   1.328   4.257   4.327  0.3470 -0.5566 -0.0886
   21HTM    S11 3547   1.272   4.208   4.491  0.2836 -0.2358 -0.0128
   22TAL   C105 3548   1.526   4.341   4.201  0.2335 -0.0702  0.1713
   22TAL   C106 3549   1.672   4.379   4.211 -0.2704  0.8091  0.0574
   22TAL   C107 3550   1.757   4.383   4.088 -0.1305 -0.0510 -0.0000
   22TAL   C108 3551   1.784   4.270   3.989  0.2214 -1.2279  0.3287
   22TAL   C109 3552   1.763   4.125   4.017  1.0095  0.9690  0.4406
   22TAL   C110 3553   1.746   4.021   3.908 -0.1083  0.4176  0.5364
   23HTM   C111 3554   1.232   4.260   4.217  0.4655  0.3799  0.3375
   23HTM   C112 3555   1.160   4.155   4.169  0.6128  0.0734  0.7734
   23HTM   C113 3556   1.078   4.188   4.055  0.5996 -0.5255  0.6021
   23HTM   C114 3557   1.088   4.318   4.017  0.4422 -0.6758  0.0359
   23HTM    S12 3558   1.202   4.410   4.122  0.2973 -0.0677 -0.3283
   24TAL   C115 3559   1.006   4.087   3.975  1.3038  0.5545 -0.0076
   24TAL   C116 3560   1.082   3.959   3.944 -0.7433  0.2669 -0.7099
   24TAL   C117 3561   1.184   3.960   3.834  0.8941 -0.9862 -0.1401
   24TAL   C118 3562   1.123   3.907   3.705  0.1249 -0.6795 -0.4173
   24TAL   C119 3563   1.223   3.928   3.582  0.6735  0.6708 -0.8654
   24TAL   C120 3564   1.166   3.846   3.464 -0.2554  0.3820  0.4638
   25HTM   C121 3565   1.050   4.381   3.890  0.0843  0.3903 -0.1373
   25HTM   C122 3566   1.020   4.511   3.861 -0.8866  0.1508 -0.2781
   25HTM   C123 3567   0.999   4.535   3.721 -1.5725 -0.2462 -0.2508
   25HTM   C124 3568   1.012   4.424   3.643 -1.1245 -0.3096 -0.0891
   25HTM    S13 3569   1.053   4.279   3.742  0.2087  0.1305  0.0422
   26TAL   C125 3570   0.956   4.675   3.684 -0.4072  0.1671  0.6624
   26TAL   C126 3571   0.815   4.707   3.750  0.0638  0.2200  0.4977
   26TAL   C127 3572   0.794   4.857   3.751  0.4788 -0.3158  0.3364
   26TAL   C128 3573   0.641   4.911   3.770 -0.7227  0.1881  0.4431
   26TAL   C129 3574   0.539   4.912   3.650 -0.3557  0.6323 -0.2433
   26TAL   C130 3575   0.413   4.967   3.719 -0.3142 -1.0095  0.6999
   27HTM   C131 3576   1.010   4.401   3.502  0.2011 -0.3364  0.5850
   27HTM   C132 3577   1.006   4.496   3.405  0.1356  0.0486  0.9598
   27HTM   C133 3578   1.000   4.443   3.271 -0.0573  0.5726  0.7540
   27HTM   C134 3579   0.999   4.306   3.267 -0.1389  0.5869  0.2225
   27HTM    S14 3580   1.006   4.234   3.432  0.0228 -0.0650 -0.0617
   28TAL   C135 3581   1.014   4.539   3.151  0.5335 -0.0539 -0.0222
   28TAL   C136 3582   0.880   4.603   3.120  1.2268 -0.7652 -0.6423
   28TAL   C137 3583   0.852   4.730   3.204  0.2434 -0.7680 -0.2644
   28TAL   C138 3584   0.737   4.813   3.157  0.7068  0.3995  0.1595
   28TAL   C139 3585   0.607   4.812   3.235  0.4617  0.4215 -0.0855
   28TAL   C140 3586   0.504   4.889   3.163  0.7856  1.0907  0.6895
   29HTM   C141 3587   1.003   4.214   3.152 -0.4062  0.1403  0.3001
   29HTM   C142 3588   1.062   4.091   3.148 -0.2811  0.2097 -0.1267
   29HTM   C143 3589   1.032   4.016   3.029 -0.0739  0.6530 -0.4628
   29HTM   C144 3590   0.950   4.082   2.941 -0.0410  0.9215 -0.2922
   29HTM    S15 3591   0.905   4.245   3.004 -0.2709  0.6331  0.3108
   30TAL   C145 3592   1.105   3.882   2.994 -0.4620 -0.0109  0.5465
   30TAL   C146 3593   1.095   3.762   3.087 -0.0181 -0.1672  0.2183
   30TAL   C147 3594   0.945   3.715   3.104  0.6627  0.0147  0.3821
   30TAL   C148 3595   0.889   3.633   2.985 -0.8291  0.4417 -0.9213
   30TAL   C149 3596   0.939   3.502   2.928  0.0742 -0.2330  0.3427
   30TAL   C150 3597   0.830   3.444   2.837  0.0034  0.6127  0.4122
   31HTM   C151 3598   0.893   4.053   2.808 -0.3308  0.3156 -0.1218
   31HTM   C152 3599   0.832   4.134   2.717 -0.6403 -0.1606 -0.3398
   31HTM   C153 3600   0.792   4.065   2.597 -0.3272 -0.6258 -0.1815
   31HTM   C154 3601   0.823   3.932   2.597  0.2210 -0.5046  0.1573
   31HTM    S16 3602   0.905   3.883   2.750  0.3857  0.2124  0.3037
   32TAL   C155 3603   0.707   4.136   2.492 -0.0158 -1.1357  0.7613
   32TAL   C156 3604   0.777   4.252   2.430 -0.7111 -0.2599  0.2074
   32TAL   C157 3605   0.678   4.317   2.337 -0.3205  0.6291 -0.0586
   32TAL   C158 3606   0.751   4.415   2.245  0.5491  0.1815  0.7957
   32TAL   C159 3607   0.665   4.509   2.154 -0.0557 -0.0371 -0.5415
   32TAL   C160 3608   0.766   4.605   2.093  0.6872  0.6082  0.3528
   33HTM   C161 3609   0.800   3.839   2.497  1.3461  0.1009 -0.2237
   33HTM   C162 3610   0.803   3.843   2.361  1.4971 -0.1091 -0.2280
   33HTM   C163 3611   0.767   3.719   2.298  0.8923 -0.0167 -0.0789
   33HTM   C164 3612   0.737   3.620   2.387  0.2802  0.2638  0.0390
   33HTM    S17 3613   0.752   3.677   2.558  0.4212  0.4343 -0.0297
   34TAL   C165 3614   0.778   3.723   2.150 -1.1242  0.6227 -0.1240
   34TAL   C166 3615   0.800   3.846   2.070  0.3709 -0.1466  0.5022
   34TAL   C167 3616   0.786   3.803   1.920 -0.9119 -0.0476 -1.3761
   34TAL   C168 3617   0.874   3.894   1.841 -0.3925 -0.3524 -0.3341
   34TAL   C169 3618   0.889   3.844   1.699 -0.0355 -0.0697  0.4029
   34TAL   C170 3619   0.761   3.802   1.621  0.6524 -0.7305 -0.5181
   35HTM   C171 3620   0.667   3.497   2.353 -0.1317  0.2411 -0.1107
   35HTM   C172 3621   0.553   3.467   2.284  0.2339  0.1742 -0.7014
   35HTM   C173 3622   0.522   3.326   2.282  0.3318  0.1548 -0.8724
   35HTM   C174 3623   0.612   3.249   2.349  0.0409  0.2068 -0.4119
   35HTM    S18 3624   0.744   3.349   2.420 -0.3826  0.2851  0.2787
   36TAL   C175 3625   0.400   3.280   2.201 -0.0560  0.1116  0.4369
   36TAL   C176 3626   0.278   3.367   2.201 -0.2145  0.3886  0.0882
   36TAL   C177 3627   0.185   3.355   2.317 -0.0851 -0.4295 -0.0291
   36TAL   C178 3628   0.133   3.223   2.377 -0.2686 -0.6380 -0.0754
   36TAL   C179 3629   0.082   3.101   2.297 -0.2433 -0.1146 -0.0182
   36TAL   C180 3630  -0.034   3.127   2.196  0.5974 -0.4877 -0.5660
   37HTM   C181 3631   0.621   3.108   2.367  0.3453  0.2785  0.1937
   37HTM   C182 3632   0.738   3.038   2.380  0.4094  0.4722  0.6768
   37HTM   C183 3633   0.718   2.899   2.414  0.5172  0.5341  1.0048
   37HTM   C184 3634   0.587   2.863   2.425  0.5355  0.3875  0.7718
   37HTM    S19 3635   0.477   3.003   2.395  0.4169  0.1582  0.1149
   38TAL   C185 3636   0.839   2.815   2.423 -0.9214  0.9538  1.0768
   38TAL   C186 3637   0.957   2.853   2.325  0.5158 -0.3074  0.5141
   38TAL   C187 3638   1.102   2.832   2.362 -0.0801  0.4991  1.0553
   38TAL   C188 3639   1.135   2.705   2.439 -0.2502 -0.2881 -0.5169
   38TAL   C189 3640   1.288   2.690   2.472  0.8753  0.3259  0.1178
   38TAL   C190 3641   1.382   2.655   2.366 -0.9465 -0.3242 -0.6735
   39HTM   C191 3642   0.518   2.745   2.471 -0.9172 -0.0447 -0.2374
   39HTM   C192 3643   0.405   2.741   2.546 -1.1113 -0.7123 -0.5508
   39HTM   C193 3644   0.377   2.611   2.603 -0.4478 -0.8565 -0.5422
   39HTM   C194 3645   0.470   2.516   2.571  0.2523 -0.2986 -0.2223
   39HTM    S20 3646   0.600   2.584   2.466  0.1269  0.4576  0.0955
   40TAL   C195 3647   0.256   2.596   2.692 -0.2110  0.0882 -0.6078
   40TAL   C196 3648   0.284   2.623   2.849 -0.7426 -0.4952  0.0411
   40TAL   C197 3649   0.149   2.593   2.906  1.0181  0.1127  0.1768
   40TAL   C198 3650   0.114   2.676   3.028  0.4839  0.4151  0.1396
   40TAL   C199 3651   0.097   2.827   3.014 -1.0130 -0.5117 -0.4754
   40TAL   C200 3652  -0.019   2.886   2.936 -0.1486 -0.0945 -0.1151
   41HTM   C201 3653   0.477   2.376   2.611 -0.8599  0.3155 -0.1943
   41HTM   C202 3654   0.513   2.284   2.517 -0.5295  0.4151 -0.1692
   41HTM   C203 3655   0.505   2.148   2.564  0.0487  0.3986 -0.1020
   41HTM   C204 3656   0.463   2.136   2.693  0.1592  0.2862 -0.0759
   41HTM    S21 3657   0.430   2.298   2.766 -0.4634  0.1920 -0.1345
   42TAL   C205 3658   0.507   2.032   2.459 -0.6869 -0.4158 -0.2913
   42TAL   C206 3659   0.390   1.962   2.392  0.0787  0.1683 -0.4267
   42TAL   C207 3660   0.309   2.043   2.292 -0.0146  1.0406 -0.8087
   42TAL   C208 3661   0.179   1.980   2.234 -1.0176 -0.2980  0.6110
   42TAL   C209 3662   0.136   2.011   2.084 -0.0445 -0.1674  0.3182
   42TAL   C210 3663  -0.003   1.966   2.054 -0.7277 -0.6674  0.2155
   43HTM   C211 3664   0.418   2.018   2.758 -0.0461  0.2217 -0.3649
   43HTM   C212 3665   0.303   1.992   2.826  0.0537  0.4320 -0.1144
   43HTM   C213 3666   0.296   1.857   2.878  0.2292  0.6557  0.5105
   43HTM   C214 3667   0.405   1.781   2.849  0.2631  0.6160  0.7367
   43HTM    S22 3668   0.526   1.874   2.753  0.0746  0.2905  0.1734
   44TAL   C215 3669   0.180   1.818   2.957  0.3993  0.3580  1.1324
   44TAL   C216 3670   0.155   1.913   3.081  0.5103  0.8287  0.4151
   44TAL   C217 3671   0.078   1.841   3.188  0.1517  0.2577 -0.1904
   44TAL   C218 3672   0.134   1.703   3.248 -0.7978  0.4350  0.2102
   44TAL   C219 3673   0.285   1.680   3.296 -0.6637 -0.1390  0.0060
   44TAL   C220 3674   0.307   1.548   3.365  0.7396 -0.4739 -0.8485
   45HTM   C221 3675   0.440   1.644   2.902  0.0144 -0.2310  0.4118
   45HTM   C222 3676   0.502   1.604   3.016  0.9856 -0.7945 -0.2800
   45HTM   C223 3677   0.506   1.461   3.034  1.1949 -0.8892 -1.0223
   45HTM   C224 3678   0.446   1.392   2.932  0.3833 -0.3980 -0.8965
   45HTM    S23 3679   0.381   1.503   2.806 -0.7168  0.2273  0.1775
   46TAL   C225 3680   0.571   1.387   3.154  0.0124 -0.8656  0.3885
   46TAL   C226 3681   0.655   1.483   3.257  1.0925 -0.3714  0.5562
   46TAL   C227 3682   0.698   1.424   3.388 -0.2114  0.5802 -0.1280
   46TAL   C228 3683   0.768   1.287   3.396  0.9575 -0.0007 -0.3405
   46TAL   C229 3684   0.850   1.266   3.527 -0.5158 -0.3421  0.3220
   46TAL   C230 3685   0.774   1.238   3.653 -0.0616  0.1755 -0.2323
   47HTM   C231 3686   0.415   1.248   2.936 -0.1370  0.4859  0.0537
   47HTM   C232 3687   0.471   1.155   2.853 -0.3710  0.6952 -0.3463
   47HTM   C233 3688   0.411   1.024   2.865 -0.3829  0.6802 -0.5617
   47HTM   C234 3689   0.311   1.018   2.957 -0.1579  0.4594 -0.3260
   47HTM    S24 3690   0.283   1.178   3.036  0.0883  0.2518  0.1903
   48TAL   C235 3691   0.447   0.892   2.784  0.2819 -0.6014 -0.5511
   48TAL   C236 3692   0.548   0.897   2.660  0.1623  0.2213  0.2435
   48TAL   C237 3693   0.595   0.768   2.594 -0.4598 -0.5888  0.2586
   48TAL   C238 3694   0.652   0.782   2.448  0.9332 -0.8633 -0.0189
   48TAL   C239 3695   0.787   0.842   2.452 -0.3122  0.2394 -0.0061
   48TAL   C240 3696   0.814   0.874   2.309  0.2257  0.0402  1.2300
    1HTM     C1 3697   3.160   5.650  27.162 -0.3593 -0.8502  0.2589
    1HTM     C2 3698   3.276   5.640  27.092 -0.3961 -0.6987  0.1755
    1HTM     C3 3699   3.394   5.663  27.172 -0.3830 -0.0805 -0.0048
    1HTM     C4 3700   3.367   5.689  27.303 -0.3362  0.2392 -0.0591
    1HTM     S1 3701   3.190   5.689  27.335 -0.3050 -0.2191  0.1145
    2TAL     C5 3702   3.539   5.640  27.120  0.8117 -0.2774  0.7488
    2TAL     C6 3703   3.606   5.727  27.009 -0.4250 -0.5649 -0.1198
    2TAL     C7 3704   3.621   5.880  27.038  0.0926 -0.3853  0.7116
    2TAL     C8 3705   3.744   5.912  27.127  1.1458 -0.3894 -0.5742
    2TAL     C9 3706   3.738   6.050  27.180 -0.3991  0.0023  1.0504
    2TAL    C10 3707   3.843   6.085  27.279 -0.3987  0.9275  0.0595
    3HTM    C11 3708   3.450   5.718  27.415  0.0414  0.8851 -0.7388
    3HTM    C12 3709   3.537   5.634  27.478  0.8305  0.9365 -1.6971
    3HTM    C13 3710   3.614   5.697  27.581  0.9812  0.7029 -1.6637
    3HTM    C14 3711   3.587   5.830  27.597  0.3069  0.4735 -0.6804
    3HTM     S2 3712   3.460   5.885  27.481 -0.5775  0.5351  0.2869
    4TAL    C15 3713   3.711   5.629  27.684 -0.5889 -0.0434  0.6809
    4TAL    C16 3714   3.713   5.471  27.677 -0.3593  0.1562 -0.7166
    4TAL    C17 3715   3.818   5.420  27.770  0.0828  0.7911  0.6941
    4TAL    C18 3716   3.957   5.448  27.744 -0.1311 -0.0128  0.1368
    4TAL    C19 3717   4.046   5.337  27.787  0.4191  0.5075  0.1519
    4TAL    C20 3718   4.177   5.354  27.707 -0.4911  0.0813 -0.3635
    5HTM    C21 3719   3.620   5.937  27.686  0.0812 -0.1677 -0.5692
    5HTM    C22 3720   3.553   6.003  27.784 -0.2641  0.3227 -1.1191
    5HTM    C23 3721   3.635   6.095  27.859 -0.4341  0.4208 -1.0505
    5HTM    C24 3722   3.765   6.098  27.817 -0.2183  0.0053 -0.4481
    5HTM     S3 3723   3.793   5.985  27.679  0.2195 -0.5465  0.0831
    6TAL    C25 3724   3.588   6.165  27.989  0.5984 -0.4124  0.0609
    6TAL    C26 3725   3.579   6.078  28.122 -0.4226  0.1544  0.1342
    6TAL    C27 3726   3.701   6.000  28.172 -0.2910 -0.2010  0.2332
    6TAL    C28 3727   3.701   5.946  28.308 -0.1522  0.6133 -0.3282
    6TAL    C29 3728   3.813   5.836  28.332 -0.3808 -0.4416 -0.4142
    6TAL    C30 3729   3.803   5.749  28.463 -0.1323  0.0770  0.3514
    7HTM    C31 3730   3.872   6.195  27.842 -0.3101 -0.1128 -0.1484
    7HTM    C32 3731   4.004   6.172  27.867 -0.2627 -0.3283 -0.5732
    7HTM    C33 3732   4.080   6.292  27.895 -0.0421 -0.4785 -0.5188
    7HTM    C34 3733   4.005   6.406  27.890  0.0789 -0.3775 -0.0535
    7HTM     S4 3734   3.833   6.371  27.851 -0.0778 -0.0826  0.3560
    8TAL    C35 3735   4.231   6.298  27.945  0.6706 -1.2492  0.4200
    8TAL    C36 3736   4.344   6.257  27.853  0.4818 -1.0537 -0.2731
    8TAL    C37 3737   4.482   6.279  27.912  0.0087  0.3321 -0.0501
    8TAL    C38 3738   4.562   6.399  27.868 -0.6903 -0.7167  0.4856
    8TAL    C39 3739   4.548   6.531  27.943 -0.5909  0.1093 -0.2895
    8TAL    C40 3740   4.594   6.513  28.097 -0.0513 -0.2685  1.1252
    9HTM    C41 3741   4.049   6.547  27.879 -0.5916 -0.4512 -0.1404
    9HTM    C42 3742   4.118   6.624  27.967 -0.8880 -0.4524  0.0958
    9HTM    C43 3743   4.129   6.762  27.928 -0.9949 -0.3929  0.2728
    9HTM    C44 3744   4.068   6.790  27.810 -0.7799 -0.3466  0.1722
    9HTM     S5 3745   3.992   6.644  27.738 -0.4232 -0.3744 -0.1568
   10TAL    C45 3746   4.218   6.861  28.019  0.8645  0.9900  0.3184
   10TAL    C46 3747   4.367   6.834  28.021  0.4009  0.5739  0.1563
   10TAL    C47 3748   4.459   6.882  27.909 -0.5527  0.4099  0.5818
   10TAL    C48 3749   4.563   6.997  27.954  0.5009  0.3122 -0.2351
   10TAL    C49 3750   4.597   7.101  27.848  0.7590  0.1611 -0.1173
   10TAL    C50 3751   4.676   7.214  27.922  0.0144 -0.8893  0.3774
   11HTM    C51 3752   4.082   6.915  27.728  0.0720  0.7341 -0.0768
   11HTM    C52 3753   4.133   7.039  27.753 -0.2102  0.9646 -0.6075
   11HTM    C53 3754   4.128   7.128  27.640 -0.3542  0.4506 -1.0138
   11HTM    C54 3755   4.073   7.072  27.529 -0.1818 -0.1719 -0.7930
   11HTM     S6 3756   4.024   6.901  27.558  0.1785 -0.1571 -0.0496
   12TAL    C55 3757   4.136   7.275  27.672 -0.6247 -0.0973 -0.4161
   12TAL    C56 3758   4.275   7.340  27.692 -0.2584 -0.3845 -0.0341
   12TAL    C57 3759   4.317   7.470  27.634  0.1423  0.2133  0.4879
   12TAL    C58 3760   4.423   7.551  27.707 -0.4102  0.1037  0.3028
   12TAL    C59 3761   4.485   7.652  27.605 -0.1333  0.0625 -0.6634
   12TAL    C60 3762   4.568   7.747  27.695  0.0766 -0.1183 -0.3330
   13HTM    C61 3763   4.067   7.120  27.391 -0.1521 -0.0599 -0.3978
   13HTM    C62 3764   3.962   7.101  27.306 -0.1827 -0.0322 -0.3667
   13HTM    C63 3765   3.975   7.170  27.181 -0.2576  0.0583 -0.3242
   13HTM    C64 3766   4.090   7.243  27.170 -0.2838  0.0995 -0.3236
   13HTM     S7 3767   4.192   7.229  27.318 -0.2156  0.0269 -0.3767
   14TAL    C65 3768   3.871   7.152  27.085 -0.6654  0.7600  0.0117
   14TAL    C66 3769   3.914   7.086  26.957  0.1393  0.9523  0.2067
   14TAL    C67 3770   3.804   7.047  26.861  0.2015  0.7773 -0.8683
   14TAL    C68 3771   3.852   6.963  26.741 -0.0314  0.5546 -0.0586
   14TAL    C69 3772   3.759   6.878  26.665  0.3663 -0.2957 -0.2159
   14TAL    C70 3773   3.628   6.938  26.615 -0.0084 -0.8467  0.7811
   15HTM    C71 3774   4.150   7.340  27.080 -0.6126  0.2291  0.4328
   15HTM    C72 3775   4.226   7.318  26.969 -0.7336 -0.5252  0.4926
   15HTM    C73 3776   4.231   7.430  26.878 -0.3599 -0.9253  0.0081
   15HTM    C74 3777   4.159   7.537  26.920  0.0461 -0.4760 -0.4221
   15HTM     S8 3778   4.078   7.506  27.078 -0.0126  0.4948 -0.2461
   16TAL    C75 3779   4.315   7.431  26.742  0.6654 -0.8669 -1.1536
   16TAL    C76 3780   4.463   7.434  26.781 -0.3133  0.0957 -0.3257
   16TAL    C77 3781   4.557   7.457  26.665  0.4539  0.2802  0.3279
   16TAL    C78 3782   4.624   7.590  26.668 -0.2747 -0.0237  0.3533
   16TAL    C79 3783   4.685   7.626  26.530  0.1497  0.7529 -0.3498
   16TAL    C80 3784   4.597   7.673  26.408  0.3582  0.9505  0.8345
   17HTM    C81 3785   4.142   7.676  26.861 -0.6632  0.2094 -0.0747
   17HTM    C82 3786   4.032   7.744  26.819 -0.7255  0.0472 -0.1779
   17HTM    C83 3787   4.062   7.869  26.754 -0.8472  0.0753 -0.1812
   17HTM    C84 3788   4.196   7.896  26.747 -0.8780  0.2590 -0.0808
   17HTM     S9 3789   4.294   7.765  26.822 -0.7548  0.4118  0.0272
   18TAL    C85 3790   3.948   7.960  26.701 -0.3044  0.6392 -0.3318
   18TAL    C86 3791   3.845   7.898  26.602 -0.4170  0.0899 -0.9985
   18TAL    C87 3792   3.916   7.893  26.458 -0.1427  0.2717 -0.5548
   18TAL    C88 3793   3.825   7.850  26.335  0.2313 -0.6251 -0.5164
   18TAL    C89 3794   3.717   7.743  26.363  0.7275  0.2013 -1.4153
   18TAL    C90 3795   3.737   7.608  26.305 -1.4399 -0.3626 -0.1905
   19HTM    C91 3796   4.272   8.014  26.690 -0.2704  0.4727  0.5042
   19HTM    C92 3797   4.393   8.058  26.734 -0.4196  0.6581  0.7372
   19HTM    C93 3798   4.441   8.175  26.664 -0.1768  0.3568  0.3891
   19HTM    C94 3799   4.356   8.220  26.568  0.1576 -0.0584 -0.1098
   19HTM    S10 3800   4.208   8.117  26.557  0.1921 -0.1013 -0.1785
   20TAL    C95 3801   4.569   8.255  26.705  0.4135 -0.2132  0.3696
   20TAL    C96 3802   4.660   8.209  26.812 -1.0353  0.3506  0.2466
   20TAL    C97 3803   4.782   8.126  26.766  0.3544 -1.1349 -0.2022
   20TAL    C98 3804   4.762   7.981  26.733  0.9245  0.4455  0.5485
   20TAL    C99 3805   4.869   7.921  26.649  0.1161  0.2623  0.1353
   20TAL   C100 3806   4.843   7.928  26.506 -0.4482  0.0655  0.6159
   21HTM   C101 3807   4.358   8.333  26.474 -0.0888  0.4576 -0.1737
   21HTM   C102 3808   4.387   8.324  26.341 -0.3165  0.7238 -0.2427
   21HTM   C103 3809   4.384   8.451  26.273 -0.2147  0.8921  0.0615
   21HTM   C104 3810   4.354   8.557  26.354  0.0908  0.7542  0.3624
   21HTM    S11 3811   4.325   8.504  26.524  0.2749  0.3984  0.2835
   22TAL   C105 3812   4.404   8.466  26.121  0.0571  0.1653 -0.3266
   22TAL   C106 3813   4.417   8.327  26.044 -0.1996 -0.4361  1.0212
   22TAL   C107 3814   4.443   8.357  25.900  0.8359 -0.5346  0.6924
   22TAL   C108 3815   4.578   8.419  25.850 -0.6176  0.2043 -0.0172
   22TAL   C109 3816   4.697   8.333  25.888  0.6699 -0.0345 -0.2228
   22TAL   C110 3817   4.826   8.387  25.819  0.4803  0.5360  0.2484
   23HTM   C111 3818   4.359   8.703  26.334  0.4946  0.0501  0.0454
   23HTM   C112 3819   4.383   8.768  26.218  1.4688 -0.1358  0.1292
   23HTM   C113 3820   4.386   8.912  26.231  1.6900 -0.1248 -0.0210
   23HTM   C114 3821   4.363   8.955  26.358  0.8843  0.0695 -0.2196
   23HTM    S12 3822   4.337   8.818  26.472 -0.2249  0.2551 -0.2316
   24TAL   C115 3823   4.425   9.001  26.111  0.7564 -1.0443 -0.7939
   24TAL   C116 3824   4.516   8.963  26.004 -0.4824  0.7342  0.2075
   24TAL   C117 3825   4.559   9.101  25.946 -0.0207  0.4928 -0.3195
   24TAL   C118 3826   4.532   9.099  25.801  0.1166 -0.4715 -0.1011
   24TAL   C119 3827   4.641   9.035  25.723 -0.0365  1.0286  0.1054
   24TAL   C120 3828   4.644   9.062  25.579  0.6377 -0.6099  0.1365
   25HTM   C121 3829   4.359   9.082  26.420  0.0267 -0.2102  0.3501
   25HTM   C122 3830   4.301   9.194  26.370  0.2748 -0.3107 -0.1779
   25HTM   C123 3831   4.305   9.307  26.460  0.3729  0.0545 -0.6356
   25HTM   C124 3832   4.367   9.281  26.578  0.1996  0.4336 -0.4565
   25HTM    S13 3833   4.425   9.110  26.586 -0.1032  0.3580  0.3091
   26TAL   C125 3834   4.228   9.434  26.420  0.2039  0.6243  0.5610
   26TAL   C126 3835   4.283   9.565  26.343 -0.2541  0.2845  0.0911
   26TAL   C127 3836   4.335   9.550  26.205  1.3466  0.2024  0.3525
   26TAL   C128 3837   4.405   9.670  26.154  0.3388 -0.0545  0.2740
   26TAL   C129 3838   4.428   9.683  26.012  0.1003  0.4332  0.2854
   26TAL   C130 3839   4.516   9.809  25.983 -0.0695 -0.7632 -0.6249
   27HTM   C131 3840   4.380   9.369  26.691  0.1662 -0.6021  0.0890
   27HTM   C132 3841   4.448   9.342  26.806 -0.3121 -0.6334  0.3719
   27HTM   C133 3842   4.444   9.449  26.903 -0.5255 -0.5687  0.2918
   27HTM   C134 3843   4.373   9.557  26.861 -0.2099 -0.4878 -0.0520
   27HTM    S14 3844   4.304   9.532  26.696  0.3860 -0.4872 -0.3037
   28TAL   C135 3845   4.513   9.431  27.033 -0.2834  0.6982 -0.5077
   28TAL   C136 3846   4.590   9.300  27.065  0.1046 -0.2762 -1.0287
   28TAL   C137 3847   4.492   9.196  27.129  0.2633  0.2826  0.2472
   28TAL   C138 3848   4.559   9.068  27.176  0.6796 -0.2344 -0.1989
   28TAL   C139 3849   4.457   8.986  27.262  0.1670 -0.6585 -0.7630
   28TAL   C140 3850   4.536   8.897  27.362  0.1472 -0.3209 -0.0354
   29HTM   C141 3851   4.352   9.685  26.929  0.0128 -0.1900 -0.7703
   29HTM   C142 3852   4.381   9.712  27.059  0.8618 -0.4231 -0.8969
   29HTM   C143 3853   4.359   9.849  27.096  1.4271 -0.4121 -0.5889
   29HTM   C144 3854   4.314   9.927  26.994  1.0090 -0.1704 -0.2276
   29HTM    S15 3855   4.295   9.833  26.842 -0.1399  0.0637 -0.2492
   30TAL   C145 3856   4.384   9.883  27.249 -0.4162  0.4673  0.5251
   30TAL   C146 3857   4.521   9.906  27.298  0.0593  0.4861 -0.3980
   30TAL   C147 3858   4.502   9.957  27.436  0.5877  0.1633 -0.9452
   30TAL   C148 3859   4.600  10.047  27.489 -1.0460 -0.4224 -0.9318
   30TAL   C149 3860   4.588  10.055  27.644  0.9566  0.1270  0.9201
   30TAL   C150 3861   4.678  10.154  27.709 -0.7378 -0.6994  0.3089
   31HTM   C151 3862   4.280  10.074  27.003 -0.0640  0.1836  0.0997
   31HTM   C152 3863   4.245  10.156  26.899 -0.2265  0.1335  0.1140
   31HTM   C153 3864   4.234  10.294  26.936 -0.0108  0.1739  0.0305
   31HTM   C154 3865   4.261  10.318  27.068  0.3160  0.2546 -0.0475
   31HTM    S16 3866   4.302  10.166  27.156  0.3771  0.2864 -0.0219
   32TAL   C155 3867   4.186  10.405  26.841 -0.1039  0.8653 -0.1722
   32TAL   C156 3868   4.280  10.442  26.736 -0.3646  0.3222 -0.6530
   32TAL   C157 3869   4.203  10.544  26.652  0.0326  0.4622 -0.1136
   32TAL   C158 3870   4.215  10.513  26.503 -0.0050 -0.4453  0.5910
   32TAL   C159 3871   4.138  10.612  26.413  0.5791  0.0087 -0.5900
   32TAL   C160 3872   4.069  10.527  26.308 -0.0145  0.4406  0.6701
   33HTM   C161 3873   4.269  10.437  27.150  0.4984 -0.1167  0.6453
   33HTM   C162 3874   4.272  10.431  27.286  0.8739  0.1190  0.6518
   33HTM   C163 3875   4.299  10.558  27.349  0.9285  0.2534  0.3605
   33HTM   C164 3876   4.317  10.660  27.261  0.5944  0.1203  0.1323
   33HTM    S17 3877   4.302  10.604  27.090  0.1820 -0.1877  0.2682
   34TAL   C165 3878   4.296  10.546  27.496  0.8963 -0.0458 -0.9239
   34TAL   C166 3879   4.378  10.643  27.578  0.5865 -0.0358  0.6341
   34TAL   C167 3880   4.489  10.593  27.658 -1.0136  0.8009  0.2519
   34TAL   C168 3881   4.617  10.516  27.592 -0.0214 -1.1673 -0.0610
   34TAL   C169 3882   4.686  10.588  27.467 -0.4402  0.7316 -0.1282
   34TAL   C170 3883   4.784  10.710  27.495 -0.9309 -0.5985  0.8116
   35HTM   C171 3884   4.355  10.793  27.266  0.0496 -0.1577  0.1226
   35HTM   C172 3885   4.441  10.853  27.353  0.4698 -0.2815 -0.1998
   35HTM   C173 3886   4.457  10.994  27.332  0.5785 -0.3015 -0.2489
   35HTM   C174 3887   4.384  11.043  27.228  0.2413 -0.1931  0.0363
   35HTM    S18 3888   4.287  10.913  27.149 -0.2434 -0.0560  0.3915
   36TAL   C175 3889   4.587  11.058  27.382  0.5324  0.1409  0.2870
   36TAL   C176 3890   4.594  11.060  27.536  0.2238 -0.9349  0.4791
   36TAL   C177 3891   4.700  11.147  27.598 -0.0690  0.8105 -0.2402
   36TAL   C178 3892   4.715  11.106  27.744 -0.2267 -0.1624 -0.0896
   36TAL   C179 3893   4.840  11.158  27.822  0.1034 -0.1600 -0.1798
   36TAL   C180 3894   4.866  11.302  27.809  0.5018 -0.4348 -0.6297
   37HTM   C181 3895   4.378  11.179  27.173 -0.3577  0.5972 -0.6316
   37HTM   C182 3896   4.398  11.296  27.240 -0.1478  0.7286 -0.9193
   37HTM   C183 3897   4.376  11.413  27.159 -0.2271  0.5696 -1.1292
   37HTM   C184 3898   4.341  11.385  27.030 -0.4973  0.3167 -1.0020
   37HTM    S19 3899   4.332  11.207  27.001 -0.6742  0.2596 -0.6033
   38TAL   C185 3900   4.411  11.546  27.221 -0.1685 -0.5954 -0.6327
   38TAL   C186 3901   4.519  11.564  27.323  0.3552  0.2235  0.3487
   38TAL   C187 3902   4.657  11.497  27.281  0.4518  0.0692  0.5080
   38TAL   C188 3903   4.763  11.505  27.394  0.6678  0.8631 -0.5216
   38TAL   C189 3904   4.891  11.452  27.332 -0.2264 -0.2859  0.2605
   38TAL   C190 3905   5.008  11.505  27.416 -0.1384 -0.9411  0.2908
   39HTM   C191 3906   4.298  11.477  26.927 -0.6651  0.0889 -0.0420
   39HTM   C192 3907   4.300  11.454  26.792 -0.8911  0.1255 -0.0534
   39HTM   C193 3908   4.245  11.562  26.714 -0.3295  0.4803  0.0305
   39HTM   C194 3909   4.201  11.667  26.790  0.3249  0.7141  0.1046
   39HTM    S20 3910   4.225  11.637  26.966  0.2821  0.5028  0.0755
   40TAL   C195 3911   4.224  11.534  26.565 -0.5280  0.2760 -0.3774
   40TAL   C196 3912   4.322  11.610  26.477 -0.0089  0.6178 -0.5851
   40TAL   C197 3913   4.421  11.521  26.394  0.3343  0.7580  0.0066
   40TAL   C198 3914   4.341  11.443  26.287 -0.4443 -1.2167 -0.3101
   40TAL   C199 3915   4.299  11.530  26.163  0.3476  0.0941 -0.1689
   40TAL   C200 3916   4.406  11.606  26.083  0.8884 -0.2562  0.1456
   41HTM   C201 3917   4.135  11.792  26.753 -0.3901 -0.2696  0.1034
   41HTM   C202 3918   4.045  11.811  26.651 -0.3154 -0.1528  0.0582
   41HTM   C203 3919   4.008  11.948  26.631 -0.2233 -0.1181  0.1235
   41HTM   C204 3920   4.069  12.035  26.717 -0.2275 -0.2085  0.2185
   41HTM    S21 3921   4.178  11.949  26.831 -0.3494 -0.3457  0.2331
   42TAL   C205 3922   3.914  11.988  26.520  0.5003  0.5597 -0.4215
   42TAL   C206 3923   3.949  11.950  26.376 -0.4473  0.3015 -1.3773
   42TAL   C207 3924   4.091  11.967  26.325 -0.8939 -0.3874  0.0495
   42TAL   C208 3925   4.106  11.937  26.178  0.0893  0.0902  0.4078
   42TAL   C209 3926   4.048  12.018  26.065  0.4254 -0.2567  0.4671
   42TAL   C210 3927   4.069  11.962  25.929 -0.3759 -1.3823  0.5388
   43HTM   C211 3928   4.085  12.179  26.723  0.3336  0.4219 -0.0316
   43HTM   C212 3929   4.154  12.250  26.816  0.0561  0.5512  0.0777
   43HTM   C213 3930   4.129  12.392  26.811 -0.2779  0.4942  0.1063
   43HTM   C214 3931   4.040  12.428  26.714 -0.2552  0.3213  0.0185
   43HTM    S22 3932   3.982  12.286  26.620  0.1937  0.2163 -0.1078
   44TAL   C215 3933   4.195  12.493  26.911 -0.5771 -0.2494  0.5723
   44TAL   C216 3934   4.192  12.469  27.062 -0.8239  1.0444  0.0629
   44TAL   C217 3935   4.214  12.594  27.146  1.1630 -0.5052  0.1876
   44TAL   C218 3936   4.357  12.651  27.167  0.3760  0.3791 -0.0007
   44TAL   C219 3937   4.401  12.610  27.310  0.0369  0.8212  0.7810
   44TAL   C220 3938   4.540  12.642  27.335 -0.3590 -0.3224  0.3981
   45HTM   C221 3939   3.989  12.560  26.683  0.0618  0.1106 -0.0076
   45HTM   C222 3940   3.988  12.677  26.753  0.2418  0.2229 -0.1888
   45HTM   C223 3941   3.928  12.787  26.682  0.4203  0.2079 -0.3638
   45HTM   C224 3942   3.883  12.754  26.557  0.3765  0.0845 -0.3155
   45HTM    S23 3943   3.914  12.580  26.520  0.1042 -0.0235 -0.0440
   46TAL   C225 3944   3.926  12.930  26.743  0.2083 -0.0552  0.7123
   46TAL   C226 3945   4.044  12.961  26.832  0.2624  0.3433 -0.8840
   46TAL   C227 3946   4.159  13.025  26.749 -0.6315 -0.3964  0.0347
   46TAL   C228 3947   4.276  13.051  26.839 -0.2014 -0.0782  0.1146
   46TAL   C229 3948   4.392  13.111  26.777 -0.2643  0.2499 -0.1706
   46TAL   C230 3949   4.498  13.127  26.888  0.4598 -0.1052 -0.2657
   47HTM   C231 3950   3.832  12.834  26.447 -0.7085 -0.7662 -0.3951
   47HTM   C232 3951   3.880  12.866  26.324 -0.6083 -0.9598 -0.4082
   47HTM   C233 3952   3.795  12.956  26.250 -0.2129 -0.5127 -0.3352
   47HTM   C234 3953   3.681  12.991  26.317 -0.0115  0.0218 -0.2675
   47HTM    S24 3954   3.674  12.914  26.479 -0.3081  0.0017 -0.2898
   48TAL   C235 3955   3.849  13.016  26.117  0.6701  0.3253  0.1597
   48TAL   C236 3956   3.789  13.145  26.044  0.2344  0.6276 -0.1307
   48TAL   C237 3957   3.642  13.147  26.010  0.5166 -0.0492  0.3903
   48TAL   C238 3958   3.583  13.243  25.896 -0.6548 -0.0959 -0.0830
   48TAL   C239 3959   3.617  13.209  25.755  0.2991  0.0617  0.7400
   48TAL   C240 3960   3.483  13.187  25.695 -0.9981  0.0823  0.0044
    1HTM     C1 3961   4.734   0.116  17.255 -0.1398  0.2824  0.2378
    1HTM     C2 3962   4.707   0.108  17.121 -0.2382 -0.0077  0.2751
    1HTM     C3 3963   4.820   0.140  17.038 -0.3442 -0.0336  0.1216
    1HTM     C4 3964   4.932   0.173  17.107 -0.3269  0.2367 -0.0327
    1HTM     S1 3965   4.904   0.166  17.285 -0.1740  0.5473  0.0048
    2TAL     C5 3966   4.800   0.155  16.885 -0.5239 -0.1621 -0.3679
    2TAL     C6 3967   4.670   0.203  16.825 -0.3600  0.3214  0.7179
    2TAL     C7 3968   4.676   0.179  16.676 -0.1433 -0.2541  0.3864
    2TAL     C8 3969   4.582   0.279  16.598  0.3107  0.6134  0.4150
    2TAL     C9 3970   4.431   0.283  16.577  0.1950  0.7002 -0.1138
    2TAL    C10 3971   4.346   0.276  16.702  0.1840 -0.7042  0.2192
    3HTM    C11 3972   5.067   0.219  17.068 -0.4111 -0.0496  0.1946
    3HTM    C12 3973   5.184   0.162  17.109 -0.5212 -0.5166 -0.1197
    3HTM    C13 3974   5.300   0.213  17.041 -0.4585 -0.6412 -0.1054
    3HTM    C14 3975   5.272   0.308  16.947 -0.3008 -0.2692  0.2194
    3HTM     S2 3976   5.095   0.341  16.938 -0.2184  0.2715  0.5351
    4TAL    C15 3977   5.437   0.171  17.101 -0.0522 -0.8449  0.0500
    4TAL    C16 3978   5.533   0.092  17.017 -0.3322 -0.3164  0.1902
    4TAL    C17 3979   5.490  -0.052  16.975  0.3299  0.1503 -0.5865
    4TAL    C18 3980   5.596  -0.135  16.915  0.8705  0.2475  0.7435
    4TAL    C19 3981   5.556  -0.283  16.904 -0.0462 -0.2082 -0.2905
    4TAL    C20 3982   5.685  -0.366  16.901 -0.5606 -0.0870 -0.1563
    5HTM    C21 3983   5.367   0.370  16.850  0.0832 -0.0801  0.0758
    5HTM    C22 3984   5.495   0.416  16.863  0.1057 -0.0831 -0.1321
    5HTM    C23 3985   5.551   0.466  16.740 -0.0880 -0.0974 -0.2270
    5HTM    C24 3986   5.466   0.457  16.633 -0.2582 -0.1053 -0.0923
    5HTM     S3 3987   5.308   0.386  16.680 -0.1864 -0.0951  0.1672
    6TAL    C25 3988   5.701   0.490  16.721 -0.9664  0.5996 -0.5583
    6TAL    C26 3989   5.786   0.366  16.763 -0.6913 -0.0212  0.8357
    6TAL    C27 3990   5.777   0.247  16.674  0.7651  0.8989  0.0373
    6TAL    C28 3991   5.869   0.133  16.698 -0.0678  0.3301  0.4200
    6TAL    C29 3992   5.892   0.081  16.838 -0.6226 -0.1262  0.1826
    6TAL    C30 3993   5.992  -0.030  16.819  0.6148 -0.4563 -0.1172
    7HTM    C31 3994   5.466   0.514  16.499  0.0693 -0.0508  0.2646
    7HTM    C32 3995   5.364   0.493  16.411  0.1948 -0.3594  0.1912
    7HTM    C33 3996   5.381   0.563  16.286  0.3260 -0.7208  0.0038
    7HTM    C34 3997   5.495   0.637  16.279  0.3005 -0.6877 -0.0656
    7HTM     S4 3998   5.591   0.625  16.431  0.1073 -0.1937  0.1021
    8TAL    C35 3999   5.282   0.550  16.172  0.3585  0.2824  0.1338
    8TAL    C36 4000   5.136   0.512  16.201  0.1409  0.1786  0.0785
    8TAL    C37 4001   5.066   0.619  16.293 -0.3492  0.1208 -0.2266
    8TAL    C38 4002   4.924   0.590  16.290  0.6720 -0.5111 -0.0997
    8TAL    C39 4003   4.863   0.713  16.367 -0.0080  0.3232  0.7664
    8TAL    C40 4004   4.740   0.654  16.425  0.9034 -0.1847  0.9019
    9HTM    C41 4005   5.543   0.736  16.191  0.3622  0.3737 -0.2243
    9HTM    C42 4006   5.670   0.784  16.189  0.3002  0.5182 -0.6804
    9HTM    C43 4007   5.688   0.894  16.097 -0.1827  0.6281 -0.6480
    9HTM    C44 4008   5.575   0.929  16.031 -0.4888  0.5675 -0.1681
    9HTM     S5 4009   5.435   0.826  16.078 -0.1887  0.3653  0.2847
   10TAL    C45 4010   5.825   0.961  16.080 -0.5751  0.4701 -0.8131
   10TAL    C46 4011   5.938   0.964  16.187  1.0531  0.2323 -0.2448
   10TAL    C47 4012   5.913   1.067  16.297  0.2821 -1.2605 -1.0532
   10TAL    C48 4013   5.973   1.211  16.294 -0.7330  0.9701  0.7382
   10TAL    C49 4014   6.124   1.211  16.260  0.0717 -0.3535 -0.4822
   10TAL    C50 4015   6.177   1.359  16.248 -0.3633  0.8284 -0.0384
   11HTM    C51 4016   5.567   1.029  15.925  0.0663 -0.0305 -0.1256
   11HTM    C52 4017   5.551   1.020  15.790 -0.6238 -0.0004 -0.0536
   11HTM    C53 4018   5.536   1.147  15.725 -1.0490  0.0091  0.0603
   11HTM    C54 4019   5.540   1.253  15.810 -0.6829 -0.0138  0.0753
   11HTM     S6 4020   5.564   1.201  15.981  0.2341 -0.0494 -0.0547
   12TAL    C55 4021   5.508   1.160  15.573  0.2682 -0.4406 -0.4020
   12TAL    C56 4022   5.374   1.090  15.521 -0.4702 -0.6629  0.7476
   12TAL    C57 4023   5.238   1.141  15.552  0.4438  0.7119 -0.7688
   12TAL    C58 4024   5.193   1.255  15.459 -0.9336  0.2340  0.1313
   12TAL    C59 4025   5.056   1.332  15.468  0.3487 -0.1518 -0.7277
   12TAL    C60 4026   5.020   1.399  15.338 -0.6981  0.5876  0.7529
   13HTM    C61 4027   5.518   1.404  15.791  0.6693  0.5206 -0.3064
   13HTM    C62 4028   5.562   1.500  15.877  0.6073  0.5094 -0.2620
   13HTM    C63 4029   5.509   1.631  15.848  0.3273  0.4445 -0.0505
   13HTM    C64 4030   5.425   1.635  15.741  0.1760  0.4061  0.0658
   13HTM     S7 4031   5.406   1.472  15.667  0.3768  0.4494 -0.0833
   14TAL    C65 4032   5.543   1.751  15.937 -0.5027  0.8422  0.6462
   14TAL    C66 4033   5.505   1.751  16.080 -0.4123 -0.6720 -0.0664
   14TAL    C67 4034   5.545   1.873  16.169 -0.9329 -0.3765 -1.2465
   14TAL    C68 4035   5.688   1.916  16.186 -0.7340  1.1616  0.4670
   14TAL    C69 4036   5.778   1.816  16.254  0.2138  0.1077  0.0202
   14TAL    C70 4037   5.929   1.831  16.260 -0.6247  0.0679 -0.2642
   15HTM    C71 4038   5.345   1.743  15.680  1.0639  0.5279 -0.3828
   15HTM    C72 4039   5.274   1.742  15.563  2.0561  0.6110 -1.0083
   15HTM    C73 4040   5.232   1.872  15.519  1.8167  0.5788 -0.8793
   15HTM    C74 4041   5.271   1.973  15.602  0.6418  0.4711 -0.1554
   15HTM     S8 4042   5.364   1.911  15.744 -0.2603  0.4015  0.4244
   16TAL    C75 4043   5.155   1.901  15.388 -0.1259  0.4052  0.7770
   16TAL    C76 4044   5.166   1.791  15.296  0.9253  0.8177  0.5956
   16TAL    C77 4045   5.053   1.786  15.187  0.1646  0.7848 -1.1577
   16TAL    C78 4046   5.011   1.896  15.094  0.4297  0.6716  0.6977
   16TAL    C79 4047   4.880   1.876  15.010  0.5256  0.8566 -0.3352
   16TAL    C80 4048   4.892   1.756  14.916 -0.1924  0.4058  0.4627
   17HTM    C81 4049   5.266   2.125  15.593  0.1181  0.3391  0.3552
   17HTM    C82 4050   5.292   2.206  15.699 -0.3616  0.6317  0.2575
   17HTM    C83 4051   5.287   2.346  15.668 -0.4058  0.5507 -0.1049
   17HTM    C84 4052   5.257   2.372  15.537  0.0401  0.1962 -0.2833
   17HTM     S9 4053   5.233   2.220  15.444  0.5546 -0.0648 -0.0053
   18TAL    C85 4054   5.321   2.457  15.771 -0.9621 -0.0981 -0.9391
   18TAL    C86 4055   5.438   2.437  15.871  1.3143 -0.0929  0.4568
   18TAL    C87 4056   5.415   2.536  15.990 -0.5207 -0.1167  0.5388
   18TAL    C88 4057   5.460   2.679  15.962 -0.2033  0.3929 -0.8419
   18TAL    C89 4058   5.451   2.786  16.072 -0.2178 -0.4602 -0.6467
   18TAL    C90 4059   5.374   2.904  16.022  0.8453 -0.0593 -0.0123
   19HTM    C91 4060   5.248   2.505  15.471 -0.3428 -0.2962 -1.0284
   19HTM    C92 4061   5.137   2.581  15.447 -0.1962 -0.0675 -0.9937
   19HTM    C93 4062   5.161   2.692  15.358  0.1718  0.3298 -0.4082
   19HTM    C94 4063   5.290   2.701  15.315  0.3059  0.4040  0.0038
   19HTM    S10 4064   5.392   2.570  15.384 -0.0246 -0.0256 -0.3183
   20TAL    C95 4065   5.049   2.778  15.307 -0.4454 -1.0281  1.1158
   20TAL    C96 4066   4.894   2.753  15.294 -0.0981  0.7260  0.7776
   20TAL    C97 4067   4.863   2.633  15.195  0.7197 -0.1463  0.6158
   20TAL    C98 4068   4.729   2.596  15.120  0.6997 -0.2489  0.5112
   20TAL    C99 4069   4.581   2.608  15.164 -0.7266 -0.1389  0.0603
   20TAL   C100 4070   4.547   2.757  15.185 -0.7689  1.1473 -1.3241
   21HTM   C101 4071   5.356   2.796  15.239  0.0473  0.0824 -0.0730
   21HTM   C102 4072   5.352   2.932  15.247  0.9202  0.0835  0.5994
   21HTM   C103 4073   5.441   2.997  15.154  1.3810 -0.0177  0.9613
   21HTM   C104 4074   5.512   2.911  15.076  0.8598 -0.0961  0.5646
   21HTM    S11 4075   5.472   2.739  15.113 -0.2625 -0.0477 -0.3036
   22TAL   C105 4076   5.429   3.149  15.116  0.6049  0.0332  0.9207
   22TAL   C106 4077   5.309   3.223  15.184 -0.4220 -0.2466 -0.8213
   22TAL   C107 4078   5.261   3.354  15.116  0.7969  0.7253  0.5636
   22TAL   C108 4079   5.158   3.433  15.193  0.3879 -0.3889 -0.9311
   22TAL   C109 4080   5.156   3.453  15.353  0.9725  0.4303  0.6663
   22TAL   C110 4081   5.023   3.466  15.418  0.0263  0.0114  0.3757
   23HTM   C111 4082   5.593   2.930  14.955  0.6347 -0.4534  0.2132
   23HTM   C112 4083   5.647   3.045  14.906  0.6070 -0.4227  0.2542
   23HTM   C113 4084   5.728   3.026  14.789  0.2596 -0.3065 -0.0093
   23HTM   C114 4085   5.736   2.896  14.749  0.0222 -0.2486 -0.2511
   23HTM    S12 4086   5.641   2.787  14.857  0.2207 -0.3368 -0.1643
   24TAL   C115 4087   5.777   3.144  14.709 -0.7524  0.6651 -0.3421
   24TAL   C116 4088   5.677   3.244  14.653  1.1615  0.0269 -0.2839
   24TAL   C117 4089   5.705   3.276  14.507 -0.1132 -0.4113 -0.0708
   24TAL   C118 4090   5.610   3.360  14.431  0.4177  0.9393 -0.2468
   24TAL   C119 4091   5.641   3.403  14.286 -0.6412 -1.0344  0.0116
   24TAL   C120 4092   5.633   3.280  14.198 -0.3888 -0.6890  0.6460
   25HTM   C121 4093   5.813   2.835  14.642  0.1650 -0.2621 -0.1875
   25HTM   C122 4094   5.920   2.751  14.652  0.2648 -0.1262 -0.1047
   25HTM   C123 4095   5.987   2.727  14.527  0.3908 -0.0421 -0.0532
   25HTM   C124 4096   5.932   2.793  14.422  0.3871 -0.1138 -0.0962
   25HTM    S13 4097   5.789   2.891  14.472  0.2231 -0.2946 -0.2063
   26TAL   C125 4098   6.129   2.670  14.534 -0.3984  1.2901  0.2478
   26TAL   C126 4099   6.184   2.632  14.669 -0.4897  1.2252 -0.0773
   26TAL   C127 4100   6.336   2.633  14.669  0.0114  0.1570  0.2720
   26TAL   C128 4101   6.398   2.508  14.593  1.1652  0.1622  0.0158
   26TAL   C129 4102   6.541   2.515  14.623 -0.8630 -0.1389  0.3165
   26TAL   C130 4103   6.628   2.610  14.552  0.8434  0.5076  0.2890
   27HTM   C131 4104   5.986   2.803  14.284  0.0998 -0.3877 -0.5004
   27HTM   C132 4105   6.039   2.713  14.197  0.2590 -0.0488 -0.7610
   27HTM   C133 4106   6.068   2.767  14.067 -0.1349  0.2986 -0.7069
   27HTM   C134 4107   6.038   2.900  14.055 -0.5947  0.2246 -0.4052
   27HTM    S14 4108   5.969   2.966  14.208 -0.5652 -0.2937 -0.1639
   28TAL   C135 4109   6.133   2.688  13.956  0.2038 -0.0153  0.8987
   28TAL   C136 4110   6.278   2.721  13.925 -0.8933  0.2236  0.5120
   28TAL   C137 4111   6.370   2.782  14.024  0.3228  0.1797  0.3564
   28TAL   C138 4112   6.507   2.736  13.995 -0.6960  0.3432 -0.4948
   28TAL   C139 4113   6.585   2.739  14.124 -0.6026  0.4751 -0.1442
   28TAL   C140 4114   6.725   2.756  14.102 -0.2496 -0.0662  0.7400
   29HTM   C141 4115   6.051   2.998  13.954 -0.0517  0.3207  0.0890
   29HTM   C142 4116   6.147   3.095  13.942 -0.6483  0.9747  0.4194
   29HTM   C143 4117   6.133   3.175  13.823 -0.8863  0.9989  0.4625
   29HTM   C144 4118   6.027   3.140  13.745 -0.4713  0.3634  0.1652
   29HTM    S15 4119   5.935   3.002  13.816  0.2582 -0.3204 -0.1949
   30TAL   C145 4120   6.237   3.291  13.791 -0.0825  0.3002  0.1623
   30TAL   C146 4121   6.384   3.237  13.766  1.1450 -0.4090  0.7446
   30TAL   C147 4122   6.411   3.137  13.648 -0.4462 -0.1218  0.5156
   30TAL   C148 4123   6.557   3.084  13.646 -0.0688  1.2381  1.4962
   30TAL   C149 4124   6.628   3.059  13.775 -0.9335  0.1415 -1.3532
   30TAL   C150 4125   6.768   2.999  13.744  0.2120  0.0346 -0.5941
   31HTM   C151 4126   5.986   3.207  13.624 -0.2824  0.1152  0.1855
   31HTM   C152 4127   6.053   3.271  13.525 -0.5186  0.4484  0.2372
   31HTM   C153 4128   5.971   3.303  13.411 -0.6799  0.4035  0.3405
   31HTM   C154 4129   5.841   3.263  13.424 -0.5667  0.0361  0.3671
   31HTM    S16 4130   5.813   3.182  13.582 -0.2450 -0.2842  0.2631
   32TAL   C155 4131   6.036   3.390  13.291  0.6952  0.9277  0.5270
   32TAL   C156 4132   6.113   3.303  13.193  0.2347  0.3391  0.4121
   32TAL   C157 4133   6.175   3.355  13.065  0.8435  0.3043  0.0796
   32TAL   C158 4134   6.242   3.237  12.993 -0.3957  0.3236  1.3022
   32TAL   C159 4135   6.327   3.125  13.058  0.3804 -0.3380 -0.2603
   32TAL   C160 4136   6.426   3.165  13.168 -0.2760  0.3284  1.2995
   33HTM   C161 4137   5.732   3.267  13.325  0.1465  0.0944 -0.3323
   33HTM   C162 4138   5.735   3.256  13.189 -0.1395 -0.5505 -0.2916
   33HTM   C163 4139   5.605   3.253  13.128 -0.2753 -1.0489  0.0041
   33HTM   C164 4140   5.502   3.263  13.217 -0.0922 -0.7839  0.1889
   33HTM    S17 4141   5.562   3.276  13.386  0.2681  0.1225  0.0024
   34TAL   C165 4142   5.569   3.244  12.979 -0.9210 -0.0878  0.1639
   34TAL   C166 4143   5.681   3.226  12.877 -0.5033 -0.3372  0.0718
   34TAL   C167 4144   5.620   3.229  12.734 -0.0367 -0.3794 -0.3623
   34TAL   C168 4145   5.695   3.316  12.636 -0.8867  0.5969 -0.6684
   34TAL   C169 4146   5.631   3.307  12.494  0.2528  0.3475  0.0208
   34TAL   C170 4147   5.705   3.407  12.404 -0.3856 -0.3100 -0.2796
   35HTM   C171 4148   5.358   3.254  13.199  0.2246  0.2462 -0.5235
   35HTM   C172 4149   5.270   3.159  13.241  0.2004  0.2128 -0.6485
   35HTM   C173 4150   5.132   3.192  13.215  0.1898  0.4212 -0.3378
   35HTM   C174 4151   5.116   3.313  13.152  0.2059  0.6136  0.0232
   35HTM    S18 4152   5.274   3.394  13.122  0.2361  0.5459 -0.0006
   36TAL   C175 4153   5.018   3.105  13.255  0.7301 -0.2026 -0.0776
   36TAL   C176 4154   5.032   2.964  13.211  0.4332  0.4016 -0.8964
   36TAL   C177 4155   4.910   2.897  13.277  0.9774 -0.1579  0.5248
   36TAL   C178 4156   4.888   2.751  13.234 -0.2555  0.3920 -1.2985
   36TAL   C179 4157   4.848   2.720  13.094  0.1055  0.9648  0.2098
   36TAL   C180 4158   4.776   2.584  13.085 -0.2690  0.2298  1.9556
   37HTM   C181 4159   5.001   3.389  13.099 -0.3440 -0.1452  0.3553
   37HTM   C182 4160   4.984   3.524  13.104 -0.1934 -0.1121  0.0384
   37HTM   C183 4161   4.856   3.568  13.055 -0.0974 -0.0722 -0.1783
   37HTM   C184 4162   4.776   3.467  13.012 -0.1747 -0.0748 -0.0265
   37HTM    S19 4163   4.855   3.306  13.031 -0.3766 -0.1284  0.4049
   38TAL   C185 4164   4.837   3.725  13.054 -0.2301  0.5007  0.0448
   38TAL   C186 4165   4.934   3.806  12.964  0.7860 -0.2978  0.6325
   38TAL   C187 4166   4.922   3.780  12.808  0.3307 -0.6657  0.4473
   38TAL   C188 4167   4.795   3.816  12.734  0.6920 -0.5689 -0.0521
   38TAL   C189 4168   4.796   3.796  12.581 -0.3020  0.1111  0.3757
   38TAL   C190 4169   4.663   3.816  12.526  0.5772  0.6820 -0.5402
   39HTM   C191 4170   4.651   3.475  12.936  0.3955 -0.4160 -0.0721
   39HTM   C192 4171   4.538   3.548  12.958  0.4346 -0.5651  0.6652
   39HTM   C193 4172   4.441   3.538  12.852 -0.1149 -0.4463  1.1497
   39HTM   C194 4173   4.480   3.457  12.749 -0.5732 -0.2066  0.7816
   39HTM    S20 4174   4.643   3.387  12.778 -0.3444 -0.1116 -0.2132
   40TAL   C195 4175   4.311   3.613  12.855  0.3464  0.3868 -0.3315
   40TAL   C196 4176   4.291   3.717  12.969  0.7575 -0.0886  0.9432
   40TAL   C197 4177   4.183   3.807  12.902  0.0367  0.7623 -1.5588
   40TAL   C198 4178   4.169   3.945  12.970  0.1824  0.2827 -0.4127
   40TAL   C199 4179   4.108   4.049  12.886  0.5561  1.0184  0.4696
   40TAL   C200 4180   4.030   4.157  12.955  0.4869 -0.1960 -0.2558
   41HTM   C201 4181   4.418   3.428  12.616  0.0755 -0.0093 -0.1580
   41HTM   C202 4182   4.329   3.498  12.541  0.3191 -0.0491 -0.4847
   41HTM   C203 4183   4.307   3.442  12.410  0.5897 -0.2326 -0.4520
   41HTM   C204 4184   4.380   3.329  12.386  0.5527 -0.3328 -0.1005
   41HTM    S21 4185   4.482   3.284  12.528  0.1699 -0.2022  0.2188
   42TAL   C205 4186   4.217   3.507  12.294  0.8011 -0.4697 -0.4216
   42TAL   C206 4187   4.137   3.641  12.320  0.6398 -0.6061  0.6666
   42TAL   C207 4188   4.060   3.705  12.195  0.6692  0.4630 -0.3116
   42TAL   C208 4189   4.161   3.781  12.101  0.4981  0.2309 -0.4956
   42TAL   C209 4190   4.095   3.838  11.978  0.3043 -0.1584  0.0659
   42TAL   C210 4191   4.200   3.872  11.887 -0.0173  0.0154 -0.8021
   43HTM   C211 4192   4.377   3.226  12.280 -0.4883 -0.1578  0.6004
   43HTM   C212 4193   4.450   3.223  12.165 -0.6908  0.6730  0.4385
   43HTM   C213 4194   4.407   3.122  12.072 -0.5462  1.0200 -0.0093
   43HTM   C214 4195   4.301   3.048  12.115 -0.2335  0.4537 -0.1894
   43HTM    S22 4196   4.247   3.101  12.280 -0.0962 -0.5695  0.1963
   44TAL   C215 4197   4.471   3.115  11.927  0.4199 -0.1435 -1.5347
   44TAL   C216 4198   4.438   3.228  11.829 -0.1184  0.7282 -0.1843
   44TAL   C217 4199   4.445   3.373  11.875  0.4668  0.3072 -0.1348
   44TAL   C218 4200   4.567   3.462  11.831 -0.6537 -0.0699 -0.0574
   44TAL   C219 4201   4.580   3.599  11.886 -0.2758  0.0421 -0.5053
   44TAL   C220 4202   4.671   3.708  11.816  0.4639 -0.6944 -0.3392
   45HTM   C221 4203   4.231   2.936  12.061  0.2836  0.3792 -0.3511
   45HTM   C222 4204   4.096   2.930  12.038  0.2531  0.3695 -0.1698
   45HTM   C223 4205   4.052   2.808  11.977  0.1489  0.2778  0.0873
   45HTM   C224 4206   4.153   2.719  11.953  0.1001  0.2178  0.1017
   45HTM    S23 4207   4.313   2.785  12.006  0.1823  0.2727 -0.2103
   46TAL   C225 4208   3.910   2.779  11.926 -0.2080 -0.9245 -0.3059
   46TAL   C226 4209   3.795   2.864  11.989  0.0593  0.3121  0.8987
   46TAL   C227 4210   3.678   2.860  11.888 -0.4421 -1.2094 -0.0067
   46TAL   C228 4211   3.558   2.958  11.923 -1.1270 -0.0914 -0.1368
   46TAL   C229 4212   3.468   3.001  11.806 -1.0868  0.2003  0.0584
   46TAL   C230 4213   3.381   3.110  11.849 -0.3926  0.2381 -0.2692
   47HTM   C231 4214   4.159   2.580  11.903 -0.1494  0.8258  0.4606
   47HTM   C232 4215   4.233   2.534  11.798 -0.0658  1.1380  0.3781
   47HTM   C233 4216   4.194   2.402  11.755  0.1836  1.1344  0.1647
   47HTM   C234 4217   4.091   2.348  11.826  0.2903  0.8194  0.0844
   47HTM    S24 4218   4.035   2.460  11.956  0.0823  0.5004  0.2736
   48TAL   C235 4219   4.260   2.326  11.640 -0.2403  1.0547  1.1448
   48TAL   C236 4220   4.168   2.225  11.559 -0.0477 -0.2515  0.5315
   48TAL   C237 4221   4.038   2.289  11.502  0.5362  0.4349  0.4040
   48TAL   C238 4222   3.920   2.222  11.425  0.0307 -0.1592  0.3964
   48TAL   C239 4223   3.779   2.283  11.432  0.1273  1.1593  0.0825
   48TAL   C240 4224   3.692   2.225  11.545 -0.6900 -0.6962  0.0990
    1HTM     C1 4225   5.099   1.266   3.757  0.3504 -0.5487 -0.1913
    1HTM     C2 4226   4.978   1.235   3.811  0.4653 -1.0507 -0.2186
    1HTM     C3 4227   4.982   1.206   3.952  0.5066 -0.7429 -0.1565
    1HTM     C4 4228   5.107   1.216   4.006  0.4236 -0.0063 -0.0816
    1HTM     S1 4229   5.230   1.263   3.882  0.2854  0.3586 -0.0840
    2TAL     C5 4230   4.859   1.170   4.029 -0.8207  0.6237  0.2939
    2TAL     C6 4231   4.821   1.023   4.002  1.0167 -0.5084 -0.0896
    2TAL     C7 4232   4.700   0.975   4.079  0.3213  0.7377 -0.4271
    2TAL     C8 4233   4.655   0.845   4.010  0.6947  0.4689 -0.1225
    2TAL     C9 4234   4.533   0.777   4.087 -0.7302 -0.1248  1.0224
    2TAL    C10 4235   4.563   0.719   4.217  0.5469  0.4449  0.3472
    3HTM    C11 4236   5.159   1.202   4.136  0.3981  0.5488  0.3641
    3HTM    C12 4237   5.293   1.201   4.162  0.3823  0.8356  0.4631
    3HTM    C13 4238   5.326   1.151   4.293  0.4078  0.6565  0.3889
    3HTM    C14 4239   5.217   1.114   4.367  0.4432  0.2330  0.2333
    3HTM     S2 4240   5.063   1.139   4.275  0.4472  0.0261  0.1677
    4TAL    C15 4241   5.468   1.142   4.346 -0.4101 -0.4764 -0.5481
    4TAL    C16 4242   5.585   1.218   4.277  0.5149  0.0248 -0.5871
    4TAL    C17 4243   5.703   1.249   4.369  0.4043 -0.6966  0.3949
    4TAL    C18 4244   5.813   1.147   4.412 -0.2279 -0.1514  0.5256
    4TAL    C19 4245   5.875   1.048   4.310  0.9245  0.1359 -0.8088
    4TAL    C20 4246   6.006   0.988   4.355  0.2609  0.2564  0.9683
    5HTM    C21 4247   5.200   1.037   4.487 -0.2726  0.2537  0.4806
    5HTM    C22 4248   5.197   1.058   4.621 -0.1818  0.2193  0.4882
    5HTM    C23 4249   5.168   0.939   4.697  0.2702  0.1123  0.5020
    5HTM    C24 4250   5.148   0.828   4.621  0.5241  0.0651  0.5051
    5HTM     S3 4251   5.166   0.865   4.445  0.2095  0.1528  0.4907
    6TAL    C25 4252   5.155   0.948   4.846 -0.5671 -0.2912 -1.0546
    6TAL    C26 4253   5.273   0.879   4.926 -0.6412  0.0873  0.1107
    6TAL    C27 4254   5.275   0.880   5.076  0.7571 -0.8321 -0.7410
    6TAL    C28 4255   5.370   0.780   5.129  0.1720 -0.6475  0.0309
    6TAL    C29 4256   5.381   0.784   5.283  1.0681  0.3266 -0.1364
    6TAL    C30 4257   5.428   0.661   5.372  0.4697  0.5420 -1.1190
    7HTM    C31 4258   5.136   0.689   4.652 -0.1295 -0.8298 -0.6503
    7HTM    C32 4259   5.196   0.582   4.593 -0.5517 -1.1709 -0.4697
    7HTM    C33 4260   5.172   0.458   4.662 -0.4554 -0.8548  0.1529
    7HTM    C34 4261   5.094   0.470   4.773  0.0400 -0.2725  0.4472
    7HTM     S4 4262   5.044   0.641   4.800  0.4264 -0.0769 -0.0432
    8TAL    C35 4263   5.243   0.335   4.599  0.7880  0.2540 -0.4124
    8TAL    C36 4264   5.375   0.301   4.670  0.3552 -0.4655 -0.0796
    8TAL    C37 4265   5.431   0.176   4.618 -0.1400  0.1962 -0.2263
    8TAL    C38 4266   5.544   0.127   4.706 -0.5865 -0.7744 -0.2919
    8TAL    C39 4267   5.532  -0.016   4.771 -0.1117  0.2581 -0.7292
    8TAL    C40 4268   5.541  -0.138   4.690  0.1284 -0.6626  1.1172
    9HTM    C41 4269   5.037   0.373   4.868  0.4098  0.4053 -0.5000
    9HTM    C42 4270   4.964   0.395   4.981  0.9032  0.9980 -0.2898
    9HTM    C43 4271   4.942   0.277   5.060  0.7516  1.3023  0.1316
    9HTM    C44 4272   4.997   0.164   5.007  0.1427  0.9416  0.2429
    9HTM     S5 4273   5.083   0.199   4.852 -0.2898  0.1837 -0.1793
   10TAL    C45 4274   4.860   0.285   5.194 -0.3314 -0.1723 -0.4819
   10TAL    C46 4275   4.879   0.412   5.289 -0.6402 -1.5503  0.8753
   10TAL    C47 4276   4.808   0.401   5.419  0.4177  0.8445 -0.9322
   10TAL    C48 4277   4.798   0.527   5.507  0.4576  0.0017  0.2444
   10TAL    C49 4278   4.751   0.531   5.644 -0.1508 -0.2361 -0.6331
   10TAL    C50 4279   4.596   0.522   5.670  0.1724  0.3576  0.3358
   11HTM    C51 4280   4.992   0.028   5.064  0.0130 -0.3599 -0.3534
   11HTM    C52 4281   4.905  -0.042   5.142 -0.3699 -0.4191 -0.8245
   11HTM    C53 4282   4.940  -0.181   5.156 -0.5686 -0.4820 -0.9425
   11HTM    C54 4283   5.053  -0.217   5.089 -0.3368 -0.4705 -0.5612
   11HTM     S6 4284   5.125  -0.077   5.002  0.1537 -0.3787 -0.0196
   12TAL    C55 4285   4.853  -0.286   5.227 -0.5439 -0.0668  1.4491
   12TAL    C56 4286   4.719  -0.248   5.280 -0.5730  0.2862  0.0670
   12TAL    C57 4287   4.645  -0.337   5.369 -0.0208  0.3741 -0.7005
   12TAL    C58 4288   4.508  -0.283   5.420 -1.0397 -0.7855 -0.4030
   12TAL    C59 4289   4.460  -0.323   5.559 -0.8837 -0.1738 -0.0987
   12TAL    C60 4290   4.417  -0.473   5.566 -0.1141 -0.3784  0.6567
   13HTM    C61 4291   5.126  -0.347   5.078 -0.0426 -0.1815  0.5407
   13HTM    C62 4292   5.096  -0.453   4.999 -0.5394 -0.2763  0.8461
   13HTM    C63 4293   5.165  -0.574   5.036 -0.5846 -0.3229  0.7786
   13HTM    C64 4294   5.248  -0.560   5.143 -0.1224 -0.2636  0.4217
   13HTM     S7 4295   5.245  -0.391   5.207  0.4101 -0.1433  0.1408
   14TAL    C65 4296   5.133  -0.698   4.962 -0.2861 -0.5676 -0.0834
   14TAL    C66 4297   5.245  -0.712   4.857  0.5141 -0.6424  0.1183
   14TAL    C67 4298   5.247  -0.848   4.779 -0.1774 -1.1563 -1.1269
   14TAL    C68 4299   5.377  -0.890   4.712 -0.5717 -0.2228  0.7675
   14TAL    C69 4300   5.459  -0.984   4.806  0.3356  0.8189  0.0675
   14TAL    C70 4301   5.598  -1.003   4.768  0.0932  0.1507  0.2640
   15HTM    C71 4302   5.354  -0.648   5.190  0.1006  0.2803  0.2393
   15HTM    C72 4303   5.485  -0.611   5.206  0.1569 -0.0014  0.4580
   15HTM    C73 4304   5.573  -0.721   5.235 -0.0640 -0.2559  0.1888
   15HTM    C74 4305   5.510  -0.842   5.243 -0.2887 -0.1681 -0.2350
   15HTM     S8 4306   5.333  -0.826   5.212 -0.2385  0.2460 -0.3277
   16TAL    C75 4307   5.713  -0.697   5.248 -0.4209 -0.2896 -0.8544
   16TAL    C76 4308   5.787  -0.683   5.115 -0.2010 -0.9546  0.6347
   16TAL    C77 4309   5.930  -0.651   5.123 -0.9038 -0.7997  0.7181
   16TAL    C78 4310   5.985  -0.518   5.186  0.6900  0.0459  0.4263
   16TAL    C79 4311   6.115  -0.544   5.264  0.2003 -0.4632  0.1680
   16TAL    C80 4312   6.171  -0.405   5.300 -0.0351  0.0831 -0.0063
   17HTM    C81 4313   5.568  -0.974   5.259 -0.1455 -0.2471 -0.2215
   17HTM    C82 4314   5.593  -1.033   5.380 -0.6158 -0.3721 -0.1807
   17HTM    C83 4315   5.639  -1.169   5.370 -0.7099 -0.4078 -0.1329
   17HTM    C84 4316   5.650  -1.214   5.241 -0.3115 -0.3104 -0.1374
   17HTM     S9 4317   5.601  -1.087   5.123  0.2177 -0.1645 -0.2030
   18TAL    C85 4318   5.675  -1.266   5.482 -0.5119 -0.7209  0.5159
   18TAL    C86 4319   5.600  -1.277   5.615  0.2558  0.0120 -0.3299
   18TAL    C87 4320   5.495  -1.392   5.602  0.5808 -0.6552  0.3066
   18TAL    C88 4321   5.556  -1.525   5.626 -0.4398  0.5282  0.4861
   18TAL    C89 4322   5.465  -1.647   5.608 -0.1714  0.8902 -0.2056
   18TAL    C90 4323   5.549  -1.777   5.587 -0.0921  0.0816 -0.4129
   19HTM    C91 4324   5.689  -1.343   5.183 -0.1023 -0.8129  0.0450
   19HTM    C92 4325   5.613  -1.397   5.084  0.2282 -1.0394 -0.0894
   19HTM    C93 4326   5.682  -1.496   5.005  0.7724 -0.5875 -0.1941
   19HTM    C94 4327   5.811  -1.518   5.044  0.8570 -0.0165 -0.1397
   19HTM    S10 4328   5.855  -1.414   5.185  0.2509 -0.0049  0.0495
   20TAL    C95 4329   5.624  -1.562   4.875 -0.6509  0.0395 -1.0195
   20TAL    C96 4330   5.476  -1.569   4.864  0.5287  0.4078  0.7963
   20TAL    C97 4331   5.438  -1.489   4.739 -0.6957 -0.1347 -0.4559
   20TAL    C98 4332   5.295  -1.511   4.720  0.7345 -0.4937  0.5743
   20TAL    C99 4333   5.233  -1.475   4.572 -0.7540  1.5933  0.1594
   20TAL   C100 4334   5.209  -1.332   4.522  0.4258  0.3999  0.1540
   21HTM   C101 4335   5.910  -1.612   5.003 -0.2290 -0.2933 -0.3749
   21HTM   C102 4336   5.906  -1.719   4.919 -0.1631 -0.8560  0.3200
   21HTM   C103 4337   6.028  -1.796   4.917 -0.1963 -0.9356  0.9912
   21HTM   C104 4338   6.125  -1.747   5.000 -0.2874 -0.4336  0.8084
   21HTM    S11 4339   6.069  -1.599   5.088 -0.3387  0.1835 -0.2341
   22TAL   C105 4340   6.032  -1.907   4.819 -0.6214  0.0702  0.5931
   22TAL   C106 4341   5.944  -2.036   4.843 -0.7790  0.8478 -0.3285
   22TAL   C107 4342   5.959  -2.101   4.980 -0.7707 -0.3719 -0.2659
   22TAL   C108 4343   5.878  -2.225   5.022  0.3866 -0.1482 -0.1285
   22TAL   C109 4344   5.879  -2.353   4.939 -0.1744 -0.5093  0.6761
   22TAL   C110 4345   5.755  -2.353   4.854  0.1424  0.1265 -0.7566
   23HTM   C111 4346   6.251  -1.811   5.036 -0.1510 -0.0836  0.6082
   23HTM   C112 4347   6.284  -1.884   5.146  0.1031 -0.1780  0.4698
   23HTM   C113 4348   6.415  -1.943   5.139  0.1678 -0.0050  0.2049
   23HTM   C114 4349   6.482  -1.914   5.024 -0.0372  0.2213  0.1412
   23HTM    S12 4350   6.384  -1.809   4.914 -0.3299  0.2336  0.4131
   24TAL   C115 4351   6.476  -2.054   5.236  0.3274  0.2372 -0.5155
   24TAL   C116 4352   6.370  -2.135   5.328 -0.3597  0.0404  0.3000
   24TAL   C117 4353   6.320  -2.039   5.431  0.2642 -0.5317  0.3473
   24TAL   C118 4354   6.226  -2.098   5.538 -0.0376  1.0351  0.1026
   24TAL   C119 4355   6.274  -2.194   5.657 -0.5389 -0.5963  0.3420
   24TAL   C120 4356   6.412  -2.168   5.701 -0.4322 -0.5456 -0.6104
   25HTM   C121 4357   6.614  -1.948   4.976 -0.1297  0.2805  0.4597
   25HTM   C122 4358   6.655  -1.928   4.848 -0.5056  0.5307  0.3756
   25HTM   C123 4359   6.795  -1.955   4.827 -0.4758  0.9563  0.0002
   25HTM   C124 4360   6.861  -1.996   4.939 -0.0772  1.0307 -0.2022
   25HTM    S13 4361   6.750  -2.003   5.081  0.2944  0.5655  0.0680
   26TAL   C125 4362   6.835  -1.957   4.683  0.5874  0.9853 -0.5151
   26TAL   C126 4363   6.777  -1.858   4.575  0.3453 -0.5021 -0.5304
   26TAL   C127 4364   6.750  -1.900   4.433 -0.2044 -0.2478 -0.4945
   26TAL   C128 4365   6.676  -1.793   4.356 -0.9786  0.5552  0.2667
   26TAL   C129 4366   6.524  -1.818   4.344 -0.7441  0.7156 -0.5917
   26TAL   C130 4367   6.425  -1.790   4.224 -0.5308 -0.6541 -0.0852
   27HTM   C131 4368   7.002  -2.042   4.964 -0.3019  0.0106  0.2115
   27HTM   C132 4369   7.076  -2.138   4.902 -0.6614 -0.1382  0.0057
   27HTM   C133 4370   7.217  -2.131   4.932 -0.5311 -0.2782 -0.5604
   27HTM   C134 4371   7.250  -2.028   5.016 -0.0726 -0.2363 -0.7862
   27HTM    S14 4372   7.105  -1.933   5.065  0.2329 -0.0149 -0.2976
   28TAL   C135 4373   7.320  -2.225   4.889  0.0282 -0.0578 -0.0178
   28TAL   C136 4374   7.297  -2.295   4.753  0.0569  0.1530  0.1971
   28TAL   C137 4375   7.281  -2.209   4.629 -0.6056 -0.0811 -0.1775
   28TAL   C138 4376   7.382  -2.101   4.604 -0.2559 -0.9395 -0.4987
   28TAL   C139 4377   7.369  -2.027   4.470  1.7026 -0.7824  0.6247
   28TAL   C140 4378   7.223  -1.961   4.461  0.3946 -0.2844  0.1365
   29HTM   C141 4379   7.371  -1.973   5.082  0.1418 -0.1728  0.2003
   29HTM   C142 4380   7.391  -1.895   5.192  0.1566  0.0126  0.0690
   29HTM   C143 4381   7.528  -1.856   5.212  0.1423  0.1363 -0.0740
   29HTM   C144 4382   7.613  -1.904   5.116  0.1166  0.0450 -0.0518
   29HTM    S15 4383   7.525  -2.002   4.993  0.1085 -0.2062  0.1532
   30TAL   C145 4384   7.561  -1.765   5.326  0.1226 -0.1422  0.2452
   30TAL   C146 4385   7.443  -1.686   5.382  0.3230  0.3220  0.4903
   30TAL   C147 4386   7.474  -1.600   5.503 -0.6903 -0.9275 -0.3470
   30TAL   C148 4387   7.358  -1.513   5.561  0.5601 -0.4518  0.0890
   30TAL   C149 4388   7.221  -1.587   5.580  0.7253  0.3590  0.8269
   30TAL   C150 4389   7.107  -1.508   5.629 -0.0703  0.5244  0.8015
   31HTM   C151 4390   7.753  -1.879   5.089 -0.3395  0.3040 -0.6177
   31HTM   C152 4391   7.847  -1.974   5.060 -0.2846  0.3208 -0.4970
   31HTM   C153 4392   7.981  -1.921   5.050 -0.2722  0.3341 -0.2624
   31HTM   C154 4393   7.989  -1.787   5.072 -0.3176  0.3275 -0.2042
   31HTM    S16 4394   7.827  -1.716   5.107 -0.3801  0.3039 -0.4432
   32TAL   C155 4395   8.100  -2.007   5.019 -0.5502 -0.3949  0.8209
   32TAL   C156 4396   8.108  -2.112   4.898  0.2192 -0.4470  0.0102
   32TAL   C157 4397   8.031  -2.074   4.779 -0.1209 -0.1917  0.9316
   32TAL   C158 4398   8.028  -2.181   4.670  0.5715  0.4393 -0.2336
   32TAL   C159 4399   7.947  -2.157   4.543  0.6229  0.6296 -0.1266
   32TAL   C160 4400   7.915  -2.279   4.457  0.4917  0.0508  0.8909
   33HTM   C161 4401   8.106  -1.713   5.093  0.5400  0.0059 -0.0682
   33HTM   C162 4402   8.170  -1.612   5.026  0.8790 -0.2329 -0.1079
   33HTM   C163 4403   8.298  -1.577   5.083  0.9672 -0.5926 -0.0796
   33HTM   C164 4404   8.332  -1.651   5.192  0.6955 -0.6278 -0.0185
   33HTM    S17 4405   8.204  -1.771   5.234  0.3040 -0.2063  0.0085
   34TAL   C165 4406   8.400  -1.488   5.006 -0.1340  0.5174  0.4567
   34TAL   C166 4407   8.393  -1.333   5.020 -0.6127 -0.0248 -0.4045
   34TAL   C167 4408   8.269  -1.245   5.026  0.7915 -0.0117  0.2019
   34TAL   C168 4409   8.316  -1.108   5.004 -0.0536  0.0510 -0.5767
   34TAL   C169 4410   8.284  -0.996   5.098  1.1622 -0.5134  0.0170
   34TAL   C170 4411   8.139  -0.949   5.118 -0.6058  0.0656 -0.8438
   35HTM   C171 4412   8.442  -1.649   5.287 -0.2064  0.2823  0.2834
   35HTM   C172 4413   8.511  -1.755   5.337  0.1845  0.1709 -0.4609
   35HTM   C173 4414   8.604  -1.721   5.440  0.5387 -0.1311 -0.6750
   35HTM   C174 4415   8.607  -1.588   5.470  0.4178 -0.2501 -0.0939
   35HTM    S18 4416   8.491  -1.495   5.367 -0.1571  0.0121  0.7753
   36TAL   C175 4417   8.693  -1.844   5.473  0.1491 -0.4334 -0.1242
   36TAL   C176 4418   8.820  -1.835   5.555 -0.5385 -0.7479 -0.1326
   36TAL   C177 4419   8.914  -1.955   5.581 -0.1992 -0.7392  1.2163
   36TAL   C178 4420   8.961  -2.027   5.460  0.4653  0.3470  0.4129
   36TAL   C179 4421   9.083  -1.949   5.414  0.9217  0.5986  0.4986
   36TAL   C180 4422   9.205  -2.030   5.410 -0.8584  0.2795  0.1777
   37HTM   C181 4423   8.681  -1.504   5.571  0.0000 -0.1244 -0.0952
   37HTM   C182 4424   8.809  -1.460   5.558 -0.0801  0.0684 -0.2420
   37HTM   C183 4425   8.857  -1.384   5.671 -0.0944  0.2173 -0.3353
   37HTM   C184 4426   8.764  -1.370   5.770 -0.0252  0.1382 -0.2597
   37HTM    S19 4427   8.609  -1.452   5.729  0.0642 -0.1329 -0.0632
   38TAL   C185 4428   8.999  -1.324   5.645 -0.5602  0.4635 -0.0762
   38TAL   C186 4429   9.096  -1.299   5.521  0.1012  0.1478 -0.0641
   38TAL   C187 4430   9.054  -1.167   5.438 -0.7173  0.8779 -0.1035
   38TAL   C188 4431   8.919  -1.170   5.371 -0.6953 -0.1796  0.6999
   38TAL   C189 4432   8.894  -1.278   5.261 -0.7950 -0.1152  0.6980
   38TAL   C190 4433   8.748  -1.280   5.223 -0.1499  0.0118  0.7343
   39HTM   C191 4434   8.783  -1.300   5.899  0.3712 -0.8825  0.4181
   39HTM   C192 4435   8.719  -1.351   6.008  0.9343 -1.2138  0.6040
   39HTM   C193 4436   8.768  -1.298   6.133  0.9081 -0.8318  0.4562
   39HTM   C194 4437   8.869  -1.208   6.119  0.3251 -0.2095  0.1578
   39HTM    S20 4438   8.911  -1.182   5.945 -0.2405 -0.0566  0.0394
   40TAL   C195 4439   8.711  -1.350   6.262  0.1764 -0.3985  0.2831
   40TAL   C196 4440   8.560  -1.302   6.311 -1.1640  0.3595  0.7905
   40TAL   C197 4441   8.442  -1.392   6.271  0.2914 -0.1571  0.2415
   40TAL   C198 4442   8.312  -1.301   6.275 -0.3462 -0.3974 -0.6240
   40TAL   C199 4443   8.181  -1.369   6.245  0.1213 -0.1275 -0.2573
   40TAL   C200 4444   8.111  -1.453   6.354 -0.7599 -1.1546 -0.0234
   41HTM   C201 4445   8.953  -1.140   6.222 -0.0826  0.0503 -0.0750
   41HTM   C202 4446   9.005  -1.015   6.213  0.1845 -0.0776 -0.3399
   41HTM   C203 4447   9.068  -0.969   6.334  0.5248 -0.0608 -0.5225
   41HTM   C204 4448   9.065  -1.059   6.435  0.5173  0.0798 -0.3967
   41HTM    S21 4449   8.980  -1.211   6.386  0.0764  0.2030 -0.0350
   42TAL   C205 4450   9.156  -0.842   6.334  0.3770 -0.7382 -0.0119
   42TAL   C206 4451   9.161  -0.769   6.199  0.2086  0.1915  0.2485
   42TAL   C207 4452   9.297  -0.709   6.162  0.0428 -0.0365  1.2125
   42TAL   C208 4453   9.358  -0.607   6.253 -0.5933  0.3716 -0.0058
   42TAL   C209 4454   9.497  -0.557   6.214 -0.1720  0.1352  0.3719
   42TAL   C210 4455   9.609  -0.659   6.201 -0.5389 -0.3948 -0.4448
   43HTM   C211 4456   9.113  -1.052   6.571  0.0404  0.4244 -0.0210
   43HTM   C212 4457   9.132  -0.935   6.638  0.6081  0.2590  0.1113
   43HTM   C213 4458   9.184  -0.952   6.771  0.6269 -0.1363  0.0551
   43HTM   C214 4459   9.204  -1.083   6.805  0.0734 -0.2722 -0.1204
   43HTM    S22 4460   9.158  -1.194   6.671 -0.5191  0.0910 -0.2289
   44TAL   C215 4461   9.215  -0.830   6.857 -0.2156  0.8146 -0.6843
   44TAL   C216 4462   9.077  -0.752   6.892 -0.3230 -0.3300 -0.4086
   44TAL   C217 4463   8.980  -0.846   6.967 -0.2231  0.0860 -0.2871
   44TAL   C218 4464   8.842  -0.792   6.989 -0.0967  0.2031  0.4131
   44TAL   C219 4465   8.734  -0.870   7.060  1.6425 -1.4395 -0.0243
   44TAL   C220 4466   8.674  -0.996   7.004  0.7570 -0.0222 -0.3729
   45HTM   C221 4467   9.240  -1.137   6.934  0.2779  0.5429  0.0621
   45HTM   C222 4468   9.173  -1.235   7.000  0.3044  0.5877  0.1553
   45HTM   C223 4469   9.239  -1.279   7.121  0.5228  0.4354 -0.0165
   45HTM   C224 4470   9.356  -1.214   7.146  0.6627  0.2745 -0.2405
   45HTM    S23 4471   9.393  -1.091   7.019  0.5285  0.3031 -0.2524
   46TAL   C225 4472   9.160  -1.375   7.214 -0.5064 -0.2424  0.7327
   46TAL   C226 4473   9.055  -1.473   7.167 -0.5867 -0.1761 -0.4490
   46TAL   C227 4474   8.952  -1.457   7.279  0.7763 -0.0160  0.3657
   46TAL   C228 4475   8.808  -1.508   7.263  0.0223  0.2918 -0.1140
   46TAL   C229 4476   8.724  -1.438   7.148  0.5932  0.5900 -0.8308
   46TAL   C230 4477   8.577  -1.487   7.150 -0.1651  0.7865  0.0736
   47HTM   C231 4478   9.452  -1.229   7.258  0.5149  0.1433  0.1856
   47HTM   C232 4479   9.565  -1.158   7.287  0.4421  0.0461  0.7316
   47HTM   C233 4480   9.633  -1.203   7.405 -0.0736 -0.1231  0.9711
   47HTM   C234 4481   9.573  -1.309   7.467 -0.3941 -0.1547  0.6079
   47HTM    S24 4482   9.423  -1.360   7.379 -0.0667  0.0281 -0.0702
   48TAL   C235 4483   9.747  -1.116   7.466  0.0192  0.1002 -0.6447
   48TAL   C236 4484   9.795  -1.149   7.612 -0.0142 -0.9046  0.1310
   48TAL   C237 4485   9.915  -1.047   7.644  0.2908  0.1983  0.8267
   48TAL   C238 4486   9.875  -0.950   7.751  0.0909 -0.9325 -0.2534
   48TAL   C239 4487   9.798  -0.814   7.737  0.3867 -0.1737  0.3164
   48TAL   C240 4488   9.767  -0.748   7.867 -0.5293 -0.3455 -0.0020
    1HTM     C1 4489   4.265   1.135   9.774 -0.3745  0.3823 -0.2804
    1HTM     C2 4490   4.142   1.078   9.782 -0.4408  0.5162 -0.3295
    1HTM     C3 4491   4.106   1.001   9.665 -0.2563  0.1175 -0.1278
    1HTM     C4 4492   4.202   1.000   9.569 -0.0491 -0.3203  0.0754
    1HTM     S1 4493   4.346   1.097   9.617 -0.0715 -0.2627  0.0270
    2TAL     C5 4494   3.969   0.938   9.652  0.7380  0.3796  0.1978
    2TAL     C6 4495   3.860   1.005   9.565 -0.0363  0.6013 -0.3167
    2TAL     C7 4496   3.733   0.919   9.551  1.1696 -0.1549  0.0494
    2TAL     C8 4497   3.604   0.998   9.510 -0.7863 -0.4515 -0.3795
    2TAL     C9 4498   3.473   0.916   9.519 -0.7782 -0.2447  0.2819
    2TAL    C10 4499   3.341   0.995   9.505  0.3762 -0.4114  0.0026
    3HTM    C11 4500   4.205   0.949   9.426  0.2594 -0.4911  0.2157
    3HTM    C12 4501   4.108   0.953   9.331  0.5002 -0.0665 -0.0200
    3HTM    C13 4502   4.149   0.899   9.204  0.7485  0.2851 -0.0913
    3HTM    C14 4503   4.278   0.854   9.203  0.6971  0.1287  0.0903
    3HTM     S2 4504   4.358   0.877   9.363  0.3281 -0.4795  0.3674
    4TAL    C15 4505   4.049   0.880   9.085 -0.0183 -0.0312 -0.6971
    4TAL    C16 4506   3.962   0.996   9.044  0.3965  0.9202  1.2174
    4TAL    C17 4507   3.817   0.996   9.101 -0.0268  0.5396  1.1255
    4TAL    C18 4508   3.743   0.857   9.103 -0.2876 -1.1087 -0.0355
    4TAL    C19 4509   3.593   0.885   9.106 -0.1522  0.3573  0.0452
    4TAL    C20 4510   3.518   0.756   9.138 -0.4610 -0.6000 -0.2472
    5HTM    C21 4511   4.350   0.778   9.111  0.0525  0.2362 -0.3697
    5HTM    C22 4512   4.325   0.649   9.074  0.0235  0.1806 -0.1602
    5HTM    C23 4513   4.414   0.600   8.972  0.2633 -0.1352  0.1967
    5HTM    C24 4514   4.507   0.691   8.931  0.4752 -0.3204  0.2591
    5HTM     S3 4515   4.489   0.848   9.019  0.3874 -0.1086 -0.1310
    6TAL    C25 4516   4.400   0.455   8.922  0.3921 -0.1538  0.5195
    6TAL    C26 4517   4.430   0.338   9.014 -0.2435  0.5558 -0.4470
    6TAL    C27 4518   4.391   0.193   8.981  0.3377 -0.3332 -0.2874
    6TAL    C28 4519   4.375   0.140   8.844  0.4180 -0.8850  0.5367
    6TAL    C29 4520   4.500   0.139   8.755 -0.2776  0.0119  0.7881
    6TAL    C30 4521   4.574   0.010   8.794 -0.1387  0.2588 -1.1121
    7HTM    C31 4522   4.601   0.675   8.819  0.3716  0.2418  0.9116
    7HTM    C32 4523   4.576   0.630   8.693 -0.2282  0.4431  0.9503
    7HTM    C33 4524   4.693   0.626   8.609 -0.6126  0.5326  0.3991
    7HTM    C34 4525   4.807   0.668   8.671 -0.3062  0.3995 -0.0599
    7HTM     S4 4526   4.775   0.716   8.842  0.4980  0.1489  0.1705
    8TAL    C35 4527   4.690   0.578   8.457  0.3714 -0.2235  0.0162
    8TAL    C36 4528   4.698   0.432   8.430  0.8941 -0.0760  1.2334
    8TAL    C37 4529   4.716   0.406   8.280  0.7424  0.2819 -0.4109
    8TAL    C38 4530   4.822   0.294   8.249  0.0909 -0.7246 -0.7304
    8TAL    C39 4531   4.870   0.296   8.105 -0.6536 -1.0252 -0.3603
    8TAL    C40 4532   5.002   0.231   8.071 -0.2867  0.2821 -0.2905
    9HTM    C41 4533   4.938   0.695   8.615  0.6684 -0.2421  0.9462
    9HTM    C42 4534   5.047   0.620   8.584  0.7608 -0.1691  1.0908
    9HTM    C43 4535   5.151   0.694   8.517  0.4215 -0.2974  0.4029
    9HTM    C44 4536   5.121   0.825   8.497  0.0704 -0.4683 -0.2661
    9HTM     S5 4537   4.958   0.867   8.562  0.1416 -0.4804 -0.0780
   10TAL    C45 4538   5.286   0.646   8.456  0.8563 -0.4847 -0.0764
   10TAL    C46 4539   5.390   0.615   8.554  0.4854 -0.4955  0.5198
   10TAL    C47 4540   5.526   0.549   8.501  0.7394  1.4802 -1.0514
   10TAL    C48 4541   5.599   0.618   8.394  0.4406  0.5286  0.0745
   10TAL    C49 4542   5.680   0.526   8.302 -0.4661 -0.9509  0.2076
   10TAL    C50 4543   5.761   0.620   8.200  0.2169 -0.1858  0.4048
   11HTM    C51 4544   5.194   0.944   8.444  0.1960  0.3564 -0.1508
   11HTM    C52 4545   5.300   1.014   8.494  0.1235  0.5405 -0.2542
   11HTM    C53 4546   5.339   1.126   8.412 -0.0933  0.5549 -0.3381
   11HTM    C54 4547   5.263   1.142   8.300 -0.1863  0.3818 -0.2992
   11HTM     S6 4548   5.135   1.015   8.289 -0.0056  0.1856 -0.1519
   12TAL    C55 4549   5.472   1.184   8.447 -0.7976 -0.2754 -0.1054
   12TAL    C56 4550   5.574   1.190   8.330 -0.4672  0.2515 -1.1712
   12TAL    C57 4551   5.670   1.075   8.316  0.1738 -0.0733 -0.0754
   12TAL    C58 4552   5.755   1.075   8.192 -0.1859 -1.1912 -0.8302
   12TAL    C59 4553   5.682   1.037   8.071 -0.0291 -0.8744  0.9748
   12TAL    C60 4554   5.597   0.909   8.059 -0.3590  0.3914  0.2673
   13HTM    C61 4555   5.263   1.231   8.185  0.2112 -0.4022 -0.4851
   13HTM    C62 4556   5.355   1.322   8.144  0.3262 -0.5228 -0.4945
   13HTM    C63 4557   5.326   1.380   8.016  0.2961 -0.3549 -0.4120
   13HTM    C64 4558   5.211   1.334   7.959  0.1583 -0.1063 -0.3395
   13HTM     S7 4559   5.130   1.211   8.064  0.0550 -0.0645 -0.3703
   14TAL    C65 4560   5.422   1.470   7.938 -0.1901 -0.3654  0.0537
   14TAL    C66 4561   5.558   1.510   7.994 -1.0886  0.6622  0.4503
   14TAL    C67 4562   5.666   1.398   7.977  0.0813 -0.4906 -0.0559
   14TAL    C68 4563   5.806   1.422   8.035 -0.0153  0.0919  0.3275
   14TAL    C69 4564   5.875   1.497   7.921 -0.5011  0.5062  0.6204
   14TAL    C70 4565   6.007   1.554   7.948 -0.6124 -0.7404 -0.7059
   15HTM    C71 4566   5.149   1.365   7.832  0.5648  0.4790 -0.1812
   15HTM    C72 4567   5.201   1.336   7.709  0.6757  0.7387 -0.1974
   15HTM    C73 4568   5.127   1.394   7.600  0.4938  0.5730 -0.1630
   15HTM    C74 4569   5.019   1.467   7.639  0.2445  0.1869 -0.1205
   15HTM     S8 4570   5.002   1.469   7.818  0.2198  0.0013 -0.1205
   16TAL    C75 4571   5.182   1.349   7.465  0.9045  0.9293 -1.0650
   16TAL    C76 4572   5.133   1.212   7.409 -0.0476 -0.2209  0.4795
   16TAL    C77 4573   5.179   1.197   7.269  0.4574  0.9797  0.1335
   16TAL    C78 4574   5.105   1.076   7.216  0.8148  0.4049  0.1332
   16TAL    C79 4575   5.162   0.988   7.100  0.4005 -0.0140  0.6807
   16TAL    C80 4576   5.116   0.847   7.115  0.5830 -0.4017  0.4239
   17HTM    C81 4577   4.916   1.515   7.557  0.1977 -0.0039  0.1512
   17HTM    C82 4578   4.871   1.467   7.438  0.2308 -0.0705  0.1656
   17HTM    C83 4579   4.766   1.546   7.379  0.1813 -0.1557  0.1383
   17HTM    C84 4580   4.731   1.655   7.453  0.1104 -0.1540  0.1031
   17HTM     S9 4581   4.829   1.666   7.605  0.1007 -0.0438  0.1016
   18TAL    C85 4582   4.710   1.504   7.244 -0.8007 -0.3612  0.7409
   18TAL    C86 4583   4.734   1.611   7.129 -0.9972 -0.0234  0.3376
   18TAL    C87 4584   4.867   1.619   7.077  0.5232  0.1291 -0.9106
   18TAL    C88 4585   4.875   1.696   6.950 -0.1880 -0.1482 -0.3199
   18TAL    C89 4586   5.022   1.710   6.917 -0.8172 -0.5642 -0.2906
   18TAL    C90 4587   5.024   1.744   6.770 -1.0158  0.0351 -0.0101
   19HTM    C91 4588   4.623   1.748   7.447  0.3341 -0.0517  0.2893
   19HTM    C92 4589   4.491   1.727   7.421  0.3588 -0.1564  0.2447
   19HTM    C93 4590   4.407   1.840   7.454  0.2882 -0.1372  0.0029
   19HTM    C94 4591   4.475   1.946   7.505  0.2092 -0.0178 -0.1369
   19HTM    S10 4592   4.652   1.912   7.516  0.2181  0.0804  0.0271
   20TAL    C95 4593   4.256   1.835   7.437 -0.5906  0.0318 -0.1481
   20TAL    C96 4594   4.183   1.697   7.449  0.0398  0.5631 -1.5064
   20TAL    C97 4595   4.196   1.597   7.328 -0.1128  1.0756  0.0192
   20TAL    C98 4596   4.133   1.460   7.347  0.5886  0.2115  0.1700
   20TAL    C99 4597   4.188   1.373   7.455 -0.0953 -0.4670  0.6295
   20TAL   C100 4598   4.209   1.227   7.412 -0.4429  0.3216 -0.2802
   21HTM   C101 4599   4.428   2.079   7.529  0.2239 -0.1405  0.7491
   21HTM   C102 4600   4.499   2.193   7.506  0.5567 -0.2826  1.0415
   21HTM   C103 4601   4.430   2.314   7.543  0.5788 -0.1333  0.6100
   21HTM   C104 4602   4.306   2.291   7.595  0.2625  0.1227 -0.0117
   21HTM    S11 4603   4.267   2.115   7.601 -0.0901  0.1955 -0.1006
   22TAL   C105 4604   4.492   2.455   7.521 -0.1627  0.0900  0.1870
   22TAL   C106 4605   4.633   2.470   7.571  0.3504 -0.6012  1.2348
   22TAL   C107 4606   4.638   2.474   7.729  0.4768  0.4209 -0.1685
   22TAL   C108 4607   4.782   2.518   7.784  0.4939  0.5557 -0.0574
   22TAL   C109 4608   4.783   2.515   7.928 -0.4850  0.3928 -0.2405
   22TAL   C110 4609   4.843   2.640   7.998 -0.5481  0.2848 -0.5985
   23HTM   C111 4610   4.200   2.380   7.657  0.6405 -0.0951  0.3370
   23HTM   C112 4611   4.165   2.377   7.788  0.9629 -0.3235  0.4208
   23HTM   C113 4612   4.077   2.484   7.827  0.7693 -0.5939  0.7409
   23HTM   C114 4613   4.045   2.569   7.725  0.2994 -0.5717  0.9007
   23HTM    S12 4614   4.124   2.519   7.571  0.0630 -0.2047  0.6580
   24TAL   C115 4615   4.035   2.499   7.961 -0.1706 -0.2711 -0.0806
   24TAL   C116 4616   4.006   2.363   8.049 -0.8290 -1.5068 -0.5886
   24TAL   C117 4617   3.974   2.403   8.193  0.4246  0.9531  0.6416
   24TAL   C118 4618   3.934   2.284   8.281 -0.0389  0.9540 -0.2613
   24TAL   C119 4619   3.949   2.317   8.421 -0.0775 -0.4018 -0.3748
   24TAL   C120 4620   3.933   2.180   8.492 -0.3957 -0.6473 -0.1103
   25HTM   C121 4621   3.961   2.689   7.715  0.0987  0.2861  0.7840
   25HTM   C122 4622   3.872   2.734   7.807 -0.4804  0.1267  0.3134
   25HTM   C123 4623   3.815   2.862   7.776 -0.9062 -0.1875 -0.2223
   25HTM   C124 4624   3.860   2.915   7.659 -0.6517 -0.2675 -0.1602
   25HTM    S13 4625   3.980   2.807   7.579  0.1517  0.0501  0.5855
   26TAL   C125 4626   3.724   2.928   7.871 -0.1442  0.8413  0.1527
   26TAL   C126 4627   3.799   3.016   7.975  0.6213  0.6243  0.1406
   26TAL   C127 4628   3.693   3.124   8.022 -0.6996  0.1346 -0.0806
   26TAL   C128 4629   3.704   3.182   8.160  0.0380  0.3950  1.2611
   26TAL   C129 4630   3.663   3.327   8.170  0.5897  0.5751  0.3548
   26TAL   C130 4631   3.514   3.364   8.189  0.0977 -0.4922  0.5063
   27HTM   C131 4632   3.846   3.045   7.591  0.4314 -0.0475 -0.2294
   27HTM   C132 4633   3.771   3.151   7.632 -0.0883 -0.3268 -0.4478
   27HTM   C133 4634   3.785   3.268   7.550 -0.4221 -0.3247 -0.5058
   27HTM   C134 4635   3.872   3.252   7.446 -0.1569 -0.0437 -0.3317
   27HTM    S14 4636   3.942   3.086   7.444  0.5404  0.2421 -0.0790
   28TAL   C135 4637   3.714   3.406   7.573  0.9251  1.1519 -0.7052
   28TAL   C136 4638   3.564   3.407   7.595 -0.2642 -0.0766  0.2621
   28TAL   C137 4639   3.508   3.331   7.710  0.1127  0.2275  0.7031
   28TAL   C138 4640   3.351   3.327   7.704 -1.3030 -0.8977 -0.2988
   28TAL   C139 4641   3.283   3.465   7.742  0.2151  0.3484  0.4234
   28TAL   C140 4642   3.132   3.431   7.704 -0.0391 -0.0408 -0.2913
   29HTM   C141 4643   3.892   3.328   7.321  0.2691  0.5998  0.0069
   29HTM   C142 4644   3.798   3.362   7.228  0.5421  0.1497 -0.4439
   29HTM   C143 4645   3.846   3.455   7.128  0.8337 -0.3284 -0.7558
   29HTM   C144 4646   3.976   3.491   7.145  0.7832 -0.2428 -0.5427
   29HTM    S15 4647   4.049   3.411   7.289  0.3599  0.4537  0.0732
   30TAL   C145 4648   3.745   3.510   7.019  1.2225 -0.5526 -0.5657
   30TAL   C146 4649   3.612   3.437   7.002 -0.0372 -0.4490  0.7397
   30TAL   C147 4650   3.548   3.457   6.863 -0.7211 -0.5661 -0.5802
   30TAL   C148 4651   3.438   3.348   6.832 -0.9726  0.0556  0.4027
   30TAL   C149 4652   3.411   3.361   6.686  0.2933  0.1166  0.2588
   30TAL   C150 4653   3.261   3.339   6.647  0.2493  0.6751  0.1721
   31HTM   C151 4654   4.059   3.585   7.065  0.0481  0.0907  0.0021
   31HTM   C152 4655   4.014   3.658   6.959  0.3145  0.1014 -0.1049
   31HTM   C153 4656   4.116   3.737   6.896  0.5299 -0.0905 -0.0014
   31HTM   C154 4657   4.239   3.725   6.954  0.4279 -0.2477  0.1843
   31HTM    S16 4658   4.235   3.611   7.094  0.0487 -0.1648  0.2435
   32TAL   C155 4659   4.086   3.831   6.773  0.2563  0.9740 -1.2865
   32TAL   C156 4660   4.031   3.963   6.816  0.3982 -0.0816 -1.0732
   32TAL   C157 4661   3.993   4.057   6.705  0.1157  0.9444 -0.2644
   32TAL   C158 4662   3.880   4.012   6.600 -0.0668  0.3410 -0.8989
   32TAL   C159 4663   3.927   3.935   6.481 -0.4316  0.1560 -0.3040
   32TAL   C160 4664   3.810   3.928   6.394  0.9753  0.2984 -0.0961
   33HTM   C161 4665   4.367   3.769   6.911  0.3558 -0.2918 -0.2438
   33HTM   C162 4666   4.479   3.708   6.959  0.6746 -0.1189 -0.7554
   33HTM   C163 4667   4.601   3.776   6.924  0.3881  0.2769 -1.0059
   33HTM   C164 4668   4.582   3.888   6.849 -0.1491  0.4057 -0.6851
   33HTM    S17 4669   4.407   3.918   6.817 -0.3363  0.0343 -0.0370
   34TAL   C165 4670   4.732   3.729   6.993 -0.0034 -0.3272  0.3010
   34TAL   C166 4671   4.777   3.587   6.979 -0.8391  0.8278  0.4054
   34TAL   C167 4672   4.895   3.529   7.062 -0.2479 -0.4417 -0.0265
   34TAL   C168 4673   4.879   3.379   7.081 -0.2491 -0.8510 -0.8514
   34TAL   C169 4674   4.980   3.324   7.182  0.2957  0.0137  1.0538
   34TAL   C170 4675   4.964   3.171   7.202  0.1143  0.5227  0.5521
   35HTM   C171 4676   4.683   3.940   6.766  0.3106  0.2088  0.0835
   35HTM   C172 4677   4.726   3.893   6.646  0.7292 -0.7550  0.5950
   35HTM   C173 4678   4.854   3.946   6.606  1.1246 -1.4890  0.8439
   35HTM   C174 4679   4.908   4.034   6.695  1.0074 -1.0850  0.5221
   35HTM    S18 4680   4.800   4.057   6.838  0.3838  0.2647 -0.1252
   36TAL   C175 4681   4.925   3.881   6.490 -0.3590 -0.0305  0.0011
   36TAL   C176 4682   4.872   3.930   6.351  0.4685 -0.7385 -0.3131
   36TAL   C177 4683   4.925   3.865   6.218  0.4231 -0.4598 -0.2495
   36TAL   C178 4684   5.072   3.873   6.185  1.0189  0.4281 -0.1409
   36TAL   C179 4685   5.111   3.943   6.057 -0.3224  0.5822 -0.3739
   36TAL   C180 4686   5.257   3.987   6.068 -0.9356 -0.1954  0.8362
   37HTM   C181 4687   5.016   4.125   6.681  0.5798 -0.0286  0.5100
   37HTM   C182 4688   5.029   4.251   6.733  0.6317  0.0489  0.3084
   37HTM   C183 4689   5.152   4.316   6.695  0.4030  0.1575 -0.2618
   37HTM   C184 4690   5.232   4.241   6.615  0.1771  0.1631 -0.4950
   37HTM    S19 4691   5.158   4.080   6.580  0.2359  0.0300 -0.0088
   38TAL   C185 4692   5.188   4.459   6.731 -0.6290  0.0278 -0.0223
   38TAL   C186 4693   5.080   4.559   6.802 -0.3400 -0.1267 -0.8570
   38TAL   C187 4694   5.090   4.709   6.770 -0.4758 -0.2459  0.6578
   38TAL   C188 4695   5.094   4.758   6.625  0.4762 -1.4429 -1.0929
   38TAL   C189 4696   4.950   4.808   6.583 -0.0710 -0.7371 -1.5003
   38TAL   C190 4697   4.948   4.906   6.468 -0.9194  0.5655  0.2830
   39HTM   C191 4698   5.363   4.266   6.567 -0.4769 -0.1498 -0.0626
   39HTM   C192 4699   5.403   4.239   6.439 -0.4923 -0.5635  0.0176
   39HTM   C193 4700   5.543   4.265   6.415 -0.5083 -0.5831 -0.0998
   39HTM   C194 4701   5.609   4.312   6.525 -0.5054 -0.1842 -0.2696
   39HTM    S20 4702   5.500   4.327   6.667 -0.4819  0.2504 -0.2945
   40TAL   C195 4703   5.620   4.241   6.272 -0.9727 -0.0815 -0.4322
   40TAL   C196 4704   5.646   4.377   6.189  0.3477 -0.6669 -0.0831
   40TAL   C197 4705   5.750   4.361   6.072 -0.0356  0.4841  0.1228
   40TAL   C198 4706   5.708   4.278   5.948 -0.5338 -0.5472  0.2921
   40TAL   C199 4707   5.580   4.333   5.879 -0.9018 -0.5043 -0.0040
   40TAL   C200 4708   5.576   4.480   5.837 -0.5077 -0.4461 -0.9363
   41HTM   C201 4709   5.744   4.353   6.537 -0.7624  0.3472 -0.0999
   41HTM   C202 4710   5.858   4.280   6.526 -1.0102  0.0160 -0.5299
   41HTM   C203 4711   5.977   4.352   6.562 -0.6890 -0.4076 -0.7149
   41HTM   C204 4712   5.953   4.481   6.602 -0.1963 -0.3995 -0.4259
   41HTM    S21 4713   5.777   4.520   6.596 -0.0988  0.1479  0.1065
   42TAL   C205 4714   6.110   4.291   6.576 -0.8153  1.3124  0.2904
   42TAL   C206 4715   6.123   4.136   6.536 -0.4483  0.2285  0.2036
   42TAL   C207 4716   6.259   4.094   6.484  0.2474 -0.0848 -0.2918
   42TAL   C208 4717   6.293   3.944   6.493 -0.1155 -0.0227  0.0071
   42TAL   C209 4718   6.439   3.898   6.498  0.4330 -0.0211  0.4336
   42TAL   C210 4719   6.533   3.877   6.386 -0.2906  0.4016  0.0441
   43HTM   C211 4720   6.047   4.587   6.636  0.3465  0.0812 -0.6931
   43HTM   C212 4721   6.153   4.582   6.723  0.7712 -0.3577 -1.2143
   43HTM   C213 4722   6.227   4.705   6.730  0.6901 -0.3265 -0.8305
   43HTM   C214 4723   6.179   4.803   6.648  0.2033  0.1364 -0.0170
   43HTM    S22 4724   6.035   4.748   6.556 -0.1932  0.5720  0.3308
   44TAL   C215 4725   6.331   4.736   6.826  0.3175 -0.1338 -1.3025
   44TAL   C216 4726   6.469   4.704   6.785 -0.9505  0.1725 -0.0502
   44TAL   C217 4727   6.558   4.697   6.903  0.3196 -0.9354  0.0632
   44TAL   C218 4728   6.539   4.586   7.011  1.2613  0.1353 -0.6224
   44TAL   C219 4729   6.550   4.448   6.956  0.1143 -0.9626 -0.5350
   44TAL   C220 4730   6.598   4.366   7.076  0.5288 -0.5061  0.2217
   45HTM   C221 4731   6.218   4.937   6.616 -0.5830 -0.2923 -0.7850
   45HTM   C222 4732   6.321   5.005   6.557 -0.7007 -0.2668 -0.9657
   45HTM   C223 4733   6.308   5.148   6.564 -0.5200 -0.2661 -0.5701
   45HTM   C224 4734   6.194   5.190   6.627 -0.2644 -0.2909 -0.0876
   45HTM    S23 4735   6.095   5.050   6.684 -0.2321 -0.3173 -0.0959
   46TAL   C225 4736   6.406   5.253   6.504  0.2586  0.3914 -0.3082
   46TAL   C226 4737   6.528   5.320   6.583  0.5249  0.4594 -0.1042
   46TAL   C227 4738   6.545   5.461   6.521 -0.7758 -0.0573  0.5062
   46TAL   C228 4739   6.583   5.469   6.371 -0.0242 -0.5807  0.5701
   46TAL   C229 4740   6.536   5.612   6.340 -0.8857  0.2198  0.1021
   46TAL   C230 4741   6.639   5.682   6.250 -0.0730 -0.6765  0.4697
   47HTM   C231 4742   6.140   5.319   6.660  0.0192 -0.1291  0.6942
   47HTM   C232 4743   6.141   5.434   6.586  0.0008 -0.2195  0.5507
   47HTM   C233 4744   6.081   5.546   6.654 -0.1459 -0.1789  0.3541
   47HTM   C234 4745   6.034   5.517   6.778 -0.2394 -0.0573  0.3477
   47HTM    S24 4746   6.062   5.344   6.820 -0.1489  0.0157  0.5913
   48TAL   C235 4747   6.086   5.690   6.590 -0.3029  0.7374 -1.2439
   48TAL   C236 4748   5.994   5.795   6.644  0.7684  0.3943 -0.0884
   48TAL   C237 4749   6.021   5.939   6.586 -0.2776 -0.3016  0.7157
   48TAL   C238 4750   5.933   6.061   6.617 -0.7569 -0.5629 -0.5239
   48TAL   C239 4751   6.019   6.188   6.634 -0.6241 -0.0187  0.3474
   48TAL   C240 4752   5.926   6.307   6.602 -0.5235 -0.1568 -0.3990
    1HTM     C1 4753   4.314   0.468   8.050 -0.0834 -0.7361  0.2942
    1HTM     C2 4754   4.330   0.602   8.069  0.3537 -0.8621  0.8721
    1HTM     C3 4755   4.431   0.661   7.985  0.4025 -0.7925  0.9788
    1HTM     C4 4756   4.492   0.572   7.902  0.0025 -0.6134  0.4822
    1HTM     S1 4757   4.426   0.405   7.923 -0.4704 -0.5180 -0.1639
    2TAL     C5 4758   4.462   0.811   7.974 -1.0428  0.1862  0.6125
    2TAL     C6 4759   4.383   0.903   7.876 -0.1475  0.5611  0.1936
    2TAL     C7 4760   4.230   0.921   7.889 -0.9592 -0.2698 -0.7280
    2TAL     C8 4761   4.144   0.910   7.773 -0.0475 -0.1419  0.1234
    2TAL     C9 4762   4.005   0.906   7.837 -0.8670  0.7472 -1.0988
    2TAL    C10 4763   3.909   0.894   7.728  0.6128 -0.9116  1.3991
    3HTM    C11 4764   4.609   0.586   7.809  0.2086 -0.2512 -0.5774
    3HTM    C12 4765   4.633   0.542   7.682  0.6636  0.3021 -0.6907
    3HTM    C13 4766   4.767   0.567   7.637  0.7751  0.6756 -0.1721
    3HTM    C14 4767   4.845   0.631   7.729  0.4052  0.4071  0.3364
    3HTM     S2 4768   4.755   0.663   7.882 -0.1168 -0.3443  0.1988
    4TAL    C15 4769   4.821   0.509   7.511 -0.0714 -1.0077  1.0251
    4TAL    C16 4770   4.896   0.380   7.528 -0.0902 -0.1761  0.2097
    4TAL    C17 4771   4.811   0.261   7.575  0.1770 -1.5512 -0.1095
    4TAL    C18 4772   4.890   0.140   7.599 -0.1439 -0.1935  0.1005
    4TAL    C19 4773   4.792   0.073   7.708 -0.4054  0.1127 -0.4977
    4TAL    C20 4774   4.815  -0.073   7.737  1.0223  0.3579  0.2212
    5HTM    C21 4775   4.988   0.668   7.715 -0.1526  0.7374  0.5741
    5HTM    C22 4776   5.099   0.627   7.783 -0.3343  0.8274  0.9273
    5HTM    C23 4777   5.222   0.677   7.728 -0.1630  0.4669  0.9789
    5HTM    C24 4778   5.206   0.755   7.618  0.1493  0.1021  0.6650
    5HTM     S3 4779   5.031   0.773   7.575  0.2518  0.1861  0.2769
    6TAL    C25 4780   5.360   0.644   7.784 -0.4898 -0.5299  0.4479
    6TAL    C26 4781   5.364   0.506   7.851  0.1771  0.2286 -0.3048
    6TAL    C27 4782   5.494   0.491   7.923 -0.8637  0.7834 -0.1213
    6TAL    C28 4783   5.517   0.355   7.998 -0.6285 -0.4077 -0.2649
    6TAL    C29 4784   5.418   0.318   8.110 -1.1413  0.5840 -0.3150
    6TAL    C30 4785   5.438   0.174   8.171  0.3777 -0.0604  0.6251
    7HTM    C31 4786   5.307   0.813   7.530 -0.0083  0.5241 -0.2294
    7HTM    C32 4787   5.346   0.943   7.526 -0.1429  0.5558 -0.5794
    7HTM    C33 4788   5.451   0.969   7.431 -0.2757  0.4403 -0.7592
    7HTM    C34 4789   5.492   0.858   7.363 -0.2424  0.3206 -0.5468
    7HTM     S4 4790   5.400   0.712   7.414 -0.0391  0.3445 -0.0991
    8TAL    C35 4791   5.519   1.104   7.459  0.5928  0.0724  0.4086
    8TAL    C36 4792   5.602   1.181   7.371  0.0828 -0.1371  1.0283
    8TAL    C37 4793   5.544   1.202   7.229  0.1818 -1.0255  0.0735
    8TAL    C38 4794   5.646   1.263   7.143  1.6360 -0.6132 -0.8405
    8TAL    C39 4795   5.596   1.374   7.061 -0.2907  0.2936  0.0728
    8TAL    C40 4796   5.462   1.358   6.978  0.2457  0.6245  0.6244
    9HTM    C41 4797   5.585   0.855   7.260 -0.0964  0.0496  0.3181
    9HTM    C42 4798   5.564   0.882   7.128 -0.3215  0.3022  0.4065
    9HTM    C43 4799   5.682   0.874   7.047 -0.4283  0.6154  0.2131
    9HTM    C44 4800   5.794   0.839   7.116 -0.2848  0.6016 -0.0229
    9HTM     S5 4801   5.759   0.815   7.292 -0.0013  0.1888 -0.0189
   10TAL    C45 4802   5.689   0.898   6.890  0.6268 -0.2872  0.7942
   10TAL    C46 4803   5.554   0.945   6.813  0.6052  0.4331 -0.2670
   10TAL    C47 4804   5.583   1.025   6.694  0.4774 -0.4986 -1.0055
   10TAL    C48 4805   5.474   1.095   6.620 -0.4184  0.3528 -0.4625
   10TAL    C49 4806   5.416   0.997   6.512 -0.2257 -0.0483  0.5594
   10TAL    C50 4807   5.300   1.034   6.418 -0.5730  0.5403 -1.1470
   11HTM    C51 4808   5.930   0.833   7.075  0.4734 -0.3503  0.6510
   11HTM    C52 4809   5.999   0.716   7.065  0.8204 -0.0965 -0.1644
   11HTM    C53 4810   6.140   0.733   7.044  0.6698  0.4478 -0.7937
   11HTM    C54 4811   6.179   0.863   7.037  0.2081  0.6090 -0.4580
   11HTM     S6 4812   6.040   0.976   7.057 -0.0746  0.0818  0.6878
   12TAL    C55 4813   6.237   0.615   7.055 -0.4552  0.1634 -0.3353
   12TAL    C56 4814   6.198   0.495   7.150  0.0389 -0.2829  0.5282
   12TAL    C57 4815   6.299   0.383   7.164  0.1836 -0.8644 -1.0086
   12TAL    C58 4816   6.246   0.277   7.255 -0.1921  0.2316  0.2371
   12TAL    C59 4817   6.246   0.127   7.200  0.4648 -0.3483 -0.2705
   12TAL    C60 4818   6.356   0.075   7.104 -0.6781  0.6927 -0.1184
   13HTM    C61 4819   6.299   0.928   7.010 -0.1243 -0.3258 -0.0825
   13HTM    C62 4820   6.329   1.033   6.928 -0.1475 -0.3978 -0.1817
   13HTM    C63 4821   6.469   1.066   6.925 -0.2092 -0.1105  0.0944
   13HTM    C64 4822   6.546   0.988   7.006 -0.2334  0.1806  0.4041
   13HTM     S7 4823   6.447   0.864   7.092 -0.1794  0.1139  0.3709
   14TAL    C65 4824   6.512   1.201   6.856  0.6309 -0.1893 -0.5309
   14TAL    C66 4825   6.436   1.326   6.920  0.7017  0.7707  0.5176
   14TAL    C67 4826   6.471   1.440   6.835  0.6630  0.9819  0.0783
   14TAL    C68 4827   6.376   1.563   6.834  0.3153  1.1488 -0.2416
   14TAL    C69 4828   6.420   1.677   6.749 -1.0905 -0.0904 -0.0696
   14TAL    C70 4829   6.571   1.732   6.751  0.0466 -0.3726  1.1992
   15HTM    C71 4830   6.689   0.977   7.036  0.2648 -0.4802  0.2218
   15HTM    C72 4831   6.757   0.870   7.086  0.4939 -0.6864 -0.5087
   15HTM    C73 4832   6.900   0.890   7.093  0.5265 -0.7079 -1.0405
   15HTM    C74 4833   6.940   1.012   7.048  0.3220 -0.5181 -0.7154
   15HTM     S8 4834   6.801   1.112   6.994  0.0705 -0.2957  0.2954
   16TAL    C75 4835   6.995   0.787   7.147 -1.0159 -0.0453  0.5206
   16TAL    C76 4836   6.940   0.667   7.223 -0.9284 -0.5368  0.1079
   16TAL    C77 4837   6.875   0.568   7.143  0.5085  1.4716  0.1024
   16TAL    C78 4838   6.816   0.456   7.222 -0.1103  0.3381 -1.8071
   16TAL    C79 4839   6.709   0.366   7.161  0.1583  0.1212 -0.0453
   16TAL    C80 4840   6.686   0.263   7.265 -0.4359  0.9262  0.1694
   17HTM    C81 4841   7.069   1.072   7.022 -0.0744 -0.3481  0.0983
   17HTM    C82 4842   7.096   1.172   6.933 -0.4826 -0.0768  0.2737
   17HTM    C83 4843   7.236   1.203   6.922 -0.5600  0.1624 -0.0538
   17HTM    C84 4844   7.316   1.127   7.002 -0.2110  0.0735 -0.4790
   17HTM     S9 4845   7.220   1.009   7.099  0.2462 -0.3224 -0.4990
   18TAL    C85 4846   7.267   1.332   6.838 -0.3992  0.6052  0.3994
   18TAL    C86 4847   7.174   1.454   6.854 -0.1727 -0.1985 -0.5759
   18TAL    C87 4848   7.224   1.583   6.799  0.0202 -0.8574  1.0839
   18TAL    C88 4849   7.139   1.701   6.844 -0.4360 -0.1996  0.6189
   18TAL    C89 4850   7.180   1.813   6.756 -0.1355  0.2816 -0.2000
   18TAL    C90 4851   7.058   1.885   6.704 -0.5736  0.1902 -0.2581
   19HTM    C91 4852   7.454   1.129   7.038 -0.0525 -0.4149 -0.0676
   19HTM    C92 4853   7.508   1.074   7.150  0.3248 -1.0794 -0.5643
   19HTM    C93 4854   7.642   1.120   7.179  0.3750 -1.1573 -0.6694
   19HTM    C94 4855   7.689   1.210   7.090  0.0360 -0.5523 -0.2529
   19HTM    S10 4856   7.569   1.245   6.960 -0.3761  0.1685  0.3088
   20TAL    C95 4857   7.727   1.073   7.301  0.2318  0.1362 -1.0977
   20TAL    C96 4858   7.682   1.150   7.436 -0.2941 -0.4439  1.0384
   20TAL    C97 4859   7.800   1.209   7.520  0.8210  0.5462  0.8627
   20TAL    C98 4860   7.772   1.224   7.671  1.0420  0.2928  0.0921
   20TAL    C99 4861   7.797   1.093   7.748 -0.4820 -0.5689  0.9606
   20TAL   C100 4862   7.747   1.116   7.887  0.0616 -0.0958  0.0072
   21HTM   C101 4863   7.802   1.298   7.080 -0.4132  0.0902  0.1704
   21HTM   C102 4864   7.823   1.391   6.983 -0.6991  0.1113  0.1280
   21HTM   C103 4865   7.943   1.469   7.001 -0.7371  0.2286 -0.1115
   21HTM   C104 4866   8.014   1.435   7.113 -0.4802  0.2969 -0.2520
   21HTM    S11 4867   7.934   1.302   7.204 -0.1679  0.2178 -0.0912
   22TAL   C105 4868   7.968   1.590   6.904 -0.7350  0.0507  0.1773
   22TAL   C106 4869   7.854   1.683   6.868  0.1821  0.2382  0.2008
   22TAL   C107 4870   7.854   1.725   6.714  0.0117  0.0804  0.3852
   22TAL   C108 4871   7.752   1.824   6.662  0.7657  0.6573 -0.3279
   22TAL   C109 4872   7.719   1.951   6.744  1.5491 -0.5993 -0.5920
   22TAL   C110 4873   7.611   2.039   6.680  0.1802 -0.3996 -0.2606
   23HTM   C111 4874   8.138   1.474   7.169 -0.2275 -0.2907  0.3710
   23HTM   C112 4875   8.244   1.527   7.101 -0.3736 -0.3841  0.0665
   23HTM   C113 4876   8.366   1.532   7.178 -0.2196 -0.2220 -0.1845
   23HTM   C114 4877   8.353   1.483   7.305  0.0439 -0.0050 -0.0715
   23HTM    S12 4878   8.184   1.426   7.337  0.1187  0.0116  0.3641
   24TAL   C115 4879   8.492   1.600   7.118  0.6227  0.7025 -0.5518
   24TAL   C116 4880   8.475   1.720   7.047 -1.7446 -0.9142  0.2298
   24TAL   C117 4881   8.617   1.758   6.999  0.2521 -0.3701 -0.2588
   24TAL   C118 4882   8.595   1.894   6.939 -0.5209 -0.4126  0.0032
   24TAL   C119 4883   8.705   1.929   6.840  0.1489 -0.8275 -1.0458
   24TAL   C120 4884   8.710   2.073   6.799 -1.0105 -0.6394  0.4761
   25HTM   C121 4885   8.455   1.470   7.404 -0.7786  0.2339 -0.4022
   25HTM   C122 4886   8.578   1.417   7.378 -0.8545  0.2482 -0.8128
   25HTM   C123 4887   8.663   1.410   7.494 -0.5681 -0.0060 -1.0357
   25HTM   C124 4888   8.605   1.458   7.608 -0.2739 -0.2141 -0.7951
   25HTM    S13 4889   8.437   1.516   7.577 -0.3362 -0.1044 -0.2641
   26TAL   C125 4890   8.812   1.369   7.484 -0.1067 -0.0519 -0.2363
   26TAL   C126 4891   8.899   1.492   7.450 -1.0233  0.5187  0.2067
   26TAL   C127 4892   9.047   1.472   7.493 -0.4153 -0.2905  0.9335
   26TAL   C128 4893   9.147   1.592   7.462 -0.4157  0.4814  0.1098
   26TAL   C129 4894   9.301   1.567   7.476  0.7725 -0.1510 -1.0900
   26TAL   C130 4895   9.380   1.688   7.432 -1.4517 -0.4347  0.8092
   27HTM   C131 4896   8.648   1.464   7.749 -0.9739 -0.7563  0.3387
   27HTM   C132 4897   8.623   1.557   7.846 -1.5870 -1.0080  0.4307
   27HTM   C133 4898   8.692   1.530   7.970 -1.3144 -0.6133  0.3656
   27HTM   C134 4899   8.770   1.418   7.966 -0.4933 -0.0607  0.2246
   27HTM    S14 4900   8.761   1.336   7.806  0.0031  0.0047  0.1619
   28TAL   C135 4901   8.713   1.633   8.086  0.0296  0.6661  0.4742
   28TAL   C136 4902   8.700   1.783   8.070 -0.5503 -0.0939  0.3629
   28TAL   C137 4903   8.611   1.865   7.979 -0.5057 -0.2934 -0.0304
   28TAL   C138 4904   8.463   1.906   7.996  0.5329  0.3662 -0.4736
   28TAL   C139 4905   8.354   1.804   8.033 -0.3304 -0.2999 -0.8947
   28TAL   C140 4906   8.362   1.744   8.169  0.1842  0.3883 -0.4423
   29HTM   C141 4907   8.858   1.367   8.063 -0.5713 -1.1956 -0.6782
   29HTM   C142 4908   8.834   1.289   8.172 -0.3940 -1.7219 -1.0066
   29HTM   C143 4909   8.952   1.257   8.249 -0.3894 -1.3267 -0.8461
   29HTM   C144 4910   9.066   1.311   8.198 -0.5632 -0.4990 -0.3958
   29HTM    S15 4911   9.034   1.407   8.048 -0.7475 -0.1520 -0.1368
   30TAL   C145 4912   8.928   1.170   8.377  1.3248 -1.1740 -0.2161
   30TAL   C146 4913   9.025   1.095   8.455  0.0263 -1.0272 -0.2423
   30TAL   C147 4914   9.085   0.958   8.422  0.3069 -0.3425  0.1246
   30TAL   C148 4915   9.010   0.875   8.321  0.4576 -0.0439 -0.7296
   30TAL   C149 4916   9.095   0.747   8.298 -0.7509  0.4109  0.1843
   30TAL   C150 4917   9.083   0.683   8.162 -0.0694  0.9421 -0.2654
   31HTM   C151 4918   9.194   1.320   8.260  0.5264  0.1578  0.3117
   31HTM   C152 4919   9.234   1.415   8.350  0.5410  0.1186  0.3474
   31HTM   C153 4920   9.372   1.405   8.388  0.5710  0.1580  0.2503
   31HTM   C154 4921   9.438   1.302   8.327  0.5791  0.2270  0.1410
   31HTM    S16 4922   9.330   1.210   8.217  0.5495  0.2479  0.1522
   32TAL   C155 4923   9.438   1.496   8.492 -0.0244  0.7609 -0.1226
   32TAL   C156 4924   9.417   1.465   8.641 -0.8957  1.3394  0.4413
   32TAL   C157 4925   9.275   1.432   8.688 -0.5244 -0.2799  0.3769
   32TAL   C158 4926   9.253   1.395   8.830 -0.0442 -0.0174 -0.4662
   32TAL   C159 4927   9.115   1.343   8.868  1.0126  0.5692  0.0946
   32TAL   C160 4928   9.107   1.254   8.987  0.9449  1.2843 -0.6650
   33HTM   C161 4929   9.575   1.266   8.336  0.6031  0.4518 -0.0617
   33HTM   C162 4930   9.688   1.342   8.336  0.7234  0.2832  0.4854
   33HTM   C163 4931   9.810   1.265   8.338  0.6032  0.0957  0.7632
   33HTM   C164 4932   9.790   1.130   8.339  0.3914  0.1214  0.4275
   33HTM    S17 4933   9.614   1.090   8.338  0.3267  0.3864 -0.2709
   34TAL   C165 4934   9.947   1.333   8.356 -0.6368  0.3902 -0.5635
   34TAL   C166 4935   9.959   1.411   8.226  0.4304  0.1028  0.2902
   34TAL   C167 4936  10.084   1.488   8.209  0.1650  0.1271 -0.0339
   34TAL   C168 4937  10.111   1.527   8.061  0.9165  0.0814 -0.2688
   34TAL   C169 4938  10.220   1.620   8.023 -0.0939 -0.2004 -0.1625
   34TAL   C170 4939  10.212   1.701   7.891  1.0306 -0.0535 -0.3729
   35HTM   C171 4940   9.871   1.011   8.315 -0.0009  0.1404 -0.7677
   35HTM   C172 4941   9.955   0.957   8.407  0.3218  0.5279 -0.8295
   35HTM   C173 4942   9.989   0.819   8.381  0.5266  0.5288 -0.5734
   35HTM   C174 4943   9.931   0.768   8.269  0.3601  0.1420 -0.3167
   35HTM    S18 4944   9.828   0.891   8.186 -0.0717 -0.2566 -0.3788
   36TAL   C175 4945  10.072   0.737   8.489  0.5355 -0.4249  0.2474
   36TAL   C176 4946  10.216   0.768   8.491  0.1992 -0.2070 -0.2130
   36TAL   C177 4947  10.285   0.704   8.610  0.7599  0.6586  1.0550
   36TAL   C178 4948  10.433   0.743   8.606 -0.0617 -0.0178 -0.6891
   36TAL   C179 4949  10.511   0.648   8.693 -0.1747 -0.7794  0.0108
   36TAL   C180 4950  10.641   0.721   8.701  0.0563 -0.8909  0.2199
   37HTM   C181 4951   9.944   0.638   8.206 -0.3125 -0.2575  0.3196
   37HTM   C182 4952   9.832   0.574   8.163 -0.4802 -0.3935  0.9389
   37HTM   C183 4953   9.855   0.436   8.127 -0.5535 -0.4204  0.9956
   37HTM   C184 4954   9.984   0.396   8.143 -0.4416 -0.3048  0.4193
   37HTM    S19 4955  10.088   0.529   8.205 -0.2334 -0.1519 -0.2444
   38TAL   C185 4956   9.737   0.355   8.054 -0.9386 -0.0446 -0.1471
   38TAL   C186 4957   9.754   0.354   7.892 -0.3311  0.3034 -0.8342
   38TAL   C187 4958   9.644   0.269   7.831 -0.5180  0.1305 -0.8326
   38TAL   C188 4959   9.630   0.253   7.683 -0.2189  0.0297 -0.2680
   38TAL   C189 4960   9.738   0.155   7.613 -0.4573 -0.3410 -0.7011
   38TAL   C190 4961   9.757   0.167   7.462  1.0703  0.3843 -0.1235
   39HTM   C191 4962  10.033   0.259   8.149  0.5734 -0.6265 -0.3963
   39HTM   C192 4963  10.140   0.209   8.216  0.9789 -0.8932 -1.2124
   39HTM   C193 4964  10.162   0.068   8.196  0.6716 -0.8813 -1.6370
   39HTM   C194 4965  10.071   0.010   8.112  0.0317 -0.6056 -1.1449
   39HTM    S20 4966   9.950   0.130   8.053 -0.2345 -0.3375 -0.0989
   40TAL   C195 4967  10.296   0.023   8.251 -0.4818 -0.2284 -0.4907
   40TAL   C196 4968  10.395  -0.010   8.138  0.0458  0.7624  0.0219
   40TAL   C197 4969  10.535  -0.015   8.192 -0.9080 -0.5620  0.7225
   40TAL   C198 4970  10.579  -0.132   8.283 -1.5123 -0.3066 -0.7965
   40TAL   C199 4971  10.733  -0.146   8.303 -0.6471  0.4192 -0.6755
   40TAL   C200 4972  10.812  -0.215   8.192 -0.4752 -0.3925 -0.0144
   41HTM   C201 4973  10.044  -0.133   8.091  0.0214 -0.0310 -0.1545
   41HTM   C202 4974   9.988  -0.196   7.984 -0.0801 -0.1733 -0.0190
   41HTM   C203 4975   9.993  -0.339   7.992 -0.1734 -0.1650  0.2192
   41HTM   C204 4976  10.053  -0.386   8.105 -0.1430 -0.0164  0.2653
   41HTM    S21 4977  10.108  -0.252   8.211  0.0070  0.1257  0.0094
   42TAL   C205 4978   9.955  -0.419   7.868 -0.0803 -0.2389  0.0222
   42TAL   C206 4979   9.829  -0.367   7.793 -0.0442  0.1003  0.4490
   42TAL   C207 4980   9.840  -0.371   7.644 -0.0036  0.1309 -0.2072
   42TAL   C208 4981   9.721  -0.309   7.572  0.2502 -1.0484 -0.8336
   42TAL   C209 4982   9.728  -0.332   7.409  0.6792  0.1179 -0.7474
   42TAL   C210 4983   9.608  -0.273   7.337  0.6462  0.0367 -0.4279
   43HTM   C211 4984  10.076  -0.526   8.147  0.5673  0.2175 -0.2459
   43HTM   C212 4985  10.088  -0.563   8.278  0.3579  0.5182 -0.1409
   43HTM   C213 4986  10.108  -0.704   8.298  0.0424  0.5234  0.2327
   43HTM   C214 4987  10.110  -0.776   8.182  0.0112  0.2269  0.4130
   43HTM    S22 4988  10.088  -0.669   8.038  0.3808 -0.0846  0.1224
   44TAL   C215 4989  10.149  -0.763   8.430 -0.1191 -1.0583  0.2212
   44TAL   C216 4990  10.032  -0.768   8.528  0.6037 -0.4800  0.5699
   44TAL   C217 4991  10.042  -0.900   8.597  0.0563  0.3682 -1.0337
   44TAL   C218 4992   9.920  -0.929   8.672 -0.2121  0.4161 -0.2488
   44TAL   C219 4993   9.946  -1.067   8.734  0.0586  0.6043 -0.2035
   44TAL   C220 4994   9.830  -1.159   8.687  0.5583 -0.4001  0.4291
   45HTM   C221 4995  10.113  -0.916   8.157  0.9422  0.3256  0.2201
   45HTM   C222 4996  10.092  -1.027   8.234  0.4272  0.4462  0.2632
   45HTM   C223 4997  10.123  -1.151   8.167 -0.5116  0.2435  0.1822
   45HTM   C224 4998  10.167  -1.135   8.039 -0.7125 -0.0315  0.0769
   45HTM    S23 4999  10.173  -0.960   7.992  0.2762 -0.0562  0.0721
   46TAL   C225 5000  10.120  -1.273   8.251  0.3602  0.5582 -0.5048
   46TAL   C226 5001  10.134  -1.266   8.406  0.8240 -1.1259  0.9853
   46TAL   C227 5002  10.261  -1.188   8.463 -0.2849  0.0311  0.8491
   46TAL   C228 5003  10.398  -1.248   8.458 -0.6241  0.0313  0.1061
   46TAL   C229 5004  10.469  -1.278   8.324 -0.2795 -0.3869 -0.0295
   46TAL   C230 5005  10.514  -1.164   8.245 -0.5896  0.0119 -0.7108
   47HTM   C231 5006  10.202  -1.237   7.945  0.2222 -0.2018  0.3354
   47HTM   C232 5007  10.138  -1.253   7.825  0.0774  0.0349  0.3816
   47HTM   C233 5008  10.171  -1.375   7.757 -0.1420  0.0852  0.1825
   47HTM   C234 5009  10.260  -1.453   7.824 -0.1645 -0.1129 -0.0153
   47HTM    S24 5010  10.310  -1.378   7.980  0.0915 -0.3808  0.0348
   48TAL   C235 5011  10.109  -1.425   7.628 -0.2299  0.2727  0.7086
   48TAL   C236 5012  10.155  -1.552   7.553 -0.4785 -0.3990 -0.1100
   48TAL   C237 5013  10.093  -1.600   7.422 -0.6311  0.2288 -0.1547
   48TAL   C238 5014  10.112  -1.738   7.365  0.3193  0.5816 -0.5481
   48TAL   C239 5015  10.116  -1.858   7.461  0.2836 -0.7275 -0.2222
   48TAL   C240 5016  10.135  -1.987   7.401  0.5186  0.6376  0.0585
    1HTM     C1 5017   1.423   4.404  10.934 -0.1080 -0.3428 -0.1601
    1HTM     C2 5018   1.373   4.302  11.008  0.0117 -0.4933 -0.2849
    1HTM     C3 5019   1.233   4.316  11.041  0.1063 -0.4627  0.1242
    1HTM     C4 5020   1.177   4.430  10.990  0.0587 -0.2888  0.5607
    1HTM     S1 5021   1.297   4.528  10.898 -0.1106 -0.1494  0.4881
    2TAL     C5 5022   1.164   4.226  11.134  0.7644  0.0489 -0.5980
    2TAL     C6 5023   1.189   4.259  11.276 -0.0200  0.5699 -0.1506
    2TAL     C7 5024   1.092   4.214  11.392 -0.1815 -0.0992  1.6913
    2TAL     C8 5025   1.137   4.232  11.527 -0.4635 -0.2044 -0.1866
    2TAL     C9 5026   1.195   4.373  11.572  0.7914  0.2513  0.4745
    2TAL    C10 5027   1.206   4.383  11.722 -0.3252  1.2477  0.0790
    3HTM    C11 5028   1.052   4.486  11.017  0.3250  0.2749 -0.3962
    3HTM    C12 5029   0.924   4.457  10.980  0.5201  0.2469 -1.0617
    3HTM    C13 5030   0.828   4.558  11.018  0.2356  0.0149 -1.1575
    3HTM    C14 5031   0.883   4.664  11.084 -0.1763 -0.1340 -0.5656
    3HTM     S2 5032   1.061   4.644  11.104 -0.2373  0.0085  0.1649
    4TAL    C15 5033   0.680   4.551  10.983 -0.0478 -0.0972 -0.2426
    4TAL    C16 5034   0.597   4.465  11.070  0.9135 -0.1928  0.4378
    4TAL    C17 5035   0.447   4.481  11.037 -1.1898 -0.3425  1.1945
    4TAL    C18 5036   0.357   4.610  11.051 -0.0952  0.3190 -0.5973
    4TAL    C19 5037   0.384   4.742  10.983  0.8598  0.1074 -0.2430
    4TAL    C20 5038   0.322   4.859  11.042  0.4039  0.2040  0.6337
    5HTM    C21 5039   0.825   4.776  11.138  0.1809 -0.1197 -0.5678
    5HTM    C22 5040   0.869   4.902  11.108  0.0551 -0.1888 -1.0731
    5HTM    C23 5041   0.791   5.006  11.170  0.2261 -0.0341 -1.1165
    5HTM    C24 5042   0.687   4.960  11.245  0.4822  0.1530 -0.6444
    5HTM     S3 5043   0.681   4.779  11.245  0.5276  0.1481 -0.1041
    6TAL    C25 5044   0.825   5.147  11.129 -0.4757 -0.8003 -0.1520
    6TAL    C26 5045   0.951   5.192  11.044 -0.0248 -0.0267  0.9392
    6TAL    C27 5046   0.916   5.322  10.962  0.9353 -0.1876 -0.6038
    6TAL    C28 5047   1.039   5.390  10.896 -0.1657  0.0022 -0.1136
    6TAL    C29 5048   0.990   5.509  10.825  0.0415 -0.2084 -0.1101
    6TAL    C30 5049   1.062   5.630  10.858 -0.0962  0.2957 -0.4182
    7HTM    C31 5050   0.587   5.019  11.333  0.2650 -0.1166  0.8308
    7HTM    C32 5051   0.499   4.947  11.409  0.2876 -0.3501  0.6373
    7HTM    C33 5052   0.392   5.026  11.464 -0.3472 -0.7207 -0.0212
    7HTM    C34 5053   0.399   5.158  11.431 -0.8538 -0.7699 -0.3304
    7HTM     S4 5054   0.541   5.193  11.326 -0.5662 -0.3487  0.1904
    8TAL    C35 5055   0.289   4.953  11.544  0.6951  0.5265  0.3133
    8TAL    C36 5056   0.178   4.888  11.449  0.4611  0.3927 -0.4256
    8TAL    C37 5057   0.099   4.786  11.537  0.7555  0.4839  1.3942
    8TAL    C38 5058   0.006   4.695  11.459 -0.5018 -0.3194 -0.1554
    8TAL    C39 5059  -0.115   4.665  11.550 -0.0356  0.4679  1.1224
    8TAL    C40 5060  -0.167   4.524  11.536 -0.1555 -0.5334 -0.2711
    9HTM    C41 5061   0.314   5.267  11.462  0.6364  0.1224  0.2677
    9HTM    C42 5062   0.287   5.378  11.387  0.6961  0.0637  0.1576
    9HTM    C43 5063   0.204   5.474  11.455  0.3696 -0.0291 -0.1066
    9HTM    C44 5064   0.168   5.436  11.581  0.0609 -0.0412 -0.1980
    9HTM     S5 5065   0.236   5.275  11.624  0.1595  0.0647  0.0444
   10TAL    C45 5066   0.142   5.591  11.385  0.7741  0.9013 -0.8459
   10TAL    C46 5067   0.191   5.631  11.249 -0.5861 -0.1998 -0.5543
   10TAL    C47 5068   0.099   5.736  11.201  0.7509  0.0780  0.6307
   10TAL    C48 5069   0.152   5.838  11.097 -0.1442  0.6279  0.4179
   10TAL    C49 5070   0.264   5.796  11.007 -0.5024  0.0044 -0.2706
   10TAL    C50 5071   0.307   5.926  10.945 -0.8433 -0.5399  0.8014
   11HTM    C51 5072   0.080   5.496  11.679 -0.0906 -0.4862 -0.7724
   11HTM    C52 5073   0.038   5.441  11.797  0.0840 -0.5388 -0.7341
   11HTM    C53 5074  -0.046   5.528  11.875  0.4889 -0.4376 -0.4022
   11HTM    C54 5075  -0.069   5.649  11.817  0.6232 -0.3079 -0.1870
   11HTM     S6 5076   0.016   5.663  11.658  0.2456 -0.3035 -0.3888
   12TAL    C55 5077  -0.112   5.474  12.006 -0.1497  0.0823  0.0387
   12TAL    C56 5078  -0.155   5.328  11.996  0.2825 -0.4966 -0.1823
   12TAL    C57 5079  -0.235   5.281  12.126  0.4016  1.0055  0.2397
   12TAL    C58 5080  -0.377   5.342  12.142  0.4300  0.6789 -0.7349
   12TAL    C59 5081  -0.466   5.252  12.233 -0.8647 -0.2270 -0.5489
   12TAL    C60 5082  -0.477   5.300  12.386 -0.2127  0.1195 -0.9034
   13HTM    C61 5083  -0.141   5.771  11.866 -0.5278  0.2414 -0.2534
   13HTM    C62 5084  -0.104   5.898  11.831 -1.2383  0.2732 -0.9601
   13HTM    C63 5085  -0.165   6.000  11.912 -1.3434  0.3486 -1.1330
   13HTM    C64 5086  -0.248   5.952  12.008 -0.7129  0.3741 -0.5579
   13HTM     S7 5087  -0.257   5.772  12.004  0.0686  0.3044  0.2528
   14TAL    C65 5088  -0.118   6.144  11.883  0.1428  0.0835  1.2122
   14TAL    C66 5089   0.006   6.160  11.795 -1.0453  0.0975  1.1125
   14TAL    C67 5090   0.007   6.292  11.718 -0.2887  0.7377  0.0761
   14TAL    C68 5091   0.140   6.338  11.655 -0.5035 -0.1360 -0.6016
   14TAL    C69 5092   0.123   6.457  11.564 -0.7825 -0.6798  0.5383
   14TAL    C70 5093   0.142   6.591  11.635 -0.0851 -0.0875 -0.2446
   15HTM    C71 5094  -0.339   6.023  12.097  0.1982 -0.0723 -0.6804
   15HTM    C72 5095  -0.323   6.107  12.203  0.5348  0.3723 -1.0767
   15HTM    C73 5096  -0.447   6.147  12.264  0.7271  0.5991 -0.8314
   15HTM    C74 5097  -0.558   6.094  12.204  0.5371  0.3272 -0.2480
   15HTM     S8 5098  -0.513   5.987  12.066  0.0976 -0.2405  0.0388
   16TAL    C75 5099  -0.444   6.248  12.368 -0.6150 -1.1290 -1.0603
   16TAL    C76 5100  -0.429   6.234  12.516 -1.0002  0.8326  0.2727
   16TAL    C77 5101  -0.285   6.179  12.559  0.8405 -0.7084  0.0884
   16TAL    C78 5102  -0.163   6.270  12.540 -0.1171  0.3102 -0.6376
   16TAL    C79 5103  -0.033   6.235  12.615 -0.2306  0.3779 -0.8611
   16TAL    C80 5104   0.027   6.369  12.670  0.0057  0.1217 -0.6567
   17HTM    C81 5105  -0.699   6.117  12.231  0.5496 -0.0724  0.0319
   17HTM    C82 5106  -0.772   6.230  12.213  0.5360 -0.0949 -0.0546
   17HTM    C83 5107  -0.913   6.213  12.238  0.5387 -0.0917 -0.0362
   17HTM    C84 5108  -0.947   6.087  12.275  0.5544 -0.0666  0.0640
   17HTM     S9 5109  -0.804   5.978  12.282  0.5672 -0.0451  0.1437
   18TAL    C85 5110  -1.010   6.328  12.215  0.2010 -0.6341 -0.1371
   18TAL    C86 5111  -0.973   6.414  12.083 -0.9848  0.2669 -1.1417
   18TAL    C87 5112  -1.087   6.505  12.052 -0.0186 -0.4341  0.4323
   18TAL    C88 5113  -1.119   6.636  12.142  1.2749  0.2821  0.3691
   18TAL    C89 5114  -1.271   6.653  12.139 -0.1838 -0.2132  0.6757
   18TAL    C90 5115  -1.312   6.767  12.232 -0.1896  0.1275 -0.1212
   19HTM    C91 5116  -1.082   6.026  12.272  0.3206  0.0848  0.2016
   19HTM    C92 5117  -1.203   6.089  12.260  0.3979  0.1012 -0.6120
   19HTM    C93 5118  -1.315   5.998  12.254  0.3974  0.1260 -1.0607
   19HTM    C94 5119  -1.280   5.867  12.261  0.3200  0.1286 -0.5893
   19HTM    S10 5120  -1.101   5.846  12.276  0.2407  0.0995  0.4663
   20TAL    C95 5121  -1.458   6.035  12.229 -0.0629 -1.1840 -0.4551
   20TAL    C96 5122  -1.492   6.176  12.198  0.3569  0.6772  0.4801
   20TAL    C97 5123  -1.574   6.246  12.304  0.0423  0.4081 -0.1228
   20TAL    C98 5124  -1.547   6.396  12.320 -0.6936 -0.3504 -0.7396
   20TAL    C99 5125  -1.652   6.460  12.393  0.2759 -0.6739 -0.7829
   20TAL   C100 5126  -1.617   6.602  12.447 -0.3610  0.8580 -0.6737
   21HTM   C101 5127  -1.361   5.746  12.282  0.5043  0.1042 -0.3344
   21HTM   C102 5128  -1.452   5.714  12.379  0.0741  0.4736 -0.6080
   21HTM   C103 5129  -1.487   5.575  12.381 -0.6852  0.6517 -0.8574
   21HTM   C104 5130  -1.424   5.500  12.287 -0.8337  0.4181 -0.7744
   21HTM    S11 5131  -1.313   5.601  12.186 -0.0202 -0.0486 -0.3714
   22TAL   C105 5132  -1.590   5.527  12.478  0.1394 -0.1131  0.8011
   22TAL   C106 5133  -1.533   5.515  12.619 -0.3059  0.9118  0.2565
   22TAL   C107 5134  -1.467   5.371  12.645 -0.1213  0.2330  1.9047
   22TAL   C108 5135  -1.384   5.378  12.760  0.7080 -0.2250 -0.9983
   22TAL   C109 5136  -1.353   5.241  12.797  0.3764 -0.2059  0.3292
   22TAL   C110 5137  -1.246   5.238  12.906  0.3948 -0.5582  0.2262
   23HTM   C111 5138  -1.435   5.362  12.254  0.8432 -0.0383 -0.2969
   23HTM   C112 5139  -1.393   5.247  12.315  0.8587 -0.0865 -0.3994
   23HTM   C113 5140  -1.425   5.127  12.241  0.5785 -0.0477 -0.3436
   23HTM   C114 5141  -1.492   5.151  12.124  0.3495  0.0304 -0.1988
   23HTM    S12 5142  -1.519   5.328  12.098  0.4707  0.0608 -0.1211
   24TAL   C115 5143  -1.389   4.989  12.298  1.7388  0.0627 -0.5795
   24TAL   C116 5144  -1.455   4.967  12.436 -0.9298  0.4237 -0.2523
   24TAL   C117 5145  -1.451   4.837  12.502  0.0875  0.0175 -0.8665
   24TAL   C118 5146  -1.521   4.843  12.644  0.4430  0.2098  0.3811
   24TAL   C119 5147  -1.429   4.863  12.763 -0.1159  0.1091  1.3777
   24TAL   C120 5148  -1.498   4.870  12.893 -0.7873  0.6377  0.0756
   25HTM   C121 5149  -1.518   5.060  12.022 -0.4197 -0.3373  0.6155
   25HTM   C122 5150  -1.623   5.073  11.935 -0.4997 -0.7608  0.6464
   25HTM   C123 5151  -1.631   4.967  11.838  0.2148 -0.5181  0.3145
   25HTM   C124 5152  -1.532   4.874  11.850  0.8394  0.0903  0.0306
   25HTM    S13 5153  -1.421   4.913  11.986  0.5719  0.4062  0.1615
   26TAL   C125 5154  -1.728   4.984  11.722  0.1134 -0.5506  0.4533
   26TAL   C126 5155  -1.880   4.947  11.747 -1.1992  0.3010 -0.7916
   26TAL   C127 5156  -2.004   4.992  11.670 -0.5266  0.0815 -0.5087
   26TAL   C128 5157  -2.022   5.134  11.642  0.2769 -1.0162  0.2661
   26TAL   C129 5158  -2.066   5.217  11.773 -0.9868  0.2918 -0.1627
   26TAL   C130 5159  -2.103   5.359  11.766  0.4293  0.1900  0.1563
   27HTM   C131 5160  -1.528   4.748  11.782  0.0264  0.1922 -0.7188
   27HTM   C132 5161  -1.432   4.694  11.701 -0.1791 -0.2704 -0.6642
   27HTM   C133 5162  -1.466   4.565  11.647 -0.4314 -0.4641 -0.0546
   27HTM   C134 5163  -1.588   4.520  11.687 -0.4187 -0.1496  0.3561
   27HTM    S14 5164  -1.670   4.638  11.796 -0.0842  0.4204  0.0016
   28TAL   C135 5165  -1.397   4.510  11.524  0.1673  1.1784  0.4798
   28TAL   C136 5166  -1.285   4.422  11.576 -0.2867  0.6487  0.0472
   28TAL   C137 5167  -1.158   4.417  11.495  0.3405  0.6646 -0.0643
   28TAL   C138 5168  -1.041   4.338  11.566 -0.0198  0.0772 -0.4991
   28TAL   C139 5169  -1.043   4.187  11.545  0.5253 -0.0001 -0.5384
   28TAL   C140 5170  -0.926   4.117  11.618  0.0625 -0.1020  0.6403
   29HTM   C141 5171  -1.647   4.394  11.683 -0.2324 -0.3141  0.2714
   29HTM   C142 5172  -1.654   4.316  11.572 -0.4005 -0.2067  0.2072
   29HTM   C143 5173  -1.741   4.202  11.587 -0.2559 -0.3067  0.2794
   29HTM   C144 5174  -1.799   4.193  11.710  0.0227 -0.4904  0.3993
   29HTM    S15 5175  -1.748   4.329  11.817  0.1245 -0.5517  0.4301
   30TAL   C145 5176  -1.775   4.103  11.468 -0.2613  0.9705  0.3882
   30TAL   C146 5177  -1.680   3.983  11.444  0.3963  0.1595 -0.7576
   30TAL   C147 5178  -1.664   3.953  11.299  0.5057  0.0695 -0.5559
   30TAL   C148 5179  -1.545   3.861  11.278 -0.3485  0.1817 -0.0984
   30TAL   C149 5180  -1.397   3.877  11.310  0.1695 -0.7241 -0.1704
   30TAL   C150 5181  -1.333   4.003  11.361 -0.4345 -0.9072  0.1377
   31HTM   C151 5182  -1.875   4.093  11.781  0.2672  0.7075  0.0814
   31HTM   C152 5183  -2.001   4.104  11.831  0.2228  0.8734 -0.0665
   31HTM   C153 5184  -2.058   3.978  11.874 -0.0311  0.9304 -0.2267
   31HTM   C154 5185  -1.974   3.872  11.858 -0.1805  0.8080 -0.2014
   31HTM    S16 5186  -1.816   3.922  11.786 -0.0108  0.6098  0.0295
   32TAL   C155 5187  -2.187   3.976  11.954 -0.5316 -0.9588  0.4001
   32TAL   C156 5188  -2.312   4.039  11.875  0.2052 -0.5319 -0.3214
   32TAL   C157 5189  -2.456   4.024  11.933  0.0752  0.6468 -1.0337
   32TAL   C158 5190  -2.501   4.100  12.058  1.0419  1.1847  0.2701
   32TAL   C159 5191  -2.626   4.047  12.141 -0.9858 -0.6707 -0.4246
   32TAL   C160 5192  -2.754   4.054  12.062  0.1266  1.0984 -0.0790
   33HTM   C161 5193  -1.996   3.728  11.892 -0.3303  0.1128  0.4464
   33HTM   C162 5194  -2.106   3.656  11.925 -0.0759 -0.0101  1.0588
   33HTM   C163 5195  -2.082   3.515  11.936  0.2013  0.0484  1.2095
   33HTM   C164 5196  -1.953   3.479  11.912  0.1584  0.2159  0.7126
   33HTM    S17 5197  -1.851   3.623  11.873 -0.2387  0.3136  0.0094
   34TAL   C165 5198  -2.203   3.418  11.950 -0.6928 -0.4322  0.8051
   34TAL   C166 5199  -2.254   3.385  12.093 -0.9485  0.3360 -0.0058
   34TAL   C167 5200  -2.397   3.336  12.109  0.8803 -0.3706  0.2280
   34TAL   C168 5201  -2.509   3.426  12.067  0.1938  0.0301  0.0544
   34TAL   C169 5202  -2.634   3.434  12.153  0.5859  0.8963  0.4659
   34TAL   C170 5203  -2.629   3.471  12.300 -0.2267 -0.7263  0.5577
   35HTM   C171 5204  -1.886   3.349  11.911  0.0898  0.2510 -0.7696
   35HTM   C172 5205  -1.765   3.315  11.964  0.2671  0.4076 -1.0707
   35HTM   C173 5206  -1.736   3.175  11.956  0.2452  0.3849 -0.7670
   35HTM   C174 5207  -1.835   3.101  11.897  0.0513  0.2111 -0.2339
   35HTM    S18 5208  -1.973   3.205  11.847 -0.1202  0.0613 -0.0732
   36TAL   C175 5209  -1.624   3.116  12.052 -0.5206 -0.4915  1.0725
   36TAL   C176 5210  -1.472   3.113  11.999  0.3318 -0.3715 -0.6638
   36TAL   C177 5211  -1.406   3.247  11.975  0.5569 -0.4734  0.2188
   36TAL   C178 5212  -1.398   3.345  12.084 -0.3974 -0.3629  0.3294
   36TAL   C179 5213  -1.312   3.324  12.201  0.1824 -0.5490  0.4058
   36TAL   C180 5214  -1.161   3.297  12.192  0.6391 -0.2179 -0.7579
   37HTM   C181 5215  -1.845   2.954  11.888 -0.6840  0.1262 -0.6589
   37HTM   C182 5216  -1.927   2.867  11.954 -1.0267  0.4168 -0.6938
   37HTM   C183 5217  -1.903   2.729  11.920 -0.9294  0.2710 -0.0501
   37HTM   C184 5218  -1.803   2.711  11.829 -0.5123 -0.1305  0.4753
   37HTM    S19 5219  -1.730   2.868  11.779 -0.2078 -0.3576  0.1957
   38TAL   C185 5220  -1.997   2.614  11.969  0.1162  1.1329  0.0843
   38TAL   C186 5221  -2.081   2.609  12.107 -0.4613 -0.0846  0.2704
   38TAL   C187 5222  -2.229   2.649  12.105  0.3540  0.0543  0.9479
   38TAL   C188 5223  -2.256   2.786  12.040  1.4618  0.0697 -1.3277
   38TAL   C189 5224  -2.411   2.824  12.033 -1.1088  0.1281  0.1187
   38TAL   C190 5225  -2.480   2.854  12.162  0.8766  0.1112  0.3626
   39HTM   C191 5226  -1.727   2.585  11.780  0.6092 -0.4039  0.6145
   39HTM   C192 5227  -1.594   2.578  11.747  0.5358 -0.6773  0.3643
   39HTM   C193 5228  -1.548   2.445  11.720  0.1206 -0.7332 -0.0961
   39HTM   C194 5229  -1.645   2.350  11.732 -0.1224 -0.5023 -0.1972
   39HTM    S20 5230  -1.803   2.421  11.779  0.1563 -0.1942  0.2853
   40TAL   C195 5231  -1.406   2.438  11.676 -0.7774  0.8109 -0.4104
   40TAL   C196 5232  -1.393   2.471  11.535  0.2441 -0.3385  0.0114
   40TAL   C197 5233  -1.265   2.432  11.463 -0.9200  0.2858 -0.4894
   40TAL   C198 5234  -1.231   2.279  11.472  0.4549 -0.2504  1.3840
   40TAL   C199 5235  -1.329   2.203  11.393 -0.6238 -0.4791  1.4113
   40TAL   C200 5236  -1.283   2.056  11.387  0.4390  0.4662 -0.1804
   41HTM   C201 5237  -1.649   2.206  11.734 -0.0986  0.1747 -0.4185
   41HTM   C202 5238  -1.743   2.130  11.798 -0.0302  0.2599 -0.2162
   41HTM   C203 5239  -1.732   1.989  11.770  0.0852  0.1947  0.1447
   41HTM   C204 5240  -1.630   1.958  11.684  0.1050  0.0597  0.2173
   41HTM    S21 5241  -1.540   2.105  11.632 -0.0217  0.0040 -0.1676
   42TAL   C205 5242  -1.824   1.886  11.834 -0.3879  1.1744  0.1499
   42TAL   C206 5243  -1.978   1.935  11.859 -0.0338 -0.1270 -0.0454
   42TAL   C207 5244  -2.032   2.022  11.742  0.2392 -0.2262  0.0653
   42TAL   C208 5245  -2.182   2.044  11.725 -0.5238  0.6200  0.2564
   42TAL   C209 5246  -2.275   2.075  11.843 -0.1634  0.8322  0.3542
   42TAL   C210 5247  -2.255   2.212  11.900 -1.4128 -0.5572  0.4876
   43HTM   C211 5248  -1.576   1.833  11.637  0.4916  0.0305  0.5759
   43HTM   C212 5249  -1.474   1.819  11.548  0.0762 -0.3298  0.1471
   43HTM   C213 5250  -1.436   1.682  11.524 -0.7849 -0.4941 -0.3495
   43HTM   C214 5251  -1.510   1.592  11.595 -1.0258 -0.2591 -0.2988
   43HTM    S22 5252  -1.634   1.674  11.698 -0.1774  0.1916  0.3851
   44TAL   C215 5253  -1.331   1.659  11.419  0.0427 -0.8536 -0.4175
   44TAL   C216 5254  -1.198   1.719  11.456 -0.3262  0.5416 -0.6570
   44TAL   C217 5255  -1.079   1.708  11.367 -0.0269 -0.4731  0.6590
   44TAL   C218 5256  -0.963   1.791  11.405 -0.2111  0.4633 -0.6625
   44TAL   C219 5257  -0.906   1.761  11.543 -0.5276  0.1066  0.4918
   44TAL   C220 5258  -0.782   1.862  11.557  0.7385 -0.1441 -0.2541
   45HTM   C221 5259  -1.477   1.448  11.607 -0.2245  0.4865 -0.0710
   45HTM   C222 5260  -1.375   1.389  11.677  0.0489  0.8136 -0.1891
   45HTM   C223 5261  -1.369   1.246  11.660  0.3437  0.8044 -0.0076
   45HTM   C224 5262  -1.465   1.196  11.577  0.2953  0.4704  0.2481
   45HTM    S23 5263  -1.573   1.326  11.514 -0.1300  0.1389  0.2803
   46TAL   C225 5264  -1.279   1.161  11.732 -1.0489 -0.4242 -0.4739
   46TAL   C226 5265  -1.152   1.132  11.655 -0.5187 -0.1373 -0.0389
   46TAL   C227 5266  -1.047   1.048  11.727  0.4109 -0.0016 -0.6142
   46TAL   C228 5267  -0.948   1.130  11.804  0.6229 -0.6042 -0.9651
   46TAL   C229 5268  -0.841   1.040  11.871 -0.4942 -0.7644 -0.5716
   46TAL   C230 5269  -0.734   1.108  11.964  0.9789 -0.3840 -0.2645
   47HTM   C231 5270  -1.506   1.067  11.536 -0.0399 -0.1665  0.2181
   47HTM   C232 5271  -1.617   0.993  11.560 -0.1454 -0.0937 -0.0460
   47HTM   C233 5272  -1.616   0.865  11.494 -0.1124 -0.0585 -0.1142
   47HTM   C234 5273  -1.504   0.842  11.420  0.0183 -0.1045  0.0981
   47HTM    S24 5274  -1.390   0.981  11.429  0.1105 -0.1966  0.4033
   48TAL   C235 5275  -1.717   0.752  11.525 -0.0199 -0.4864 -0.4563
   48TAL   C236 5276  -1.791   0.678  11.413  0.7327  0.1744  0.1475
   48TAL   C237 5277  -1.885   0.567  11.450  0.6476  0.2854  0.3917
   48TAL   C238 5278  -1.933   0.472  11.335 -0.0833 -0.9645 -0.0187
   48TAL   C239 5279  -2.068   0.419  11.361 -0.5491  0.3305  1.0857
   48TAL   C240 5280  -2.129   0.334  11.246  0.0984  0.3952 -0.4195
    1HTM     C1 5281   5.183   3.518   7.774 -0.6993  0.3658 -0.2169
    1HTM     C2 5282   5.306   3.484   7.822 -0.2483  1.1533 -0.7777
    1HTM     C3 5283   5.314   3.485   7.966  0.4573  1.3617 -0.8128
    1HTM     C4 5284   5.198   3.519   8.027  0.5446  0.7330 -0.2791
    1HTM     S1 5285   5.067   3.553   7.908 -0.2641 -0.1780  0.3144
    2TAL     C5 5286   5.439   3.464   8.055 -0.1166 -0.1075 -0.1933
    2TAL     C6 5287   5.572   3.501   7.995  0.5361  0.5484  0.4653
    2TAL     C7 5288   5.689   3.449   8.085 -0.1094 -0.4585  1.2405
    2TAL     C8 5289   5.681   3.317   8.151  0.0528  0.8777 -0.0225
    2TAL     C9 5290   5.802   3.274   8.235 -1.3113 -1.1507 -0.0709
    2TAL    C10 5291   5.767   3.134   8.292 -1.0141 -0.3708  0.2322
    3HTM    C11 5292   5.161   3.552   8.158 -0.3062  0.6175  0.3267
    3HTM    C12 5293   5.165   3.662   8.238 -0.7900  0.4746  0.5555
    3HTM    C13 5294   5.096   3.646   8.363 -0.6649 -0.1116  0.5531
    3HTM    C14 5295   5.039   3.523   8.379 -0.0858 -0.4156  0.3218
    3HTM     S2 5296   5.069   3.417   8.235  0.3501  0.0183  0.0880
    4TAL    C15 5297   5.085   3.772   8.450 -0.7331  0.7085 -0.5625
    4TAL    C16 5298   5.216   3.804   8.522  0.0642 -0.2295 -0.3546
    4TAL    C17 5299   5.332   3.867   8.446  0.4237 -0.2326 -0.0121
    4TAL    C18 5300   5.406   3.969   8.525  0.0300 -0.0338 -0.3801
    4TAL    C19 5301   5.322   4.078   8.604 -0.4643  0.6165  0.5868
    4TAL    C20 5302   5.412   4.169   8.687 -0.0211 -0.3092 -0.2979
    5HTM    C21 5303   4.968   3.469   8.490  0.0181 -0.2742  0.5525
    5HTM    C22 5304   4.909   3.536   8.594 -0.1384 -0.4161  0.5543
    5HTM    C23 5305   4.827   3.452   8.677 -0.4522 -0.4874  0.1805
    5HTM    C24 5306   4.824   3.321   8.637 -0.5349 -0.4000 -0.1068
    5HTM     S3 5307   4.925   3.294   8.490 -0.2203 -0.2193  0.0745
    6TAL    C25 5308   4.746   3.520   8.797 -0.4299  0.6199  0.3700
    6TAL    C26 5309   4.600   3.508   8.827  0.9087  0.4170 -0.1647
    6TAL    C27 5310   4.517   3.574   8.714 -0.2471  0.4004  0.2664
    6TAL    C28 5311   4.372   3.554   8.755 -0.2869 -0.1647  0.0241
    6TAL    C29 5312   4.285   3.662   8.682  0.4871 -0.1180  0.9010
    6TAL    C30 5313   4.137   3.638   8.672  0.2023  0.4432  0.2116
    7HTM    C31 5314   4.762   3.210   8.703  0.0940  0.4079 -0.3743
    7HTM    C32 5315   4.688   3.113   8.643  0.4650  0.3643 -0.7701
    7HTM    C33 5316   4.622   3.024   8.736  0.3833  0.0527 -1.1206
    7HTM    C34 5317   4.647   3.054   8.867 -0.0498 -0.1411 -0.9926
    7HTM     S4 5318   4.755   3.197   8.883 -0.3907  0.0562 -0.4146
    8TAL    C35 5319   4.537   2.905   8.695  0.0203  0.8204  0.7309
    8TAL    C36 5320   4.590   2.826   8.579 -0.5784 -0.1830  0.1995
    8TAL    C37 5321   4.737   2.773   8.575  0.5843 -1.4930  0.2180
    8TAL    C38 5322   4.791   2.691   8.459 -0.0891  0.4493 -0.5123
    8TAL    C39 5323   4.744   2.547   8.451  1.4336  0.2692 -0.0676
    8TAL    C40 5324   4.850   2.445   8.414  0.3277 -0.5235 -0.3107
    9HTM    C41 5325   4.611   3.001   9.002 -0.5294  0.5528  0.7215
    9HTM    C42 5326   4.597   3.077   9.115 -1.3474  0.3289  0.7818
    9HTM    C43 5327   4.567   3.000   9.233 -1.2769 -0.0047  0.5860
    9HTM    C44 5328   4.559   2.866   9.211 -0.4053 -0.0351  0.3769
    9HTM     S5 5329   4.588   2.825   9.038  0.4006  0.3583  0.4108
   10TAL    C45 5330   4.546   3.057   9.377 -0.0557 -0.5279  0.5206
   10TAL    C46 5331   4.419   3.138   9.420  0.9517 -0.3270 -0.5198
   10TAL    C47 5332   4.374   3.264   9.341 -0.2200  0.6500  0.4709
   10TAL    C48 5333   4.463   3.383   9.335 -0.3022 -0.0281  0.0537
   10TAL    C49 5334   4.390   3.501   9.281  0.4238  0.3080  0.0690
   10TAL    C50 5335   4.486   3.621   9.276 -0.3443  0.2163 -0.6469
   11HTM    C51 5336   4.554   2.741   9.299 -0.3686 -0.1146 -0.3362
   11HTM    C52 5337   4.551   2.609   9.266 -0.2382 -0.1329 -0.2754
   11HTM    C53 5338   4.530   2.522   9.379  0.0637 -0.1163 -0.2031
   11HTM    C54 5339   4.516   2.588   9.498  0.1632 -0.0854 -0.2088
   11HTM     S6 5340   4.530   2.766   9.476 -0.1184 -0.0748 -0.3067
   12TAL    C55 5341   4.518   2.359   9.366 -0.3369  0.0546  0.1918
   12TAL    C56 5342   4.477   2.309   9.225 -0.0701 -0.0508  1.2288
   12TAL    C57 5343   4.443   2.163   9.208 -0.5030 -0.4844  0.1884
   12TAL    C58 5344   4.548   2.063   9.262  0.7320 -0.5577  0.1901
   12TAL    C59 5345   4.695   2.065   9.208 -0.4201 -0.1991  0.0627
   12TAL    C60 5346   4.777   1.936   9.241 -0.2684 -1.2490 -0.1678
   13HTM    C61 5347   4.471   2.543   9.625 -0.1321 -0.4629 -0.5070
   13HTM    C62 5348   4.525   2.558   9.749 -0.2306 -0.0139 -0.5157
   13HTM    C63 5349   4.442   2.507   9.855 -0.4447  0.6235 -0.3619
   13HTM    C64 5350   4.325   2.452   9.811 -0.5095  0.6605 -0.2363
   13HTM     S7 5351   4.310   2.462   9.631 -0.3035 -0.1127 -0.3028
   14TAL    C65 5352   4.489   2.508  10.006  1.3878  0.4659  0.4790
   14TAL    C66 5353   4.632   2.482  10.049 -0.3622  0.0514 -0.4646
   14TAL    C67 5354   4.703   2.380   9.958 -0.9932  0.1173 -1.2335
   14TAL    C68 5355   4.839   2.373  10.035 -0.1440 -0.1600  0.1339
   14TAL    C69 5356   4.934   2.299   9.942  0.2070  0.4132 -0.6841
   14TAL    C70 5357   5.079   2.311   9.980  0.4106  0.0818  0.3402
   15HTM    C71 5358   4.200   2.402   9.876 -0.5968  0.3837 -0.0871
   15HTM    C72 5359   4.070   2.423   9.838 -0.7442 -0.0660  0.1504
   15HTM    C73 5360   3.974   2.380   9.936 -0.4305 -0.7482  0.1717
   15HTM    C74 5361   4.029   2.326  10.048 -0.0440 -0.8186 -0.0495
   15HTM     S8 5362   4.209   2.326  10.039 -0.0461 -0.0227 -0.3036
   16TAL    C75 5363   3.828   2.400   9.881 -0.8066  0.1641 -1.0725
   16TAL    C76 5364   3.809   2.353   9.732 -0.6866  0.9034 -0.0154
   16TAL    C77 5365   3.665   2.373   9.674  1.0143 -0.1310 -0.0636
   16TAL    C78 5366   3.631   2.291   9.554 -1.0319  0.7466  0.2111
   16TAL    C79 5367   3.681   2.148   9.543  0.6420 -0.1143  0.4286
   16TAL    C80 5368   3.623   2.044   9.647 -0.1992  0.3062  0.9331
   17HTM    C81 5369   3.966   2.271  10.162  0.3805  0.2343  0.0480
   17HTM    C82 5370   4.008   2.279  10.291  0.5351  0.3021 -0.0067
   17HTM    C83 5371   3.921   2.214  10.385  0.7109  0.2469  0.1180
   17HTM    C84 5372   3.813   2.155  10.328  0.6904  0.1372  0.2680
   17HTM     S9 5373   3.812   2.178  10.149  0.4455  0.0947  0.2632
   18TAL    C85 5374   3.944   2.219  10.528 -0.2423 -0.2390 -0.3116
   18TAL    C86 5375   3.976   2.347  10.607  0.5998  0.0585 -0.0991
   18TAL    C87 5376   3.868   2.461  10.586 -0.3782  0.8552 -0.0038
   18TAL    C88 5377   3.723   2.455  10.638 -0.6365 -0.7322 -0.1973
   18TAL    C89 5378   3.645   2.556  10.556 -0.2818  0.3502  0.8829
   18TAL    C90 5379   3.492   2.536  10.551 -0.0831  0.5888  0.4371
   19HTM    C91 5380   3.702   2.077  10.377 -0.1070 -0.2678  0.2055
   19HTM    C92 5381   3.573   2.095  10.337 -0.1218  0.0067  0.3695
   19HTM    C93 5382   3.478   2.018  10.413 -0.1769  0.1160  0.4113
   19HTM    C94 5383   3.534   1.942  10.511 -0.2044 -0.0752  0.2793
   19HTM    S10 5384   3.713   1.961  10.515 -0.1622 -0.4108  0.0905
   20TAL    C95 5385   3.322   2.025  10.417  0.4127 -0.4592  0.7781
   20TAL    C96 5386   3.262   2.152  10.346  0.4086  0.9961 -1.2749
   20TAL    C97 5387   3.276   2.145  10.192 -0.1655 -0.6772 -0.1495
   20TAL    C98 5388   3.243   2.294  10.138  0.0244  0.3853 -0.4154
   20TAL    C99 5389   3.105   2.353  10.151 -0.0899 -0.0371  1.1138
   20TAL   C100 5390   2.984   2.250  10.147 -0.4125 -0.0348  0.5212
   21HTM   C101 5391   3.486   1.842  10.605  0.1030  0.0348  0.2022
   21HTM   C102 5392   3.435   1.721  10.569 -0.4144  0.2847  0.0672
   21HTM   C103 5393   3.388   1.643  10.681 -0.6743  0.3272 -0.0117
   21HTM   C104 5394   3.402   1.704  10.801 -0.3551  0.1097  0.0631
   21HTM    S11 5395   3.478   1.867  10.784  0.3037 -0.1678  0.2405
   22TAL   C105 5396   3.323   1.509  10.657  0.3577  0.5963  1.0335
   22TAL   C106 5397   3.216   1.511  10.543  0.1444  0.6850 -0.4241
   22TAL   C107 5398   3.088   1.596  10.541  0.3779 -0.1723 -0.1210
   22TAL   C108 5399   2.972   1.529  10.610  0.2549  0.9187 -0.1504
   22TAL   C109 5400   2.836   1.601  10.591  0.0260 -0.1462 -0.9683
   22TAL   C110 5401   2.735   1.529  10.685  0.1280  0.0622  0.2566
   23HTM   C111 5402   3.372   1.652  10.930  0.4877  0.2272 -0.4438
   23HTM   C112 5403   3.248   1.632  10.983  0.2651  1.0794 -0.6108
   23HTM   C113 5404   3.250   1.574  11.115 -0.3101  1.5639 -0.3777
   23HTM   C114 5405   3.376   1.550  11.162 -0.5261  1.0811 -0.0331
   23HTM    S12 5406   3.502   1.599  11.043 -0.0158 -0.0315  0.0243
   24TAL   C115 5407   3.123   1.515  11.168  0.2992  0.1581 -0.5327
   24TAL   C116 5408   2.996   1.504  11.080 -0.8811  0.0647  0.6147
   24TAL   C117 5409   2.874   1.454  11.150  0.0932 -0.0559 -1.1922
   24TAL   C118 5410   2.756   1.435  11.056  0.1174  0.6775  0.1757
   24TAL   C119 5411   2.622   1.371  11.092  0.5690  0.2029  0.1503
   24TAL   C120 5412   2.557   1.428  11.214 -0.0405 -0.1623 -0.6260
   25HTM   C121 5413   3.429   1.490  11.292 -0.1021 -0.3330  1.0003
   25HTM   C122 5414   3.363   1.455  11.405  0.5197 -0.4735  1.3301
   25HTM   C123 5415   3.446   1.391  11.504  1.0883 -0.5130  0.8352
   25HTM   C124 5416   3.576   1.379  11.466  0.9002 -0.4027  0.1286
   25HTM    S13 5417   3.604   1.447  11.301 -0.0169 -0.2391  0.0319
   26TAL   C125 5418   3.396   1.339  11.635  0.2733 -0.6896  0.5930
   26TAL   C126 5419   3.430   1.441  11.756  0.0707  0.8955  1.1650
   26TAL   C127 5420   3.422   1.583  11.730  0.0816 -0.4802 -1.3395
   26TAL   C128 5421   3.376   1.632  11.869  0.1912 -0.1808  0.2197
   26TAL   C129 5422   3.308   1.767  11.855 -0.5825 -0.3209 -0.3474
   26TAL   C130 5423   3.326   1.848  11.987  0.8996  0.5815  0.3892
   27HTM   C131 5424   3.687   1.310  11.517  0.0397  0.0393  0.2183
   27HTM   C132 5425   3.708   1.273  11.646  0.3791  0.1912  0.2086
   27HTM   C133 5426   3.834   1.206  11.668  0.3816  0.1057 -0.0637
   27HTM   C134 5427   3.908   1.191  11.555  0.0441 -0.1113 -0.2614
   27HTM    S14 5428   3.825   1.261  11.411 -0.3057 -0.2254 -0.1178
   28TAL   C135 5429   3.880   1.186  11.809  0.3260  0.7609 -0.0002
   28TAL   C136 5430   3.983   1.279  11.857 -0.9190 -0.5544 -0.7430
   28TAL   C137 5431   4.008   1.252  12.007 -0.4203 -0.1224  0.8180
   28TAL   C138 5432   4.121   1.343  12.053 -0.4429  0.6934  0.2986
   28TAL   C139 5433   4.264   1.314  11.994  0.1386  0.0891  0.2721
   28TAL   C140 5434   4.378   1.360  12.084  0.3528 -0.0199 -0.1952
   29HTM   C141 5435   4.029   1.111  11.527 -0.3191 -0.3108 -0.5294
   29HTM   C142 5436   4.145   1.140  11.461 -0.5579 -0.4834 -1.0386
   29HTM   C143 5437   4.238   1.030  11.457 -0.3815 -0.3507 -0.6704
   29HTM   C144 5438   4.193   0.918  11.520 -0.0084 -0.0770  0.1196
   29HTM    S15 5439   4.028   0.942  11.589  0.1505  0.0354  0.4624
   30TAL   C145 5440   4.374   1.061  11.392  0.1443  0.9658  0.6264
   30TAL   C146 5441   4.364   1.078  11.242 -0.8635  0.4921  0.5009
   30TAL   C147 5442   4.439   0.979  11.163 -0.7261  0.5180  0.9611
   30TAL   C148 5443   4.444   1.006  11.017 -0.8359  0.1712  0.7041
   30TAL   C149 5444   4.474   0.886  10.921  1.1400  0.2404  0.0779
   30TAL   C150 5445   4.365   0.780  10.915  0.8718 -0.3854  0.6762
   31HTM   C151 5446   4.271   0.792  11.555 -0.7074  0.1268 -0.0177
   31HTM   C152 5447   4.384   0.735  11.507 -0.8218  0.1400 -0.3061
   31HTM   C153 5448   4.417   0.609  11.570 -0.7721  0.0290 -0.5507
   31HTM   C154 5449   4.329   0.572  11.666 -0.6196 -0.0688 -0.4482
   31HTM    S16 5450   4.196   0.692  11.685 -0.5261 -0.0281 -0.0320
   32TAL   C155 5451   4.542   0.534  11.526  0.2031  0.5748  0.3825
   32TAL   C156 5452   4.566   0.508  11.378  0.6639 -0.8131 -0.0599
   32TAL   C157 5453   4.443   0.427  11.313 -1.4791 -0.6108  0.1463
   32TAL   C158 5454   4.466   0.424  11.166 -0.2121  0.1732 -0.5883
   32TAL   C159 5455   4.349   0.382  11.081 -0.0064  0.5071  0.5395
   32TAL   C160 5456   4.316   0.236  11.102 -0.3106 -0.2462 -0.0178
   33HTM   C161 5457   4.332   0.455  11.756 -0.2856  0.0459  0.2365
   33HTM   C162 5458   4.245   0.440  11.861  0.1339  0.4351  0.6506
   33HTM   C163 5459   4.263   0.317  11.934  0.3607  0.6608  0.9816
   33HTM   C164 5460   4.363   0.239  11.885  0.1142  0.4437  0.8198
   33HTM    S17 5461   4.444   0.314  11.742 -0.4277 -0.0666  0.2324
   34TAL   C165 5462   4.172   0.289  12.049  0.6012  0.9057  0.9720
   34TAL   C166 5463   4.156   0.411  12.145  0.7902 -0.8377 -0.1105
   34TAL   C167 5464   4.029   0.379  12.236 -0.2770 -0.2324 -0.9860
   34TAL   C168 5465   3.888   0.424  12.184  0.0342  0.4193 -1.1164
   34TAL   C169 5466   3.778   0.400  12.274  0.9473  0.7989 -0.6728
   34TAL   C170 5467   3.652   0.392  12.201  0.4114  0.6949  0.1420
   35HTM   C171 5468   4.389   0.102  11.913 -0.1617 -0.2753  0.2837
   35HTM   C172 5469   4.439   0.057  12.032 -0.0561 -0.2154  0.2618
   35HTM   C173 5470   4.477  -0.082  12.030  0.0489 -0.1869  0.2646
   35HTM   C174 5471   4.456  -0.143  11.909  0.0234 -0.2250  0.2887
   35HTM    S18 5472   4.386  -0.029  11.789 -0.1365 -0.3005  0.3097
   36TAL   C175 5473   4.535  -0.139  12.156  0.2400 -0.6339 -0.4227
   36TAL   C176 5474   4.425  -0.204  12.231  0.3917  0.3804  0.1614
   36TAL   C177 5475   4.447  -0.281  12.368 -0.7198 -0.3483 -0.0451
   36TAL   C178 5476   4.338  -0.353  12.443 -0.2922 -0.8762 -0.4218
   36TAL   C179 5477   4.369  -0.397  12.591  0.1259 -0.2390 -0.7471
   36TAL   C180 5478   4.485  -0.492  12.610  0.1149  0.6336  0.3525
   37HTM   C181 5479   4.464  -0.281  11.868 -0.1605  0.1505 -0.0837
   37HTM   C182 5480   4.550  -0.380  11.906 -0.4566 -0.0062  0.1845
   37HTM   C183 5481   4.549  -0.494  11.818 -0.4053 -0.0150  0.1957
   37HTM   C184 5482   4.463  -0.481  11.713 -0.0700  0.1347 -0.0642
   37HTM    S19 5483   4.376  -0.323  11.717  0.2091  0.3000 -0.3454
   38TAL   C185 5484   4.644  -0.610  11.849  0.1978 -0.5421  0.3226
   38TAL   C186 5485   4.612  -0.703  11.964  0.0842 -0.8828  0.3555
   38TAL   C187 5486   4.599  -0.652  12.111 -0.5003  0.2540 -0.0301
   38TAL   C188 5487   4.589  -0.746  12.228  0.0060  0.7730  0.1867
   38TAL   C189 5488   4.486  -0.846  12.211  0.5854  0.2884 -0.3740
   38TAL   C190 5489   4.453  -0.947  12.323 -0.4940 -0.6963  0.9341
   39HTM   C191 5490   4.428  -0.559  11.592  0.5488  0.0070 -0.3747
   39HTM   C192 5491   4.340  -0.533  11.491  1.5180  0.2036 -1.2066
   39HTM   C193 5492   4.330  -0.638  11.393  1.6166 -0.1261 -0.8669
   39HTM   C194 5493   4.410  -0.745  11.419  0.7223 -0.5741  0.2237
   39HTM    S20 5494   4.506  -0.721  11.570 -0.3216 -0.6148  0.9119
   40TAL   C195 5495   4.236  -0.618  11.271  1.1111  0.4134  0.1784
   40TAL   C196 5496   4.297  -0.557  11.144  0.2098  0.4448 -0.5038
   40TAL   C197 5497   4.190  -0.571  11.041 -0.4114 -1.2692  0.3572
   40TAL   C198 5498   4.249  -0.587  10.902 -0.4276  0.0090 -0.0635
   40TAL   C199 5499   4.326  -0.467  10.840  0.4988 -0.0033 -0.8433
   40TAL   C200 5500   4.449  -0.502  10.769 -0.3939 -0.1642  0.3862
   41HTM   C201 5501   4.441  -0.865  11.343  0.4872 -0.2627  0.2821
   41HTM   C202 5502   4.425  -0.874  11.208  0.0260 -0.1334  0.3254
   41HTM   C203 5503   4.473  -0.997  11.152 -0.4519 -0.2147  0.0808
   41HTM   C204 5504   4.526  -1.082  11.244 -0.3550 -0.4058 -0.1488
   41HTM    S21 5505   4.519  -1.012  11.411  0.3528 -0.4986 -0.0741
   42TAL   C205 5506   4.470  -1.012  11.001  0.2859  0.0864 -0.1783
   42TAL   C206 5507   4.553  -0.924  10.907 -0.2463 -0.1663  1.1422
   42TAL   C207 5508   4.528  -0.979  10.767  0.8737  0.0437 -0.0074
   42TAL   C208 5509   4.621  -0.918  10.666  0.0110 -0.0956 -0.1288
   42TAL   C209 5510   4.761  -0.968  10.666 -0.9904 -0.3179  0.4317
   42TAL   C210 5511   4.806  -0.944  10.522  0.6795 -0.8030  0.4276
   43HTM   C211 5512   4.590  -1.212  11.228  1.1357  0.2317  0.3001
   43HTM   C212 5513   4.625  -1.285  11.118  1.2259  0.1568  0.3781
   43HTM   C213 5514   4.671  -1.418  11.149  0.1469 -0.2197  0.4377
   43HTM   C214 5515   4.671  -1.447  11.282 -0.7663 -0.4317  0.4048
   43HTM    S22 5516   4.612  -1.307  11.380 -0.3308 -0.1705  0.2955
   44TAL   C215 5517   4.677  -1.510  11.031 -0.4764  0.4887 -0.3174
   44TAL   C216 5518   4.803  -1.569  10.980 -0.6396 -0.1314 -0.0585
   44TAL   C217 5519   4.771  -1.664  10.870  0.2755 -0.0706 -0.3183
   44TAL   C218 5520   4.902  -1.712  10.802  0.5465  0.0584  0.4244
   44TAL   C219 5521   4.897  -1.837  10.710  0.1561 -0.9968  0.5568
   44TAL   C220 5522   4.830  -1.808  10.576 -0.2097 -0.1650 -0.2019
   45HTM   C221 5523   4.702  -1.563  11.356 -0.0014  0.3310  0.1934
   45HTM   C222 5524   4.814  -1.642  11.354  0.2061  0.6170  0.2928
   45HTM   C223 5525   4.797  -1.766  11.425  0.3089  0.3692 -0.1140
   45HTM   C224 5526   4.674  -1.782  11.480  0.1797 -0.1057 -0.5229
   45HTM    S23 5527   4.568  -1.640  11.447 -0.0837 -0.2783 -0.4257
   46TAL   C225 5528   4.917  -1.853  11.435  0.0117 -0.3739  0.1304
   46TAL   C226 5529   4.950  -1.923  11.313 -0.5447 -0.5208  0.7776
   46TAL   C227 5530   5.074  -2.018  11.328 -0.3781 -0.4989 -0.2544
   46TAL   C228 5531   5.072  -2.143  11.424  0.2105  0.6011 -0.6611
   46TAL   C229 5532   5.007  -2.275  11.396 -0.3481  0.1897 -0.1089
   46TAL   C230 5533   5.020  -2.352  11.525  0.0177  0.5194  0.5650
   47HTM   C231 5534   4.630  -1.886  11.563 -0.1837 -0.1953 -0.6868
   47HTM   C232 5535   4.544  -1.864  11.667  0.1203  0.1822 -0.5128
   47HTM   C233 5536   4.510  -1.984  11.740  0.4822  0.4683  0.1471
   47HTM   C234 5537   4.569  -2.096  11.691  0.4540  0.3090  0.4764
   47HTM    S24 5538   4.673  -2.061  11.548 -0.0355 -0.2188 -0.0253
   48TAL   C235 5539   4.400  -2.002  11.849 -0.7538 -0.2077  0.0894
   48TAL   C236 5540   4.382  -1.908  11.956 -0.6739 -0.4382  0.4917
   48TAL   C237 5541   4.288  -1.950  12.068 -1.0498 -1.0406 -0.5934
   48TAL   C238 5542   4.152  -1.878  12.092  0.2373  0.2695  0.0542
   48TAL   C239 5543   4.040  -1.973  12.150 -0.8813  0.7341  0.2321
   48TAL   C240 5544   4.014  -2.105  12.078  1.1211  0.5376 -0.4903
    1HTM     C1 5545   2.893   6.334  28.194 -0.0016  0.0420 -0.1850
    1HTM     C2 5546   2.837   6.248  28.104 -0.0777 -0.1591  0.0510
    1HTM     C3 5547   2.704   6.285  28.063 -0.3043 -0.5195  0.4492
    1HTM     C4 5548   2.658   6.399  28.122 -0.4011 -0.5930  0.5170
    1HTM     S1 5549   2.781   6.469  28.235 -0.2120 -0.2099  0.0796
    2TAL     C5 5550   2.642   6.207  27.949  0.5108  0.1625 -0.2754
    2TAL     C6 5551   2.663   6.270  27.809  0.7758 -0.7109  0.1793
    2TAL     C7 5552   2.530   6.320  27.762  0.2199 -0.7873  1.2245
    2TAL     C8 5553   2.489   6.248  27.631 -0.7450 -0.4810 -0.2851
    2TAL     C9 5554   2.335   6.232  27.611 -0.7611 -0.1871  0.2120
    2TAL    C10 5555   2.302   6.203  27.460 -0.9584  0.1068 -0.5255
    3HTM    C11 5556   2.541   6.482  28.101  0.4014  0.2022  0.1231
    3HTM    C12 5557   2.417   6.431  28.075  0.5588 -0.0212 -0.2031
    3HTM    C13 5558   2.311   6.526  28.091  0.3550 -0.1646 -0.6504
    3HTM    C14 5559   2.353   6.650  28.130  0.0423 -0.0506 -0.6646
    3HTM     S2 5560   2.533   6.655  28.149 -0.0195  0.2488 -0.1109
    4TAL    C15 5561   2.170   6.477  28.070  0.1646 -0.0253  0.7062
    4TAL    C16 5562   2.127   6.511  27.933 -0.3941  0.0688 -0.3380
    4TAL    C17 5563   1.984   6.553  27.941  0.7946 -0.2037 -0.0963
    4TAL    C18 5564   1.933   6.591  27.807  0.5103  0.3999 -0.3879
    4TAL    C19 5565   1.778   6.615  27.810 -0.2600 -0.6042  0.0664
    4TAL    C20 5566   1.738   6.647  27.662 -0.4624 -0.2066 -0.0961
    5HTM    C21 5567   2.289   6.768  28.181 -0.3389 -0.0145  0.2745
    5HTM    C22 5568   2.187   6.840  28.128 -0.4798 -0.0857  0.4458
    5HTM    C23 5569   2.151   6.956  28.206 -0.2058  0.0756  0.3381
    5HTM    C24 5570   2.226   6.971  28.319  0.1440  0.2700  0.0848
    5HTM     S3 5571   2.348   6.839  28.335  0.1546  0.2644 -0.0381
    6TAL    C25 5572   2.043   7.058  28.174  1.1611  0.5660  0.5760
    6TAL    C26 5573   1.922   6.995  28.089  0.0210  0.2808 -0.2081
    6TAL    C27 5574   1.849   7.102  28.014 -0.3505 -0.5622 -0.2371
    6TAL    C28 5575   1.714   7.074  27.953  0.5306 -0.9221  0.3086
    6TAL    C29 5576   1.697   7.158  27.825  0.0988 -0.0558 -0.2529
    6TAL    C30 5577   1.565   7.133  27.771 -1.1831  0.3004 -0.1500
    7HTM    C31 5578   2.196   7.056  28.437 -0.5929 -0.0151 -0.2100
    7HTM    C32 5579   2.208   7.191  28.448 -0.4054 -0.0272 -0.2522
    7HTM    C33 5580   2.189   7.241  28.582  0.0208  0.0066 -0.2022
    7HTM    C34 5581   2.163   7.143  28.673  0.1581  0.0445 -0.1228
    7HTM     S4 5582   2.160   6.980  28.596 -0.2432  0.0405 -0.1039
    8TAL    C35 5583   2.228   7.390  28.597  0.4431 -0.4382  0.2308
    8TAL    C36 5584   2.376   7.422  28.638  0.5988 -0.3625 -0.6338
    8TAL    C37 5585   2.484   7.331  28.599  0.0096  0.7381  0.8341
    8TAL    C38 5586   2.611   7.355  28.672 -1.4017  0.4201 -0.1402
    8TAL    C39 5587   2.719   7.257  28.626  0.0287  1.0912  0.5605
    8TAL    C40 5588   2.797   7.189  28.736 -0.2067  0.8347  0.0374
    9HTM    C41 5589   2.166   7.154  28.816  0.1617  0.2141  0.0589
    9HTM    C42 5590   2.244   7.075  28.896  0.2136  0.1093 -0.0922
    9HTM    C43 5591   2.252   7.122  29.032  0.1168 -0.1907  0.0196
    9HTM    C44 5592   2.182   7.237  29.055 -0.0087 -0.3148  0.2559
    9HTM     S5 5593   2.098   7.294  28.906 -0.0147 -0.0604  0.3564
   10TAL    C45 5594   2.318   7.050  29.149 -0.7258 -0.0513  0.0682
   10TAL    C46 5595   2.388   6.906  29.152  0.2546 -0.7291 -0.5086
   10TAL    C47 5596   2.407   6.873  29.301  0.3203  0.2278  0.7420
   10TAL    C48 5597   2.494   6.752  29.332 -0.0194  0.7258  0.9524
   10TAL    C49 5598   2.470   6.625  29.248  1.0467 -0.2107  0.3544
   10TAL    C50 5599   2.565   6.515  29.274 -0.0370 -0.1118  0.3729
   11HTM    C51 5600   2.176   7.322  29.173  0.1857  0.6398 -0.0703
   11HTM    C52 5601   2.185   7.458  29.172 -0.3017  0.6826  0.5071
   11HTM    C53 5602   2.177   7.517  29.303 -0.5916  0.1093  0.7581
   11HTM    C54 5603   2.163   7.426  29.404 -0.3252 -0.3707  0.3721
   11HTM     S6 5604   2.158   7.257  29.341  0.3174 -0.1341 -0.3440
   12TAL    C55 5605   2.192   7.664  29.323  0.4907 -1.2560  0.4848
   12TAL    C56 5606   2.343   7.705  29.352  0.3363  0.0846  0.3791
   12TAL    C57 5607   2.351   7.862  29.366  0.1653 -0.1171 -0.0114
   12TAL    C58 5608   2.292   7.912  29.506  0.0875  0.7543  0.1244
   12TAL    C59 5609   2.320   8.064  29.541 -0.7327 -0.1236  0.5325
   12TAL    C60 5610   2.242   8.127  29.662 -0.3692 -0.7082  1.2158
   13HTM    C61 5611   2.156   7.434  29.550 -0.1699 -0.0942 -0.4400
   13HTM    C62 5612   2.052   7.372  29.613  0.0386 -0.4913 -0.4757
   13HTM    C63 5613   2.020   7.429  29.741 -0.0394 -0.7936 -0.3603
   13HTM    C64 5614   2.101   7.533  29.777 -0.3074 -0.6270 -0.2367
   13HTM     S7 5615   2.223   7.569  29.649 -0.4834 -0.0712 -0.2564
   14TAL    C65 5616   1.880   7.403  29.789 -0.3085 -0.2251 -0.8381
   14TAL    C66 5617   1.791   7.477  29.901 -0.9065 -0.1268  0.3642
   14TAL    C67 5618   1.747   7.610  29.843 -0.3063 -0.4383 -0.2403
   14TAL    C68 5619   1.766   7.732  29.941  0.4386 -0.4477  1.4211
   14TAL    C69 5620   1.681   7.717  30.064  0.2682  0.1608  0.4763
   14TAL    C70 5621   1.667   7.832  30.154  0.3952  0.7000 -0.1165
   15HTM    C71 5622   2.115   7.620  29.899  1.1025  0.1110  0.2245
   15HTM    C72 5623   2.132   7.571  30.025  1.4640  0.2204  0.2199
   15HTM    C73 5624   2.157   7.673  30.124  1.0188  0.3715  0.1795
   15HTM    C74 5625   2.159   7.799  30.073  0.3177  0.3772  0.1533
   15HTM     S8 5626   2.129   7.800  29.895  0.1643  0.1909  0.1778
   16TAL    C75 5627   2.170   7.623  30.267  0.8713  0.5458 -0.0272
   16TAL    C76 5628   2.078   7.681  30.376 -0.4378 -1.0767  0.7350
   16TAL    C77 5629   2.122   7.603  30.499  0.1722 -0.0648  0.4694
   16TAL    C78 5630   2.032   7.642  30.617  0.5210  0.4353  0.7408
   16TAL    C79 5631   2.094   7.666  30.748  0.5828 -0.7006  1.0101
   16TAL    C80 5632   2.150   7.553  30.827  1.0959 -0.7291 -0.4268
   17HTM    C81 5633   2.198   7.923  30.137 -0.2808  0.2583 -0.2680
   17HTM    C82 5634   2.112   8.014  30.190 -0.0596  0.0110  0.5320
   17HTM    C83 5635   2.176   8.133  30.238  0.1194 -0.1338  0.6582
   17HTM    C84 5636   2.311   8.134  30.220  0.0347  0.0032 -0.0456
   17HTM     S9 5637   2.368   7.982  30.142 -0.2803  0.3281 -0.9292
   18TAL    C85 5638   2.089   8.244  30.297 -0.2325  0.2398  0.0138
   18TAL    C86 5639   1.963   8.205  30.362  0.3116  0.4860  0.4711
   18TAL    C87 5640   1.996   8.168  30.501  0.2808 -0.0253  0.6593
   18TAL    C88 5641   1.874   8.131  30.571  0.3045  0.6139  0.1164
   18TAL    C89 5642   1.893   8.095  30.718 -0.0534 -0.4742  0.0464
   18TAL    C90 5643   1.798   7.997  30.789 -0.3763  0.2784 -0.8491
   19HTM    C91 5644   2.411   8.234  30.257 -0.6529  0.3788 -0.3593
   19HTM    C92 5645   2.501   8.228  30.359 -0.7468  0.1390 -0.2904
   19HTM    C93 5646   2.580   8.347  30.374 -0.4306 -0.0752 -0.2402
   19HTM    C94 5647   2.550   8.444  30.284 -0.0955  0.0013 -0.2708
   19HTM    S10 5648   2.419   8.393  30.171 -0.1539  0.3526 -0.3662
   20TAL    C95 5649   2.690   8.358  30.491  0.3565  1.0334 -0.0985
   20TAL    C96 5650   2.761   8.232  30.541 -0.0812 -0.4091 -0.6977
   20TAL    C97 5651   2.854   8.260  30.658 -0.6269  0.1263  0.3011
   20TAL    C98 5652   2.944   8.140  30.696  0.5461  1.2297 -0.2157
   20TAL    C99 5653   3.068   8.175  30.783 -0.1602  0.4676 -0.2030
   20TAL   C100 5654   3.154   8.061  30.848  0.3172 -0.9484  0.0733
   21HTM   C101 5655   2.613   8.574  30.258  0.2557 -0.0265 -0.1569
   21HTM   C102 5656   2.641   8.622  30.133  0.0828  0.0709 -0.1592
   21HTM   C103 5657   2.690   8.757  30.132 -0.0625  0.1239 -0.1348
   21HTM   C104 5658   2.700   8.813  30.256 -0.0004  0.0670 -0.1139
   21HTM    S11 5659   2.647   8.698  30.385  0.2482 -0.0589 -0.1234
   22TAL   C105 5660   2.733   8.819  29.999 -0.1815  0.7086 -0.7243
   22TAL   C106 5661   2.625   8.834  29.901  0.3996  0.5352  1.2466
   22TAL   C107 5662   2.647   8.906  29.765 -0.0505 -0.6304 -0.3201
   22TAL   C108 5663   2.526   8.911  29.681  0.2327  0.8851 -0.0326
   22TAL   C109 5664   2.526   9.007  29.561  0.2346  0.3012 -0.3400
   22TAL   C110 5665   2.392   9.002  29.494  0.1211  0.3572  0.3943
   23HTM   C111 5666   2.719   8.954  30.283  0.4499  0.4131  0.4689
   23HTM   C112 5667   2.838   9.020  30.293  0.1812  0.9607  0.0998
   23HTM   C113 5668   2.824   9.156  30.339 -0.3312  1.0251 -0.2186
   23HTM   C114 5669   2.696   9.193  30.365 -0.4533  0.5266 -0.0923
   23HTM    S12 5670   2.580   9.058  30.332  0.0736 -0.0674  0.4427
   24TAL   C115 5671   2.957   9.235  30.347  0.4912  0.4192 -0.5860
   24TAL   C116 5672   3.043   9.242  30.462  0.3817  1.0404  0.0945
   24TAL   C117 5673   2.974   9.315  30.580  0.8735  0.3223 -0.0028
   24TAL   C118 5674   3.055   9.309  30.709 -0.6727 -1.2989 -0.8272
   24TAL   C119 5675   3.114   9.455  30.704  0.3111  0.4473 -0.0902
   24TAL   C120 5676   3.206   9.500  30.817 -0.0330  0.3027 -0.6054
   25HTM   C121 5677   2.650   9.327  30.376  0.2361 -0.1559  0.9455
   25HTM   C122 5678   2.519   9.352  30.404  0.1866 -0.3684  0.9095
   25HTM   C123 5679   2.486   9.492  30.404 -0.2620 -0.4564 -0.0884
   25HTM   C124 5680   2.591   9.574  30.376 -0.5544 -0.3111 -0.8134
   25HTM    S13 5681   2.742   9.479  30.347 -0.2839 -0.0497 -0.2878
   26TAL   C125 5682   2.340   9.528  30.427 -0.5745 -0.8105  0.5929
   26TAL   C126 5683   2.297   9.644  30.517  0.3010  0.2627 -0.0174
   26TAL   C127 5684   2.328   9.656  30.662 -0.1652 -0.4804 -0.3775
   26TAL   C128 5685   2.303   9.538  30.759 -0.1231  0.6240 -0.0955
   26TAL   C129 5686   2.290   9.572  30.908 -0.6146  0.2571  0.6725
   26TAL   C130 5687   2.228   9.707  30.967 -0.4813  0.0056 -0.1862
   27HTM   C131 5688   2.599   9.716  30.374 -0.5637 -0.4745 -0.0382
   27HTM   C132 5689   2.607   9.818  30.464 -0.1358 -0.6514  0.1316
   27HTM   C133 5690   2.594   9.949  30.406  0.4842 -0.4906  0.3400
   27HTM   C134 5691   2.577   9.947  30.271  0.5290 -0.1909  0.3292
   27HTM    S14 5692   2.576   9.779  30.206 -0.2142 -0.0879  0.0528
   28TAL   C135 5693   2.599  10.088  30.478  0.7762  0.3819  0.0696
   28TAL   C136 5694   2.539  10.125  30.613 -0.7022 -0.3638 -0.1133
   28TAL   C137 5695   2.389  10.114  30.610  0.1922  0.2897  0.0084
   28TAL   C138 5696   2.328  10.126  30.755  0.1619  0.8015  0.6112
   28TAL   C139 5697   2.182  10.151  30.748 -0.1946  0.3946 -0.9250
   28TAL   C140 5698   2.094  10.130  30.882  0.3452  0.0760  0.7844
   29HTM   C141 5699   2.576  10.043  30.168 -0.3953 -0.1219  0.3113
   29HTM   C142 5700   2.635  10.027  30.047 -0.5362 -0.6467  0.3037
   29HTM   C143 5701   2.605  10.133  29.953 -0.3710 -0.8677 -0.0041
   29HTM   C144 5702   2.522  10.228  30.004 -0.1041 -0.5115 -0.2312
   29HTM    S15 5703   2.476  10.193  30.175 -0.0404  0.1357 -0.0727
   30TAL   C145 5704   2.662  10.128  29.808  0.0620  0.5191  0.2327
   30TAL   C146 5705   2.733  10.002  29.762  0.2009  0.2282  0.9259
   30TAL   C147 5706   2.854  10.017  29.683 -0.3065  0.1918 -0.3060
   30TAL   C148 5707   2.887   9.873  29.646  0.3804  0.5814 -0.2087
   30TAL   C149 5708   2.995   9.845  29.547  0.0391  0.8834 -0.5875
   30TAL   C150 5709   2.991   9.700  29.490 -0.0828  0.7582 -0.3254
   31HTM   C151 5710   2.466  10.351  29.952 -0.1063 -0.3098 -1.0003
   31HTM   C152 5711   2.488  10.417  29.834 -0.9422  0.1186 -0.9310
   31HTM   C153 5712   2.417  10.542  29.824 -0.9702  0.2003  0.0547
   31HTM   C154 5713   2.342  10.572  29.933 -0.1556 -0.1655  0.7371
   31HTM    S16 5714   2.354  10.444  30.059  0.7168 -0.6456  0.1833
   32TAL   C155 5715   2.426  10.643  29.712 -0.9236 -0.3650  0.0982
   32TAL   C156 5716   2.345  10.598  29.596  0.2079 -0.8207  0.8722
   32TAL   C157 5717   2.241  10.715  29.567 -0.3935  0.0792  0.3632
   32TAL   C158 5718   2.120  10.627  29.525  0.2848  0.5625 -0.5334
   32TAL   C159 5719   2.011  10.678  29.432 -0.2074  0.8702 -0.2328
   32TAL   C160 5720   1.912  10.566  29.397 -0.4069  0.1725 -1.0288
   33HTM   C161 5721   2.228  10.663  29.931 -0.2559  0.2951  0.2648
   33HTM   C162 5722   2.095  10.655  29.899 -0.0922  0.3181 -0.4503
   33HTM   C163 5723   2.022  10.776  29.923 -0.1743  0.3794 -0.9913
   33HTM   C164 5724   2.099  10.878  29.973 -0.4006  0.4033 -0.6888
   33HTM    S17 5725   2.270  10.826  29.995 -0.5285  0.3497  0.3107
   34TAL   C165 5726   1.868  10.780  29.905 -0.3252  0.7130  0.5444
   34TAL   C166 5727   1.808  10.780  29.761  0.4985  0.2611  0.1596
   34TAL   C167 5728   1.808  10.910  29.675 -0.5900 -0.5200  0.4451
   34TAL   C168 5729   1.722  11.031  29.733 -0.4808  0.4407 -0.5477
   34TAL   C169 5730   1.571  10.994  29.743  0.2851 -0.7125  0.8435
   34TAL   C170 5731   1.503  11.123  29.773  0.0288 -0.2586  0.3744
   35HTM   C171 5732   2.070  11.005  30.027  0.1133  0.1865 -0.3004
   35HTM   C172 5733   1.954  11.059  30.076 -0.1437 -0.0015 -0.6858
   35HTM   C173 5734   1.966  11.197  30.114 -0.4486 -0.0302 -0.4785
   35HTM   C174 5735   2.091  11.249  30.094 -0.4239  0.1359  0.0649
   35HTM    S18 5736   2.203  11.126  30.024 -0.0106  0.3431  0.3594
   36TAL   C175 5737   1.850  11.275  30.171 -0.1901  0.1014  0.1151
   36TAL   C176 5738   1.714  11.261  30.097 -0.3168 -0.9500 -0.0212
   36TAL   C177 5739   1.593  11.322  30.168  0.4419 -0.0657  0.0961
   36TAL   C178 5740   1.564  11.266  30.306 -0.7783 -0.2937  0.1226
   36TAL   C179 5741   1.426  11.298  30.332 -0.6123 -0.4632  0.0413
   36TAL   C180 5742   1.355  11.237  30.457 -0.6677  0.2021  0.8691
   37HTM   C181 5743   2.143  11.382  30.121 -0.1097  0.2946  0.4257
   37HTM   C182 5744   2.162  11.481  30.030  0.5860  0.0050  0.2444
   37HTM   C183 5745   2.209  11.605  30.087  1.0588 -0.0927  0.0750
   37HTM   C184 5746   2.226  11.600  30.222  0.7236  0.1225  0.1270
   37HTM    S19 5747   2.183  11.437  30.288 -0.2227  0.4679  0.3962
   38TAL   C185 5748   2.210  11.725  29.999  0.9888 -0.1803  0.0833
   38TAL   C186 5749   2.102  11.740  29.895  0.1741 -0.0558  0.3478
   38TAL   C187 5750   2.117  11.863  29.801  0.4619 -0.1251  0.1589
   38TAL   C188 5751   2.003  11.851  29.699 -0.0225  0.1632  0.0954
   38TAL   C189 5752   1.982  11.968  29.600  0.7559 -1.4014 -0.5057
   38TAL   C190 5753   1.877  11.957  29.485  0.7005 -0.9708  0.6034
   39HTM   C191 5754   2.281  11.688  30.318  0.3155 -0.2673 -0.5302
   39HTM   C192 5755   2.365  11.661  30.423  0.5817 -0.1107 -0.7012
   39HTM   C193 5756   2.404  11.778  30.497  0.2689 -0.0715 -0.5963
   39HTM   C194 5757   2.350  11.894  30.450 -0.2359 -0.1982 -0.3454
   39HTM    S20 5758   2.245  11.864  30.306 -0.3563 -0.3782 -0.2211
   40TAL   C195 5759   2.496  11.776  30.616 -0.4262 -0.4235 -0.5990
   40TAL   C196 5760   2.617  11.687  30.636 -0.3867  0.4422 -0.5810
   40TAL   C197 5761   2.716  11.721  30.747 -0.9723 -0.4817 -0.0297
   40TAL   C198 5762   2.708  11.831  30.841  0.2859  0.0783 -0.0253
   40TAL   C199 5763   2.810  11.808  30.953  0.1524  0.9129 -0.5300
   40TAL   C200 5764   2.825  11.927  31.050 -0.3914  0.4695  0.3376
   41HTM   C201 5765   2.384  12.034  30.494 -0.0957  0.3077 -0.6612
   41HTM   C202 5766   2.507  12.084  30.526 -0.0381  0.3515 -0.9410
   41HTM   C203 5767   2.505  12.223  30.561 -0.1165  0.2030 -0.3260
   41HTM   C204 5768   2.381  12.280  30.555 -0.2339  0.0459  0.4228
   41HTM    S21 5769   2.256  12.161  30.505 -0.2547  0.0736  0.4092
   42TAL   C205 5770   2.625  12.294  30.624 -0.2697 -0.6530  0.8920
   42TAL   C206 5771   2.740  12.217  30.689 -1.1181 -0.4941 -0.7902
   42TAL   C207 5772   2.841  12.188  30.591  0.1105  0.2153 -0.1723
   42TAL   C208 5773   2.956  12.097  30.635  0.0719  0.4741 -0.3520
   42TAL   C209 5774   3.080  12.145  30.703 -0.3873  0.2337  0.1812
   42TAL   C210 5775   3.163  12.018  30.688 -0.6271 -0.1562 -0.8598
   43HTM   C211 5776   2.339  12.420  30.574  0.3049 -0.2732  0.1682
   43HTM   C212 5777   2.214  12.454  30.619  0.0660 -0.3856 -0.4009
   43HTM   C213 5778   2.194  12.595  30.634 -0.2325 -0.3859 -0.7699
   43HTM   C214 5779   2.303  12.670  30.601 -0.2211 -0.2734 -0.4821
   43HTM    S22 5780   2.441  12.567  30.548  0.1704 -0.1577  0.2830
   44TAL   C215 5781   2.067  12.655  30.685  0.3450  0.3970  0.5478
   44TAL   C216 5782   1.930  12.586  30.663 -0.5207 -1.3672 -0.6162
   44TAL   C217 5783   1.860  12.570  30.526 -0.6324 -0.7355  0.2836
   44TAL   C218 5784   1.786  12.696  30.455  0.2432  0.3805 -0.0568
   44TAL   C219 5785   1.676  12.762  30.537  0.0298  0.1737 -0.4168
   44TAL   C220 5786   1.623  12.881  30.474  0.5650 -0.5168  0.3317
   45HTM   C221 5787   2.321  12.817  30.604  0.1173  0.2442  0.0488
   45HTM   C222 5788   2.280  12.899  30.503  0.6179  0.1681 -0.2244
   45HTM   C223 5789   2.300  13.039  30.531  0.8360  0.1743 -0.4004
   45HTM   C224 5790   2.355  13.064  30.653  0.5017  0.2554 -0.2616
   45HTM    S23 5791   2.388  12.911  30.743 -0.1192  0.3306  0.1053
   46TAL   C225 5792   2.272  13.134  30.412 -0.1024  0.2640  0.7166
   46TAL   C226 5793   2.148  13.135  30.326 -0.2240 -0.1728 -1.4062
   46TAL   C227 5794   2.200  13.130  30.186 -0.8412  0.6730 -0.1372
   46TAL   C228 5795   2.088  13.123  30.085  0.1374 -0.2583  0.5903
   46TAL   C229 5796   2.115  13.086  29.935 -0.3824 -0.1974 -0.6654
   46TAL   C230 5797   2.218  13.176  29.866  0.4900  0.1891  0.0350
   47HTM   C231 5798   2.390  13.186  30.726  0.5413 -0.0319 -0.0193
   47HTM   C232 5799   2.432  13.187  30.856  0.4292  0.0848  0.0166
   47HTM   C233 5800   2.474  13.317  30.902  0.0601  0.1940  0.0437
   47HTM   C234 5801   2.462  13.415  30.808 -0.1094  0.1605  0.0284
   47HTM    S24 5802   2.399  13.350  30.652  0.1864 -0.0128 -0.0217
   48TAL   C235 5803   2.515  13.333  31.051 -0.5589 -0.2020  0.1787
   48TAL   C236 5804   2.616  13.424  31.122 -0.6153 -0.3390  0.4730
   48TAL   C237 5805   2.767  13.435  31.073  0.2811  0.4945  0.1221
   48TAL   C238 5806   2.864  13.505  31.163 -0.0986 -0.0162 -0.8745
   48TAL   C239 5807   2.934  13.435  31.285  0.2580  1.0327  0.4851
   48TAL   C240 5808   3.003  13.538  31.361  0.3045  0.1329 -0.8486
    1HTM     C1 5809   3.670   0.584  18.193 -0.3726  0.1965  0.1329
    1HTM     C2 5810   3.738   0.656  18.099 -0.4267  0.1523  0.0601
    1HTM     C3 5811   3.850   0.729  18.152 -0.3079  0.0624 -0.0625
    1HTM     C4 5812   3.866   0.714  18.287 -0.1633  0.0381 -0.0834
    1HTM     S1 5813   3.741   0.605  18.357 -0.1658  0.1274  0.0516
    2TAL     C5 5814   3.929   0.838  18.074 -0.3374 -0.0558 -0.5236
    2TAL     C6 5815   3.892   0.989  18.089 -0.0583  1.2565 -0.0202
    2TAL     C7 5816   3.745   1.016  18.060  0.2876  0.5379 -0.0900
    2TAL     C8 5817   3.704   1.163  18.058  0.1362  0.1410 -0.9316
    2TAL     C9 5818   3.560   1.150  18.009  0.2603 -1.0896  0.4553
    2TAL    C10 5819   3.523   1.298  17.984  0.0196 -0.5856 -0.7990
    3HTM    C11 5820   3.971   0.767  18.372 -0.1870 -0.4259 -0.1566
    3HTM    C12 5821   3.950   0.807  18.500 -0.4511 -1.6700  0.2174
    3HTM    C13 5822   4.072   0.828  18.575 -0.5908 -1.8205  0.4916
    3HTM    C14 5823   4.185   0.804  18.503 -0.4333 -0.6910  0.3259
    3HTM     S2 5824   4.147   0.752  18.334 -0.0937  0.6606 -0.1923
    4TAL    C15 5825   4.067   0.851  18.719  0.7500 -0.3947 -0.3015
    4TAL    C16 5826   3.949   0.810  18.812 -0.7385 -0.2403  0.0517
    4TAL    C17 5827   3.904   0.668  18.803  0.0146  0.2771  0.4429
    4TAL    C18 5828   3.809   0.617  18.904 -0.0134  0.0004 -0.1941
    4TAL    C19 5829   3.753   0.476  18.873  0.3605  0.3787 -0.0842
    4TAL    C20 5830   3.775   0.363  18.979  0.6609  0.1245  0.6301
    5HTM    C21 5831   4.322   0.822  18.539 -0.1178 -0.0727 -0.2075
    5HTM    C22 5832   4.412   0.744  18.604 -0.5155 -0.1326  0.2899
    5HTM    C23 5833   4.539   0.809  18.627 -0.3408 -0.4696  0.2923
    5HTM    C24 5834   4.544   0.937  18.580  0.1901 -0.6668 -0.2032
    5HTM     S3 5835   4.389   0.985  18.502  0.5131 -0.4403 -0.7163
    6TAL    C25 5836   4.654   0.722  18.686  0.3450  0.7753  0.9634
    6TAL    C26 5837   4.643   0.635  18.811  0.1253  0.9611 -0.7509
    6TAL    C27 5838   4.650   0.716  18.941  1.0255  0.5471 -0.1925
    6TAL    C28 5839   4.768   0.815  18.979  0.7043  0.5070 -0.1804
    6TAL    C29 5840   4.714   0.911  19.081 -0.2784 -0.0149 -0.5887
    6TAL    C30 5841   4.812   1.013  19.140  1.0882 -0.0016  0.2642
    7HTM    C31 5842   4.653   1.037  18.594 -0.4195  0.3701  0.5810
    7HTM    C32 5843   4.668   1.140  18.506 -0.4256  0.2327  0.4182
    7HTM    C33 5844   4.791   1.213  18.521 -0.1990 -0.0451 -0.0262
    7HTM    C34 5845   4.870   1.166  18.621 -0.0201 -0.1196 -0.2028
    7HTM     S4 5846   4.796   1.024  18.704 -0.1248  0.1575  0.1821
    8TAL    C35 5847   4.843   1.328  18.439  0.6939  0.2376  0.1688
    8TAL    C36 5848   4.760   1.375  18.319  0.4604 -0.0918 -0.1836
    8TAL    C37 5849   4.782   1.528  18.312 -0.0883  0.3358 -0.1953
    8TAL    C38 5850   4.680   1.607  18.226 -0.0346 -0.3239 -0.3480
    8TAL    C39 5851   4.735   1.749  18.180 -0.4406 -0.4773 -0.5390
    8TAL    C40 5852   4.831   1.734  18.053  0.0794 -0.0734  0.0033
    9HTM    C41 5853   5.010   1.196  18.662  0.4113  0.4123  0.0368
    9HTM    C42 5854   5.120   1.116  18.649  0.6567  0.8217 -0.4783
    9HTM    C43 5855   5.235   1.164  18.721  0.5687  0.8137 -0.3314
    9HTM    C44 5856   5.213   1.280  18.789  0.2564  0.3983  0.2947
    9HTM     S5 5857   5.044   1.339  18.767  0.0475 -0.0182  0.7519
   10TAL    C45 5858   5.369   1.094  18.697  0.2917 -0.5038  0.5948
   10TAL    C46 5859   5.447   1.126  18.570  0.2690  0.5542  0.1679
   10TAL    C47 5860   5.542   1.252  18.550  0.8566  0.2485 -0.3334
   10TAL    C48 5861   5.654   1.251  18.646  0.3946  0.8066 -0.6485
   10TAL    C49 5862   5.640   1.329  18.779  0.1846  0.0284  0.3213
   10TAL    C50 5863   5.696   1.469  18.777  0.0939  0.8218  0.3731
   11HTM    C51 5864   5.291   1.361  18.874  0.0252 -0.4476 -0.1466
   11HTM    C52 5865   5.339   1.324  18.995  1.0073 -0.6914 -0.5918
   11HTM    C53 5866   5.387   1.433  19.075  1.2308 -0.7968 -0.5798
   11HTM    C54 5867   5.375   1.555  19.015  0.4190 -0.6334 -0.1256
   11HTM     S6 5868   5.302   1.540  18.851 -0.6991 -0.3313  0.3271
   12TAL    C55 5869   5.441   1.426  19.220  0.2908 -0.0860 -0.7463
   12TAL    C56 5870   5.403   1.316  19.318 -0.8292 -0.4246 -1.1308
   12TAL    C57 5871   5.518   1.208  19.353  0.2289 -1.2643 -0.5484
   12TAL    C58 5872   5.584   1.131  19.231 -0.3936 -0.8231 -0.4704
   12TAL    C59 5873   5.709   1.195  19.183 -0.0509  0.6679  0.0098
   12TAL    C60 5874   5.791   1.115  19.089 -1.4632  0.2632  0.0235
   13HTM    C61 5875   5.427   1.695  19.039 -0.1088  0.3232 -0.0155
   13HTM    C62 5876   5.425   1.798  18.949 -0.2875  0.4076  0.0825
   13HTM    C63 5877   5.473   1.922  19.002 -0.3669  0.4055  0.1593
   13HTM    C64 5878   5.511   1.915  19.133 -0.2486  0.3195  0.1202
   13HTM     S7 5879   5.489   1.749  19.199 -0.0261  0.2339 -0.0179
   14TAL    C65 5880   5.469   2.039  18.901  0.4021 -0.6421  0.8572
   14TAL    C66 5881   5.547   2.042  18.763  0.0908 -1.0282 -0.2152
   14TAL    C67 5882   5.702   2.038  18.784  0.7189 -0.8197 -1.0095
   14TAL    C68 5883   5.739   1.892  18.763 -0.3436  0.0118 -0.3342
   14TAL    C69 5884   5.877   1.869  18.714 -0.2704 -0.3230 -0.1091
   14TAL    C70 5885   5.946   1.745  18.769  0.5717 -0.3679  0.2726
   15HTM    C71 5886   5.551   2.014  19.219 -1.2669 -0.0190 -0.3770
   15HTM    C72 5887   5.611   2.133  19.188 -1.6558  0.1206 -0.6065
   15HTM    C73 5888   5.642   2.214  19.303 -1.0856  0.0337 -0.6952
   15HTM    C74 5889   5.607   2.157  19.422 -0.2619 -0.1723 -0.5330
   15HTM     S8 5890   5.530   1.995  19.397 -0.1416 -0.2732 -0.2539
   16TAL    C75 5891   5.720   2.342  19.297  0.0103 -0.0911  0.7557
   16TAL    C76 5892   5.865   2.332  19.245  0.3324  0.1271  0.3889
   16TAL    C77 5893   5.960   2.444  19.294 -0.3947  0.1608  0.2717
   16TAL    C78 5894   6.010   2.418  19.441 -0.3552 -0.0868  0.1450
   16TAL    C79 5895   6.019   2.561  19.505 -0.8429  0.0733  0.7334
   16TAL    C80 5896   6.087   2.571  19.641 -0.5672  0.4021 -1.0310
   17HTM    C81 5897   5.603   2.216  19.559  0.1962  0.2228  0.2372
   17HTM    C82 5898   5.698   2.276  19.635  0.1936  0.0796  0.3529
   17HTM    C83 5899   5.656   2.304  19.770  0.1458 -0.0543  0.3667
   17HTM    C84 5900   5.527   2.266  19.796  0.1120 -0.0132  0.2614
   17HTM     S9 5901   5.450   2.191  19.651  0.1382  0.1994  0.1351
   18TAL    C85 5902   5.738   2.359  19.890  0.5238  0.3400  0.2812
   18TAL    C86 5903   5.850   2.271  19.923  0.4224 -0.2456  0.5040
   18TAL    C87 5904   5.946   2.338  20.018 -0.1520 -0.1713 -0.0795
   18TAL    C88 5905   6.068   2.241  20.043 -0.1022  0.4509  1.3958
   18TAL    C89 5906   6.183   2.275  20.129  0.6879  0.3046  0.5369
   18TAL    C90 5907   6.251   2.384  20.051 -1.3345  0.3850 -0.4988
   19HTM    C91 5908   5.455   2.273  19.911  0.2915 -0.8727 -0.3102
   19HTM    C92 5909   5.356   2.362  19.940  0.1129 -0.9260 -0.7477
   19HTM    C93 5910   5.299   2.345  20.071  0.0559 -0.4781 -0.7114
   19HTM    C94 5911   5.356   2.244  20.143  0.1909 -0.0834 -0.2473
   19HTM    S10 5912   5.486   2.161  20.049  0.4020 -0.2480  0.1851
   20TAL    C95 5913   5.189   2.439  20.128 -0.0480 -0.4617 -0.1816
   20TAL    C96 5914   5.212   2.586  20.159 -0.2322  0.2238  0.2713
   20TAL    C97 5915   5.343   2.615  20.243  0.0862  1.7494  0.7081
   20TAL    C98 5916   5.314   2.594  20.394  0.8509 -0.3236 -0.7810
   20TAL    C99 5917   5.188   2.645  20.462  0.2743  0.3103  0.0487
   20TAL   C100 5918   5.148   2.592  20.594  0.0073 -0.5938  0.2268
   21HTM   C101 5919   5.319   2.178  20.264  0.0414 -0.3341 -0.3640
   21HTM   C102 5920   5.372   2.196  20.388  0.4034 -0.7458 -0.4530
   21HTM   C103 5921   5.304   2.122  20.491  0.1856 -0.4597 -0.3858
   21HTM   C104 5922   5.200   2.047  20.445 -0.3426  0.1701 -0.2457
   21HTM    S11 5923   5.179   2.065  20.267 -0.6077  0.4528 -0.1873
   22TAL   C105 5924   5.354   2.117  20.637 -1.6183 -0.8344 -0.3603
   22TAL   C106 5925   5.394   2.257  20.705  1.5476 -1.3328  0.5038
   22TAL   C107 5926   5.419   2.249  20.847 -0.0913 -0.5090 -0.3692
   22TAL   C108 5927   5.519   2.351  20.883 -0.2977  0.4199 -0.2970
   22TAL   C109 5928   5.541   2.400  21.030  1.0632  0.6617 -0.7720
   22TAL   C110 5929   5.411   2.462  21.105 -0.5271 -0.3549 -0.0293
   23HTM   C111 5930   5.112   1.952  20.504 -0.6186  0.4782 -0.2850
   23HTM   C112 5931   5.058   1.839  20.449 -1.3772  0.8539 -0.3333
   23HTM   C113 5932   4.981   1.760  20.542 -1.1404  0.8588 -0.1321
   23HTM   C114 5933   4.977   1.812  20.668 -0.2009  0.4868  0.0702
   23HTM    S12 5934   5.070   1.966  20.679  0.4625  0.0985  0.0213
   24TAL   C115 5935   4.907   1.634  20.490  0.3559 -0.1036 -0.1447
   24TAL   C116 5936   4.759   1.603  20.518 -0.1139  0.4579 -0.2867
   24TAL   C117 5937   4.707   1.481  20.441  0.7210  0.0511 -0.7022
   24TAL   C118 5938   4.553   1.449  20.445 -0.2370  0.0195 -0.0626
   24TAL   C119 5939   4.482   1.427  20.578  0.5072 -0.4182 -0.9394
   24TAL   C120 5940   4.353   1.345  20.581  0.1807 -0.2167 -0.4074
   25HTM   C121 5941   4.940   1.758  20.801 -0.2988  0.0733 -0.1099
   25HTM   C122 5942   4.887   1.638  20.836  0.5158 -0.3026 -0.1040
   25HTM   C123 5943   4.874   1.619  20.978  0.8535 -0.4812 -0.0958
   25HTM   C124 5944   4.918   1.725  21.052  0.2965 -0.2414 -0.0957
   25HTM    S13 5945   4.980   1.858  20.946 -0.7059  0.2321 -0.1064
   26TAL   C125 5946   4.822   1.492  21.035  0.2013 -0.6313  0.0013
   26TAL   C126 5947   4.670   1.476  21.023 -0.4402 -0.2418  0.1787
   26TAL   C127 5948   4.623   1.380  20.926  0.1326  0.6502  0.9004
   26TAL   C128 5949   4.644   1.226  20.931 -0.4066 -0.1525 -0.9068
   26TAL   C129 5950   4.782   1.165  20.919 -0.3257  1.2157  1.0500
   26TAL   C130 5951   4.816   1.041  21.006 -0.1379 -0.8255  0.4035
   27HTM   C131 5952   4.918   1.755  21.193 -0.1767  0.6390  0.3668
   27HTM   C132 5953   4.969   1.866  21.255 -0.5287  0.5704  0.7849
   27HTM   C133 5954   4.962   1.859  21.399 -0.6127  0.0565  0.7615
   27HTM   C134 5955   4.907   1.744  21.446 -0.3247 -0.2668  0.3256
   27HTM    S14 5956   4.859   1.634  21.312  0.0779  0.0552 -0.0910
   28TAL   C135 5957   5.026   1.974  21.472 -0.1255 -1.3360  0.6071
   28TAL   C136 5958   5.173   1.953  21.514 -0.4038 -0.8737 -0.3884
   28TAL   C137 5959   5.276   1.956  21.404 -1.6461  0.2829  0.8779
   28TAL   C138 5960   5.419   1.972  21.455 -0.1242  0.0464 -0.1577
   28TAL   C139 5961   5.472   1.834  21.476 -0.2205 -1.8963 -0.7139
   28TAL   C140 5962   5.616   1.833  21.518  0.0503 -0.3340  0.3859
   29HTM   C141 5963   4.889   1.687  21.581 -0.3704  0.5285  0.3778
   29HTM   C142 5964   4.811   1.578  21.608 -0.5879  0.6665  0.3090
   29HTM   C143 5965   4.800   1.548  21.748 -0.3641  0.3949  0.2713
   29HTM   C144 5966   4.869   1.634  21.828  0.0241  0.0499  0.3110
   29HTM    S15 5967   4.955   1.760  21.732  0.1380  0.0410  0.4009
   30TAL   C145 5968   4.729   1.419  21.777  0.2906 -0.5004  0.4560
   30TAL   C146 5969   4.821   1.310  21.814 -0.1925  0.6654  0.2996
   30TAL   C147 5970   4.776   1.175  21.761 -0.7354 -0.9508  0.2863
   30TAL   C148 5971   4.864   1.068  21.807 -0.2618  0.6804 -0.2178
   30TAL   C149 5972   4.830   0.949  21.721  0.1774 -1.0275  0.3820
   30TAL   C150 5973   4.921   0.834  21.759 -0.5559 -0.0841 -0.1028
   31HTM   C151 5974   4.873   1.632  21.977  0.2125 -0.4668  0.2293
   31HTM   C152 5975   4.788   1.566  22.061  0.1396 -0.4603  0.1616
   31HTM   C153 5976   4.819   1.584  22.201 -0.1500 -0.2216  0.1955
   31HTM   C154 5977   4.927   1.664  22.223 -0.2980 -0.0461  0.2896
   31HTM    S16 5978   4.999   1.723  22.069 -0.0814 -0.1697  0.3433
   32TAL   C155 5979   4.730   1.527  22.310 -0.6823  0.5332 -0.3122
   32TAL   C156 5980   4.608   1.443  22.274  0.6873 -0.7746  0.5774
   32TAL   C157 5981   4.526   1.418  22.398  0.6817 -0.4463 -0.4903
   32TAL   C158 5982   4.409   1.331  22.366  0.7330 -0.0938  0.3302
   32TAL   C159 5983   4.289   1.339  22.464 -0.1880 -0.4851 -0.1537
   32TAL   C160 5984   4.180   1.242  22.424 -0.3361  0.1999 -0.0016
   33HTM   C161 5985   5.001   1.706  22.342  0.0933 -0.3661  0.4313
   33HTM   C162 5986   5.048   1.618  22.435  0.2373 -0.0906  0.6223
   33HTM   C163 5987   5.143   1.675  22.527  0.3417  0.1952  0.3381
   33HTM   C164 5988   5.169   1.807  22.503  0.2773  0.1375 -0.0696
   33HTM    S17 5989   5.075   1.869  22.362  0.0782 -0.2855 -0.1270
   34TAL   C165 5990   5.203   1.603  22.636 -0.2758  0.7244  0.1541
   34TAL   C166 5991   5.155   1.621  22.778 -0.0928 -0.4846 -0.4738
   34TAL   C167 5992   5.003   1.670  22.798 -0.7616  0.5370  0.6854
   34TAL   C168 5993   4.930   1.666  22.936  0.2750  0.0279 -0.2895
   34TAL   C169 5994   5.016   1.729  23.046 -0.4526 -0.2285  0.0588
   34TAL   C170 5995   5.015   1.881  23.044 -0.5662  0.9296  0.1098
   35HTM   C171 5996   5.240   1.909  22.589  0.5035  0.2197 -0.3908
   35HTM   C172 5997   5.373   1.914  22.616  0.4536  0.7547 -0.2275
   35HTM   C173 5998   5.408   2.013  22.715 -0.1239  0.5739  0.1683
   35HTM   C174 5999   5.301   2.083  22.763 -0.5140 -0.0989  0.3074
   35HTM    S18 6000   5.147   2.029  22.686 -0.1803 -0.5600 -0.0543
   36TAL   C175 6001   5.557   2.039  22.729 -0.2276 -0.0626  0.9620
   36TAL   C176 6002   5.603   2.182  22.687 -0.1680 -0.4242 -0.5603
   36TAL   C177 6003   5.743   2.185  22.678 -0.4359  0.1930  0.6445
   36TAL   C178 6004   5.789   2.331  22.689 -0.5361 -0.0407  0.8989
   36TAL   C179 6005   5.935   2.353  22.643 -0.0773 -0.0831 -0.4182
   36TAL   C180 6006   6.026   2.449  22.715 -0.2239  0.2230  1.2054
   37HTM   C181 6007   5.285   2.168  22.876 -0.4238  0.1090 -0.3855
   37HTM   C182 6008   5.315   2.138  23.006 -0.5177 -0.1754 -0.4272
   37HTM   C183 6009   5.289   2.246  23.098 -0.4920 -0.3418 -0.2232
   37HTM   C184 6010   5.238   2.357  23.039 -0.3784 -0.1843 -0.0254
   37HTM    S19 6011   5.220   2.335  22.860 -0.2946  0.1893 -0.0830
   38TAL   C185 6012   5.315   2.232  23.252  0.3610  1.1178  0.4760
   38TAL   C186 6013   5.249   2.099  23.296  0.2746 -0.6988  0.3655
   38TAL   C187 6014   5.271   2.086  23.443 -0.7156  0.3563  0.8599
   38TAL   C188 6015   5.229   1.946  23.485 -0.1738  0.4590 -0.6114
   38TAL   C189 6016   5.085   1.888  23.487  0.2971  0.3490 -0.2966
   38TAL   C190 6017   4.986   1.935  23.587  0.0891 -0.4102  0.7973
   39HTM   C191 6018   5.216   2.483  23.107  0.1319  0.1512 -0.0951
   39HTM   C192 6019   5.282   2.602  23.100 -0.2372  0.3324 -0.6347
   39HTM   C193 6020   5.223   2.706  23.179 -0.3898  0.4250 -0.8698
   39HTM   C194 6021   5.111   2.667  23.246 -0.1373  0.3143 -0.5096
   39HTM    S20 6022   5.072   2.494  23.215  0.3166  0.0828  0.1594
   40TAL   C195 6023   5.282   2.847  23.195 -0.4226  1.5298  0.3328
   40TAL   C196 6024   5.430   2.868  23.216 -0.2623  0.2615 -0.9165
   40TAL   C197 6025   5.470   2.823  23.360 -0.4670  0.5073  0.0495
   40TAL   C198 6026   5.483   2.934  23.466 -0.1566 -0.8799  0.8080
   40TAL   C199 6027   5.563   3.066  23.433 -0.6037 -0.2372 -0.1580
   40TAL   C200 6028   5.599   3.131  23.571 -0.6192  0.0719 -0.1841
   41HTM   C201 6029   5.006   2.745  23.307 -0.2048 -0.5368 -0.6876
   41HTM   C202 6030   4.988   2.739  23.442 -0.2249 -1.3316 -0.7114
   41HTM   C203 6031   4.900   2.841  23.493 -0.1514 -1.5595 -0.1121
   41HTM   C204 6032   4.850   2.924  23.397 -0.0754 -0.9385  0.3689
   41HTM    S21 6033   4.912   2.879  23.233 -0.0908 -0.0104  0.1008
   42TAL   C205 6034   4.868   2.858  23.644  0.2626  0.1564  0.5266
   42TAL   C206 6035   4.976   2.824  23.743 -0.4637 -0.8871  0.3236
   42TAL   C207 6036   5.099   2.914  23.739 -1.3583 -0.4999  1.0364
   42TAL   C208 6037   5.223   2.856  23.806 -0.0378 -0.4436  0.8741
   42TAL   C209 6038   5.280   2.746  23.720 -0.6492  0.4681  0.3348
   42TAL   C210 6039   5.392   2.686  23.800  0.3065  0.0265 -0.0949
   43HTM   C211 6040   4.778   3.053  23.399 -0.2290  0.1837 -0.6609
   43HTM   C212 6041   4.703   3.106  23.298 -0.8240  0.1941 -0.2246
   43HTM   C213 6042   4.637   3.229  23.333 -0.8512  0.0456  0.2594
   43HTM   C214 6043   4.662   3.270  23.461 -0.2769 -0.0779  0.1935
   43HTM    S22 6044   4.771   3.155  23.547  0.3476 -0.0158 -0.4911
   44TAL   C215 6045   4.537   3.301  23.253 -0.6558  0.5275  0.1979
   44TAL   C216 6046   4.498   3.239  23.114  0.0888  0.9408 -0.6922
   44TAL   C217 6047   4.401   3.319  23.035  1.9396 -0.6871  0.6241
   44TAL   C218 6048   4.258   3.342  23.099 -0.6448 -0.0463 -0.7157
   44TAL   C219 6049   4.236   3.493  23.115  0.4337 -0.6177  0.6803
   44TAL   C220 6050   4.198   3.565  22.990  0.0504 -0.1655 -0.6436
   45HTM   C221 6051   4.601   3.373  23.540 -0.5445  0.5390 -0.5506
   45HTM   C222 6052   4.651   3.494  23.578 -0.8169  0.8714 -1.2236
   45HTM   C223 6053   4.552   3.583  23.632 -0.9183  0.7283 -1.1721
   45HTM   C224 6054   4.426   3.530  23.636 -0.7231  0.2869 -0.4605
   45HTM    S23 6055   4.423   3.362  23.570 -0.3937  0.0156  0.2060
   46TAL   C225 6056   4.589   3.730  23.671 -0.5721 -0.6101 -0.1914
   46TAL   C226 6057   4.741   3.767  23.664  0.3243 -0.3348  0.7990
   46TAL   C227 6058   4.789   3.863  23.776  0.1555  0.8167  0.4518
   46TAL   C228 6059   4.935   3.885  23.786  0.6345  0.0191 -0.2844
   46TAL   C229 6060   4.971   4.005  23.872 -0.0299 -0.2849  1.0100
   46TAL   C230 6061   5.113   3.986  23.921  0.3925 -0.6366  0.1209
   47HTM   C231 6062   4.300   3.587  23.665  0.3788  0.1723  0.4597
   47HTM   C232 6063   4.262   3.708  23.615  0.4441  0.0662  0.1473
   47HTM   C233 6064   4.130   3.749  23.656  0.1594 -0.0992 -0.5746
   47HTM   C234 6065   4.067   3.659  23.737 -0.1230 -0.1192 -0.8132
   47HTM    S24 6066   4.171   3.514  23.768 -0.0505  0.0707 -0.1390
   48TAL   C235 6067   4.080   3.893  23.636 -0.6304  1.2260  0.0959
   48TAL   C236 6068   3.948   3.957  23.684  1.3761 -0.6579  0.0565
   48TAL   C237 6069   3.927   4.101  23.642  0.0305  0.3427  0.5304
   48TAL   C238 6070   3.819   4.181  23.717 -1.2899  0.0061  0.6218
   48TAL   C239 6071   3.832   4.191  23.874 -0.2479  0.4672 -0.4982
   48TAL   C240 6072   3.793   4.078  23.970  1.1915 -1.2807 -0.6680
    1HTM     C1 6073   5.114   3.223   8.899 -0.4609 -0.1690 -0.5170
    1HTM     C2 6074   5.094   3.103   8.838 -1.1122 -0.0951 -0.4623
    1HTM     C3 6075   5.061   2.997   8.928 -0.9887 -0.0240 -0.3328
    1HTM     C4 6076   5.056   3.035   9.059 -0.2433 -0.0439 -0.2893
    1HTM     S1 6077   5.093   3.211   9.078  0.3652 -0.1547 -0.4091
    2TAL     C5 6078   5.071   2.850   8.901  0.2117  0.3740  0.7713
    2TAL     C6 6079   5.163   2.796   8.789 -0.7706 -0.3766  0.2298
    2TAL     C7 6080   5.187   2.646   8.813 -0.6468 -0.0404 -0.1662
    2TAL     C8 6081   5.252   2.597   8.940 -0.3249 -0.7951  0.1587
    2TAL     C9 6082   5.189   2.477   9.002  0.5512  0.1663  0.6126
    2TAL    C10 6083   5.152   2.336   8.932 -0.9449 -0.8070 -0.4997
    3HTM    C11 6084   5.028   2.967   9.187  0.1968  0.0613 -0.4461
    3HTM    C12 6085   5.052   2.842   9.236  0.3107  0.0887 -0.4330
    3HTM    C13 6086   5.009   2.825   9.373  0.2410  0.0354 -0.4616
    3HTM    C14 6087   4.952   2.936   9.427  0.0740 -0.0326 -0.4966
    3HTM     S2 6088   4.948   3.072   9.309 -0.0090 -0.0347 -0.4962
    4TAL    C15 6089   5.036   2.698   9.450 -0.1711 -0.0807 -1.0613
    4TAL    C16 6090   5.142   2.600   9.401 -0.2459 -0.5512  0.3102
    4TAL    C17 6091   5.192   2.501   9.507  0.4616 -1.3522  0.7544
    4TAL    C18 6092   5.298   2.422   9.439  0.0564  0.5520 -0.7666
    4TAL    C19 6093   5.379   2.318   9.521 -0.0094  0.5901  0.1810
    4TAL    C20 6094   5.305   2.209   9.596  1.1327  1.0424 -0.2745
    5HTM    C21 6095   4.893   2.961   9.562 -0.4013 -0.0429  0.2144
    5HTM    C22 6096   4.880   3.087   9.612  0.1560 -0.0737  0.4487
    5HTM    C23 6097   4.828   3.091   9.746  0.7161 -0.1128  0.6719
    5HTM    C24 6098   4.802   2.968   9.798  0.5858 -0.1117  0.6083
    5HTM     S3 6099   4.840   2.837   9.681 -0.2608 -0.0609  0.2585
    6TAL    C25 6100   4.792   3.227   9.818 -0.5224 -0.8260  0.0543
    6TAL    C26 6101   4.651   3.279   9.764 -0.2859 -0.1706  0.1518
    6TAL    C27 6102   4.575   3.372   9.850  0.0102 -0.3073 -0.1584
    6TAL    C28 6103   4.448   3.390   9.789  0.4903 -0.2080 -0.1616
    6TAL    C29 6104   4.370   3.495   9.875  0.0807  0.5360 -0.5498
    6TAL    C30 6105   4.231   3.535   9.817 -0.5806 -0.0306  0.4235
    7HTM    C31 6106   4.744   2.930   9.925  0.1966 -0.7338 -0.5455
    7HTM    C32 6107   4.616   2.942   9.971  0.2196 -0.3580 -0.5715
    7HTM    C33 6108   4.599   2.899  10.107  0.0895 -0.1920 -0.5350
    7HTM    C34 6109   4.714   2.855  10.166 -0.0322 -0.4412 -0.4811
    7HTM     S4 6110   4.854   2.864  10.052  0.0078 -0.9085 -0.4723
    8TAL    C35 6111   4.464   2.918  10.174  0.3158  0.2050  0.7243
    8TAL    C36 6112   4.341   2.988  10.101  0.3720  0.4122  0.6548
    8TAL    C37 6113   4.287   3.105  10.179 -0.2922 -0.3728  0.4211
    8TAL    C38 6114   4.208   3.190  10.075  0.1355  0.9292 -0.0084
    8TAL    C39 6115   4.102   3.286  10.112 -0.0894 -0.3252  0.0619
    8TAL    C40 6116   3.989   3.237  10.197  0.0182 -0.4578 -0.2682
    9HTM    C41 6117   4.741   2.825  10.304 -0.1735 -0.2587 -0.3117
    9HTM    C42 6118   4.666   2.757  10.395 -0.5857  0.3146 -0.2074
    9HTM    C43 6119   4.726   2.752  10.527 -0.9465  0.7298 -0.0234
    9HTM    C44 6120   4.845   2.816  10.535 -0.8091  0.4732  0.0131
    9HTM     S5 6121   4.893   2.889  10.377 -0.2091 -0.3190 -0.1842
   10TAL    C45 6122   4.649   2.688  10.639 -0.3026 -0.2047 -0.3413
   10TAL    C46 6123   4.580   2.551  10.607 -0.2481  0.0687  0.6772
   10TAL    C47 6124   4.656   2.430  10.565  0.8133  0.3968  0.1920
   10TAL    C48 6125   4.797   2.412  10.624  0.5871 -0.4003 -0.3282
   10TAL    C49 6126   4.823   2.426  10.774 -0.7557 -0.4226  0.1031
   10TAL    C50 6127   4.777   2.291  10.846 -0.2225 -0.1338 -0.9321
   11HTM    C51 6128   4.945   2.833  10.637  0.3588 -0.4225 -0.1131
   11HTM    C52 6129   4.939   2.820  10.772  0.6254 -0.1510 -0.0727
   11HTM    C53 6130   5.066   2.836  10.838  0.6629  0.5597 -0.2987
   11HTM    C54 6131   5.169   2.861  10.752  0.4251  0.8302 -0.5113
   11HTM     S6 6132   5.113   2.866  10.581  0.1328  0.2033 -0.4424
   12TAL    C55 6133   5.077   2.832  10.992 -1.1723 -0.2093 -0.1332
   12TAL    C56 6134   4.967   2.778  11.080  0.1220  0.7660 -0.2460
   12TAL    C57 6135   4.946   2.620  11.056 -0.8846 -0.6386 -0.2834
   12TAL    C58 6136   5.069   2.530  11.027 -0.1122 -0.0400 -0.0156
   12TAL    C59 6137   5.054   2.382  11.050  1.1210  0.1000 -0.5262
   12TAL    C60 6138   5.153   2.287  10.974  0.4677  0.2124  0.2669
   13HTM    C61 6139   5.309   2.875  10.783 -0.4764  0.1988  0.0037
   13HTM    C62 6140   5.411   2.805  10.727 -0.5978  0.2965 -0.3417
   13HTM    C63 6141   5.541   2.841  10.778 -0.4851  0.2058 -0.5603
   13HTM    C64 6142   5.537   2.938  10.874 -0.2777  0.0390 -0.3814
   13HTM     S7 6143   5.368   2.992  10.907 -0.2083 -0.0170  0.0802
   14TAL    C65 6144   5.665   2.762  10.726  0.3628  0.7826 -0.4965
   14TAL    C66 6145   5.665   2.609  10.736  0.6332  0.3678 -0.7977
   14TAL    C67 6146   5.573   2.550  10.856 -0.9554 -0.3736  0.0702
   14TAL    C68 6147   5.560   2.403  10.845  0.5795  1.4614  0.0755
   14TAL    C69 6148   5.496   2.340  10.724 -0.2828  0.5732  0.0725
   14TAL    C70 6149   5.483   2.195  10.761 -0.2785  0.5072 -0.8410
   15HTM    C71 6150   5.647   3.016  10.939  0.2562  0.1667 -0.2561
   15HTM    C72 6151   5.636   3.129  11.014  0.3828  0.3369 -0.4938
   15HTM    C73 6152   5.763   3.186  11.053  0.4462  0.2865 -0.6278
   15HTM    C74 6153   5.870   3.115  11.007  0.3679  0.0779 -0.4921
   15HTM     S8 6154   5.819   2.971  10.912  0.2067 -0.0722 -0.1825
   16TAL    C75 6155   5.779   3.323  11.124  0.4337  0.0442 -0.2738
   16TAL    C76 6156   5.653   3.388  11.168 -0.5705  0.6171  0.0154
   16TAL    C77 6157   5.685   3.525  11.201 -0.0963  0.1147 -0.2245
   16TAL    C78 6158   5.576   3.606  11.276 -0.3187 -0.0787 -0.5304
   16TAL    C79 6159   5.542   3.565  11.414  0.1489 -0.5387  0.1573
   16TAL    C80 6160   5.479   3.675  11.493 -0.0828  0.8748  0.5457
   17HTM    C81 6161   6.017   3.139  11.025 -0.0952 -0.1641 -0.3601
   17HTM    C82 6162   6.091   3.176  11.133 -0.5774  0.4600 -0.2382
   17HTM    C83 6163   6.232   3.187  11.106 -0.5236  0.8596  0.1891
   17HTM    C84 6164   6.266   3.158  10.977 -0.0004  0.5402  0.3929
   17HTM     S9 6165   6.121   3.114  10.879  0.4685 -0.2965  0.0582
   18TAL    C85 6166   6.332   3.225  11.214 -0.1581  0.8169 -0.2420
   18TAL    C86 6167   6.326   3.161  11.358 -0.5627  0.6136 -0.5238
   18TAL    C87 6168   6.336   3.270  11.463  0.6286 -0.2781  0.5825
   18TAL    C88 6169   6.363   3.193  11.595  0.0820  0.3482  0.0232
   18TAL    C89 6170   6.352   3.249  11.734  0.6928  1.3103  0.9529
   18TAL    C90 6171   6.392   3.143  11.843 -0.6451 -0.4417  0.2488
   19HTM    C91 6172   6.388   3.151  10.909 -0.3624 -0.5988  0.0567
   19HTM    C92 6173   6.411   3.081  10.794 -0.1441 -0.3384 -0.0596
   19HTM    C93 6174   6.542   3.102  10.739 -0.2025  0.1518 -0.0191
   19HTM    C94 6175   6.619   3.188  10.812 -0.4655  0.2652  0.1280
   19HTM    S10 6176   6.531   3.249  10.957 -0.6612 -0.2423  0.2278
   20TAL    C95 6177   6.569   3.053  10.592 -0.3381 -0.1950 -0.8479
   20TAL    C96 6178   6.557   3.168  10.493 -0.0529 -0.7769  0.4418
   20TAL    C97 6179   6.423   3.236  10.460  0.9301  0.6641 -0.6022
   20TAL    C98 6180   6.422   3.355  10.371  0.1573  0.2731  0.2058
   20TAL    C99 6181   6.277   3.382  10.342  0.6030  0.3764  0.2684
   20TAL   C100 6182   6.246   3.523  10.287  0.3754  0.3537  0.0536
   21HTM   C101 6183   6.756   3.227  10.802 -0.1486  0.3527  0.0292
   21HTM   C102 6184   6.861   3.170  10.868 -0.1779 -0.5165 -0.6366
   21HTM   C103 6185   6.988   3.233  10.841  0.1135 -1.2550 -1.0626
   21HTM   C104 6186   6.979   3.338  10.754  0.3652 -0.9489 -0.7218
   21HTM    S11 6187   6.810   3.366  10.700  0.2525  0.3055  0.1704
   22TAL   C105 6188   7.115   3.192  10.915 -0.5927  0.6288  0.7976
   22TAL   C106 6189   7.094   3.176  11.068 -0.1706 -0.4253  0.0277
   22TAL   C107 6190   7.224   3.139  11.135 -1.2177  0.0199  0.3426
   22TAL   C108 6191   7.321   3.262  11.132 -0.3155  0.6686 -0.1623
   22TAL   C109 6192   7.445   3.267  11.225  0.2965  0.4224  0.1250
   22TAL   C110 6193   7.406   3.283  11.379  0.2848 -0.0349  0.4729
   23HTM   C111 6194   7.073   3.434  10.704 -0.4263 -0.1440  0.4947
   23HTM   C112 6195   7.067   3.507  10.590 -0.2743 -0.8931 -0.0074
   23HTM   C113 6196   7.168   3.609  10.581 -0.1239 -1.0854 -0.6528
   23HTM   C114 6197   7.251   3.614  10.690 -0.1610 -0.4829 -0.6426
   23HTM    S12 6198   7.207   3.488  10.812 -0.3906  0.3806  0.1891
   24TAL   C115 6199   7.184   3.716  10.472  0.6589  0.5728 -0.8200
   24TAL   C116 6200   7.075   3.748  10.386  0.4463  0.3518  0.5039
   24TAL   C117 6201   7.101   3.860  10.280  0.5158 -0.1277  0.6555
   24TAL   C118 6202   7.170   3.983  10.324  0.9759 -0.4479 -0.7561
   24TAL   C119 6203   7.213   4.079  10.220  1.1592  0.3358  0.5985
   24TAL   C120 6204   7.251   4.220  10.273  0.3392  0.2619  1.0131
   25HTM   C121 6205   7.365   3.699  10.724  0.1226 -0.3405 -0.3950
   25HTM   C122 6206   7.357   3.830  10.761 -0.3870 -0.1789 -1.0519
   25HTM   C123 6207   7.482   3.901  10.750 -0.6465  0.2415 -1.3406
   25HTM   C124 6208   7.585   3.824  10.706 -0.3345  0.4004 -0.9043
   25HTM    S13 6209   7.533   3.655  10.673  0.3161  0.0285 -0.0884
   26TAL   C125 6210   7.495   4.050  10.775  0.7799  0.0355 -0.4587
   26TAL   C126 6211   7.428   4.139  10.668  0.1088 -0.3252 -0.2966
   26TAL   C127 6212   7.421   4.288  10.716 -0.3612  0.2341  0.5392
   26TAL   C128 6213   7.366   4.391  10.614 -0.0627 -0.3100  0.1655
   26TAL   C129 6214   7.221   4.413  10.579 -0.4498  0.3343  0.3772
   26TAL   C130 6215   7.118   4.424  10.687  0.5188 -0.4718 -0.7002
   27HTM   C131 6216   7.727   3.848  10.707 -0.6550 -0.2222  0.1061
   27HTM   C132 6217   7.788   3.966  10.674 -0.9133 -0.1810 -0.2372
   27HTM   C133 6218   7.929   3.968  10.702 -0.8748  0.1336 -0.4473
   27HTM   C134 6219   7.976   3.852  10.755 -0.5873  0.3324 -0.2638
   27HTM    S14 6220   7.845   3.730  10.775 -0.3408  0.1361  0.1918
   28TAL   C135 6221   7.995   4.101  10.710 -0.4418  0.2601 -0.5657
   28TAL   C136 6222   8.060   4.116  10.570 -0.0829 -0.1658 -0.2676
   28TAL   C137 6223   8.126   4.254  10.587  0.4539 -0.7532  0.4100
   28TAL   C138 6224   8.217   4.306  10.474  0.8969 -0.2691 -0.1571
   28TAL   C139 6225   8.261   4.449  10.506 -0.4374  0.1909  0.1561
   28TAL   C140 6226   8.283   4.550  10.392  1.3109  1.3353 -0.1471
   29HTM   C141 6227   8.104   3.815  10.813 -0.1620  0.1641  0.5587
   29HTM   C142 6228   8.135   3.785  10.943  0.1089 -0.2929  0.3886
   29HTM   C143 6229   8.276   3.765  10.965  0.1337 -0.6225 -0.0236
   29HTM   C144 6230   8.352   3.781  10.853 -0.1183 -0.4168 -0.1679
   29HTM    S15 6231   8.251   3.822  10.710 -0.4087  0.2141  0.2089
   30TAL   C145 6232   8.334   3.749  11.101 -0.3487  0.4383 -1.1641
   30TAL   C146 6233   8.248   3.744  11.235 -1.0199  1.0320  0.2475
   30TAL   C147 6234   8.168   3.870  11.278 -0.8718 -0.1902  0.0913
   30TAL   C148 6235   8.255   3.980  11.338  0.0545 -0.5085 -1.5403
   30TAL   C149 6236   8.162   4.097  11.371  0.1933  0.0449 -0.6975
   30TAL   C150 6237   8.079   4.077  11.497  0.1143  0.3208  1.1964
   31HTM   C151 6238   8.494   3.763  10.844  0.0599  0.1216 -0.6178
   31HTM   C152 6239   8.565   3.647  10.833 -0.0909  0.0646 -1.0421
   31HTM   C153 6240   8.707   3.667  10.815 -0.0644 -0.0524 -0.9673
   31HTM   C154 6241   8.744   3.798  10.812  0.1065 -0.0845 -0.4859
   31HTM    S16 6242   8.602   3.907  10.831  0.2484  0.0313 -0.0869
   32TAL   C155 6243   8.812   3.550  10.800  1.0311 -1.5606  0.3848
   32TAL   C156 6244   8.764   3.442  10.706 -0.0723  0.2809 -0.1100
   32TAL   C157 6245   8.857   3.326  10.687 -0.2744 -0.5851  0.6898
   32TAL   C158 6246   8.799   3.214  10.591 -1.0681  0.1488 -0.0535
   32TAL   C159 6247   8.736   3.232  10.457  0.5174 -0.4067 -0.2826
   32TAL   C160 6248   8.670   3.115  10.387 -0.1927  0.0555  1.0210
   33HTM   C161 6249   8.868   3.860  10.775 -0.2109 -0.5830  0.3417
   33HTM   C162 6250   8.892   3.994  10.780 -1.0511 -0.4132  0.1419
   33HTM   C163 6251   9.015   4.034  10.715 -1.3554  0.2775 -0.0246
   33HTM   C164 6252   9.084   3.930  10.660 -0.7471  0.6347  0.0489
   33HTM    S17 6253   8.999   3.773  10.686  0.2650  0.1221  0.3359
   34TAL   C165 6254   9.065   4.173  10.725  0.1427 -0.4497  0.8143
   34TAL   C166 6255   8.971   4.276  10.655  0.1994 -0.1663  0.4299
   34TAL   C167 6256   8.933   4.251  10.504  1.2368  0.5879 -0.7929
   34TAL   C168 6257   8.860   4.378  10.466 -0.8400  0.2484 -0.1481
   34TAL   C169 6258   8.721   4.396  10.496 -0.1473  0.3627 -0.2941
   34TAL   C170 6259   8.656   4.515  10.425  0.4903 -0.3710  0.3975
   35HTM   C171 6260   9.195   3.922  10.571 -0.1138 -0.5160 -0.7745
   35HTM   C172 6261   9.209   4.004  10.462  0.2299 -0.8036 -0.9530
   35HTM   C173 6262   9.336   3.992  10.396  0.5770 -0.7356 -0.3123
   35HTM   C174 6263   9.420   3.901  10.454  0.4982 -0.3963  0.3546
   35HTM    S18 6264   9.344   3.823  10.598 -0.0248 -0.1340  0.2242
   36TAL   C175 6265   9.390   4.087  10.293  0.3099  0.3399 -1.1677
   36TAL   C176 6266   9.320   4.218  10.267  0.5860  0.1958 -1.2042
   36TAL   C177 6267   9.225   4.230  10.158 -0.4892  0.4404  0.3469
   36TAL   C178 6268   9.172   4.365  10.126  0.2012  0.1728 -0.9336
   36TAL   C179 6269   9.267   4.480  10.087  0.3590  0.4795  0.0866
   36TAL   C180 6270   9.359   4.473   9.967 -0.2618  0.9497 -1.1469
   37HTM   C181 6271   9.547   3.857  10.412 -0.0832 -0.1422  0.5325
   37HTM   C182 6272   9.671   3.906  10.437 -0.1847 -0.0084  0.7899
   37HTM   C183 6273   9.777   3.819  10.392 -0.0008  0.2890  0.6390
   37HTM   C184 6274   9.733   3.704  10.334  0.2407  0.3817  0.2663
   37HTM    S19 6275   9.553   3.696  10.330  0.2549  0.0986  0.0759
   38TAL   C185 6276   9.927   3.867  10.390  0.3146  1.2866  0.5950
   38TAL   C186 6277   9.955   3.987  10.300 -0.0841  0.5519  0.5166
   38TAL   C187 6278   9.951   3.975  10.139  0.5389 -0.0196 -0.4325
   38TAL   C188 6279  10.071   3.914  10.072 -0.3229 -0.1444 -1.1396
   38TAL   C189 6280  10.024   3.880   9.932 -1.0670  0.1189  0.7102
   38TAL   C190 6281  10.119   3.794   9.840 -0.1402 -0.3152 -0.4580
   39HTM   C191 6282   9.800   3.587  10.279  0.3652  0.1080  1.1364
   39HTM   C192 6283   9.739   3.471  10.240 -0.0793  0.4112  0.9072
   39HTM   C193 6284   9.829   3.375  10.182 -0.5755  0.4730  0.0098
   39HTM   C194 6285   9.959   3.417  10.175 -0.5092  0.2170 -0.4450
   39HTM    S20 6286   9.977   3.583  10.243  0.1903 -0.1247  0.2296
   40TAL   C195 6287   9.787   3.254  10.100  0.5714  0.9065 -0.3666
   40TAL   C196 6288   9.635   3.208  10.098 -0.7237  0.7763  0.7792
   40TAL   C197 6289   9.573   3.104   9.999 -0.0539  0.5790  0.1873
   40TAL   C198 6290   9.653   3.095   9.861  0.6097 -0.1174 -0.1492
   40TAL   C199 6291   9.583   3.160   9.751  0.1085 -0.6302  1.3478
   40TAL   C200 6292   9.495   3.080   9.662 -0.3124  0.2216 -0.4663
   41HTM   C201 6293  10.085   3.348  10.152 -0.4576  0.7561 -0.1315
   41HTM   C202 6294  10.113   3.220  10.113 -0.7859  0.8512 -0.6998
   41HTM   C203 6295  10.253   3.196  10.091 -0.8546  0.6064 -0.8721
   41HTM   C204 6296  10.332   3.305  10.113 -0.5786  0.3245 -0.4360
   41HTM    S21 6297  10.234   3.448  10.164 -0.2077  0.3467  0.2320
   42TAL   C205 6298  10.304   3.051  10.035  0.0259 -1.2789 -0.4402
   42TAL   C206 6299  10.220   2.973   9.942  0.4180  0.8683  1.1635
   42TAL   C207 6300  10.300   2.856   9.899 -0.8137  0.3882  0.0592
   42TAL   C208 6301  10.261   2.803   9.760 -0.6998 -0.9418 -0.1126
   42TAL   C209 6302  10.380   2.727   9.708  0.4877  0.0145  0.3388
   42TAL   C210 6303  10.350   2.576   9.715  0.0312  0.2425  0.7205
   43HTM   C211 6304  10.480   3.319  10.101  0.5025  0.5336 -0.3176
   43HTM   C212 6305  10.549   3.328   9.985  0.8011  0.9478 -0.1125
   43HTM   C213 6306  10.686   3.370  10.002  0.8063  0.7366  0.4027
   43HTM   C214 6307  10.720   3.393  10.132  0.5116  0.1613  0.5907
   43HTM    S22 6308  10.582   3.364  10.243  0.2023 -0.1608  0.1279
   44TAL   C215 6309  10.777   3.376   9.885  0.6655 -0.0942  0.6305
   44TAL   C216 6310  10.846   3.248   9.836  1.3393 -0.0953  0.4807
   44TAL   C217 6311  10.754   3.134   9.790  0.1449 -0.9497 -0.2785
   44TAL   C218 6312  10.828   3.005   9.767  0.7618 -0.0980  0.2411
   44TAL   C219 6313  10.752   2.917   9.662  0.0051  0.6570 -0.4788
   44TAL   C220 6314  10.852   2.819   9.600 -0.4231  0.5935 -0.5917
   45HTM   C221 6315  10.829   3.466  10.181 -0.0636 -0.2371 -0.2817
   45HTM   C222 6316  10.821   3.576  10.261 -0.2277 -0.2298 -0.3066
   45HTM   C223 6317  10.945   3.649  10.271 -0.2518 -0.2177 -0.0763
   45HTM   C224 6318  11.047   3.595  10.198 -0.1060 -0.2156  0.1240
   45HTM    S23 6319  10.994   3.446  10.111  0.0744 -0.2290  0.0366
   46TAL   C225 6320  10.952   3.759  10.382 -1.2275 -1.0768 -0.2875
   46TAL   C226 6321  11.025   3.729  10.514 -0.5809  0.6059  0.0365
   46TAL   C227 6322  11.021   3.588  10.580 -0.4411 -0.2556  0.0889
   46TAL   C228 6323  11.154   3.559  10.660  0.3147  0.3124  0.6359
   46TAL   C229 6324  11.154   3.404  10.688  0.7889 -0.6193 -0.8735
   46TAL   C230 6325  11.279   3.360  10.754  0.5270 -0.1657  0.2718
   47HTM   C231 6326  11.183   3.636  10.189  0.2698 -0.1522 -0.0272
   47HTM   C232 6327  11.237   3.725  10.100  0.3726  0.2553  0.4346
   47HTM   C233 6328  11.374   3.758  10.128  0.2269  0.4358  0.9692
   47HTM   C234 6329  11.425   3.695  10.237  0.0131  0.1660  0.9147
   47HTM    S24 6330  11.302   3.587  10.315 -0.0211 -0.3410  0.1790
   48TAL   C235 6331  11.455   3.865  10.063  1.0422  0.1903  0.2176
   48TAL   C236 6332  11.368   3.976   9.986  0.1149 -1.0562  0.2646
   48TAL   C237 6333  11.428   4.100   9.924 -0.2351 -0.1872  0.8106
   48TAL   C238 6334  11.559   4.081   9.848 -0.0542 -0.2984 -0.4391
   48TAL   C239 6335  11.566   3.992   9.733  0.3797  0.5998  0.2751
   48TAL   C240 6336  11.692   4.022   9.653  1.3584  0.2223 -0.1842
    1HTM     C1 6337   3.065   5.197  14.670  0.0811 -0.5224  0.2701
    1HTM     C2 6338   3.071   5.074  14.612 -0.1026 -0.5841  0.3805
    1HTM     C3 6339   2.958   5.044  14.528  0.1425 -0.2412 -0.0808
    1HTM     C4 6340   2.866   5.145  14.522  0.5132  0.0822 -0.5431
    1HTM     S1 6341   2.915   5.286  14.623  0.5820 -0.0224 -0.4304
    2TAL     C5 6342   2.950   4.910  14.464 -0.2748 -0.1634  0.1473
    2TAL     C6 6343   2.946   4.791  14.555 -0.0422  0.0030  0.2429
    2TAL     C7 6344   2.802   4.729  14.599 -1.0554 -0.2238  0.8112
    2TAL     C8 6345   2.703   4.678  14.492 -0.3552  0.5164 -1.1999
    2TAL     C9 6346   2.754   4.561  14.404  1.0880  0.0874 -1.0870
    2TAL    C10 6347   2.642   4.541  14.296 -0.1548  0.4216  0.0155
    3HTM    C11 6348   2.745   5.157  14.442 -0.0016  0.2048 -0.0280
    3HTM    C12 6349   2.690   5.269  14.386 -0.0896  0.2291  0.1059
    3HTM    C13 6350   2.572   5.244  14.308 -0.0883  0.2345  0.1020
    3HTM    C14 6351   2.537   5.112  14.304  0.0007  0.2142 -0.0349
    3HTM     S2 6352   2.651   5.010  14.399  0.0904  0.1869 -0.1710
    4TAL    C15 6353   2.483   5.349  14.253  0.7007  0.6447  0.7164
    4TAL    C16 6354   2.364   5.388  14.347  0.6944 -0.8520 -0.2020
    4TAL    C17 6355   2.278   5.473  14.263  0.0071  0.1205 -0.1035
    4TAL    C18 6356   2.296   5.616  14.278 -0.1264 -0.4828  0.9330
    4TAL    C19 6357   2.187   5.715  14.225 -0.9917 -0.0666 -0.6933
    4TAL    C20 6358   2.149   5.724  14.081 -0.4015  0.3296  0.7486
    5HTM    C21 6359   2.442   5.030  14.237 -0.2374  0.1198  0.2495
    5HTM    C22 6360   2.307   5.038  14.249 -0.2838 -0.0826 -0.0927
    5HTM    C23 6361   2.235   4.939  14.173  0.0511 -0.1131 -0.3719
    5HTM    C24 6362   2.316   4.855  14.102  0.3529  0.0660 -0.2422
    5HTM     S3 6363   2.491   4.895  14.127  0.2367  0.2888  0.2457
    6TAL    C25 6364   2.080   4.928  14.183 -0.0320 -0.5837 -0.4811
    6TAL    C26 6365   1.993   5.049  14.189 -0.7266 -0.7590  0.5693
    6TAL    C27 6366   1.979   5.125  14.062 -1.1225 -0.1366  0.6219
    6TAL    C28 6367   1.898   5.249  14.073 -0.1982  0.1498 -1.1290
    6TAL    C29 6368   1.946   5.388  14.035 -0.7471  0.2285 -0.6262
    6TAL    C30 6369   1.833   5.464  14.091  0.1495 -0.7548 -0.2598
    7HTM    C31 6370   2.282   4.740  14.025  0.0845 -0.3796  0.1198
    7HTM    C32 6371   2.182   4.720  13.934  0.6428 -0.1116 -0.5639
    7HTM    C33 6372   2.179   4.587  13.881  0.8297 -0.0172 -0.8194
    7HTM    C34 6373   2.275   4.505  13.932  0.4139 -0.2131 -0.3307
    7HTM     S4 6374   2.379   4.591  14.052 -0.2511 -0.5346  0.4969
    8TAL    C35 6375   2.052   4.548  13.811 -0.0501 -0.2609  1.4754
    8TAL    C36 6376   2.067   4.603  13.661 -0.4412  0.1670 -0.3041
    8TAL    C37 6377   2.056   4.754  13.629 -0.4074  0.2882  0.7041
    8TAL    C38 6378   2.121   4.799  13.502  0.4897 -0.3979  0.4948
    8TAL    C39 6379   2.142   4.948  13.476  0.4436  0.5071 -0.5375
    8TAL    C40 6380   2.198   4.992  13.343 -0.2565 -0.1117 -0.7538
    9HTM    C41 6381   2.320   4.375  13.892  0.0004 -0.2565  0.3549
    9HTM    C42 6382   2.445   4.322  13.896 -0.0028 -0.2528  0.5291
    9HTM    C43 6383   2.453   4.187  13.847  0.1298 -0.1314  0.2110
    9HTM    C44 6384   2.333   4.137  13.805  0.2342 -0.0423 -0.2059
    9HTM     S5 6385   2.200   4.258  13.825  0.1726 -0.1055 -0.2289
   10TAL    C45 6386   2.598   4.124  13.812  0.8765 -0.8855  0.0259
   10TAL    C46 6387   2.620   4.019  13.915  0.0497 -0.7780 -0.0718
   10TAL    C47 6388   2.768   4.015  13.957  0.0897  0.3712  0.6972
   10TAL    C48 6389   2.796   3.934  14.074 -0.5159  0.1267 -0.0490
   10TAL    C49 6390   2.723   3.992  14.200 -0.1330 -0.4465  0.4861
   10TAL    C50 6391   2.801   4.124  14.252 -0.4785  0.4403  0.3191
   11HTM    C51 6392   2.288   4.007  13.748  0.2601  0.1081  0.0651
   11HTM    C52 6393   2.324   3.885  13.796  0.8818  0.1823 -0.2017
   11HTM    C53 6394   2.277   3.775  13.715  1.2342  0.1060 -0.3083
   11HTM    C54 6395   2.204   3.813  13.607  0.8814 -0.0262 -0.1231
   11HTM     S6 6396   2.190   3.993  13.597  0.0701 -0.0651  0.2028
   12TAL    C55 6397   2.336   3.641  13.736 -0.1293 -0.3497 -0.1439
   12TAL    C56 6398   2.461   3.607  13.659 -0.4093  0.1242 -0.9500
   12TAL    C57 6399   2.590   3.681  13.687  0.3970  0.0216 -0.1156
   12TAL    C58 6400   2.720   3.613  13.655  0.5162  0.4042 -0.8087
   12TAL    C59 6401   2.780   3.639  13.514 -0.2582 -0.2217 -0.2397
   12TAL    C60 6402   2.871   3.518  13.500 -0.3684  0.3767  0.2983
   13HTM    C61 6403   2.126   3.728  13.514 -0.6836  0.0178 -0.7407
   13HTM    C62 6404   2.033   3.777  13.427 -0.9170 -0.7894 -0.9634
   13HTM    C63 6405   1.984   3.679  13.333 -0.5748 -1.4702 -0.4480
   13HTM    C64 6406   2.039   3.555  13.349 -0.0807 -1.1822  0.1676
   13HTM     S7 6407   2.159   3.553  13.484 -0.0084 -0.0197  0.1437
   14TAL    C65 6408   1.877   3.724  13.237 -0.5703  0.3438  0.3465
   14TAL    C66 6409   1.831   3.869  13.219  0.3969  0.6260  0.2093
   14TAL    C67 6410   1.692   3.872  13.163  0.2844 -0.3794  0.2337
   14TAL    C68 6411   1.653   4.001  13.090  0.6139  0.3081 -1.3126
   14TAL    C69 6412   1.538   3.986  12.993  0.5540 -0.7031  0.6866
   14TAL    C70 6413   1.567   3.932  12.849 -0.0496  0.8610 -0.5329
   15HTM    C71 6414   2.014   3.430  13.282  0.0821  0.2287 -0.1925
   15HTM    C72 6415   2.054   3.309  13.329  0.9595  0.3945 -0.4795
   15HTM    C73 6416   2.025   3.200  13.240  1.3965  0.3477 -0.5667
   15HTM    C74 6417   1.963   3.238  13.125  0.8522  0.1461 -0.3460
   15HTM     S8 6418   1.936   3.416  13.120 -0.2632 -0.0014 -0.0087
   16TAL    C75 6419   2.052   3.056  13.295  0.1351 -0.6251  0.6709
   16TAL    C76 6420   2.196   3.017  13.320  0.1941 -0.2294 -0.7011
   16TAL    C77 6421   2.294   3.033  13.200 -0.0444  0.9069  0.1173
   16TAL    C78 6422   2.435   3.080  13.232  0.2772 -1.1316  1.4640
   16TAL    C79 6423   2.461   3.228  13.289  0.2884  0.6327  0.3784
   16TAL    C80 6424   2.606   3.271  13.280 -0.4422  0.2435 -0.7757
   17HTM    C81 6425   1.928   3.155  13.012  0.0387 -0.2481 -0.4504
   17HTM    C82 6426   1.953   3.025  12.981 -0.6606 -0.3755 -0.5214
   17HTM    C83 6427   1.889   2.981  12.860 -1.0359 -0.0187 -0.4592
   17HTM    C84 6428   1.815   3.077  12.799 -0.6228  0.3808 -0.3406
   17HTM     S9 6429   1.820   3.233  12.890  0.2793  0.3368 -0.2984
   18TAL    C85 6430   1.913   2.831  12.818 -0.4813 -1.0081  0.0440
   18TAL    C86 6431   1.965   2.737  12.926  1.0050 -0.4860  0.6288
   18TAL    C87 6432   1.880   2.711  13.049 -0.8329 -0.6951 -0.5723
   18TAL    C88 6433   1.764   2.623  13.066  0.3477  0.8769  0.3579
   18TAL    C89 6434   1.626   2.664  13.002  0.4608  0.1497 -0.9384
   18TAL    C90 6435   1.535   2.539  12.990  1.3628 -0.4975 -0.9330
   19HTM    C91 6436   1.734   3.085  12.679 -0.2954 -0.1889  0.2243
   19HTM    C92 6437   1.651   3.179  12.627  0.5877  0.2123 -0.5059
   19HTM    C93 6438   1.589   3.140  12.502  1.0734  0.2968 -0.7775
   19HTM    C94 6439   1.626   3.015  12.460  0.5607 -0.0401 -0.2545
   19HTM    S10 6440   1.741   2.937  12.575 -0.5843 -0.4936  0.6286
   20TAL    C95 6441   1.506   3.246  12.426  0.5295  0.9094  0.0979
   20TAL    C96 6442   1.584   3.371  12.388 -0.2894  0.5517 -0.5017
   20TAL    C97 6443   1.498   3.430  12.278 -0.3569 -0.2634  0.3197
   20TAL    C98 6444   1.544   3.567  12.238 -1.3007  0.2229  0.1836
   20TAL    C99 6445   1.456   3.687  12.247  0.5187 -0.6852  0.9609
   20TAL   C100 6446   1.525   3.819  12.207  0.4060 -1.1358  0.2408
   21HTM   C101 6447   1.609   2.954  12.330 -0.2602  0.1352 -0.1018
   21HTM   C102 6448   1.709   2.888  12.266 -0.3701 -0.2375  0.1078
   21HTM   C103 6449   1.687   2.872  12.125 -0.2582 -0.3922  0.1063
   21HTM   C104 6450   1.570   2.927  12.081 -0.0629 -0.1374 -0.1039
   21HTM    S11 6451   1.478   3.004  12.217 -0.0047  0.3212 -0.3183
   22TAL   C105 6452   1.805   2.810  12.052  0.2776 -0.0848 -0.7358
   22TAL   C106 6453   1.821   2.658  12.064 -0.9893  0.1498  0.6588
   22TAL   C107 6454   1.921   2.613  11.959 -0.9045 -0.2751 -0.3549
   22TAL   C108 6455   1.874   2.480  11.917  0.1979  0.2589 -0.6896
   22TAL   C109 6456   1.947   2.425  11.805  0.7899  1.0407  0.0808
   22TAL   C110 6457   1.892   2.282  11.784  0.1454 -0.3531 -0.0078
   23HTM   C111 6458   1.498   2.918  11.956  0.2383  0.0040 -0.9256
   23HTM   C112 6459   1.522   2.987  11.841 -0.2730  0.1844 -0.9294
   23HTM   C113 6460   1.436   2.950  11.732 -0.6979  0.2894 -0.6378
   23HTM   C114 6461   1.347   2.852  11.764 -0.5107  0.1891 -0.4109
   23HTM    S12 6462   1.364   2.799  11.935  0.2226 -0.0477 -0.5493
   24TAL   C115 6463   1.441   3.028  11.599  0.2510 -0.1911 -0.3283
   24TAL   C116 6464   1.568   3.019  11.508 -0.0793  0.8453 -0.5029
   24TAL   C117 6465   1.584   3.127  11.400 -1.4942  0.0759 -1.4507
   24TAL   C118 6466   1.482   3.123  11.296 -0.0908  1.1973  1.5462
   24TAL   C119 6467   1.485   3.242  11.191 -0.1698  0.1436 -0.4043
   24TAL   C120 6468   1.563   3.230  11.068 -0.0883 -0.0568  0.1309
   25HTM   C121 6469   1.253   2.768  11.684 -0.3376 -1.0342  0.1869
   25HTM   C122 6470   1.131   2.714  11.713 -0.1459 -1.7209 -0.2155
   25HTM   C123 6471   1.063   2.657  11.599  0.0558 -1.0697 -0.6723
   25HTM   C124 6472   1.134   2.667  11.483  0.0178  0.1136 -0.6189
   25HTM    S13 6473   1.292   2.750  11.508 -0.2778  0.5002  0.0183
   26TAL   C125 6474   0.932   2.590  11.615 -0.0757 -0.0459  0.3407
   26TAL   C126 6475   0.949   2.459  11.690  0.0080 -0.5142  0.2138
   26TAL   C127 6476   0.826   2.371  11.679  0.2862  1.1158 -0.2225
   26TAL   C128 6477   0.845   2.244  11.613 -0.5568  0.7794  0.0736
   26TAL   C129 6478   0.724   2.155  11.603 -0.4641  0.1656 -0.2187
   26TAL   C130 6479   0.733   2.069  11.469  0.4094  0.4828  0.3283
   27HTM   C131 6480   1.085   2.639  11.343 -0.0596 -0.1446  0.3830
   27HTM   C132 6481   1.161   2.616  11.232  0.4085  0.2799  0.6077
   27HTM   C133 6482   1.085   2.607  11.110  0.8920  0.4938  0.2818
   27HTM   C134 6483   0.951   2.623  11.128  0.7925  0.2324 -0.1911
   27HTM    S14 6484   0.910   2.651  11.302  0.0749 -0.3086 -0.2625
   28TAL   C135 6485   1.156   2.595  10.968  0.3197  0.1337  0.5224
   28TAL   C136 6486   1.292   2.660  10.941 -0.2468 -0.4340  0.2909
   28TAL   C137 6487   1.323   2.685  10.796  0.4988 -0.8558 -0.1066
   28TAL   C138 6488   1.470   2.724  10.761 -0.7229  0.1920 -0.3706
   28TAL   C139 6489   1.570   2.607  10.784 -0.2802 -0.5953  0.4612
   28TAL   C140 6490   1.692   2.652  10.696  0.1280  0.9224 -0.3613
   29HTM   C141 6491   0.843   2.621  11.033  0.1762  0.2651 -0.4823
   29HTM   C142 6492   0.766   2.516  10.993  0.6678  0.1969 -1.3003
   29HTM   C143 6493   0.660   2.553  10.904  0.6711  0.3477 -1.2426
   29HTM   C144 6494   0.655   2.686  10.875  0.1819  0.5312 -0.3805
   29HTM    S15 6495   0.787   2.776  10.960 -0.3246  0.5274  0.4316
   30TAL   C145 6496   0.558   2.451  10.846  0.4413 -0.6443  1.6910
   30TAL   C146 6497   0.606   2.302  10.825  0.6484 -0.0256  0.1820
   30TAL   C147 6498   0.513   2.216  10.741 -0.1122 -0.0978  0.3661
   30TAL   C148 6499   0.510   2.247  10.592 -0.6030 -1.5270 -0.3631
   30TAL   C149 6500   0.476   2.124  10.523  0.4656  0.3889 -0.4263
   30TAL   C150 6501   0.461   2.153  10.377 -0.1744 -0.4204  0.4157
   31HTM   C151 6502   0.578   2.765  10.783  0.5746 -0.2575 -0.2143
   31HTM   C152 6503   0.553   2.898  10.803  1.0238 -0.1580 -0.2885
   31HTM   C153 6504   0.489   2.962  10.691  0.6158 -0.1703 -0.0691
   31HTM   C154 6505   0.466   2.879  10.586 -0.1445 -0.2791  0.1725
   31HTM    S16 6506   0.523   2.711  10.620 -0.4062 -0.3754  0.1412
   32TAL   C155 6507   0.440   3.105  10.696  0.5316 -1.3712  1.3557
   32TAL   C156 6508   0.536   3.214  10.645 -0.1884  0.3032 -0.2526
   32TAL   C157 6509   0.672   3.220  10.716 -0.0030 -0.1551  0.0229
   32TAL   C158 6510   0.748   3.332  10.641 -0.2457  0.0796 -0.5702
   32TAL   C159 6511   0.897   3.373  10.672  0.5874  0.4081 -0.1219
   32TAL   C160 6512   1.002   3.389  10.562  0.0349 -0.4777  0.5406
   33HTM   C161 6513   0.416   2.898  10.457 -0.0242 -0.1580 -0.5344
   33HTM   C162 6514   0.295   2.926  10.400 -0.0622 -0.6213 -0.6931
   33HTM   C163 6515   0.293   2.909  10.257  0.1275 -0.8304 -0.6731
   33HTM   C164 6516   0.412   2.869  10.205  0.3102 -0.5265 -0.4992
   33HTM    S17 6517   0.537   2.848  10.333  0.2563  0.0518 -0.3465
   34TAL   C165 6518   0.168   2.948  10.189 -0.6716  0.0801  0.9731
   34TAL   C166 6519   0.144   3.094  10.157  0.3580  0.4419  0.5563
   34TAL   C167 6520   0.041   3.092  10.041  0.0183  0.0673  0.7345
   34TAL   C168 6521   0.011   3.230   9.981 -0.2440 -0.1231  0.1041
   34TAL   C169 6522  -0.084   3.221   9.865  0.8576  0.1111  0.4467
   34TAL   C170 6523  -0.127   3.358   9.811  0.4366  0.4634 -0.4898
   35HTM   C171 6524   0.444   2.833  10.068 -0.0259 -0.2416  0.1690
   35HTM   C172 6525   0.568   2.811  10.017 -0.0063  0.3327 -0.0448
   35HTM   C173 6526   0.568   2.769   9.879 -0.0077  0.9708 -0.2429
   35HTM   C174 6527   0.443   2.759   9.825 -0.0283  0.8831 -0.1798
   35HTM    S18 6528   0.315   2.802   9.945 -0.0478 -0.0193  0.1368
   36TAL   C175 6529   0.682   2.741   9.793 -1.1970 -0.8687  0.0328
   36TAL   C176 6530   0.808   2.681   9.859 -0.0148 -0.6837 -0.2604
   36TAL   C177 6531   0.925   2.667   9.760  0.7108 -0.5683 -0.1033
   36TAL   C178 6532   1.028   2.557   9.785  0.3559  0.0608  0.3837
   36TAL   C179 6533   1.140   2.558   9.688  0.0269 -0.3413  0.1877
   36TAL   C180 6534   1.274   2.490   9.729 -0.0856  0.7407  0.2527
   37HTM   C181 6535   0.399   2.743   9.684 -0.2215  0.6458  0.3121
   37HTM   C182 6536   0.434   2.819   9.577 -0.0955  0.6031  0.3219
   37HTM   C183 6537   0.392   2.764   9.450  0.3399  0.3888  0.2677
   37HTM   C184 6538   0.326   2.646   9.461  0.5460  0.2682  0.2172
   37HTM    S19 6539   0.311   2.594   9.633  0.2035  0.4171  0.2338
   38TAL   C185 6540   0.406   2.838   9.320 -1.1486 -0.1793 -0.2169
   38TAL   C186 6541   0.532   2.852   9.230  0.4977  0.8048  0.6404
   38TAL   C187 6542   0.527   2.982   9.151 -0.6216  0.1421  1.1564
   38TAL   C188 6543   0.506   2.963   9.000 -0.7633  0.3633  0.1089
   38TAL   C189 6544   0.539   3.079   8.912 -0.9606  0.8495  0.2677
   38TAL   C190 6545   0.503   3.033   8.771 -0.4810  0.4289 -0.1979
   39HTM   C191 6546   0.271   2.557   9.354 -0.2733  0.3399  0.1045
   39HTM   C192 6547   0.356   2.488   9.274 -0.1722  0.3460  0.2065
   39HTM   C193 6548   0.291   2.420   9.165 -0.0483  0.2642  0.1833
   39HTM   C194 6549   0.156   2.438   9.162 -0.0548  0.1958  0.0632
   39HTM    S20 6550   0.100   2.542   9.298 -0.2194  0.2297 -0.0302
   40TAL   C195 6551   0.371   2.320   9.073 -0.5953  0.2077 -0.0344
   40TAL   C196 6552   0.511   2.382   9.032  0.1935 -0.2321 -0.3982
   40TAL   C197 6553   0.580   2.320   8.922 -0.8547  0.8886  0.5276
   40TAL   C198 6554   0.535   2.303   8.778  0.3126 -0.6662  1.0061
   40TAL   C199 6555   0.453   2.412   8.699 -0.6936 -0.0811  1.1591
   40TAL   C200 6556   0.426   2.363   8.559  0.8229 -0.2058 -0.0566
   41HTM   C201 6557   0.056   2.401   9.064 -0.1560 -0.1418 -0.3796
   41HTM   C202 6558  -0.009   2.281   9.063  0.6451 -0.5947 -1.0624
   41HTM   C203 6559  -0.076   2.253   8.938  1.0817 -0.4832 -1.3285
   41HTM   C204 6560  -0.062   2.352   8.845  0.6137  0.0549 -0.8486
   41HTM    S21 6561   0.038   2.488   8.907 -0.4232  0.4654 -0.0167
   42TAL   C205 6562  -0.146   2.128   8.918  0.0199 -0.1220 -0.2478
   42TAL   C206 6563  -0.260   2.121   9.011 -0.1634  1.0361 -0.2333
   42TAL   C207 6564  -0.343   1.990   9.014 -0.9174  1.6162 -0.0914
   42TAL   C208 6565  -0.469   1.987   9.093  1.3041 -0.5817 -1.9071
   42TAL   C209 6566  -0.443   1.999   9.244 -0.1396  0.4962  0.0257
   42TAL   C210 6567  -0.536   1.928   9.340 -0.0156  0.8522  1.1311
   43HTM   C211 6568  -0.107   2.369   8.715 -0.1311  0.5110  0.2628
   43HTM   C212 6569  -0.040   2.379   8.597 -0.0849  1.0432  0.3328
   43HTM   C213 6570  -0.125   2.369   8.481  0.0585  0.8046  0.2472
   43HTM   C214 6571  -0.257   2.350   8.511  0.1215  0.0905  0.1127
   43HTM    S22 6572  -0.283   2.344   8.690  0.0039 -0.3393  0.0828
   44TAL   C215 6573  -0.068   2.383   8.334  0.3380  0.6904 -0.1754
   44TAL   C216 6574   0.083   2.380   8.306  0.2681 -1.0357 -0.1152
   44TAL   C217 6575   0.099   2.460   8.177  0.3810 -0.3900 -1.5653
   44TAL   C218 6576   0.231   2.511   8.122  0.2674 -0.3600 -0.4807
   44TAL   C219 6577   0.343   2.409   8.125  0.5490  0.0807  0.4063
   44TAL   C220 6578   0.330   2.321   7.998  0.2506 -0.0558  0.5336
   45HTM   C221 6579  -0.373   2.335   8.433 -0.3421  0.2784 -0.1555
   45HTM   C222 6580  -0.493   2.390   8.464 -0.4097  0.1991 -0.2763
   45HTM   C223 6581  -0.599   2.355   8.372 -0.3307  0.0008 -0.2913
   45HTM   C224 6582  -0.558   2.273   8.271 -0.2027 -0.0711 -0.1817
   45HTM    S23 6583  -0.382   2.233   8.284 -0.1722  0.1074 -0.0502
   46TAL   C225 6584  -0.741   2.416   8.378  0.2059  0.8304 -0.1113
   46TAL   C226 6585  -0.817   2.469   8.502 -0.6268 -0.2399  0.0580
   46TAL   C227 6586  -0.911   2.368   8.578 -0.7478 -0.0134  0.4580
   46TAL   C228 6587  -0.842   2.243   8.643  1.0979  0.3568 -0.6073
   46TAL   C229 6588  -0.944   2.164   8.726  0.6531 -0.7375  0.6815
   46TAL   C230 6589  -0.966   2.018   8.693 -0.4173 -0.0722 -0.5115
   47HTM   C231 6590  -0.633   2.218   8.165 -0.6671 -0.0934 -0.7597
   47HTM   C232 6591  -0.762   2.176   8.158 -0.4832 -0.6989 -0.5879
   47HTM   C233 6592  -0.795   2.110   8.034 -0.2497 -1.1877 -0.3986
   47HTM   C234 6593  -0.691   2.103   7.946 -0.2559 -0.9549 -0.4256
   47HTM    S24 6594  -0.542   2.179   8.014 -0.5594 -0.0935 -0.6946
   48TAL   C235 6595  -0.931   2.053   7.993  0.0002  0.3419  0.2763
   48TAL   C236 6596  -0.985   1.951   8.087  0.6951  0.4408 -1.0873
   48TAL   C237 6597  -1.070   1.845   8.009  0.9244  0.1536 -0.3038
   48TAL   C238 6598  -1.116   1.716   8.081  0.1099  0.0653  0.6256
   48TAL   C239 6599  -1.008   1.619   8.127  0.1365  0.3832  0.6038
   48TAL   C240 6600  -1.077   1.501   8.200  1.2348  0.5546 -0.3030
    1HTM     C1 6601   3.287   2.902  15.172  0.1346  0.3352  0.0523
    1HTM     C2 6602   3.322   2.790  15.242 -0.0640  0.5739  0.5465
    1HTM     C3 6603   3.459   2.751  15.222 -0.1537  0.1981  0.6530
    1HTM     C4 6604   3.528   2.833  15.138 -0.0235 -0.3270  0.2406
    1HTM     S1 6605   3.424   2.967  15.076  0.2245 -0.3882 -0.3190
    2TAL     C5 6606   3.524   2.626  15.286  0.2367  0.4151  0.6910
    2TAL     C6 6607   3.432   2.539  15.374  0.1257  0.3209  0.5332
    2TAL     C7 6608   3.507   2.414  15.418 -0.2882  0.5469 -1.5650
    2TAL     C8 6609   3.598   2.432  15.543  0.2288  0.4126  0.5294
    2TAL     C9 6610   3.734   2.375  15.556 -0.0454  0.0100 -0.0175
    2TAL    C10 6611   3.852   2.443  15.475  0.0741  0.1412 -1.0814
    3HTM    C11 6612   3.662   2.826  15.081 -0.1540 -0.4105  0.0678
    3HTM    C12 6613   3.766   2.743  15.111 -0.2935 -0.6058  0.0162
    3HTM    C13 6614   3.889   2.778  15.045 -0.1921 -0.6700  0.1707
    3HTM    C14 6615   3.879   2.887  14.965  0.0246 -0.5236  0.3396
    3HTM     S2 6616   3.712   2.955  14.965  0.1182 -0.2915  0.3168
    4TAL    C15 6617   4.023   2.713  15.079  0.4077 -0.9865 -0.0440
    4TAL    C16 6618   4.051   2.646  15.215  0.0136 -0.3658  0.7877
    4TAL    C17 6619   4.191   2.599  15.253 -0.2369  0.4639 -0.9679
    4TAL    C18 6620   4.239   2.643  15.394 -0.2774  1.3942 -0.1848
    4TAL    C19 6621   4.284   2.783  15.436  0.0293 -1.2566 -0.2515
    4TAL    C20 6622   4.325   2.790  15.584 -0.1628  0.6992 -0.6554
    5HTM    C21 6623   3.983   2.969  14.898  0.1471 -0.1803  0.3319
    5HTM    C22 6624   4.024   3.096  14.930 -0.1609  0.0116 -0.0157
    5HTM    C23 6625   4.122   3.150  14.840 -0.6322  0.1860 -0.4294
    5HTM    C24 6626   4.156   3.065  14.738 -0.6833  0.1272 -0.3975
    5HTM     S3 6627   4.066   2.909  14.750 -0.1360 -0.1553  0.1622
    6TAL    C25 6628   4.162   3.283  14.882 -0.6070 -0.3196 -0.3183
    6TAL    C26 6629   4.209   3.400  14.789 -1.2178  0.2867 -0.5618
    6TAL    C27 6630   4.125   3.441  14.673  0.4514  0.1127  0.9828
    6TAL    C28 6631   4.189   3.510  14.546 -0.2588  0.3275 -1.0563
    6TAL    C29 6632   4.314   3.453  14.489  0.2796  1.0764 -0.1166
    6TAL    C30 6633   4.329   3.508  14.350 -0.4159 -0.0265 -0.2383
    7HTM    C31 6634   4.260   3.087  14.638 -0.4992 -0.8255 -0.2429
    7HTM    C32 6635   4.244   3.059  14.506 -0.2797  0.0744 -0.4733
    7HTM    C33 6636   4.360   3.089  14.426 -0.2294  0.8450 -0.1273
    7HTM    C34 6637   4.464   3.140  14.498 -0.4105  0.5325  0.3670
    7HTM     S4 6638   4.423   3.154  14.673 -0.6606 -0.7690  0.4346
    8TAL    C35 6639   4.351   3.054  14.285  0.3603  0.4635  0.7370
    8TAL    C36 6640   4.318   3.175  14.188 -1.4312 -0.7860 -0.1228
    8TAL    C37 6641   4.252   3.144  14.066  1.0489  1.2725  0.2180
    8TAL    C38 6642   4.251   3.263  13.963  0.1717 -0.6703  0.3686
    8TAL    C39 6643   4.167   3.250  13.834 -0.3578  0.6975  0.3720
    8TAL    C40 6644   4.206   3.345  13.714 -0.1638  0.2519  0.0060
    9HTM    C41 6645   4.590   3.194  14.444 -0.4024  0.3770 -0.2078
    9HTM    C42 6646   4.640   3.320  14.450 -0.6031  0.4770 -0.5662
    9HTM    C43 6647   4.773   3.333  14.397 -0.5774  0.5128 -0.4938
    9HTM    C44 6648   4.825   3.216  14.350 -0.3569  0.4401 -0.0802
    9HTM     S5 6649   4.708   3.080  14.370 -0.1633  0.3199  0.2523
   10TAL    C45 6650   4.836   3.468  14.375  0.2310 -0.1075 -1.1055
   10TAL    C46 6651   4.773   3.568  14.286  0.6267 -0.2806 -0.6845
   10TAL    C47 6652   4.842   3.701  14.299  0.5441 -0.1877 -0.0370
   10TAL    C48 6653   4.758   3.829  14.270  0.4787  0.2614 -0.9335
   10TAL    C49 6654   4.630   3.850  14.348  0.5608  0.8177 -0.5564
   10TAL    C50 6655   4.623   3.882  14.496  0.7487 -0.4597 -0.7949
   11HTM    C51 6656   4.946   3.186  14.275  0.1091  0.3098  0.3363
   11HTM    C52 6657   5.008   3.237  14.165  0.4631  0.5592  0.6459
   11HTM    C53 6658   5.125   3.163  14.125  0.4375  0.4920  0.6943
   11HTM    C54 6659   5.152   3.056  14.204  0.0642  0.1915  0.4217
   11HTM     S6 6660   5.032   3.039  14.337 -0.2869 -0.0318  0.0797
   12TAL    C55 6661   5.213   3.205  14.001  0.4802  0.1873 -0.9392
   12TAL    C56 6662   5.149   3.171  13.867  0.4386  0.4230  0.8046
   12TAL    C57 6663   5.218   3.250  13.772  1.3001  1.2691 -0.0303
   12TAL    C58 6664   5.159   3.279  13.637  0.4056 -0.8717 -0.2791
   12TAL    C59 6665   5.250   3.352  13.545 -0.5296 -0.6479 -0.9907
   12TAL    C60 6666   5.183   3.473  13.500  0.4981 -0.0891 -0.7685
   13HTM    C61 6667   5.242   2.943  14.202 -0.1461  0.0187 -0.4503
   13HTM    C62 6668   5.340   2.922  14.109 -0.4128 -0.1108 -0.7019
   13HTM    C63 6669   5.420   2.805  14.136 -0.0668  0.1623 -0.5376
   13HTM    C64 6670   5.384   2.738  14.249  0.4641  0.5002 -0.1609
   13HTM     S7 6671   5.245   2.818  14.331  0.5685  0.4996  0.0169
   14TAL    C65 6672   5.518   2.769  14.039 -0.2444  0.5856  0.9997
   14TAL    C66 6673   5.469   2.641  13.966 -0.0034 -0.7684 -0.1827
   14TAL    C67 6674   5.551   2.603  13.842 -1.1653 -0.7890  0.3464
   14TAL    C68 6675   5.658   2.510  13.894 -0.5547 -0.6236  0.2939
   14TAL    C69 6676   5.614   2.380  13.836  0.0289  0.6253  0.4687
   14TAL    C70 6677   5.722   2.270  13.860 -0.1570  0.1446 -0.5645
   15HTM    C71 6678   5.435   2.614  14.311 -0.0382 -0.0307 -0.2182
   15HTM    C72 6679   5.375   2.492  14.311  0.0316 -0.0762 -1.0343
   15HTM    C73 6680   5.460   2.384  14.354  0.0241 -0.2888 -1.5275
   15HTM    C74 6681   5.586   2.425  14.388 -0.0518 -0.4053 -1.0877
   15HTM     S8 6682   5.606   2.603  14.366 -0.1198 -0.2545 -0.0076
   16TAL    C75 6683   5.404   2.249  14.360 -0.7701  0.2418  0.2111
   16TAL    C76 6684   5.377   2.182  14.221  0.2818  0.0690 -0.2340
   16TAL    C77 6685   5.321   2.037  14.228  0.4843 -0.4534  0.0013
   16TAL    C78 6686   5.351   1.935  14.341 -1.2358 -0.6606 -0.2034
   16TAL    C79 6687   5.282   1.808  14.306  0.0176  0.7260  0.4206
   16TAL    C80 6688   5.298   1.696  14.406  0.5845 -0.7485  0.2686
   17HTM    C81 6689   5.701   2.351  14.429  0.3382 -0.0679 -0.8297
   17HTM    C82 6690   5.824   2.352  14.370  0.4168 -0.4818 -0.6795
   17HTM    C83 6691   5.911   2.247  14.416  0.1469 -0.5345 -0.2816
   17HTM    C84 6692   5.856   2.167  14.512 -0.1377 -0.1610 -0.1285
   17HTM     S9 6693   5.686   2.217  14.550 -0.0861  0.2899 -0.4777
   18TAL    C85 6694   6.045   2.219  14.357 -0.6636  1.3231 -0.9259
   18TAL    C86 6695   6.081   2.307  14.236 -0.0294  0.0366  0.8405
   18TAL    C87 6696   6.221   2.277  14.169  0.5485 -0.3956  0.3984
   18TAL    C88 6697   6.232   2.308  14.022  1.0360  0.0962  0.6740
   18TAL    C89 6698   6.132   2.241  13.918  0.8165  0.6799  0.1932
   18TAL    C90 6699   6.097   2.330  13.797 -0.9717 -0.5676  0.7423
   19HTM    C91 6700   5.905   2.055  14.590 -0.1189  0.6994  0.2416
   19HTM    C92 6701   6.036   2.029  14.621 -0.0505  0.7433 -0.0026
   19HTM    C93 6702   6.054   1.909  14.699  0.1777  0.5206 -0.3889
   19HTM    C94 6703   5.937   1.844  14.728  0.2836  0.3070 -0.4393
   19HTM    S10 6704   5.795   1.930  14.658  0.1018  0.3709  0.0009
   20TAL    C95 6705   6.192   1.859  14.712  0.0480 -0.6264 -0.1478
   20TAL    C96 6706   6.249   1.758  14.611  0.0119 -0.2012 -0.1908
   20TAL    C97 6707   6.272   1.779  14.457 -0.8824  0.1178 -0.6880
   20TAL    C98 6708   6.365   1.890  14.422 -0.5232 -0.1226 -0.4761
   20TAL    C99 6709   6.402   1.901  14.279  0.2449 -0.0908  0.6931
   20TAL   C100 6710   6.502   2.007  14.245 -0.2800  0.9037 -1.0327
   21HTM   C101 6711   5.904   1.725  14.819 -0.1570 -0.4090 -0.3073
   21HTM   C102 6712   5.815   1.626  14.787  0.2269 -0.8246 -0.1223
   21HTM   C103 6713   5.807   1.521  14.886  0.7509 -0.7515  0.0057
   21HTM   C104 6714   5.890   1.539  14.992  0.7671 -0.2801 -0.0823
   21HTM    S11 6715   5.985   1.692  14.977  0.1163  0.1111 -0.3351
   22TAL   C105 6716   5.713   1.408  14.869  0.1469 -0.4682 -0.2176
   22TAL   C106 6717   5.748   1.307  14.758 -0.2264 -0.1601  0.2126
   22TAL   C107 6718   5.875   1.214  14.758 -0.5743 -0.8835  0.2903
   22TAL   C108 6719   5.877   1.091  14.851 -0.0464 -0.4621  0.0374
   22TAL   C109 6720   6.018   1.048  14.875 -0.2006  0.9262  0.3679
   22TAL   C110 6721   5.992   0.928  14.968  0.0427 -0.1268 -0.1658
   23HTM   C111 6722   5.935   1.427  15.069  0.2215  0.2950 -0.9765
   23HTM   C112 6723   5.865   1.364  15.167 -0.4565  0.7610 -1.1470
   23HTM   C113 6724   5.948   1.289  15.258 -1.1133  0.8416 -0.4666
   23HTM   C114 6725   6.081   1.295  15.230 -0.9363  0.4370  0.2218
   23HTM    S12 6726   6.113   1.397  15.084  0.0817 -0.0813  0.0637
   24TAL   C115 6727   5.874   1.209  15.375  0.6171  0.5408  0.2215
   24TAL   C116 6728   5.829   1.288  15.492  0.4389 -0.4529 -0.8408
   24TAL   C117 6729   5.944   1.355  15.564 -0.0940 -0.0176 -1.2124
   24TAL   C118 6730   5.900   1.430  15.691  0.1242  0.1686  0.0679
   24TAL   C119 6731   6.001   1.482  15.791 -0.5276 -1.0029  1.2876
   24TAL   C120 6732   5.973   1.551  15.924 -0.2827 -0.2735 -0.0795
   25HTM   C121 6733   6.188   1.242  15.303 -0.0017  0.7060  0.1858
   25HTM   C122 6734   6.273   1.304  15.390  0.1093  0.3591  0.3312
   25HTM   C123 6735   6.375   1.218  15.444 -0.2602 -0.0333  0.4127
   25HTM   C124 6736   6.368   1.090  15.399 -0.6529  0.0143  0.3295
   25HTM    S13 6737   6.231   1.068  15.283 -0.5863  0.5627  0.1402
   26TAL   C125 6738   6.476   1.274  15.534 -0.4692 -0.4174 -0.9231
   26TAL   C126 6739   6.568   1.369  15.465 -0.9356 -0.8202 -0.2170
   26TAL   C127 6740   6.652   1.438  15.569 -1.4883 -0.7899  0.3246
   26TAL   C128 6741   6.750   1.527  15.505  0.3367  0.3770 -0.1405
   26TAL   C129 6742   6.869   1.569  15.586 -0.2956  0.1221  0.0120
   26TAL   C130 6743   6.979   1.466  15.594 -0.4125 -0.3379 -0.3326
   27HTM   C131 6744   6.448   0.975  15.427  0.0055  1.0438 -0.5791
   27HTM   C132 6745   6.415   0.846  15.398 -0.3583  1.3424 -1.5790
   27HTM   C133 6746   6.511   0.750  15.445 -0.9553  0.6641 -1.7133
   27HTM   C134 6747   6.618   0.805  15.510 -1.0467 -0.1518 -0.8160
   27HTM    S14 6748   6.605   0.985  15.516 -0.3806 -0.1264  0.2766
   28TAL   C135 6749   6.472   0.604  15.437 -0.3962 -0.1424 -0.1875
   28TAL   C136 6750   6.349   0.562  15.508  0.3802  0.8553 -0.3219
   28TAL   C137 6751   6.309   0.604  15.649 -0.3995 -1.3210 -0.4597
   28TAL   C138 6752   6.176   0.543  15.698 -0.0515 -0.7628 -0.8177
   28TAL   C139 6753   6.090   0.599  15.820  0.9804  0.8289  0.9879
   28TAL   C140 6754   6.027   0.731  15.792  1.6029 -0.0143 -0.5464
   29HTM   C141 6755   6.730   0.752  15.591 -0.3929 -0.0676  0.0490
   29HTM   C142 6756   6.806   0.809  15.689 -0.7701 -0.3898  0.5407
   29HTM   C143 6757   6.923   0.733  15.722 -0.8066 -0.4123  0.6187
   29HTM   C144 6758   6.937   0.618  15.650 -0.4573 -0.1073  0.1859
   29HTM    S15 6759   6.801   0.597  15.533 -0.0520  0.2347 -0.3576
   30TAL   C145 6760   7.022   0.776  15.830 -0.2396 -1.1340 -0.5627
   30TAL   C146 6761   6.963   0.809  15.966  0.5796  0.2247  0.7089
   30TAL   C147 6762   6.864   0.715  16.030  0.6625  0.2353 -0.4854
   30TAL   C148 6763   6.908   0.576  16.067  0.4763 -0.7208 -0.1850
   30TAL   C149 6764   7.037   0.566  16.158  1.1665  0.8473 -0.0723
   30TAL   C150 6765   7.151   0.475  16.108  0.4176  0.5230 -0.0327
   31HTM   C151 6766   7.043   0.519  15.643  0.0705 -0.1085  0.2008
   31HTM   C152 6767   7.131   0.508  15.539  0.3647  0.3269  0.3967
   31HTM   C153 6768   7.233   0.408  15.560  0.3579  0.3006  0.3016
   31HTM   C154 6769   7.222   0.343  15.679  0.0586 -0.1549  0.0331
   31HTM    S16 6770   7.083   0.403  15.776 -0.2401 -0.5893 -0.1213
   32TAL   C155 6771   7.334   0.379  15.448  0.2248  0.0219  0.0895
   32TAL   C156 6772   7.466   0.446  15.471 -0.4352  0.0930 -0.7049
   32TAL   C157 6773   7.560   0.422  15.364 -0.6115 -0.4316 -0.0033
   32TAL   C158 6774   7.639   0.292  15.395  0.2039 -0.6798  0.1002
   32TAL   C159 6775   7.754   0.274  15.292  0.1085  0.0720  0.0979
   32TAL   C160 6776   7.842   0.145  15.315  0.7239 -0.8549  0.4916
   33HTM   C161 6777   7.295   0.223  15.724  0.7676  0.2975  0.8746
   33HTM   C162 6778   7.416   0.173  15.686  0.6576 -0.0604  0.9854
   33HTM   C163 6779   7.449   0.048  15.748 -0.0380 -0.4684  0.5462
   33HTM   C164 6780   7.352   0.001  15.832 -0.4581 -0.4215  0.1008
   33HTM    S17 6781   7.212   0.114  15.841 -0.0043  0.1459  0.2019
   34TAL   C165 6782   7.587  -0.004  15.740  0.0039  0.5578  0.3361
   34TAL   C166 6783   7.700   0.074  15.773 -0.0505  0.8078  0.1527
   34TAL   C167 6784   7.717   0.109  15.920  0.5992 -0.9085 -0.0402
   34TAL   C168 6785   7.839   0.195  15.953 -0.5923 -0.2516 -0.0741
   34TAL   C169 6786   7.978   0.139  15.925 -0.4765  0.1588  0.4119
   34TAL   C170 6787   8.090   0.233  15.968  0.2606 -0.7180  0.0446
   35HTM   C171 6788   7.353  -0.115  15.911 -0.0010 -0.0788 -0.2862
   35HTM   C172 6789   7.442  -0.174  15.995 -0.1208  0.0139 -0.0939
   35HTM   C173 6790   7.396  -0.298  16.052 -0.3071  0.2092  0.1841
   35HTM   C174 6791   7.271  -0.334  16.011 -0.3297  0.2653  0.2045
   35HTM    S18 6792   7.202  -0.213  15.896 -0.1155  0.0744 -0.1297
   36TAL   C175 6793   7.468  -0.376  16.162 -0.9045  0.0264  0.1060
   36TAL   C176 6794   7.617  -0.337  16.185  0.1354  0.2179 -0.1644
   36TAL   C177 6795   7.623  -0.245  16.298 -1.0757 -0.3265 -0.8524
   36TAL   C178 6796   7.759  -0.189  16.346  0.0405  0.8548  0.4967
   36TAL   C179 6797   7.839  -0.101  16.251 -0.3217  1.1054  0.3629
   36TAL   C180 6798   7.956  -0.063  16.340 -0.0858 -0.3435 -0.4141
   37HTM   C181 6799   7.200  -0.452  16.053  0.6603 -0.1118 -0.2901
   37HTM   C182 6800   7.072  -0.472  16.096  0.7360  0.3568  0.1669
   37HTM   C183 6801   7.041  -0.609  16.124  0.4109  0.5026  0.5488
   37HTM   C184 6802   7.145  -0.695  16.102  0.0873  0.1455  0.3841
   37HTM    S19 6803   7.291  -0.607  16.044  0.1687 -0.4072 -0.2719
   38TAL   C185 6804   6.904  -0.639  16.180 -0.1551 -0.5150  0.7333
   38TAL   C186 6805   6.808  -0.702  16.080 -0.0186 -0.2381 -0.5834
   38TAL   C187 6806   6.763  -0.599  15.967  0.7166 -0.8503 -0.6886
   38TAL   C188 6807   6.643  -0.642  15.888  0.2344 -0.1131  0.3362
   38TAL   C189 6808   6.579  -0.552  15.784 -0.1754  0.1674  1.2049
   38TAL   C190 6809   6.660  -0.564  15.651  0.9328  0.0044 -0.2758
   39HTM   C191 6810   7.143  -0.833  16.083  0.6027 -0.2793  0.1027
   39HTM   C192 6811   7.161  -0.902  15.967  0.5631 -0.4413  0.1926
   39HTM   C193 6812   7.172  -1.044  15.986  0.0281 -0.4697  0.3328
   39HTM   C194 6813   7.163  -1.083  16.116 -0.3405 -0.3295  0.3493
   39HTM    S20 6814   7.138  -0.943  16.226 -0.0379 -0.1490  0.1886
   40TAL   C195 6815   7.170  -1.145  15.868  0.2134  0.4176 -0.0942
   40TAL   C196 6816   7.299  -1.174  15.785 -0.1783 -0.5986 -0.0122
   40TAL   C197 6817   7.283  -1.237  15.653  0.4468  1.0702  0.6817
   40TAL   C198 6818   7.405  -1.219  15.575 -0.3574 -0.3865  0.6149
   40TAL   C199 6819   7.423  -1.323  15.467 -0.3649  0.1460  0.8180
   40TAL   C200 6820   7.546  -1.309  15.363 -0.0292  0.4066 -0.1489
   41HTM   C201 6821   7.162  -1.212  16.193  0.1704 -0.0870  1.0063
   41HTM   C202 6822   7.184  -1.226  16.326  1.2980 -0.7243  0.7792
   41HTM   C203 6823   7.218  -1.360  16.366  1.6991 -0.9096 -0.1407
   41HTM   C204 6824   7.221  -1.449  16.262  0.8771 -0.4133 -0.6147
   41HTM    S21 6825   7.182  -1.368  16.105 -0.4774  0.3320  0.0684
   42TAL   C205 6826   7.251  -1.400  16.515  0.4631  0.6016 -0.5660
   42TAL   C206 6827   7.285  -1.287  16.630 -0.5313 -0.4342  0.8207
   42TAL   C207 6828   7.393  -1.195  16.573  0.0784  0.8312 -0.0793
   42TAL   C208 6829   7.475  -1.090  16.660  0.4822 -0.5016 -0.2789
   42TAL   C209 6830   7.498  -1.107  16.808 -0.3392 -0.3702 -0.1694
   42TAL   C210 6831   7.455  -0.990  16.904 -0.5098  0.0310 -0.8553
   43HTM   C211 6832   7.209  -1.592  16.268  0.3109  0.0598  0.4014
   43HTM   C212 6833   7.106  -1.669  16.222 -0.0427  0.2782  0.8068
   43HTM   C213 6834   7.134  -1.810  16.224 -0.2509  0.2304  0.4873
   43HTM   C214 6835   7.258  -1.841  16.271 -0.0559 -0.0243 -0.1614
   43HTM    S22 6836   7.350  -1.693  16.318  0.4094 -0.2252 -0.4213
   44TAL   C215 6837   7.032  -1.922  16.188  0.8737 -0.1800 -0.7237
   44TAL   C216 6838   6.978  -1.931  16.046 -0.5744 -0.2911 -0.3147
   44TAL   C217 6839   6.889  -2.041  16.010 -0.0389  0.9984 -0.7930
   44TAL   C218 6840   6.959  -2.173  16.000 -0.1698  0.9615  0.6522
   44TAL   C219 6841   6.897  -2.289  15.922  0.3291  0.6803  0.1540
   44TAL   C220 6842   6.832  -2.277  15.776 -0.4649  0.5921 -0.4194
   45HTM   C221 6843   7.325  -1.968  16.310 -0.3627  0.0511 -0.3732
   45HTM   C222 6844   7.417  -2.000  16.407 -0.1891  0.7024 -0.3142
   45HTM   C223 6845   7.464  -2.135  16.399  0.2959  0.8416  0.1178
   45HTM   C224 6846   7.409  -2.207  16.298  0.4923  0.2963  0.3885
   45HTM    S23 6847   7.292  -2.109  16.203  0.0766 -0.4408  0.1168
   46TAL   C225 6848   7.536  -2.211  16.512  0.9756 -0.5306  0.9687
   46TAL   C226 6849   7.687  -2.226  16.511  0.8895 -0.6236 -1.1182
   46TAL   C227 6850   7.773  -2.108  16.513 -0.4873 -0.7820  0.4134
   46TAL   C228 6851   7.922  -2.111  16.499 -1.0406  0.2178 -0.4074
   46TAL   C229 6852   7.970  -1.975  16.463 -0.1535 -0.3802 -0.1460
   46TAL   C230 6853   8.115  -1.940  16.489 -0.1002  0.1272  0.0392
   47HTM   C231 6854   7.425  -2.341  16.234 -0.0429 -0.4104  0.2555
   47HTM   C232 6855   7.440  -2.464  16.292  0.0423 -0.4129  0.2294
   47HTM   C233 6856   7.435  -2.573  16.198  0.3058 -0.3854  0.1817
   47HTM   C234 6857   7.417  -2.534  16.069  0.4214 -0.3623  0.1724
   47HTM    S24 6858   7.404  -2.355  16.055  0.2049 -0.3731  0.2228
   48TAL   C235 6859   7.433  -2.716  16.241  0.5275 -0.2688 -1.0226
   48TAL   C236 6860   7.443  -2.842  16.152  0.3948  0.4433 -0.7555
   48TAL   C237 6861   7.443  -2.973  16.227 -0.0368  0.1166 -0.4920
   48TAL   C238 6862   7.494  -3.091  16.131  0.1962 -1.2873  0.3556
   48TAL   C239 6863   7.644  -3.094  16.106 -0.2537  0.2226 -0.5499
   48TAL   C240 6864   7.721  -3.142  16.225  0.1764  0.4806 -0.6294
    1HTM     C1 6865   2.205   2.916   5.377 -0.7773  0.5784  0.2747
    1HTM     C2 6866   2.294   3.004   5.430 -0.8880  0.8255  0.0565
    1HTM     C3 6867   2.344   2.964   5.559 -0.0674  0.6967 -0.2894
    1HTM     C4 6868   2.293   2.846   5.604  0.6691  0.3512 -0.3353
    1HTM     S1 6869   2.177   2.775   5.486  0.3809  0.1604  0.0582
    2TAL     C5 6870   2.444   3.051   5.647 -0.1503 -0.6412 -0.1102
    2TAL     C6 6871   2.465   3.199   5.592 -0.0488 -0.1248 -0.4246
    2TAL     C7 6872   2.607   3.261   5.616  0.1274 -0.3722 -0.3792
    2TAL     C8 6873   2.690   3.265   5.752  0.1207 -0.3491 -0.1994
    2TAL     C9 6874   2.822   3.340   5.726  0.6703 -0.1033  0.6743
    2TAL    C10 6875   2.908   3.352   5.845 -0.7330  0.0505 -0.9991
    3HTM    C11 6876   2.309   2.781   5.732  0.4119  0.7230 -0.0148
    3HTM    C12 6877   2.248   2.663   5.762  0.0266  0.8364 -0.3451
    3HTM    C13 6878   2.276   2.614   5.894 -0.4482  0.5701 -0.3349
    3HTM    C14 6879   2.360   2.695   5.965 -0.4249  0.2536  0.0032
    3HTM     S2 6880   2.410   2.840   5.870  0.2032  0.2674  0.3379
    4TAL    C15 6881   2.232   2.479   5.947 -1.1709  0.2737 -0.5312
    4TAL    C16 6882   2.086   2.446   5.953  1.1293 -0.4180 -0.4821
    4TAL    C17 6883   2.011   2.361   5.854 -0.6772  0.3839  0.3793
    4TAL    C18 6884   2.017   2.428   5.721  0.3672  0.9114  0.6006
    4TAL    C19 6885   1.968   2.327   5.619  0.2879  0.0630 -0.5382
    4TAL    C20 6886   1.965   2.392   5.489  0.9096  0.2322  0.0596
    5HTM    C21 6887   2.435   2.659   6.083 -0.4009  0.1779  0.1483
    5HTM    C22 6888   2.532   2.745   6.127 -0.2611 -0.0304  0.2499
    5HTM    C23 6889   2.575   2.720   6.262 -0.1392 -0.4032  0.1445
    5HTM    C24 6890   2.511   2.615   6.321 -0.1861 -0.4791 -0.0374
    5HTM     S3 6891   2.390   2.539   6.211 -0.3894 -0.0826 -0.0902
    6TAL    C25 6892   2.691   2.798   6.321  0.7380 -0.0473  0.3030
    6TAL    C26 6893   2.795   2.880   6.234  1.5945  0.2271 -1.9273
    6TAL    C27 6894   2.908   2.909   6.339 -0.0271  0.4885  1.3390
    6TAL    C28 6895   3.013   2.997   6.265  0.4289  0.0214 -1.0894
    6TAL    C29 6896   3.104   3.065   6.364  0.7786  1.1715 -0.3395
    6TAL    C30 6897   3.216   3.144   6.306 -0.4406  0.1225  0.6815
    7HTM    C31 6898   2.542   2.542   6.442 -0.2212 -0.3295  0.3104
    7HTM    C32 6899   2.497   2.417   6.474  0.0306 -0.3944  0.4183
    7HTM    C33 6900   2.541   2.371   6.603  0.2275 -0.2451  0.4058
    7HTM    C34 6901   2.619   2.460   6.669  0.1259 -0.0665  0.2884
    7HTM     S4 6902   2.644   2.611   6.573 -0.2291 -0.0730  0.1836
    8TAL    C35 6903   2.471   2.249   6.655 -0.0198 -0.6358 -1.0422
    8TAL    C36 6904   2.453   2.134   6.562 -0.2233  0.8864 -0.1355
    8TAL    C37 6905   2.452   2.008   6.640 -1.0367 -0.6890  0.6837
    8TAL    C38 6906   2.455   1.888   6.547 -0.3225 -0.7642 -0.0195
    8TAL    C39 6907   2.590   1.817   6.534 -0.2516  0.5502  0.3608
    8TAL    C40 6908   2.582   1.688   6.457  0.2690 -0.0902 -0.2213
    9HTM    C41 6909   2.693   2.451   6.795  0.1727  0.2735  0.1822
    9HTM    C42 6910   2.707   2.543   6.894  0.3611  0.3565  0.0792
    9HTM    C43 6911   2.756   2.488   7.018  0.5549  0.4525  0.0464
    9HTM    C44 6912   2.778   2.354   7.013  0.5142  0.4425  0.1246
    9HTM     S5 6913   2.740   2.286   6.851  0.2258  0.3105  0.2466
   10TAL    C45 6914   2.774   2.581   7.144 -1.2129  0.3262 -0.0137
   10TAL    C46 6915   2.905   2.662   7.122  0.6179 -0.1500 -0.1957
   10TAL    C47 6916   3.011   2.646   7.219 -0.8855 -0.1945  0.0883
   10TAL    C48 6917   3.135   2.564   7.185 -0.6704  0.6406 -0.7462
   10TAL    C49 6918   3.234   2.620   7.092 -0.2634  0.6813 -0.0457
   10TAL    C50 6919   3.369   2.550   7.101 -0.4904 -1.0561  0.7235
   11HTM    C51 6920   2.822   2.261   7.115 -0.0305  0.1166  0.6264
   11HTM    C52 6921   2.751   2.166   7.182  0.2150 -0.2253  0.4076
   11HTM    C53 6922   2.826   2.098   7.284  0.5636 -0.6843 -0.1444
   11HTM    C54 6923   2.955   2.141   7.295  0.5840 -0.6922 -0.3462
   11HTM     S6 6924   2.991   2.272   7.176  0.1611 -0.1163  0.1488
   12TAL    C55 6925   2.782   1.968   7.354 -0.6492  0.3928 -0.0015
   12TAL    C56 6926   2.644   1.973   7.406  0.2415 -0.3725  0.4524
   12TAL    C57 6927   2.598   1.833   7.426 -0.0216 -0.6321  0.2452
   12TAL    C58 6928   2.466   1.856   7.494  0.4359 -0.0794  0.7933
   12TAL    C59 6929   2.460   1.809   7.640  0.0235  0.0791  0.2436
   12TAL    C60 6930   2.528   1.907   7.739 -0.5103 -0.0065  0.4050
   13HTM    C61 6931   3.058   2.103   7.391 -0.0562 -0.5300 -0.0614
   13HTM    C62 6932   3.051   2.087   7.527 -0.1291 -0.5575 -0.0683
   13HTM    C63 6933   3.168   2.026   7.584  0.0532 -0.1126  0.0446
   13HTM    C64 6934   3.264   1.995   7.492  0.2652  0.2541  0.1376
   13HTM     S7 6935   3.214   2.041   7.325  0.2508  0.0645  0.0895
   14TAL    C65 6936   3.175   2.000   7.737  0.1682 -0.5709  0.3225
   14TAL    C66 6937   3.202   2.126   7.815  0.5496  0.1668 -1.1410
   14TAL    C67 6938   3.206   2.124   7.967 -0.3789  0.4173  0.2055
   14TAL    C68 6939   3.075   2.062   8.041 -0.6272 -0.8458  0.1994
   14TAL    C69 6940   3.098   2.048   8.190  0.1862  0.5070 -0.0793
   14TAL    C70 6941   3.134   2.174   8.261  0.5144 -1.0911 -0.1791
   15HTM    C71 6942   3.388   1.927   7.512 -0.1290 -0.1232  0.3883
   15HTM    C72 6943   3.459   1.859   7.417 -0.4004 -0.4410  0.4075
   15HTM    C73 6944   3.570   1.785   7.469 -0.3245 -0.3656  0.3548
   15HTM    C74 6945   3.584   1.795   7.605  0.0045  0.0099  0.2954
   15HTM     S8 6946   3.457   1.901   7.676  0.2461  0.2995  0.3017
   16TAL    C75 6947   3.669   1.712   7.386  0.4109 -0.8784  0.1408
   16TAL    C76 6948   3.704   1.780   7.254  0.5159 -0.5768 -0.2506
   16TAL    C77 6949   3.770   1.695   7.147  0.2246 -0.0864 -0.0875
   16TAL    C78 6950   3.694   1.674   7.015 -0.4342 -0.7601  0.2745
   16TAL    C79 6951   3.704   1.555   6.915 -1.6324  0.0868 -1.6209
   16TAL    C80 6952   3.621   1.439   6.944 -0.3760  0.3164 -0.0828
   17HTM    C81 6953   3.691   1.751   7.691  0.0827 -0.0994  0.2982
   17HTM    C82 6954   3.766   1.837   7.766  0.0833 -0.3963  0.6443
   17HTM    C83 6955   3.880   1.776   7.829  0.1892 -0.6120  0.2474
   17HTM    C84 6956   3.892   1.643   7.802  0.2694 -0.4798 -0.4012
   17HTM     S9 6957   3.760   1.584   7.694  0.2170 -0.0692 -0.5622
   18TAL    C85 6958   3.956   1.882   7.915  0.0073  0.5206  0.1590
   18TAL    C86 6959   4.090   1.841   7.973 -0.7642  0.8488  0.9112
   18TAL    C87 6960   4.161   1.929   8.071 -0.1217  0.1231  0.2736
   18TAL    C88 6961   4.111   1.932   8.217  0.8478  0.6383  0.0631
   18TAL    C89 6962   4.085   1.796   8.289  0.2774 -1.0457 -0.6749
   18TAL    C90 6963   4.189   1.692   8.295 -0.2988  0.8413  0.4177
   19HTM    C91 6964   3.979   1.544   7.856 -0.0822  0.0216 -0.2256
   19HTM    C92 6965   4.104   1.504   7.822 -0.0556  0.0895 -0.2089
   19HTM    C93 6966   4.163   1.413   7.917 -0.0042  0.1506 -0.1817
   19HTM    C94 6967   4.082   1.384   8.023  0.0082  0.1293 -0.1777
   19HTM    S10 6968   3.924   1.470   8.011 -0.0443  0.0296 -0.2083
   20TAL    C95 6969   4.301   1.355   7.873 -0.3610  0.3573  0.3437
   20TAL    C96 6970   4.404   1.298   7.961  0.5003  0.4330  0.3538
   20TAL    C97 6971   4.463   1.387   8.070 -0.3872  0.2365  0.0709
   20TAL    C98 6972   4.501   1.537   8.068 -0.4118 -1.3238  0.0715
   20TAL    C99 6973   4.555   1.581   7.933 -0.3566 -0.8790 -0.9557
   20TAL   C100 6974   4.594   1.734   7.937 -0.1395  0.6173  0.0749
   21HTM   C101 6975   4.095   1.259   8.105  0.6864 -0.0827  0.4017
   21HTM   C102 6976   4.189   1.220   8.196  0.3768 -0.2630  0.6497
   21HTM   C103 6977   4.164   1.090   8.253 -0.1765 -0.0955  0.8044
   21HTM   C104 6978   4.052   1.030   8.206 -0.2890  0.2125  0.6743
   21HTM    S11 6979   3.967   1.133   8.085  0.3002  0.3157  0.3442
   22TAL   C105 6980   4.266   1.047   8.354 -0.1126  0.8405 -0.0340
   22TAL   C106 6981   4.322   0.898   8.353  0.4264 -0.0036  0.1490
   22TAL   C107 6982   4.402   0.870   8.488  0.4105  0.4215 -1.0856
   22TAL   C108 6983   4.339   0.920   8.624  0.5127 -0.2072  0.3203
   22TAL   C109 6984   4.212   0.820   8.635 -0.3334 -0.4776 -0.9836
   22TAL   C110 6985   4.145   0.837   8.772  0.0027  0.4847  0.9722
   23HTM   C111 6986   3.988   0.909   8.249  0.3049 -0.2681 -0.4978
   23HTM   C112 6987   3.974   0.798   8.170  0.7820 -0.6918 -0.0055
   23HTM   C113 6988   3.907   0.689   8.234  0.9786 -0.5847  0.3862
   23HTM   C114 6989   3.869   0.715   8.363  0.6516 -0.0794  0.1926
   23HTM    S12 6990   3.916   0.882   8.412  0.0653  0.3034 -0.5051
   24TAL   C115 6991   3.890   0.558   8.170  0.2353  0.8109 -0.1043
   24TAL   C116 6992   3.859   0.550   8.018 -0.2563  0.2183 -0.2210
   24TAL   C117 6993   3.949   0.463   7.930  0.3630 -0.5454 -0.0543
   24TAL   C118 6994   3.923   0.495   7.784 -0.3771  0.2274  0.1532
   24TAL   C119 6995   4.041   0.511   7.683  0.2968 -0.2959  0.4356
   24TAL   C120 6996   4.157   0.417   7.681  0.2066 -0.0534  1.4601
   25HTM   C121 6997   3.804   0.646   8.473  0.3561 -0.1600 -0.4772
   25HTM   C122 6998   3.835   0.655   8.605  0.2599  0.3193 -0.4830
   25HTM   C123 6999   3.759   0.566   8.689  0.2542  0.5642 -0.2244
   25HTM   C124 7000   3.670   0.489   8.620  0.3459  0.2718 -0.0215
   25HTM    S13 7001   3.675   0.524   8.443  0.4476 -0.3405 -0.1418
   26TAL   C125 7002   3.758   0.578   8.839  0.5419 -1.0297  0.9780
   26TAL   C126 7003   3.883   0.589   8.910 -0.1927  0.1372 -0.3942
   26TAL   C127 7004   3.906   0.515   9.045  0.4979 -0.2700 -0.7811
   26TAL   C128 7005   3.840   0.378   9.058 -0.7856  0.0041  0.5760
   26TAL   C129 7006   3.925   0.269   8.996  0.1908  0.7610 -0.7536
   26TAL   C130 7007   3.897   0.123   9.016  0.1900 -0.8946  0.8554
   27HTM   C131 7008   3.569   0.391   8.677 -0.4683 -0.4648  0.0660
   27HTM   C132 7009   3.590   0.305   8.781 -0.3372 -0.9895 -0.3879
   27HTM   C133 7010   3.482   0.212   8.803 -0.2707 -1.1627 -0.7701
   27HTM   C134 7011   3.378   0.228   8.716 -0.3510 -0.7700 -0.6078
   27HTM    S14 7012   3.409   0.361   8.599 -0.5183 -0.1463  0.0452
   28TAL   C135 7013   3.462   0.129   8.934 -0.8602  0.7593  0.5667
   28TAL   C136 7014   3.502   0.172   9.072 -0.9492 -0.7175 -0.2711
   28TAL   C137 7015   3.469   0.066   9.171  0.0792 -0.0796 -0.7415
   28TAL   C138 7016   3.324   0.003   9.173 -0.8168 -0.7266 -0.3274
   28TAL   C139 7017   3.272  -0.004   9.322 -0.3531  0.3652  0.7226
   28TAL   C140 7018   3.316  -0.137   9.398 -0.1665 -1.1546 -0.1617
   29HTM   C141 7019   3.241   0.180   8.695 -0.4459 -0.1863 -0.1969
   29HTM   C142 7020   3.130   0.251   8.730 -0.4412 -0.3683  0.1924
   29HTM   C143 7021   3.008   0.175   8.727 -0.3640 -0.5005  0.3691
   29HTM   C144 7022   3.026   0.045   8.689 -0.3098 -0.4193  0.1149
   29HTM    S15 7023   3.199   0.009   8.654 -0.3525 -0.1676 -0.3716
   30TAL   C145 7024   2.883   0.244   8.782  0.4162  0.0958 -0.5885
   30TAL   C146 7025   2.897   0.323   8.921 -0.7779  0.4555  0.6352
   30TAL   C147 7026   2.961   0.235   9.031  1.2161  0.0393 -0.1319
   30TAL   C148 7027   2.889   0.113   9.082  0.5626 -0.4278  0.7024
   30TAL   C149 7028   2.905   0.084   9.230  0.0721 -0.1436  0.0662
   30TAL   C150 7029   2.845   0.181   9.331  0.3057 -0.1064  0.2703
   31HTM   C151 7030   2.928  -0.067   8.674 -0.1108  0.2798 -0.0289
   31HTM   C152 7031   2.953  -0.194   8.630 -0.0509  0.3809 -0.2935
   31HTM   C153 7032   2.836  -0.277   8.623  0.0280  0.2623 -0.2151
   31HTM   C154 7033   2.721  -0.213   8.662  0.0281  0.0708  0.1089
   31HTM    S16 7034   2.753  -0.042   8.710 -0.0721  0.0248  0.3422
   32TAL   C155 7035   2.861  -0.426   8.567  0.1713 -0.8528  0.0393
   32TAL   C156 7036   2.977  -0.446   8.462  0.9585  0.0099 -0.4403
   32TAL   C157 7037   3.124  -0.479   8.511  0.0704  0.1014  0.1005
   32TAL   C158 7038   3.195  -0.586   8.426  0.2639  0.1273 -0.6472
   32TAL   C159 7039   3.125  -0.729   8.437  0.5635  0.2511  0.6159
   32TAL   C160 7040   3.198  -0.848   8.380 -0.3910  0.8641 -0.3877
   33HTM   C161 7041   2.583  -0.256   8.630 -0.0021  0.2685  0.1613
   33HTM   C162 7042   2.470  -0.206   8.688  0.1505 -0.1669  0.8576
   33HTM   C163 7043   2.348  -0.261   8.634  0.0132 -0.2564  1.2491
   33HTM   C164 7044   2.368  -0.352   8.535 -0.2440  0.1106  0.8515
   33HTM    S17 7045   2.544  -0.376   8.502 -0.3336  0.6018 -0.0555
   34TAL   C165 7046   2.217  -0.212   8.677  0.7746 -0.2390  0.1898
   34TAL   C166 7047   2.198  -0.228   8.827  0.5181  0.6067  0.3949
   34TAL   C167 7048   2.057  -0.171   8.855 -0.1334  0.7182  0.5150
   34TAL   C168 7049   2.035  -0.163   9.006  0.4372 -0.7006 -0.8872
   34TAL   C169 7050   1.908  -0.094   9.067 -0.3157  0.0640 -0.2484
   34TAL   C170 7051   1.888  -0.101   9.223 -0.4885  0.4681  0.6060
   35HTM   C171 7052   2.277  -0.439   8.459 -0.0098 -0.0616  0.3111
   35HTM   C172 7053   2.143  -0.426   8.438 -0.0834  0.1320  0.8926
   35HTM   C173 7054   2.082  -0.538   8.372 -0.4944  0.3138  0.9508
   35HTM   C174 7055   2.171  -0.638   8.342 -0.7339  0.2589  0.4133
   35HTM    S18 7056   2.338  -0.597   8.395 -0.4570 -0.0290 -0.2126
   36TAL   C175 7057   1.945  -0.542   8.318  1.1218  0.4317 -0.4662
   36TAL   C176 7058   1.885  -0.416   8.244  0.0511 -0.4192 -0.2706
   36TAL   C177 7059   1.942  -0.361   8.112  0.1519  0.4063  0.4383
   36TAL   C178 7060   1.915  -0.448   7.981  0.3017 -0.3694  0.1175
   36TAL   C179 7061   1.770  -0.471   7.951  1.1495  0.6769  0.0297
   36TAL   C180 7062   1.786  -0.555   7.824 -0.2796  0.8355  0.4551
   37HTM   C181 7063   2.163  -0.768   8.285 -0.3453  0.3383 -0.3533
   37HTM   C182 7064   2.149  -0.819   8.160 -0.0770 -0.1012 -0.2122
   37HTM   C183 7065   2.154  -0.963   8.154  0.1696 -0.1160  0.2670
   37HTM   C184 7066   2.172  -1.022   8.275  0.0893  0.3121  0.4911
   37HTM    S19 7067   2.184  -0.900   8.407 -0.3071  0.7707  0.1116
   38TAL   C185 7068   2.153  -1.018   8.009  0.2148 -0.1195  0.7752
   38TAL   C186 7069   2.032  -0.969   7.932 -0.4554  0.2602 -0.1996
   38TAL   C187 7070   2.042  -1.041   7.796 -0.2664 -0.1949 -0.3280
   38TAL   C188 7071   2.000  -0.964   7.677  0.0712 -0.4768  0.0269
   38TAL   C189 7072   1.855  -0.991   7.676 -0.6252  0.5350  0.0687
   38TAL   C190 7073   1.791  -0.924   7.563 -0.3531  0.8617  0.5370
   39HTM   C191 7074   2.156  -1.164   8.305 -0.4393 -0.0127  0.1040
   39HTM   C192 7075   2.118  -1.224   8.421  0.0172 -0.1820  0.1681
   39HTM   C193 7076   2.115  -1.368   8.414  0.3043 -0.1855  0.0734
   39HTM   C194 7077   2.150  -1.418   8.291  0.0669 -0.0189 -0.0640
   39HTM    S20 7078   2.190  -1.286   8.176 -0.5427  0.1566 -0.0835
   40TAL   C195 7079   2.059  -1.453   8.527  0.7159  0.5126 -1.1337
   40TAL   C196 7080   2.040  -1.381   8.660  0.3390  0.5868  0.4616
   40TAL   C197 7081   2.001  -1.482   8.774 -0.0937 -0.1788  0.6016
   40TAL   C198 7082   2.069  -1.450   8.895 -0.0052  0.0727 -0.7736
   40TAL   C199 7083   2.006  -1.552   9.000 -0.3932 -0.0521 -0.2306
   40TAL   C200 7084   2.069  -1.526   9.145 -0.1007 -0.7160 -0.7794
   41HTM   C201 7085   2.195  -1.553   8.266  0.2089  0.1549 -0.2475
   41HTM   C202 7086   2.322  -1.601   8.255  0.0620 -0.2236 -0.3061
   41HTM   C203 7087   2.328  -1.736   8.204 -0.3768 -0.3558 -0.0255
   41HTM   C204 7088   2.206  -1.790   8.176 -0.5645 -0.0778  0.2473
   41HTM    S21 7089   2.073  -1.675   8.213 -0.1988  0.3759  0.1703
   42TAL   C205 7090   2.468  -1.794   8.195  0.3110  0.2421  0.2968
   42TAL   C206 7091   2.553  -1.753   8.075  0.3734 -0.8421  0.2260
   42TAL   C207 7092   2.685  -1.817   8.083 -0.6831 -0.1133 -0.0992
   42TAL   C208 7093   2.796  -1.780   7.986 -0.8530  0.0746 -0.7541
   42TAL   C209 7094   2.918  -1.866   8.006  0.0976 -0.1924  0.8277
   42TAL   C210 7095   3.013  -1.847   7.895  0.2877  0.0310 -0.7104
   43HTM   C211 7096   2.176  -1.921   8.126  0.6635  0.4742  1.2244
   43HTM   C212 7097   2.060  -1.963   8.067  0.2495  1.0644  1.5900
   43HTM   C213 7098   2.060  -2.103   8.033 -0.2393  1.2435  0.8068
   43HTM   C214 7099   2.176  -2.167   8.066 -0.1979  0.7897 -0.1563
   43HTM    S22 7100   2.294  -2.056   8.143  0.4665  0.0958 -0.1481
   44TAL   C215 7101   1.935  -2.162   7.960  0.0897  0.6521 -0.4046
   44TAL   C216 7102   1.811  -2.132   8.050  0.9933 -0.0171 -0.2152
   44TAL   C217 7103   1.675  -2.176   7.988 -0.2511 -0.0582  1.0669
   44TAL   C218 7104   1.568  -2.190   8.098 -0.8124 -0.4609  0.2096
   44TAL   C219 7105   1.568  -2.310   8.199  0.3530  0.1948  0.7733
   44TAL   C220 7106   1.532  -2.448   8.135  0.0477 -0.2079  0.6669
   45HTM   C221 7107   2.225  -2.311   8.036 -0.1477  0.7630  0.0105
   45HTM   C222 7108   2.355  -2.350   8.033  0.0228  1.3273 -0.2146
   45HTM   C223 7109   2.373  -2.488   7.995  0.5376  1.3171  0.0514
   45HTM   C224 7110   2.256  -2.554   7.971  0.7595  0.7451  0.4791
   45HTM    S23 7111   2.113  -2.446   7.993  0.3324  0.1705  0.5802
   46TAL   C225 7112   2.516  -2.549   7.987 -0.3332 -0.3757  0.7850
   46TAL   C226 7113   2.598  -2.534   7.853  0.0035  0.8540  0.3026
   46TAL   C227 7114   2.614  -2.390   7.793 -0.0445 -0.6312 -1.4477
   46TAL   C228 7115   2.762  -2.359   7.766 -0.1729 -0.1740 -0.2585
   46TAL   C229 7116   2.852  -2.318   7.890  0.2242 -0.0798  0.7128
   46TAL   C230 7117   2.983  -2.271   7.820  0.3801  0.0054 -0.7043
   47HTM   C231 7118   2.236  -2.689   7.920 -0.4975  0.8810 -0.7256
   47HTM   C232 7119   2.168  -2.788   7.983 -1.1157  1.2976 -0.7184
   47HTM   C233 7120   2.187  -2.918   7.924 -0.8044  0.9561  0.0966
   47HTM   C234 7121   2.269  -2.918   7.815  0.0510  0.2794  0.7106
   47HTM    S24 7122   2.330  -2.752   7.779  0.5337  0.0188  0.3040
   48TAL   C235 7123   2.121  -3.032   7.995  0.8013 -0.2351 -0.0768
   48TAL   C236 7124   2.113  -3.182   7.948  0.1470  0.1224 -0.2215
   48TAL   C237 7125   2.250  -3.247   7.950  0.5908  1.0810  0.7640
   48TAL   C238 7126   2.273  -3.380   7.869 -0.3401  0.1761 -0.1520
   48TAL   C239 7127   2.292  -3.343   7.713 -0.7142 -0.9805 -0.2329
   48TAL   C240 7128   2.293  -3.461   7.623 -0.5059 -0.1565  0.0996
    1HTM     C1 7129   5.948   4.345  25.831 -0.2298 -0.0678  0.0497
    1HTM     C2 7130   6.018   4.430  25.911  0.0079 -0.2440  0.0315
    1HTM     C3 7131   6.075   4.367  26.027 -0.0299 -0.4107 -0.0401
    1HTM     C4 7132   6.049   4.234  26.036 -0.2965 -0.3615 -0.0766
    1HTM     S1 7133   5.949   4.177  25.897 -0.5218 -0.0987 -0.0231
    2TAL     C5 7134   6.148   4.429  26.140  0.1561  0.0295  0.4975
    2TAL     C6 7135   6.183   4.576  26.119 -0.8357  0.2116 -0.7255
    2TAL     C7 7136   6.289   4.604  26.012 -0.1378  0.2501 -0.0544
    2TAL     C8 7137   6.420   4.644  26.078 -1.0162  0.2712 -0.1734
    2TAL     C9 7138   6.492   4.755  25.995  1.3184 -0.1765 -0.2480
    2TAL    C10 7139   6.639   4.783  26.023  0.4748 -0.7241  0.9909
    3HTM    C11 7140   6.076   4.126  26.122  0.3113  0.0996 -0.1007
    3HTM    C12 7141   6.162   4.021  26.103  0.3128  0.0829 -0.0024
    3HTM    C13 7142   6.190   3.947  26.223 -0.0036 -0.0512 -0.0105
    3HTM    C14 7143   6.125   3.994  26.334 -0.2465 -0.1367 -0.1157
    3HTM     S2 7144   6.023   4.138  26.294 -0.0933 -0.0539 -0.2122
    4TAL    C15 7145   6.298   3.840  26.228  0.0296 -1.0134 -0.9242
    4TAL    C16 7146   6.312   3.761  26.096  0.1946 -0.1967  0.3980
    4TAL    C17 7147   6.388   3.801  25.971  0.6890 -0.5940  0.8908
    4TAL    C18 7148   6.543   3.796  25.979  0.3872 -0.5381 -0.0945
    4TAL    C19 7149   6.608   3.836  25.843  1.1716  0.0123  0.5213
    4TAL    C20 7150   6.635   3.720  25.745  0.2109  0.3027 -0.5623
    5HTM    C21 7151   6.085   3.931  26.461 -0.0836  0.2998 -0.3087
    5HTM    C22 7152   5.971   3.913  26.532 -0.1882  0.9696 -0.2985
    5HTM    C23 7153   5.990   3.845  26.658 -0.5149  1.2484 -0.0920
    5HTM    C24 7154   6.120   3.811  26.682 -0.6594  0.7913  0.0549
    5HTM     S3 7155   6.228   3.862  26.547 -0.3922 -0.0332 -0.0573
    6TAL    C25 7156   5.875   3.840  26.758 -0.3312  0.5562 -0.7395
    6TAL    C26 7157   5.742   3.783  26.710 -0.1136 -0.0072  1.0041
    6TAL    C27 7158   5.652   3.721  26.811 -0.4682  0.5597 -0.9608
    6TAL    C28 7159   5.542   3.626  26.758 -0.1488  0.1397 -0.3668
    6TAL    C29 7160   5.456   3.565  26.859  0.2943  0.2168  0.0521
    6TAL    C30 7161   5.345   3.485  26.820  0.3930 -0.4781  0.1136
    7HTM    C31 7162   6.179   3.731  26.786  0.4733  0.8467  0.4523
    7HTM    C32 7163   6.277   3.636  26.773  1.0108  1.3805  0.5107
    7HTM    C33 7164   6.327   3.587  26.899  0.6793  1.1360  0.5517
    7HTM    C34 7165   6.268   3.645  27.007 -0.1112  0.4158  0.5246
    7HTM     S4 7166   6.144   3.766  26.959 -0.5010 -0.0127  0.4440
    8TAL    C35 7167   6.443   3.481  26.905  0.4608 -0.1336  0.7070
    8TAL    C36 7168   6.571   3.527  26.841  0.5805 -0.1017  0.4737
    8TAL    C37 7169   6.701   3.466  26.892 -0.0634  0.4596  1.4128
    8TAL    C38 7170   6.760   3.547  27.003  0.6641 -0.5914 -0.3694
    8TAL    C39 7171   6.901   3.502  27.053  0.3343  0.0554 -0.8142
    8TAL    C40 7172   6.967   3.617  27.116 -0.7736  0.3388 -0.3671
    9HTM    C41 7173   6.276   3.610  27.147  0.0432 -0.0194 -0.7149
    9HTM    C42 7174   6.216   3.681  27.247  0.4524  0.8188 -1.0443
    9HTM    C43 7175   6.261   3.646  27.379  0.4847  1.4244 -0.8855
    9HTM    C44 7176   6.356   3.547  27.380  0.0998  1.0478 -0.4350
    9HTM     S5 7177   6.396   3.492  27.213 -0.3364 -0.1096 -0.1750
   10TAL    C45 7178   6.195   3.681  27.515 -0.7954  0.7979  0.4072
   10TAL    C46 7179   6.052   3.727  27.527  0.2353 -0.5882  0.0181
   10TAL    C47 7180   5.930   3.649  27.470  0.1501  0.1106 -0.8888
   10TAL    C48 7181   5.872   3.538  27.563 -0.2044  0.0191 -0.2591
   10TAL    C49 7182   5.796   3.557  27.695  0.3365 -0.0348 -0.1908
   10TAL    C50 7183   5.718   3.699  27.700  0.5429 -0.2794  0.5614
   11HTM    C51 7184   6.447   3.486  27.471 -0.4558 -0.2135  0.2338
   11HTM    C52 7185   6.482   3.354  27.469 -0.5523 -0.2471  0.6347
   11HTM    C53 7186   6.587   3.321  27.562 -0.2086  0.0693  0.3643
   11HTM    C54 7187   6.631   3.428  27.635  0.1499  0.3440 -0.2430
   11HTM     S6 7188   6.543   3.579  27.591  0.0807  0.2236 -0.5221
   12TAL    C55 7189   6.634   3.178  27.596 -0.8151 -0.6623 -0.3785
   12TAL    C56 7190   6.686   3.087  27.482  0.7425  0.7736  0.7382
   12TAL    C57 7191   6.793   3.122  27.374  0.3918 -0.8665  0.8903
   12TAL    C58 7192   6.753   3.195  27.239  0.9488 -0.2192  0.3324
   12TAL    C59 7193   6.648   3.133  27.159  0.0841  0.3092  0.3310
   12TAL    C60 7194   6.686   3.007  27.087 -0.9391  0.1186  0.4207
   13HTM    C61 7195   6.742   3.444  27.729  0.4273  0.4709 -1.0512
   13HTM    C62 7196   6.766   3.556  27.802  0.6778  0.8465 -1.6990
   13HTM    C63 7197   6.890   3.552  27.876  0.3480  0.7100 -1.1468
   13HTM    C64 7198   6.959   3.436  27.860 -0.1543  0.2303 -0.0785
   13HTM     S7 7199   6.874   3.323  27.748 -0.2501 -0.0887  0.3168
   14TAL    C65 7200   6.931   3.665  27.962  0.5356  0.0542 -0.5011
   14TAL    C66 7201   6.850   3.728  28.075  0.4805  0.5206  0.7811
   14TAL    C67 7202   6.782   3.630  28.178 -0.0042 -0.8828  0.8597
   14TAL    C68 7203   6.674   3.711  28.262  0.2163  0.4614  0.3678
   14TAL    C69 7204   6.581   3.602  28.306 -0.7420 -1.7920 -0.3415
   14TAL    C70 7205   6.474   3.665  28.385  0.6982 -0.0785  0.0309
   15HTM    C71 7206   7.079   3.390  27.940  0.3848  0.2122  0.1586
   15HTM    C72 7207   7.086   3.263  27.990  0.5137  0.0776 -0.1936
   15HTM    C73 7208   7.198   3.242  28.078  0.3896  0.0224 -0.0486
   15HTM    C74 7209   7.276   3.352  28.095  0.1660  0.1148  0.4134
   15HTM     S8 7210   7.215   3.492  28.001  0.0944  0.2800  0.7040
   16TAL    C75 7211   7.229   3.101  28.135  0.7270  0.4522  0.9165
   16TAL    C76 7212   7.307   3.008  28.037  0.1206  0.1784 -1.7814
   16TAL    C77 7213   7.364   2.884  28.100 -0.1537 -0.6505 -0.5542
   16TAL    C78 7214   7.358   2.763  28.008 -0.0143  0.2960 -0.4712
   16TAL    C79 7215   7.464   2.659  28.031 -0.1817  1.0033 -0.3206
   16TAL    C80 7216   7.477   2.582  28.161  0.2594 -0.1401 -0.8011
   17HTM    C81 7217   7.395   3.367  28.167 -0.0749  0.0751 -0.2462
   17HTM    C82 7218   7.508   3.420  28.112 -0.0498  0.0939 -0.1760
   17HTM    C83 7219   7.624   3.410  28.197 -0.0890  0.0663 -0.1268
   17HTM    C84 7220   7.599   3.348  28.316 -0.1438  0.0264 -0.1587
   17HTM     S9 7221   7.427   3.299  28.331 -0.1504  0.0207 -0.2546
   18TAL    C85 7222   7.765   3.445  28.136  0.4479 -0.1155 -0.1273
   18TAL    C86 7223   7.799   3.378  28.003  0.2194  0.0109  0.4702
   18TAL    C87 7224   7.953   3.406  27.974  0.7815 -0.3153 -0.9125
   18TAL    C88 7225   8.044   3.357  28.080  0.3837  0.6180  0.3028
   18TAL    C89 7226   8.067   3.207  28.086  0.3716  0.2368  0.0965
   18TAL    C90 7227   8.182   3.165  28.176 -0.5766  0.5686 -0.1113
   19HTM    C91 7228   7.680   3.323  28.436 -0.3053 -0.1669 -0.5284
   19HTM    C92 7229   7.650   3.359  28.564 -0.6048  0.2608 -0.7157
   19HTM    C93 7230   7.759   3.342  28.657 -0.7150  0.8895 -0.4644
   19HTM    C94 7231   7.872   3.294  28.600 -0.4994  0.9413 -0.0858
   19HTM    S10 7232   7.851   3.265  28.423 -0.1377  0.1941 -0.0162
   20TAL    C95 7233   7.736   3.367  28.803  0.9787 -0.2740 -0.6869
   20TAL    C96 7234   7.598   3.348  28.868  0.0673  0.4025  0.5914
   20TAL    C97 7235   7.526   3.214  28.848 -0.3358 -0.3967  0.3529
   20TAL    C98 7236   7.381   3.206  28.905 -0.0688 -0.8725 -0.1195
   20TAL    C99 7237   7.363   3.206  29.054  0.7161  0.4752  0.9472
   20TAL   C100 7238   7.223   3.186  29.099  0.4663  1.1389 -0.1135
   21HTM   C101 7239   8.003   3.258  28.654 -0.1165  0.1242  0.0857
   21HTM   C102 7240   8.107   3.219  28.575 -0.0726  0.6978 -0.1478
   21HTM   C103 7241   8.227   3.188  28.649  0.0967  0.8212 -0.3703
   21HTM   C104 7242   8.214   3.203  28.783  0.1819  0.3418 -0.3057
   21HTM    S11 7243   8.049   3.258  28.829  0.0538 -0.3079  0.0434
   22TAL   C105 7244   8.333   3.117  28.567 -0.0206 -0.1863  0.1479
   22TAL   C106 7245   8.375   2.971  28.603 -0.4401  0.2778 -0.6680
   22TAL   C107 7246   8.507   2.898  28.560 -0.8768 -0.4884  0.7934
   22TAL   C108 7247   8.535   2.775  28.648 -0.1213  0.2438 -0.5648
   22TAL   C109 7248   8.664   2.696  28.625 -0.4131 -0.6385  0.5859
   22TAL   C110 7249   8.681   2.611  28.744 -0.5443  0.5968 -0.9721
   23HTM   C111 7250   8.305   3.185  28.896  0.1163  0.0129 -0.6098
   23HTM   C112 7251   8.265   3.141  29.018 -0.1575  0.2565 -0.6091
   23HTM   C113 7252   8.373   3.100  29.103 -0.3597  0.2517 -0.3509
   23HTM   C114 7253   8.496   3.113  29.046 -0.2401  0.0045 -0.1547
   23HTM    S12 7254   8.484   3.178  28.878  0.1402 -0.2434 -0.2818
   24TAL   C115 7255   8.346   3.055  29.250 -1.0971  0.1480  0.2763
   24TAL   C116 7256   8.205   3.063  29.289  0.6739 -0.1372 -0.2855
   24TAL   C117 7257   8.139   3.201  29.301  0.7548  0.9854  0.0333
   24TAL   C118 7258   7.987   3.188  29.306 -0.1817  0.4175 -0.2152
   24TAL   C119 7259   7.913   3.325  29.311 -0.4765  0.4446  0.0331
   24TAL   C120 7260   7.765   3.294  29.341 -0.1241  0.0355 -0.2461
   25HTM   C121 7261   8.629   3.060  29.095  0.0152  0.2082  0.5551
   25HTM   C122 7262   8.704   3.133  29.182 -0.0169 -0.6133  1.3089
   25HTM   C123 7263   8.833   3.076  29.211 -0.1855 -1.0927  1.1216
   25HTM   C124 7264   8.856   2.958  29.146 -0.2820 -0.6366  0.2250
   25HTM    S13 7265   8.716   2.910  29.043 -0.1664  0.4419 -0.4577
   26TAL   C125 7266   8.930   3.150  29.297  0.1930  0.7574 -0.8308
   26TAL   C126 7267   8.874   3.233  29.413 -0.5390 -0.3951  0.6269
   26TAL   C127 7268   8.928   3.208  29.553  0.8662  0.3847 -0.6278
   26TAL   C128 7269   8.858   3.085  29.621 -0.7666  0.5233  0.4136
   26TAL   C129 7270   8.907   3.031  29.756 -0.7625  0.1132 -0.3892
   26TAL   C130 7271   9.055   2.994  29.744  0.3017  0.4594  0.0889
   27HTM   C131 7272   8.973   2.872  29.167  0.0301  0.1236 -0.0030
   27HTM   C132 7273   9.058   2.871  29.274  0.4130  0.4604 -0.2930
   27HTM   C133 7274   9.168   2.779  29.260  0.2931  0.3243 -0.3455
   27HTM   C134 7275   9.167   2.710  29.142 -0.1812 -0.1163 -0.0955
   27HTM    S14 7276   9.027   2.757  29.039 -0.5157 -0.3957  0.2281
   28TAL   C135 7277   9.268   2.764  29.375  0.3317  0.4412 -0.4702
   28TAL   C136 7278   9.283   2.647  29.466 -0.1892  0.7962  0.1503
   28TAL   C137 7279   9.161   2.617  29.556 -0.3398 -0.8052 -0.5156
   28TAL   C138 7280   9.179   2.481  29.616  1.0194 -0.2852  0.2868
   28TAL   C139 7281   9.043   2.444  29.667  1.1987  0.0261  1.0469
   28TAL   C140 7282   9.037   2.301  29.703  0.6250  0.2006 -0.2331
   29HTM   C141 7283   9.254   2.605  29.103  0.1766  0.2361  0.6427
   29HTM   C142 7284   9.352   2.609  29.009  0.4468  0.3927  0.9309
   29HTM   C143 7285   9.397   2.479  28.966  0.4496  0.4630  0.7200
   29HTM   C144 7286   9.333   2.376  29.027  0.1816  0.3601  0.2711
   29HTM    S15 7287   9.209   2.435  29.144 -0.0973  0.1649  0.0783
   30TAL   C145 7288   9.516   2.472  28.859  0.8055  0.5475  0.9236
   30TAL   C146 7289   9.641   2.563  28.883 -0.3315 -0.2627  0.1107
   30TAL   C147 7290   9.719   2.575  29.016  0.3335 -0.4437 -0.4874
   30TAL   C148 7291   9.761   2.445  29.079 -0.0566 -0.0518 -0.5366
   30TAL   C149 7292   9.686   2.412  29.217  0.1269  0.9137  0.1080
   30TAL   C150 7293   9.706   2.513  29.326 -0.0027  0.5223 -0.3446
   31HTM   C151 7294   9.335   2.229  29.017 -0.9736 -0.6014 -0.1108
   31HTM   C152 7295   9.343   2.132  29.112 -1.1948 -0.8805 -0.3743
   31HTM   C153 7296   9.383   2.003  29.059 -0.4310 -0.5780 -0.5724
   31HTM   C154 7297   9.404   2.003  28.925  0.3726 -0.0683 -0.4601
   31HTM    S16 7298   9.376   2.166  28.853  0.2259  0.0704 -0.0924
   32TAL   C155 7299   9.405   1.881  29.156  0.6209  0.2427 -0.0350
   32TAL   C156 7300   9.443   1.908  29.306 -0.5423  0.0860 -0.3640
   32TAL   C157 7301   9.444   1.778  29.377 -0.8771  0.6880 -0.7853
   32TAL   C158 7302   9.463   1.803  29.527  0.1525 -0.0288  0.3152
   32TAL   C159 7303   9.413   1.674  29.607 -0.5154 -0.1482  0.3745
   32TAL   C160 7304   9.453   1.666  29.760 -0.5985 -1.0582 -0.4649
   33HTM   C161 7305   9.460   1.891  28.844 -0.6812  0.7459 -0.5341
   33HTM   C162 7306   9.585   1.878  28.791 -0.5189  0.9047 -0.1959
   33HTM   C163 7307   9.606   1.752  28.723 -0.0113  0.7180  0.2934
   33HTM   C164 7308   9.497   1.670  28.724  0.2135  0.4168  0.3283
   33HTM    S17 7309   9.358   1.746  28.812 -0.2018  0.3451 -0.2586
   34TAL   C165 7310   9.725   1.734  28.626 -0.1941  0.2484 -0.7003
   34TAL   C166 7311   9.841   1.834  28.604 -0.4157  0.3950  0.8932
   34TAL   C167 7312   9.935   1.802  28.484  0.5484 -0.1217  0.3528
   34TAL   C168 7313  10.032   1.912  28.468  0.6181 -0.4886  0.2522
   34TAL   C169 7314  10.104   1.883  28.342 -0.4063 -0.7463 -0.2845
   34TAL   C170 7315  10.187   2.005  28.330 -0.6924  0.0607 -0.4116
   35HTM   C171 7316   9.471   1.552  28.645 -0.0034 -0.0914 -0.3504
   35HTM   C172 7317   9.400   1.541  28.530  0.3887 -0.3484 -0.5751
   35HTM   C173 7318   9.388   1.406  28.481  0.5044 -0.4665 -0.2813
   35HTM   C174 7319   9.450   1.314  28.559  0.2008 -0.2995  0.1665
   35HTM    S18 7320   9.530   1.390  28.702 -0.2587  0.0223  0.2533
   36TAL   C175 7321   9.318   1.370  28.350 -0.5420  0.5467  0.1518
   36TAL   C176 7322   9.171   1.406  28.322  0.0052  0.2519 -0.2953
   36TAL   C177 7323   9.090   1.300  28.230 -0.0019 -0.6769 -0.9042
   36TAL   C178 7324   8.940   1.312  28.210 -0.4324  1.5561 -0.7801
   36TAL   C179 7325   8.868   1.201  28.135  1.5211  0.1187 -0.1435
   36TAL   C180 7326   8.712   1.218  28.125 -0.3681  0.1552 -0.1705
   37HTM   C181 7327   9.494   1.185  28.505 -0.5309  0.3227 -0.5119
   37HTM   C182 7328   9.589   1.167  28.409 -0.1326  0.1940 -0.1006
   37HTM   C183 7329   9.604   1.029  28.368  0.2573  0.0942  0.3614
   37HTM   C184 7330   9.520   0.943  28.433  0.1562  0.1469  0.3009
   37HTM    S19 7331   9.416   1.030  28.552 -0.4439  0.3279 -0.3474
   38TAL   C185 7332   9.698   1.000  28.244  0.1515 -1.0164  0.9044
   38TAL   C186 7333   9.842   0.960  28.295 -0.2021 -0.3985  0.0826
   38TAL   C187 7334   9.940   0.970  28.176 -0.9127 -0.3450 -0.1121
   38TAL   C188 7335  10.069   0.945  28.251  0.0526 -0.5852 -0.6721
   38TAL   C189 7336  10.210   0.929  28.183 -0.4325 -0.1265  0.0237
   38TAL   C190 7337  10.236   1.042  28.090  0.3685 -0.1656 -0.1334
   39HTM   C191 7338   9.511   0.801  28.428 -0.2957  0.5695 -0.2117
   39HTM   C192 7339   9.466   0.725  28.531  0.2659  0.5531  0.0272
   39HTM   C193 7340   9.477   0.583  28.509  1.1271  0.5523  0.3901
   39HTM   C194 7341   9.531   0.551  28.388  1.2220  0.5681  0.4277
   39HTM    S20 7342   9.572   0.698  28.292  0.2232  0.5853  0.0046
   40TAL   C195 7343   9.448   0.480  28.614  0.5098 -0.0397 -0.0263
   40TAL   C196 7344   9.547   0.446  28.725 -0.0751 -0.1537  0.6786
   40TAL   C197 7345   9.591   0.558  28.819 -0.1773  1.1550  0.4243
   40TAL   C198 7346   9.486   0.605  28.930  0.1588 -0.0180  0.4076
   40TAL   C199 7347   9.447   0.748  28.908  0.8481 -0.0535 -0.4525
   40TAL   C200 7348   9.551   0.862  28.913  0.6825  0.1977  0.7569
   41HTM   C201 7349   9.573   0.422  28.335 -0.5321 -1.0683  0.0293
   41HTM   C202 7350   9.502   0.331  28.264 -0.2074 -1.5515  0.3128
   41HTM   C203 7351   9.581   0.221  28.214  0.2638 -1.2230  0.3281
   41HTM   C204 7352   9.713   0.229  28.248  0.2981 -0.4894  0.0545
   41HTM    S21 7353   9.748   0.377  28.346 -0.2663 -0.1539 -0.2446
   42TAL   C205 7354   9.528   0.135  28.099  0.7833  0.3645 -1.1761
   42TAL   C206 7355   9.543   0.187  27.957  0.6717  0.0915 -0.2297
   42TAL   C207 7356   9.478   0.101  27.849  0.2328 -1.3752 -0.0436
   42TAL   C208 7357   9.558  -0.012  27.815 -1.3233  0.7144 -0.2435
   42TAL   C209 7358   9.543  -0.090  27.692 -0.3427 -0.5285  0.0866
   42TAL   C210 7359   9.651  -0.191  27.685  1.2902 -0.8332  0.5959
   43HTM   C211 7360   9.831   0.147  28.225  0.1288 -0.0221 -0.2960
   43HTM   C212 7361   9.843   0.015  28.196  0.0092  0.0802 -0.8278
   43HTM   C213 7362   9.970  -0.021  28.139  0.0110  0.1748 -0.8841
   43HTM   C214 7363  10.056   0.084  28.126  0.1321  0.1445 -0.3950
   43HTM    S22 7364   9.981   0.238  28.183  0.2541 -0.0070  0.1790
   44TAL   C215 7365  10.012  -0.165  28.120  0.2511  0.5902 -0.7670
   44TAL   C216 7366   9.913  -0.249  28.046 -0.1463 -0.9372 -0.4674
   44TAL   C217 7367   9.960  -0.384  28.000  0.2529  0.1510  0.1987
   44TAL   C218 7368  10.091  -0.405  27.918 -0.0581 -0.1828  0.5656
   44TAL   C219 7369  10.112  -0.553  27.907 -0.1403 -0.5197 -0.9844
   44TAL   C220 7370  10.189  -0.598  27.790  0.0939  0.7026  0.1983
   45HTM   C221 7371  10.200   0.080  28.093 -0.0742 -0.3440  0.7703
   45HTM   C222 7372  10.265   0.013  27.994 -0.1780  0.1602  0.3548
   45HTM   C223 7373  10.408   0.034  27.993 -0.2350  0.5586 -0.0033
   45HTM   C224 7374  10.451   0.118  28.092 -0.1745  0.3582  0.1404
   45HTM    S23 7375  10.315   0.176  28.195 -0.0401 -0.3547  0.7419
   46TAL   C225 7376  10.493  -0.014  27.877 -0.5303  0.0293 -0.1412
   46TAL   C226 7377  10.570  -0.148  27.874  0.0931 -0.0495  0.3381
   46TAL   C227 7378  10.489  -0.276  27.889  0.3503 -1.1061 -0.8529
   46TAL   C228 7379  10.565  -0.401  27.871 -1.3664  0.6322  0.0234
   46TAL   C229 7380  10.669  -0.440  27.992  0.7486 -0.0415 -0.6677
   46TAL   C230 7381  10.662  -0.589  28.037  0.2087  0.4883 -0.1163
   47HTM   C231 7382  10.587   0.162  28.129  0.0980  0.1801 -0.0692
   47HTM   C232 7383  10.706   0.096  28.125  0.0927  0.1913 -0.5713
   47HTM   C233 7384  10.819   0.179  28.158  0.1953  0.1378 -0.7849
   47HTM   C234 7385  10.786   0.308  28.187  0.2789  0.0858 -0.4462
   47HTM    S24 7386  10.608   0.335  28.174  0.2342  0.1005  0.1739
   48TAL   C235 7387  10.969   0.140  28.169  0.0178  0.3112  0.3362
   48TAL   C236 7388  11.026   0.075  28.051 -0.2631  0.0027 -0.9655
   48TAL   C237 7389  11.043   0.140  27.918  0.2784 -0.9901 -0.2206
   48TAL   C238 7390  11.090   0.050  27.811 -0.1774  0.3548  0.7727
   48TAL   C239 7391  11.010  -0.065  27.746 -0.1884  0.0312  0.4521
   48TAL   C240 7392  10.875  -0.030  27.692 -0.7282 -0.4964  0.2426
    1HTM     C1 7393   4.657   5.168   6.865 -0.0934 -0.0908 -0.0771
    1HTM     C2 7394   4.642   5.293   6.917 -0.6542 -0.0621 -0.2851
    1HTM     C3 7395   4.759   5.377   6.901 -0.8020  0.2291  0.1129
    1HTM     C4 7396   4.862   5.315   6.836 -0.3537  0.4225  0.6245
    1HTM     S1 7397   4.819   5.146   6.790  0.2948  0.2503  0.6432
    2TAL     C5 7398   4.754   5.521   6.950  0.1805 -0.0420 -0.6077
    2TAL     C6 7399   4.617   5.593   6.983  0.9639 -0.0240  0.3114
    2TAL     C7 7400   4.612   5.715   7.071 -0.7824  0.3810 -0.0560
    2TAL     C8 7401   4.684   5.849   7.039  0.7289  0.8420 -0.3513
    2TAL     C9 7402   4.657   5.952   7.153 -0.2653  0.4601  0.0072
    2TAL    C10 7403   4.507   5.991   7.164 -1.3220 -0.2129  0.4071
    3HTM    C11 7404   4.991   5.376   6.809 -0.5462  0.3041 -0.4472
    3HTM    C12 7405   5.057   5.370   6.690 -0.7144  0.5958 -0.5577
    3HTM    C13 7406   5.188   5.431   6.694 -0.7046  0.5766 -0.5902
    3HTM    C14 7407   5.221   5.483   6.815 -0.5288  0.2705 -0.5047
    3HTM     S2 7408   5.088   5.459   6.936 -0.3609 -0.0198 -0.3752
    4TAL    C15 7409   5.273   5.422   6.561  0.6680 -0.2735 -0.3843
    4TAL    C16 7410   5.364   5.304   6.534 -0.1539  1.2064  0.6609
    4TAL    C17 7411   5.311   5.159   6.550  0.1912  0.3169 -0.3436
    4TAL    C18 7412   5.440   5.073   6.541  0.2350 -0.0500  0.8034
    4TAL    C19 7413   5.401   4.930   6.578  0.7005 -1.2794 -0.4170
    4TAL    C20 7414   5.503   4.824   6.564 -0.5935  0.6572  0.6428
    5HTM    C21 7415   5.350   5.529   6.866  0.0824 -0.4657 -0.1912
    5HTM    C22 7416   5.423   5.641   6.840 -0.1496 -0.2083  0.2491
    5HTM    C23 7417   5.531   5.663   6.933 -0.6627  0.0768  0.7969
    5HTM    C24 7418   5.541   5.567   7.029 -0.8220  0.0370  0.7740
    5HTM     S3 7419   5.414   5.441   7.010 -0.3323 -0.3671  0.0532
    6TAL    C25 7420   5.592   5.807   6.914  0.0676  0.4295  0.7961
    6TAL    C26 7421   5.485   5.915   6.955 -0.5206  0.9768 -0.9430
    6TAL    C27 7422   5.428   5.886   7.096 -0.7207  0.8885 -0.2654
    6TAL    C28 7423   5.528   5.919   7.212  0.6201  0.2605 -0.5723
    6TAL    C29 7424   5.478   5.894   7.352 -0.4054 -0.6682 -0.0009
    6TAL    C30 7425   5.579   5.858   7.458  0.7059 -0.1855 -0.5979
    7HTM    C31 7426   5.634   5.545   7.135  0.0627  0.3376  0.0497
    7HTM    C32 7427   5.754   5.605   7.162 -0.1746  0.6278  0.4916
    7HTM    C33 7428   5.833   5.535   7.260 -0.2097  0.6177  0.5126
    7HTM    C34 7429   5.774   5.422   7.308  0.0011  0.3195  0.0871
    7HTM     S4 7430   5.612   5.395   7.233  0.2621  0.0261 -0.3772
    8TAL    C35 7431   5.978   5.582   7.299  0.1307  0.2948  0.1229
    8TAL    C36 7432   6.038   5.694   7.228  0.1379 -0.1711  0.2931
    8TAL    C37 7433   6.184   5.736   7.280  0.2121  0.3927  0.2231
    8TAL    C38 7434   6.233   5.880   7.253  0.0657  0.1100 -0.8533
    8TAL    C39 7435   6.233   5.952   7.111  0.4247 -0.3796  0.0939
    8TAL    C40 7436   6.328   5.880   7.014 -0.2246  0.5426 -0.0014
    9HTM    C41 7437   5.816   5.317   7.401 -0.6269 -0.4774  0.1997
    9HTM    C42 7438   5.768   5.189   7.396 -0.4267 -0.5490  0.0975
    9HTM    C43 7439   5.803   5.110   7.511  0.0863 -0.7262 -0.1751
    9HTM    C44 7440   5.878   5.177   7.604  0.2770 -0.7899 -0.2807
    9HTM     S5 7441   5.909   5.347   7.552 -0.1799 -0.6297 -0.0423
   10TAL    C45 7442   5.735   4.973   7.527  0.4753  0.4023  0.7985
   10TAL    C46 7443   5.595   4.946   7.468 -0.1036  0.1605 -0.3431
   10TAL    C47 7444   5.625   4.895   7.332  0.1034  0.6229  0.5052
   10TAL    C48 7445   5.508   4.888   7.239 -0.3334  1.0210 -0.6809
   10TAL    C49 7446   5.440   5.017   7.191 -0.1910 -0.5130  0.0291
   10TAL    C50 7447   5.345   5.014   7.076  1.2417  0.0496  0.1545
   11HTM    C51 7448   5.932   5.138   7.735 -0.5566  0.1980  0.1913
   11HTM    C52 7449   6.033   5.197   7.804 -0.3344  0.1959 -0.1261
   11HTM    C53 7450   6.068   5.128   7.926  0.0881  0.1624 -0.2638
   11HTM    C54 7451   5.994   5.017   7.949  0.1880  0.1387 -0.0511
   11HTM     S6 7452   5.872   4.989   7.818 -0.2472  0.1574  0.3422
   12TAL    C55 7453   6.179   5.191   8.011  0.5967 -0.3074  0.8533
   12TAL    C56 7454   6.319   5.169   7.969 -1.4558  0.9695 -0.0504
   12TAL    C57 7455   6.421   5.220   8.074  0.2848 -0.0360  0.1958
   12TAL    C58 7456   6.572   5.179   8.045 -0.4205  0.5486  0.1663
   12TAL    C59 7457   6.672   5.229   8.144  0.0410  0.3017  0.4640
   12TAL    C60 7458   6.732   5.363   8.107 -0.2219 -0.2782 -0.0809
   13HTM    C61 7459   5.986   4.924   8.059  0.0806  0.3021  0.0900
   13HTM    C62 7460   5.896   4.829   8.097  0.4433 -0.1991 -0.2766
   13HTM    C63 7461   5.927   4.767   8.223  0.5281 -0.3648 -0.3791
   13HTM    C64 7462   6.041   4.814   8.281  0.2305  0.0102 -0.0902
   13HTM     S7 7463   6.118   4.943   8.181 -0.1839  0.6060  0.3367
   14TAL    C65 7464   5.844   4.657   8.280  0.3258 -0.4541 -0.2791
   14TAL    C66 7465   5.697   4.700   8.298 -0.0479  0.0493  0.3316
   14TAL    C67 7466   5.605   4.583   8.348  0.0553  0.1645  0.5229
   14TAL    C68 7467   5.616   4.442   8.297 -0.0929  0.1077 -0.4357
   14TAL    C69 7468   5.475   4.374   8.299 -0.8252  0.1974  0.1051
   14TAL    C70 7469   5.425   4.327   8.166 -0.1563  0.5712  0.4703
   15HTM    C71 7470   6.110   4.761   8.402  0.3323  0.4943  0.0170
   15HTM    C72 7471   6.080   4.756   8.535  0.5963  0.6615  0.0854
   15HTM    C73 7472   6.182   4.695   8.615  0.5215  0.2645 -0.1173
   15HTM    C74 7473   6.290   4.653   8.544  0.2006 -0.2056 -0.3403
   15HTM     S8 7474   6.272   4.688   8.368 -0.0340 -0.1831 -0.3115
   16TAL    C75 7475   6.161   4.684   8.770  1.0614  0.3593  0.5443
   16TAL    C76 7476   6.021   4.702   8.839 -0.6137  0.0603  0.3850
   16TAL    C77 7477   6.031   4.672   8.990  0.7344 -0.8106 -0.1258
   16TAL    C78 7478   6.091   4.783   9.075  0.3327 -0.2973 -0.3113
   16TAL    C79 7479   6.126   4.729   9.219 -0.3186 -0.5131  0.1443
   16TAL    C80 7480   6.198   4.835   9.303  0.5619  0.0430  0.1042
   17HTM    C81 7481   6.394   4.566   8.584  0.1700 -0.6127 -0.2321
   17HTM    C82 7482   6.512   4.575   8.516  0.2197 -0.8717 -0.1824
   17HTM    C83 7483   6.614   4.484   8.564  0.1509 -0.7676  0.1667
   17HTM    C84 7484   6.573   4.406   8.668  0.0488 -0.4293  0.3825
   17HTM     S9 7485   6.402   4.442   8.714  0.0315 -0.2140  0.1605
   18TAL    C85 7486   6.745   4.484   8.490  0.6154 -0.6558  0.0062
   18TAL    C86 7487   6.809   4.349   8.447 -0.1000 -0.6620 -0.3173
   18TAL    C87 7488   6.963   4.375   8.425 -0.0812 -0.0665 -0.7196
   18TAL    C88 7489   7.036   4.261   8.360  0.4334  0.7450 -0.1154
   18TAL    C89 7490   7.179   4.305   8.327  0.7473 -0.7140 -0.3129
   18TAL    C90 7491   7.205   4.424   8.232 -0.1047  0.3823 -0.0366
   19HTM    C91 7492   6.635   4.300   8.742 -1.0102  0.0198 -0.3934
   19HTM    C92 7493   6.755   4.288   8.806 -0.9171  0.4565 -0.4768
   19HTM    C93 7494   6.773   4.161   8.872 -0.5536  0.6528 -0.1876
   19HTM    C94 7495   6.667   4.077   8.857 -0.3697  0.3657  0.1164
   19HTM    S10 7496   6.535   4.151   8.759 -0.6433 -0.1791  0.0607
   20TAL    C95 7497   6.897   4.121   8.954  0.4517 -0.0999 -0.3892
   20TAL    C96 7498   7.026   4.070   8.898 -0.7253  1.1206  0.1293
   20TAL    C97 7499   7.085   4.013   9.019  1.0350  0.3936 -0.1128
   20TAL    C98 7500   7.165   3.902   8.985 -0.2147  0.6241 -0.1252
   20TAL    C99 7501   7.247   3.862   9.112 -0.2977 -0.6965  0.8221
   20TAL   C100 7502   7.315   3.728   9.095  0.3793  0.0030  0.4340
   21HTM   C101 7503   6.637   3.938   8.904 -0.3034  0.0392 -0.0492
   21HTM   C102 7504   6.518   3.897   8.957 -0.1301  0.0131  0.3202
   21HTM   C103 7505   6.517   3.758   8.994  0.0618  0.0468  0.4582
   21HTM   C104 7506   6.634   3.693   8.969  0.0346  0.0987  0.1935
   21HTM    S11 7507   6.756   3.803   8.896 -0.2375  0.1090 -0.2536
   22TAL   C105 7508   6.385   3.697   9.045  0.3885 -0.8889  0.8625
   22TAL   C106 7509   6.329   3.777   9.162  0.0441 -1.0947  0.4399
   22TAL   C107 7510   6.231   3.706   9.249  0.0083  0.8944 -0.2471
   22TAL   C108 7511   6.146   3.789   9.341  0.7382 -0.5269  0.1075
   22TAL   C109 7512   6.060   3.725   9.448 -1.2604  1.1853 -0.5511
   22TAL   C110 7513   5.942   3.796   9.499  0.2941 -1.0531 -0.0674
   23HTM   C111 7514   6.678   3.563   8.983 -0.2181  0.3081  0.9267
   23HTM   C112 7515   6.746   3.493   8.888 -0.1080  0.5788  0.8025
   23HTM   C113 7516   6.775   3.357   8.926 -0.0178  0.5136  0.5105
   23HTM   C114 7517   6.729   3.324   9.050 -0.0592  0.1934  0.4115
   23HTM    S12 7518   6.645   3.463   9.129 -0.2162 -0.0526  0.6822
   24TAL   C115 7519   6.844   3.273   8.819  0.9043 -0.1088  0.0051
   24TAL   C116 7520   6.914   3.145   8.833 -0.0160  0.0120 -0.2871
   24TAL   C117 7521   6.965   3.114   8.690 -0.2932  0.4640  0.6780
   24TAL   C118 7522   7.056   2.994   8.671 -0.6513  0.1233  0.3485
   24TAL   C119 7523   7.016   2.850   8.701 -0.0589 -0.6457 -0.0709
   24TAL   C120 7524   7.037   2.800   8.845  0.1498  0.5552  0.1745
   25HTM   C121 7525   6.755   3.204   9.135 -0.2289 -0.5420  0.3868
   25HTM   C122 7526   6.666   3.111   9.179 -0.1680 -0.7391  0.1001
   25HTM   C123 7527   6.728   2.998   9.244 -0.0902 -0.9366 -0.3104
   25HTM   C124 7528   6.864   3.006   9.249 -0.0921 -0.8901 -0.3364
   25HTM    S13 7529   6.925   3.157   9.172 -0.1925 -0.5909  0.1596
   26TAL   C125 7530   6.641   2.894   9.292 -0.4145  0.5580 -0.8117
   26TAL   C126 7531   6.504   2.871   9.233 -0.4116 -1.1745  0.0097
   26TAL   C127 7532   6.420   2.756   9.262  0.2786  1.2720 -0.6989
   26TAL   C128 7533   6.365   2.733   9.402  0.1560  0.1443  0.5806
   26TAL   C129 7534   6.226   2.660   9.395  0.2000  0.1746  0.9695
   26TAL   C130 7535   6.133   2.666   9.516 -0.1745 -0.1874 -0.3454
   27HTM   C131 7536   6.964   2.915   9.305  0.1773  0.2814  0.2610
   27HTM   C132 7537   7.092   2.955   9.332  0.1502  0.2710  0.4017
   27HTM   C133 7538   7.168   2.856   9.405  0.1827  0.1082  0.1481
   27HTM   C134 7539   7.099   2.742   9.432  0.2349 -0.0054 -0.1862
   27HTM    S14 7540   6.930   2.750   9.368  0.2467  0.0850 -0.2062
   28TAL   C135 7541   7.317   2.878   9.426 -0.4563  0.0547  0.5063
   28TAL   C136 7542   7.368   3.022   9.453 -0.2871  0.8331 -0.2269
   28TAL   C137 7543   7.502   3.016   9.514 -0.5009 -0.1632 -0.4130
   28TAL   C138 7544   7.549   3.157   9.553 -0.5712 -0.3901  0.4345
   28TAL   C139 7545   7.700   3.171   9.561 -0.9225 -0.1491  0.2372
   28TAL   C140 7546   7.731   3.306   9.622 -0.1735  0.1968 -0.6247
   29HTM   C141 7547   7.133   2.621   9.503 -0.0560 -0.2385 -0.3516
   29HTM   C142 7548   7.223   2.598   9.603 -0.0961 -0.1927 -0.3047
   29HTM   C143 7549   7.242   2.458   9.632 -0.4232 -0.1655  0.0570
   29HTM   C144 7550   7.166   2.375   9.555 -0.6324 -0.1906  0.2857
   29HTM    S15 7551   7.064   2.468   9.438 -0.4311 -0.2510  0.0600
   30TAL   C145 7552   7.332   2.412   9.746 -0.4396  0.7206 -0.1004
   30TAL   C146 7553   7.398   2.500   9.849  0.2835  0.0918  0.3390
   30TAL   C147 7554   7.455   2.428   9.963  0.0073 -1.1103 -0.6235
   30TAL   C148 7555   7.519   2.520  10.070  0.9180  0.6361 -0.0839
   30TAL   C149 7556   7.634   2.450  10.139 -0.4107 -0.7225 -0.4654
   30TAL   C150 7557   7.688   2.518  10.263  0.1289  0.8402 -0.4751
   31HTM   C151 7558   7.189   2.235   9.534 -0.6103  0.3489 -0.6491
   31HTM   C152 7559   7.275   2.169   9.451 -1.4075  0.2335 -1.4124
   31HTM   C153 7560   7.275   2.026   9.469 -1.2794  0.2531 -1.2584
   31HTM   C154 7561   7.189   1.983   9.566 -0.3842  0.3835 -0.3771
   31HTM    S16 7562   7.101   2.121   9.643  0.3718  0.4924  0.3314
   32TAL   C155 7563   7.371   1.936   9.386  0.2056 -0.6635  1.0971
   32TAL   C156 7564   7.525   1.946   9.412 -0.3582 -0.3708 -0.3944
   32TAL   C157 7565   7.577   1.850   9.510 -0.7619  0.4736 -0.0449
   32TAL   C158 7566   7.557   1.873   9.667 -0.0193  0.5820  1.1925
   32TAL   C159 7567   7.580   2.022   9.711 -0.1260  0.3237  0.5309
   32TAL   C160 7568   7.531   2.041   9.846 -0.4659 -0.4535 -1.2274
   33HTM   C161 7569   7.162   1.852   9.623 -0.1809  0.0655  0.1030
   33HTM   C162 7570   7.128   1.738   9.556 -1.2041  0.2571  0.2618
   33HTM   C163 7571   7.124   1.621   9.640 -1.2531  0.2383  0.2334
   33HTM   C164 7572   7.156   1.645   9.770 -0.2672  0.0324  0.0527
   33HTM    S17 7573   7.192   1.819   9.798  0.8081 -0.1553 -0.0965
   34TAL   C165 7574   7.098   1.484   9.591  0.3372  0.9837  0.0603
   34TAL   C166 7575   7.196   1.431   9.479  0.5356 -0.0633  0.1253
   34TAL   C167 7576   7.346   1.419   9.503 -0.1893  0.2615  0.2075
   34TAL   C168 7577   7.393   1.301   9.589 -0.4386  0.4794 -0.4377
   34TAL   C169 7578   7.542   1.270   9.551  1.3143  0.8419 -0.5903
   34TAL   C170 7579   7.601   1.165   9.643 -0.6551 -0.1324 -0.3288
   35HTM   C171 7580   7.167   1.553   9.885  0.0867  0.2519  0.2449
   35HTM   C172 7581   7.289   1.522   9.938 -0.0226  0.2300  0.4897
   35HTM   C173 7582   7.290   1.398  10.011 -0.2137  0.2764  0.5729
   35HTM   C174 7583   7.169   1.335  10.015 -0.2503  0.3338  0.3921
   35HTM    S18 7584   7.043   1.428   9.925 -0.0444  0.3336  0.0999
   36TAL   C175 7585   7.416   1.358  10.075  0.1174  0.2818  0.0948
   36TAL   C176 7586   7.467   1.418  10.209 -0.0539 -0.2147  0.1178
   36TAL   C177 7587   7.531   1.556  10.239 -0.6633  0.6123  0.5218
   36TAL   C178 7588   7.545   1.620  10.377 -0.6836  0.2616 -0.7157
   36TAL   C179 7589   7.424   1.610  10.458 -0.6967  0.8616 -0.5097
   36TAL   C180 7590   7.424   1.687  10.581 -0.7767  0.3675  0.0015
   37HTM   C181 7591   7.123   1.203  10.059 -0.3389  0.0119 -0.5262
   37HTM   C182 7592   6.994   1.160  10.059 -0.3856  0.1464 -0.3362
   37HTM   C183 7593   6.977   1.028  10.115 -0.4588  0.2140 -0.1976
   37HTM   C184 7594   7.093   0.971  10.158 -0.4681  0.1311 -0.2824
   37HTM    S19 7595   7.234   1.081  10.131 -0.3840 -0.0402 -0.5454
   38TAL   C185 7596   6.839   0.975  10.135  0.0594 -0.2402  0.1298
   38TAL   C186 7597   6.774   0.924  10.010  0.5043  0.8878 -0.6332
   38TAL   C187 7598   6.653   0.833  10.021  0.3482  0.5333  1.1657
   38TAL   C188 7599   6.653   0.692  10.098  0.4310 -1.0522  0.7073
   38TAL   C189 7600   6.765   0.598  10.089 -0.1197  0.0754  0.9541
   38TAL   C190 7601   6.811   0.571   9.937  1.0258 -0.7453  0.2981
   39HTM   C191 7602   7.127   0.854  10.235  0.1616  0.7554 -0.1487
   39HTM   C192 7603   7.090   0.723  10.225 -0.6738  0.9612  0.0172
   39HTM   C193 7604   7.155   0.637  10.320 -1.3806  0.6897  0.2680
   39HTM   C194 7605   7.241   0.702  10.403 -1.0844  0.2768  0.2936
   39HTM    S20 7606   7.247   0.879  10.367  0.1197  0.1983 -0.0002
   40TAL   C195 7607   7.153   0.484  10.311  0.3023  0.6801 -0.4138
   40TAL   C196 7608   7.067   0.424  10.198  0.1164  0.1972  0.7151
   40TAL   C197 7609   7.114   0.279  10.177  0.0705 -0.0036 -0.0895
   40TAL   C198 7610   7.067   0.191  10.065 -0.3919 -0.3437  0.3302
   40TAL   C199 7611   7.163   0.087  10.019 -0.3631  1.2221  1.3517
   40TAL   C200 7612   7.286   0.130   9.934  1.1482 -0.0634 -0.0978
   41HTM   C201 7613   7.334   0.661  10.518  0.0860 -0.0791 -0.0789
   41HTM   C202 7614   7.350   0.729  10.634 -0.5004  0.2055 -0.1554
   41HTM   C203 7615   7.400   0.648  10.743 -0.5784  0.5752  0.1621
   41HTM   C204 7616   7.422   0.518  10.708 -0.0514  0.5725  0.4810
   41HTM    S21 7617   7.380   0.488  10.535  0.5890  0.0991  0.4043
   42TAL   C205 7618   7.419   0.695  10.886  0.6892  0.6895 -0.1827
   42TAL   C206 7619   7.510   0.822  10.900  0.0361 -0.3175 -0.2677
   42TAL   C207 7620   7.530   0.862  11.048  0.1787  1.4053 -0.0069
   42TAL   C208 7621   7.589   0.763  11.141 -0.0459  0.1627  0.0383
   42TAL   C209 7622   7.564   0.791  11.286 -0.4807 -0.6032 -0.9299
   42TAL   C210 7623   7.604   0.673  11.375 -0.5197  0.2799  0.6751
   43HTM   C211 7624   7.467   0.404  10.788 -0.7861  0.0553  0.0098
   43HTM   C212 7625   7.546   0.312  10.726 -0.6501  0.3502 -0.2596
   43HTM   C213 7626   7.616   0.224  10.817 -0.1255  0.5101 -0.4985
   43HTM   C214 7627   7.590   0.250  10.948  0.1385  0.3371 -0.4114
   43HTM    S22 7628   7.475   0.387  10.968 -0.2580 -0.0441 -0.0179
   44TAL   C215 7629   7.672   0.099  10.756 -0.9436 -0.8396  0.5637
   44TAL   C216 7630   7.829   0.100  10.755 -0.4977 -0.6296  0.1924
   44TAL   C217 7631   7.919  -0.019  10.734 -0.0122 -0.4414  0.8284
   44TAL   C218 7632   7.929  -0.070  10.582 -0.1456  0.5671  0.4082
   44TAL   C219 7633   7.813  -0.154  10.527 -0.1392 -0.4790  0.2031
   44TAL   C220 7634   7.807  -0.199  10.379  0.6720 -0.1452  0.3115
   45HTM   C221 7635   7.641   0.191  11.077 -0.6273  0.4708 -0.2993
   45HTM   C222 7636   7.706   0.072  11.093 -1.0397  0.2215 -0.4423
   45HTM   C223 7637   7.749   0.047  11.228 -0.8620  0.0485 -0.5307
   45HTM   C224 7638   7.717   0.147  11.315 -0.3140  0.1660 -0.4550
   45HTM    S23 7639   7.629   0.281  11.233  0.0226  0.5067 -0.2646
   46TAL   C225 7640   7.833  -0.072  11.268  0.2504  0.2711  0.0345
   46TAL   C226 7641   7.769  -0.217  11.258 -0.6988  0.1771  0.4259
   46TAL   C227 7642   7.664  -0.261  11.363 -0.6724 -0.3434 -0.2223
   46TAL   C228 7643   7.625  -0.407  11.374 -0.2995  0.1029  0.2893
   46TAL   C229 7644   7.743  -0.492  11.429  0.6920  0.5497  0.3299
   46TAL   C230 7645   7.806  -0.572  11.306 -0.1077  0.2119 -0.8727
   47HTM   C231 7646   7.726   0.165  11.461  0.2305 -0.0549 -0.2065
   47HTM   C232 7647   7.639   0.233  11.541 -0.1719 -0.7149 -0.0644
   47HTM   C233 7648   7.670   0.223  11.682 -0.3109 -1.0851 -0.0572
   47HTM   C234 7649   7.781   0.148  11.708 -0.0146 -0.7074 -0.1939
   47HTM    S24 7650   7.854   0.083  11.557  0.4668  0.1518 -0.3433
   48TAL   C235 7651   7.594   0.293  11.791 -0.0037  0.2873 -0.5034
   48TAL   C236 7652   7.619   0.259  11.940  0.4446 -0.4293 -0.1555
   48TAL   C237 7653   7.752   0.315  12.003  0.3208 -0.5284  0.1015
   48TAL   C238 7654   7.761   0.312  12.150 -0.3232  1.0306 -0.2107
   48TAL   C239 7655   7.763   0.171  12.219  0.3229 -0.0859 -0.3335
   48TAL   C240 7656   7.730   0.193  12.355 -0.1706  0.3090 -1.3323
    1HTM     C1 7657   2.401   4.982  10.222  0.1956  0.4296 -0.0534
    1HTM     C2 7658   2.300   4.902  10.267  0.3249  0.4215  0.2272
    1HTM     C3 7659   2.312   4.765  10.225  0.1577  0.4473  0.0906
    1HTM     C4 7660   2.422   4.740  10.149 -0.0992  0.4750 -0.2939
    1HTM     S1 7661   2.520   4.889  10.123 -0.1502  0.4709 -0.5155
    2TAL     C5 7662   2.209   4.670  10.267  0.2433  0.4994 -0.0020
    2TAL     C6 7663   2.238   4.585  10.390 -0.0033  0.6020  0.1086
    2TAL     C7 7664   2.128   4.485  10.430 -0.5188  0.0384 -0.1555
    2TAL     C8 7665   2.142   4.453  10.581 -0.5797 -0.1606 -0.1046
    2TAL     C9 7666   2.028   4.391  10.653  0.6620  0.8151  0.1513
    2TAL    C10 7667   1.901   4.482  10.648 -0.8782  0.1838 -0.0371
    3HTM    C11 7668   2.471   4.618  10.091 -0.4063 -0.5732  0.4040
    3HTM    C12 7669   2.573   4.532  10.118 -0.8510 -1.0142  0.7038
    3HTM    C13 7670   2.581   4.420  10.027 -0.7114 -0.7293  0.3607
    3HTM    C14 7671   2.485   4.421   9.931 -0.1604 -0.0711 -0.2011
    3HTM     S2 7672   2.376   4.565   9.947  0.2280  0.2424 -0.3414
    4TAL    C15 7673   2.685   4.319  10.059 -0.5407  0.2364  0.2455
    4TAL    C16 7674   2.828   4.376  10.042  1.1532  0.2114  0.0063
    4TAL    C17 7675   2.938   4.278  10.053 -0.6236 -0.0200 -0.4557
    4TAL    C18 7676   2.944   4.176   9.939  1.5029 -0.0773  0.2218
    4TAL    C19 7677   2.997   4.212   9.798  0.7347 -0.5837  0.2356
    4TAL    C20 7678   2.955   4.097   9.704  0.1104 -0.1166 -0.4821
    5HTM    C21 7679   2.473   4.341   9.808  0.0117 -0.2573 -0.0438
    5HTM    C22 7680   2.358   4.329   9.735  0.0392 -0.3138 -0.0780
    5HTM    C23 7681   2.374   4.254   9.613  0.1879 -0.0166 -0.2406
    5HTM    C24 7682   2.501   4.210   9.592  0.2739  0.2665 -0.3305
    5HTM     S3 7683   2.611   4.258   9.726  0.1729  0.1788 -0.2155
    6TAL    C25 7684   2.256   4.248   9.520 -0.0392 -0.0409 -0.2138
    6TAL    C26 7685   2.132   4.161   9.542  0.4627 -0.2790 -0.7349
    6TAL    C27 7686   2.033   4.257   9.615  0.3943  0.8866  0.1554
    6TAL    C28 7687   1.894   4.183   9.610 -0.1580  0.1926 -0.8045
    6TAL    C29 7688   1.763   4.254   9.584 -0.1536  0.3657  0.5745
    6TAL    C30 7689   1.653   4.174   9.527  0.9394  0.1771  0.3325
    7HTM    C31 7690   2.555   4.115   9.499 -0.1145 -0.1323 -0.5689
    7HTM    C32 7691   2.520   3.988   9.462  0.1061 -0.1355 -0.7727
    7HTM    C33 7692   2.625   3.916   9.395  0.4305 -0.0498 -0.3664
    7HTM    C34 7693   2.740   3.988   9.380  0.4572  0.0188  0.1471
    7HTM     S4 7694   2.725   4.153   9.451  0.0718 -0.0197  0.1577
    8TAL    C35 7695   2.591   3.764   9.353 -0.3669  0.3992 -0.2459
    8TAL    C36 7696   2.459   3.699   9.382 -0.3040  0.1393  0.2229
    8TAL    C37 7697   2.453   3.592   9.496  0.1063 -0.9272 -0.8407
    8TAL    C38 7698   2.417   3.633   9.642  0.5493 -0.3443  0.4173
    8TAL    C39 7699   2.273   3.689   9.649 -0.0398  0.2214  0.0512
    8TAL    C40 7700   2.175   3.624   9.743  0.6997 -0.5814 -0.6047
    9HTM    C41 7701   2.868   3.957   9.324  0.0651 -0.1762 -0.2287
    9HTM    C42 7702   2.990   4.000   9.367  0.1973 -0.6390 -0.1314
    9HTM    C43 7703   3.099   3.954   9.285  0.0818 -0.9564 -0.1132
    9HTM    C44 7704   3.060   3.877   9.179 -0.1385 -0.7356 -0.1965
    9HTM     S5 7705   2.881   3.855   9.176 -0.2179 -0.1048 -0.3053
   10TAL    C45 7706   3.232   4.004   9.313  0.4461 -0.8378 -0.3954
   10TAL    C46 7707   3.317   3.954   9.419  0.0929 -0.6304 -0.4927
   10TAL    C47 7708   3.404   3.829   9.382 -0.2732 -1.0505  0.2398
   10TAL    C48 7709   3.423   3.734   9.498  0.6612  0.8163  0.7619
   10TAL    C49 7710   3.566   3.720   9.523  0.0283  0.7861  0.3106
   10TAL    C50 7711   3.601   3.608   9.621 -0.1405  0.0868 -0.5628
   11HTM    C51 7712   3.139   3.828   9.071  0.2409  0.0614 -0.1085
   11HTM    C52 7713   3.227   3.886   8.985  0.8163 -0.4857  0.0982
   11HTM    C53 7714   3.287   3.793   8.892  0.5771 -0.8879  0.3402
   11HTM    C54 7715   3.244   3.665   8.908 -0.1808 -0.6475  0.3184
   11HTM     S6 7716   3.124   3.651   9.042 -0.6547  0.1113 -0.0125
   12TAL    C55 7717   3.369   3.865   8.774  0.5088  1.2257 -0.3317
   12TAL    C56 7718   3.507   3.918   8.808 -0.6521 -0.2352  0.5957
   12TAL    C57 7719   3.627   3.825   8.855 -0.2499 -0.9393  0.5519
   12TAL    C58 7720   3.658   3.692   8.794  0.5519 -0.1236  0.3172
   12TAL    C59 7721   3.622   3.679   8.643 -0.6327 -1.0737  0.4542
   12TAL    C60 7722   3.648   3.534   8.588  0.3951 -0.2743  0.6618
   13HTM    C61 7723   3.281   3.544   8.842 -0.1983 -0.3221  0.2503
   13HTM    C62 7724   3.332   3.435   8.907 -1.0217 -0.4144  0.7648
   13HTM    C63 7725   3.334   3.316   8.827 -0.8854 -0.5345  0.9475
   13HTM    C64 7726   3.285   3.333   8.701  0.0420 -0.5338  0.5717
   13HTM     S7 7727   3.232   3.503   8.673  0.8212 -0.3803 -0.0466
   14TAL    C65 7728   3.382   3.181   8.895  0.6358 -0.2116  0.0912
   14TAL    C66 7729   3.289   3.091   8.981  0.8834  0.8753  0.4128
   14TAL    C67 7730   3.212   3.159   9.092  0.0323  0.1888 -0.1473
   14TAL    C68 7731   3.279   3.234   9.209  0.1246  0.7850  0.0440
   14TAL    C69 7732   3.355   3.138   9.299 -0.6594 -0.5808 -0.8532
   14TAL    C70 7733   3.474   3.209   9.378  0.1897  0.3811  0.6765
   15HTM    C71 7734   3.257   3.236   8.587  0.1375 -0.0116 -0.4151
   15HTM    C72 7735   3.135   3.184   8.553  0.1861 -0.0631 -0.5100
   15HTM    C73 7736   3.142   3.087   8.447  0.3255 -0.1519 -0.4210
   15HTM    C74 7737   3.268   3.065   8.400  0.3830 -0.1682 -0.2585
   15HTM     S8 7738   3.390   3.166   8.488  0.2648 -0.0718 -0.2047
   16TAL    C75 7739   2.997   3.037   8.410 -0.1327 -0.2829  0.7912
   16TAL    C76 7740   2.968   2.929   8.313 -0.4968 -0.3978  0.4776
   16TAL    C77 7741   3.001   2.802   8.382  0.1430  0.3688 -0.1066
   16TAL    C78 7742   2.957   2.675   8.312  0.4263 -0.3463 -0.0155
   16TAL    C79 7743   3.034   2.629   8.179 -0.5160 -0.5094 -0.5246
   16TAL    C80 7744   2.965   2.510   8.118 -0.0063  0.2790 -0.4552
   17HTM    C81 7745   3.317   2.994   8.291 -0.2223 -0.3549 -0.1098
   17HTM    C82 7746   3.378   2.872   8.289 -0.0356 -0.2591 -0.3858
   17HTM    C83 7747   3.383   2.812   8.158 -0.1168 -0.0427 -0.4885
   17HTM    C84 7748   3.326   2.888   8.061 -0.3654  0.0264 -0.2914
   17HTM     S9 7749   3.261   3.043   8.127 -0.5174 -0.1780  0.0423
   18TAL    C85 7750   3.471   2.691   8.136  0.2321 -0.1861  0.2048
   18TAL    C86 7751   3.419   2.570   8.078 -1.3635  1.1684  1.3315
   18TAL    C87 7752   3.536   2.494   8.011 -0.4134  0.0492 -0.6307
   18TAL    C88 7753   3.521   2.354   7.941 -0.7673 -0.3443 -0.0812
   18TAL    C89 7754   3.651   2.362   7.853  0.2694  1.0517 -0.2153
   18TAL    C90 7755   3.669   2.232   7.790 -0.3135  0.1133  0.6187
   19HTM    C91 7756   3.307   2.871   7.919 -0.5847  0.4837  0.1593
   19HTM    C92 7757   3.234   2.776   7.853 -1.9374  1.4390  0.1943
   19HTM    C93 7758   3.243   2.785   7.709 -2.1983  1.5360  0.1826
   19HTM    C94 7759   3.323   2.887   7.666 -1.0447  0.6547  0.1389
   19HTM    S10 7760   3.393   2.980   7.803  0.4725 -0.3740  0.1087
   20TAL    C95 7761   3.162   2.687   7.621 -0.3372 -0.3223  0.3945
   20TAL    C96 7762   3.083   2.574   7.696  0.0872 -0.2298  0.2579
   20TAL    C97 7763   2.960   2.526   7.618 -0.8393 -0.4377 -0.5943
   20TAL    C98 7764   2.889   2.419   7.689 -0.0765 -0.6723 -0.5274
   20TAL    C99 7765   2.754   2.392   7.622  0.5242  0.8778  0.0465
   20TAL   C100 7766   2.664   2.308   7.708 -0.0362 -0.8070 -0.7797
   21HTM   C101 7767   3.373   2.913   7.529 -0.0600 -0.2966 -0.0058
   21HTM   C102 7768   3.335   3.021   7.454 -0.4837 -0.4544 -0.0204
   21HTM   C103 7769   3.421   3.047   7.342 -0.6492 -0.1950 -0.0882
   21HTM   C104 7770   3.525   2.960   7.331 -0.3517  0.1604 -0.1253
   21HTM    S11 7771   3.523   2.837   7.463  0.1647  0.1954 -0.0770
   22TAL   C105 7772   3.388   3.171   7.256  0.4584 -0.1687  0.3714
   22TAL   C106 7773   3.244   3.161   7.191 -0.0438 -0.1729 -0.5379
   22TAL   C107 7774   3.207   3.307   7.176 -0.3526  0.2123 -1.0502
   22TAL   C108 7775   3.092   3.328   7.096  0.1621  0.4422  0.1267
   22TAL   C109 7776   3.060   3.478   7.062 -0.3599 -0.1455  0.4393
   22TAL   C110 7777   3.007   3.575   7.169 -0.7196 -0.4531 -0.0794
   23HTM   C111 7778   3.624   2.950   7.239 -0.5326 -0.0865 -0.5879
   23HTM   C112 7779   3.655   3.029   7.132 -1.0176 -0.4119 -0.9767
   23HTM   C113 7780   3.772   2.985   7.060 -1.1951 -0.4827 -1.2263
   23HTM   C114 7781   3.830   2.873   7.112 -0.8452 -0.2115 -1.0281
   23HTM    S12 7782   3.741   2.814   7.257 -0.2602  0.1574 -0.5065
   24TAL   C115 7783   3.792   3.027   6.918  0.8783 -0.0637  0.0969
   24TAL   C116 7784   3.871   3.164   6.894  0.3783  0.6078 -0.9442
   24TAL   C117 7785   3.877   3.221   6.744  0.6231 -0.3826 -0.1096
   24TAL   C118 7786   3.942   3.353   6.743  0.4281 -0.5071 -0.6467
   24TAL   C119 7787   3.942   3.422   6.603 -0.9928  0.2456 -0.6040
   24TAL   C120 7788   3.809   3.498   6.580 -1.1772  0.6764  0.1342
   25HTM   C121 7789   3.957   2.804   7.085  0.3208 -0.1792 -0.1889
   25HTM   C122 7790   4.075   2.780   7.149  0.2459 -0.7921 -0.2629
   25HTM   C123 7791   4.171   2.709   7.069  0.0086 -0.8494 -0.5012
   25HTM   C124 7792   4.127   2.679   6.944 -0.0975 -0.2800 -0.6088
   25HTM    S13 7793   3.959   2.738   6.917  0.0956  0.3777 -0.4160
   26TAL   C125 7794   4.305   2.678   7.134 -0.9167 -0.1153  0.7108
   26TAL   C126 7795   4.362   2.789   7.222 -0.3429  0.0089 -0.6691
   26TAL   C127 7796   4.493   2.739   7.286  0.5869 -1.1149  0.8946
   26TAL   C128 7797   4.563   2.820   7.402  0.4804  0.3562 -0.1049
   26TAL   C129 7798   4.595   2.967   7.383 -0.7166 -0.6895  0.3613
   26TAL   C130 7799   4.713   3.025   7.444 -1.2498  0.1932 -0.1038
   27HTM   C131 7800   4.178   2.602   6.838  0.4177 -0.0864  0.1921
   27HTM   C132 7801   4.093   2.554   6.743  0.1730 -0.1829  0.4562
   27HTM   C133 7802   4.154   2.459   6.653 -0.0261 -0.1904  0.3266
   27HTM   C134 7803   4.286   2.435   6.680  0.0669 -0.0996 -0.0362
   27HTM    S14 7804   4.343   2.531   6.822  0.4158  0.0032 -0.2439
   28TAL   C135 7805   4.079   2.409   6.528 -0.0507  0.2686 -0.8581
   28TAL   C136 7806   3.989   2.277   6.547  0.0462  0.1823  0.6112
   28TAL   C137 7807   4.062   2.150   6.594 -0.0722  0.0646 -0.7014
   28TAL   C138 7808   3.978   2.028   6.605  0.1815  0.5412  0.5033
   28TAL   C139 7809   4.044   1.908   6.652  0.1188  0.1943  0.5834
   28TAL   C140 7810   4.033   1.872   6.801 -0.4642 -0.6411 -0.8226
   29HTM   C141 7811   4.391   2.353   6.610  0.5704  0.4778 -0.3239
   29HTM   C142 7812   4.510   2.322   6.667  0.7408  0.5653 -0.6247
   29HTM   C143 7813   4.585   2.221   6.595  0.4551  0.3375 -0.6062
   29HTM   C144 7814   4.522   2.177   6.483  0.0673  0.0762 -0.2914
   29HTM    S15 7815   4.363   2.258   6.459  0.0324  0.0979  0.0086
   30TAL   C145 7816   4.718   2.178   6.645 -0.1633  0.0689 -0.3899
   30TAL   C146 7817   4.831   2.277   6.660 -0.8543 -0.0826 -0.5056
   30TAL   C147 7818   4.951   2.229   6.757 -0.4806 -0.1967  0.8515
   30TAL   C148 7819   5.052   2.140   6.691 -0.5065  0.4609  0.0486
   30TAL   C149 7820   5.112   2.171   6.549 -0.3425  0.1341  0.2962
   30TAL   C150 7821   5.201   2.043   6.522  1.1762  0.1180  0.4105
   31HTM   C151 7822   4.567   2.078   6.395 -0.0751 -0.1169  0.8419
   31HTM   C152 7823   4.553   2.076   6.259  0.1009  0.3249  0.8146
   31HTM   C153 7824   4.600   1.955   6.197  0.3182  0.5849  0.4616
   31HTM   C154 7825   4.650   1.864   6.286  0.3079  0.3414  0.2198
   31HTM    S16 7826   4.642   1.925   6.455  0.0208 -0.2396  0.4205
   32TAL   C155 7827   4.575   1.938   6.048  0.7584  0.1469  0.8863
   32TAL   C156 7828   4.657   2.015   5.948 -0.4492 -0.7398 -0.8413
   32TAL   C157 7829   4.589   2.123   5.862  0.4664 -0.4215  0.3224
   32TAL   C158 7830   4.500   2.068   5.752 -0.2318  0.8153  0.0684
   32TAL   C159 7831   4.413   2.172   5.671 -0.0111  0.6148 -1.2308
   32TAL   C160 7832   4.302   2.252   5.733 -1.0551 -1.1331  0.5974
   33HTM   C161 7833   4.694   1.731   6.272 -0.1779  0.2123  0.1431
   33HTM   C162 7834   4.620   1.625   6.227 -0.0176  0.2254 -0.1526
   33HTM   C163 7835   4.669   1.497   6.270  0.3073  0.1603 -0.6939
   33HTM   C164 7836   4.781   1.505   6.349  0.3948  0.0976 -0.8111
   33HTM    S17 7837   4.832   1.676   6.374  0.0710  0.1160 -0.2423
   34TAL   C165 7838   4.605   1.365   6.221 -0.0956 -0.7483 -0.7943
   34TAL   C166 7839   4.464   1.345   6.234  0.0736  0.0181 -0.2549
   34TAL   C167 7840   4.402   1.223   6.172  0.0718  0.7338 -0.5955
   34TAL   C168 7841   4.259   1.240   6.177  1.0596  0.3936 -0.6666
   34TAL   C169 7842   4.195   1.112   6.125 -1.5080 -0.1017  1.1332
   34TAL   C170 7843   4.047   1.108   6.131  0.2630 -0.5538 -0.6445
   35HTM   C171 7844   4.852   1.398   6.424  0.4854 -0.4482 -0.9237
   35HTM   C172 7845   4.929   1.418   6.535  0.9015 -0.2243 -1.2457
   35HTM   C173 7846   4.971   1.297   6.600  1.0771 -0.0948 -1.1146
   35HTM   C174 7847   4.927   1.184   6.538  0.7950 -0.2200 -0.6924
   35HTM    S18 7848   4.827   1.222   6.392  0.2818 -0.5135 -0.4259
   36TAL   C175 7849   5.068   1.288   6.716 -0.6187  0.9795  1.0413
   36TAL   C176 7850   5.161   1.398   6.755 -0.1441  0.4662 -0.1113
   36TAL   C177 7851   5.251   1.436   6.648  0.0520  0.8747  0.2635
   36TAL   C178 7852   5.357   1.537   6.687 -0.2552 -0.1600 -1.0575
   36TAL   C179 7853   5.348   1.689   6.639  0.0881  0.7634 -0.8185
   36TAL   C180 7854   5.471   1.769   6.661 -0.3908 -0.4775  0.2151
   37HTM   C181 7855   4.945   1.041   6.561 -0.4893  0.2335  0.0491
   37HTM   C182 7856   4.962   0.949   6.461 -0.2058  0.1142  0.2042
   37HTM   C183 7857   5.018   0.824   6.505 -0.2025  0.2148  0.4872
   37HTM   C184 7858   5.043   0.820   6.639 -0.4837  0.4108  0.5479
   37HTM    S19 7859   4.998   0.975   6.720 -0.7766  0.4841  0.2500
   38TAL   C185 7860   5.003   0.704   6.404 -0.2647 -1.1843 -0.0952
   38TAL   C186 7861   4.862   0.646   6.364 -0.6384 -0.8406 -0.0375
   38TAL   C187 7862   4.800   0.603   6.497  0.0375  1.0618 -0.8594
   38TAL   C188 7863   4.835   0.461   6.536 -0.6007  0.2390  0.1857
   38TAL   C189 7864   4.773   0.405   6.668  0.1955 -0.4326  0.4740
   38TAL   C190 7865   4.625   0.437   6.696  0.0297 -0.3064  0.1380
   39HTM   C191 7866   5.106   0.720   6.722 -0.2630 -0.0674 -0.1333
   39HTM   C192 7867   5.237   0.684   6.727 -0.2105  0.1818  0.3005
   39HTM   C193 7868   5.264   0.577   6.819 -0.2247  0.5784  0.7781
   39HTM   C194 7869   5.154   0.530   6.884 -0.2881  0.6317  0.7082
   39HTM    S20 7870   5.005   0.619   6.833 -0.3349  0.1815  0.0286
   40TAL   C195 7871   5.410   0.529   6.833 -0.5026  0.6501  0.4060
   40TAL   C196 7872   5.517   0.578   6.724  0.2801 -1.4502 -0.9322
   40TAL   C197 7873   5.664   0.564   6.725  0.4377 -0.3599 -0.6578
   40TAL   C198 7874   5.715   0.423   6.740  0.1571 -1.0854 -0.4432
   40TAL   C199 7875   5.839   0.391   6.828  1.2020  0.6852  0.6588
   40TAL   C200 7876   5.904   0.258   6.793  0.2003 -0.1096 -0.1926
   41HTM   C201 7877   5.135   0.431   6.993  0.1730 -0.2369  0.0867
   41HTM   C202 7878   5.206   0.405   7.106 -0.3747  0.4062  0.5997
   41HTM   C203 7879   5.157   0.291   7.180 -0.5623  0.6547  0.8583
   41HTM   C204 7880   5.048   0.232   7.123 -0.1578  0.2011  0.5424
   41HTM    S21 7881   4.999   0.315   6.971  0.4967 -0.5812 -0.1113
   42TAL   C205 7882   5.221   0.231   7.313 -0.1204 -1.0263 -0.6859
   42TAL   C206 7883   5.374   0.253   7.338  0.0134 -1.2199 -0.4932
   42TAL   C207 7884   5.383   0.224   7.488  0.7357 -0.2579  0.3749
   42TAL   C208 7885   5.525   0.237   7.543 -0.4436 -0.1135 -0.6914
   42TAL   C209 7886   5.623   0.133   7.500 -0.7106 -0.1108 -0.6949
   42TAL   C210 7887   5.759   0.199   7.474 -0.0951 -0.1682 -0.2509
   43HTM   C211 7888   4.957   0.121   7.155 -0.0416  0.0764 -0.2111
   43HTM   C212 7889   4.827   0.108   7.117 -0.0669 -0.1050 -0.0672
   43HTM   C213 7890   4.765  -0.015   7.161  0.1019 -0.1142  0.1447
   43HTM   C214 7891   4.848  -0.095   7.234  0.2559  0.0598  0.1626
   43HTM    S22 7892   5.012  -0.021   7.251  0.1993  0.2508 -0.0888
   44TAL   C215 7893   4.627  -0.048   7.120 -0.1106 -0.4567  0.8477
   44TAL   C216 7894   4.519   0.004   7.211  0.7003 -0.1450 -0.3878
   44TAL   C217 7895   4.395   0.017   7.117 -0.1660  0.3949 -0.4787
   44TAL   C218 7896   4.250  -0.003   7.178 -0.6343 -1.2444  0.3874
   44TAL   C219 7897   4.216   0.076   7.300  0.5695  0.0395 -0.4660
   44TAL   C220 7898   4.065   0.051   7.329 -0.6122 -0.4411 -0.1216
   45HTM   C221 7899   4.846  -0.239   7.266  0.0108  0.2420  0.9364
   45HTM   C222 7900   4.752  -0.301   7.343  0.2600  0.4708  1.4373
   45HTM   C223 7901   4.795  -0.427   7.397  0.2981  0.4447  1.3461
   45HTM   C224 7902   4.922  -0.462   7.361  0.0782  0.1960  0.7757
   45HTM    S23 7903   4.998  -0.336   7.256 -0.1965 -0.0260  0.3058
   46TAL   C225 7904   4.687  -0.515   7.466  0.2030  0.2548 -0.3748
   46TAL   C226 7905   4.642  -0.617   7.371  1.2500  0.1980  0.0144
   46TAL   C227 7906   4.515  -0.690   7.408  1.0013  0.1750 -0.5664
   46TAL   C228 7907   4.480  -0.799   7.308  0.1587 -0.4927  0.2785
   46TAL   C229 7908   4.350  -0.865   7.365 -0.9555  0.8865  0.7211
   46TAL   C230 7909   4.270  -0.949   7.264  0.4347  0.3688 -0.3172
   47HTM   C231 7910   4.991  -0.591   7.368  0.3600  0.0961 -0.2844
   47HTM   C232 7911   5.098  -0.621   7.289  0.6585  0.2003  0.0765
   47HTM   C233 7912   5.163  -0.745   7.323  0.5662  0.1843  0.1936
   47HTM   C234 7913   5.105  -0.810   7.428  0.1972  0.0680 -0.0781
   47HTM    S24 7914   4.963  -0.719   7.492 -0.0643 -0.0312 -0.5061
   48TAL   C235 7915   5.287  -0.787   7.237  0.9546 -1.0946 -0.9641
   48TAL   C236 7916   5.357  -0.914   7.275  0.1448 -0.0530  0.7449
   48TAL   C237 7917   5.441  -0.954   7.156 -0.9365  0.3460 -0.6942
   48TAL   C238 7918   5.559  -1.054   7.196  0.6295  0.0851 -0.2533
   48TAL   C239 7919   5.634  -1.140   7.099  0.6104 -0.0676  1.0240
   48TAL   C240 7920   5.671  -1.075   6.959 -0.1528  0.5742 -0.9410
    1HTM     C1 7921   3.813   4.598   4.485 -0.0836  0.1628  0.0117
    1HTM     C2 7922   3.932   4.551   4.532  0.2024  0.7409 -0.1199
    1HTM     C3 7923   4.028   4.523   4.428  0.3369  1.4834 -0.2085
    1HTM     C4 7924   3.982   4.548   4.302  0.1533  1.4715 -0.1444
    1HTM     S1 7925   3.813   4.610   4.305 -0.2064  0.5142  0.0340
    2TAL     C5 7926   4.168   4.470   4.465 -0.2384 -0.7209 -0.2435
    2TAL     C6 7927   4.190   4.337   4.519  0.0103  1.4239  0.4823
    2TAL     C7 7928   4.143   4.213   4.436 -0.5165  0.5804  0.7328
    2TAL     C8 7929   4.167   4.181   4.288 -0.1528 -1.4830 -0.6716
    2TAL     C9 7930   4.229   4.049   4.279  0.7475  0.6532  0.7135
    2TAL    C10 7931   4.366   4.015   4.299 -0.9794 -0.3592 -0.0383
    3HTM    C11 7932   4.058   4.533   4.175 -0.6864 -0.5009  0.3051
    3HTM    C12 7933   4.167   4.598   4.126 -0.5250 -0.3595  0.8441
    3HTM    C13 7934   4.200   4.562   3.990 -0.0180 -0.0565  0.8827
    3HTM    C14 7935   4.116   4.470   3.936  0.2073  0.0330  0.3731
    3HTM     S2 7936   3.987   4.421   4.052 -0.2069 -0.2606 -0.1995
    4TAL    C15 7937   4.308   4.643   3.911  0.3646  0.3402  0.3810
    4TAL    C16 7938   4.449   4.618   3.960 -0.7464 -0.4094  0.0967
    4TAL    C17 7939   4.536   4.728   3.884 -0.3521 -0.7326  0.7335
    4TAL    C18 7940   4.665   4.672   3.827  0.1764 -0.3405  0.7112
    4TAL    C19 7941   4.746   4.784   3.762 -0.1026  0.5230 -0.0090
    4TAL    C20 7942   4.873   4.751   3.685  0.4719 -0.0441  0.1992
    5HTM    C21 7943   4.123   4.391   3.820 -0.4181  0.1519  0.4662
    5HTM    C22 7944   4.139   4.431   3.691 -0.1752  0.4170  0.5763
    5HTM    C23 7945   4.186   4.327   3.604  0.0302  0.6068  0.4568
    5HTM    C24 7946   4.205   4.207   3.666 -0.0563  0.4861  0.2557
    5HTM     S3 7947   4.166   4.217   3.842 -0.4062  0.1207  0.2010
    6TAL    C25 7948   4.180   4.362   3.455 -0.4661 -0.4738  0.0718
    6TAL    C26 7949   4.265   4.288   3.352 -0.0318 -0.1669 -1.1497
    6TAL    C27 7950   4.276   4.341   3.219 -0.5718 -0.5758  0.0970
    6TAL    C28 7951   4.170   4.329   3.108  0.7127 -0.6614  0.1809
    6TAL    C29 7952   4.192   4.404   2.977 -0.8969 -0.8203 -0.3663
    6TAL    C30 7953   4.278   4.327   2.881 -0.1068 -1.2126 -0.0960
    7HTM    C31 7954   4.234   4.084   3.615  0.4579  0.2780 -0.4336
    7HTM    C32 7955   4.346   4.008   3.631  0.5091  0.3439 -0.4769
    7HTM    C33 7956   4.340   3.882   3.562  0.3269  0.0992 -0.0232
    7HTM    C34 7957   4.224   3.862   3.493  0.1366 -0.1532  0.3660
    7HTM     S4 7958   4.112   4.002   3.511  0.1733 -0.1013  0.1884
    8TAL    C35 7959   4.455   3.781   3.565 -0.4422  0.0586  1.2374
    8TAL    C36 7960   4.583   3.823   3.493  0.1744  1.1040  0.7864
    8TAL    C37 7961   4.576   3.846   3.343  0.8652  1.7144 -0.4397
    8TAL    C38 7962   4.713   3.867   3.282 -1.1857 -1.7762 -0.0217
    8TAL    C39 7963   4.754   3.878   3.132  0.1816 -0.3971  0.0153
    8TAL    C40 7964   4.686   3.796   3.022  0.3630  0.3211 -0.1995
    9HTM    C41 7965   4.185   3.756   3.398  0.5031  0.2438 -0.0637
    9HTM    C42 7966   4.122   3.636   3.418  0.8631  0.1076  0.2673
    9HTM    C43 7967   4.066   3.579   3.298  0.4326 -0.0551  0.5427
    9HTM    C44 7968   4.086   3.655   3.187 -0.2555 -0.0430  0.4217
    9HTM     S5 7969   4.177   3.806   3.225 -0.4144  0.1765 -0.0532
   10TAL    C45 7970   4.016   3.437   3.303 -0.2317  0.1293 -0.3341
   10TAL    C46 7971   3.912   3.392   3.408 -0.9473  0.1700  0.1272
   10TAL    C47 7972   3.787   3.343   3.354 -0.6201 -0.6228 -0.4835
   10TAL    C48 7973   3.784   3.226   3.262 -0.2244 -0.0668 -0.0999
   10TAL    C49 7974   3.636   3.223   3.226  0.3376  0.1651  0.7344
   10TAL    C50 7975   3.627   3.167   3.083 -0.7952 -0.4511  0.1006
   11HTM    C51 7976   4.034   3.635   3.052 -0.4526  0.0551  0.3643
   11HTM    C52 7977   4.063   3.709   2.940 -0.4514  0.2279  0.4778
   11HTM    C53 7978   3.996   3.661   2.821 -0.3444  0.3304  0.3769
   11HTM    C54 7979   3.918   3.552   2.842 -0.2640  0.2358  0.1866
   11HTM     S6 7980   3.921   3.500   3.015 -0.3176  0.0081  0.1194
   12TAL    C55 7981   4.015   3.753   2.702  0.6701 -0.0033 -0.5039
   12TAL    C56 7982   4.085   3.724   2.571  0.7052  0.3250  0.1611
   12TAL    C57 7983   4.093   3.837   2.471 -0.0043 -0.3498 -0.6436
   12TAL    C58 7984   4.143   3.788   2.332 -0.1369 -0.2315 -0.9670
   12TAL    C59 7985   4.159   3.900   2.236  0.6643 -0.0004 -0.4708
   12TAL    C60 7986   4.252   4.014   2.265 -0.3448 -0.8709  0.3191
   13HTM    C61 7987   3.832   3.470   2.755 -0.1734 -0.0743 -0.8454
   13HTM    C62 7988   3.855   3.425   2.629 -0.2860 -0.7216 -0.6427
   13HTM    C63 7989   3.746   3.348   2.574 -0.3055 -1.0703 -0.1340
   13HTM    C64 7990   3.640   3.335   2.658 -0.2077 -0.6889  0.0512
   13HTM     S7 7991   3.670   3.419   2.815 -0.0825  0.1465 -0.4060
   14TAL    C65 7992   3.745   3.290   2.437 -0.6923 -0.4233  0.3054
   14TAL    C66 7993   3.802   3.383   2.325 -0.4249  0.2267  0.5129
   14TAL    C67 7994   3.762   3.537   2.307 -0.2227  0.9212  1.5757
   14TAL    C68 7995   3.615   3.578   2.294  0.5144  0.2978  0.1578
   14TAL    C69 7996   3.520   3.502   2.203 -0.1209 -0.3667 -0.0992
   14TAL    C70 7997   3.375   3.528   2.241 -0.2467 -0.1144 -0.1285
   15HTM    C71 7998   3.508   3.285   2.643  0.1090  0.5098 -0.1184
   15HTM    C72 7999   3.445   3.179   2.700  0.2878  0.3672 -0.1829
   15HTM    C73 8000   3.301   3.182   2.685  0.2792  0.1494 -0.1559
   15HTM    C74 8001   3.256   3.291   2.617  0.0939  0.1258 -0.0707
   15HTM     S8 8002   3.391   3.398   2.565 -0.0855  0.3789 -0.0178
   16TAL    C75 8003   3.220   3.071   2.753 -0.4714  0.4825 -0.1578
   16TAL    C76 8004   3.284   2.934   2.775  0.3169  1.0930 -0.2982
   16TAL    C77 8005   3.202   2.832   2.849 -0.0364 -0.2158 -1.3109
   16TAL    C78 8006   3.294   2.810   2.974  0.7334  0.8570 -0.2574
   16TAL    C79 8007   3.288   2.662   3.032 -0.3135 -1.2814  0.4854
   16TAL    C80 8008   3.410   2.629   3.113 -0.6769  0.1994 -0.3189
   17HTM    C81 8009   3.119   3.342   2.590 -0.2846 -0.1487 -0.5236
   17HTM    C82 8010   3.087   3.459   2.528 -0.0851 -0.1019 -0.5422
   17HTM    C83 8011   2.945   3.481   2.518 -0.0466  0.2444 -0.3495
   17HTM    C84 8012   2.869   3.381   2.572 -0.2168  0.4616 -0.1841
   17HTM     S9 8013   2.972   3.250   2.641 -0.4404  0.2440 -0.2593
   18TAL    C85 8014   2.897   3.586   2.413 -0.1851  0.8139  0.6666
   18TAL    C86 8015   2.888   3.728   2.459 -0.7273 -0.4333  0.1848
   18TAL    C87 8016   2.788   3.751   2.571 -0.2414  0.1120  0.1642
   18TAL    C88 8017   2.722   3.885   2.579 -0.8302 -0.1605  0.6012
   18TAL    C89 8018   2.803   4.016   2.601  0.0200 -0.8488  1.1438
   18TAL    C90 8019   2.786   4.105   2.474 -0.4845  0.4406 -0.0319
   19HTM    C91 8020   2.728   3.362   2.583 -0.3680 -0.3823 -0.1123
   19HTM    C92 8021   2.646   3.274   2.519 -0.8833 -0.2673  0.3690
   19HTM    C93 8022   2.506   3.301   2.537 -0.7351  0.3481  0.6381
   19HTM    C94 8023   2.481   3.410   2.615 -0.1067  0.7022  0.3620
   19HTM    S10 8024   2.634   3.487   2.672  0.3500  0.2827 -0.2642
   20TAL    C95 8025   2.409   3.206   2.470  0.3648 -0.6033  0.3443
   20TAL    C96 8026   2.385   3.210   2.323 -0.3800 -0.5608  0.3049
   20TAL    C97 8027   2.355   3.335   2.237  0.7621 -0.7424 -0.3709
   20TAL    C98 8028   2.207   3.390   2.243  1.6043  0.0804  0.1192
   20TAL    C99 8029   2.092   3.285   2.218 -0.2527 -0.8121  0.8281
   20TAL   C100 8030   1.954   3.343   2.193 -0.6937  1.3032  0.1815
   21HTM   C101 8031   2.359   3.462   2.660 -0.2344  0.1024 -0.5272
   21HTM   C102 8032   2.255   3.387   2.706 -0.4607  0.2770 -0.7424
   21HTM   C103 8033   2.149   3.464   2.767 -0.1531  0.4128 -0.3687
   21HTM   C104 8034   2.172   3.598   2.767  0.3077  0.3417  0.1316
   21HTM    S11 8035   2.330   3.638   2.690  0.3896  0.0958  0.1698
   22TAL   C105 8036   2.027   3.389   2.826  0.6736 -0.3886  0.4195
   22TAL   C106 8037   1.907   3.352   2.730  0.0683  0.0480 -0.7348
   22TAL   C107 8038   1.898   3.203   2.706  0.0041  0.0472 -0.0156
   22TAL   C108 8039   1.798   3.162   2.598  1.0576  0.0476  0.1899
   22TAL   C109 8040   1.826   3.034   2.535  0.1469 -0.9840 -0.4164
   22TAL   C110 8041   1.719   2.966   2.459 -0.7492 -0.7530  0.9032
   23HTM   C111 8042   2.090   3.720   2.797 -0.2045 -0.2060 -0.1178
   23HTM   C112 8043   1.955   3.714   2.812 -0.2913 -0.1953 -0.8383
   23HTM   C113 8044   1.892   3.843   2.820 -0.3181 -0.1916 -1.0715
   23HTM   C114 8045   1.979   3.947   2.812 -0.2518 -0.1997 -0.5287
   23HTM    S12 8046   2.149   3.890   2.793 -0.1496 -0.2124  0.3256
   24TAL   C115 8047   1.750   3.855   2.857 -0.3063  0.2196  0.1820
   24TAL   C116 8048   1.679   3.740   2.942 -0.1885  0.1955  0.0674
   24TAL   C117 8049   1.521   3.732   2.929 -1.0491  0.0310 -0.1159
   24TAL   C118 8050   1.445   3.626   3.010 -0.2447 -0.1030 -0.4516
   24TAL   C119 8051   1.523   3.514   3.079 -0.3788  0.2635  0.5229
   24TAL   C120 8052   1.459   3.430   3.196 -0.3240 -0.0256  0.1397
   25HTM   C121 8053   1.952   4.082   2.766  0.8777 -0.3556  0.1236
   25HTM   C122 8054   1.869   4.129   2.668  0.3252 -0.8720  0.3271
   25HTM   C123 8055   1.869   4.273   2.658 -0.7742 -0.8512  0.4638
   25HTM   C124 8056   1.950   4.335   2.747 -1.0598 -0.3188  0.3644
   25HTM    S13 8057   2.036   4.216   2.853  0.0461  0.2016  0.0885
   26TAL   C125 8058   1.771   4.356   2.568 -0.2708  0.5073  1.0099
   26TAL   C126 8059   1.669   4.269   2.497  0.4373  0.2072 -0.1472
   26TAL   C127 8060   1.613   4.343   2.385  0.1634  0.0856  0.3106
   26TAL   C128 8061   1.519   4.242   2.313  0.4202 -0.1051  0.6469
   26TAL   C129 8062   1.497   4.270   2.165 -0.1622  0.2055 -0.2435
   26TAL   C130 8063   1.396   4.180   2.084  0.0758  0.1955 -0.0757
   27HTM   C131 8064   1.980   4.471   2.778 -0.3905 -0.0539  0.1375
   27HTM   C132 8065   2.087   4.546   2.737 -0.0536 -0.4319  0.3099
   27HTM   C133 8066   2.084   4.682   2.786  0.4344 -0.4637  0.4368
   27HTM   C134 8067   1.975   4.710   2.864  0.4696 -0.1100  0.3611
   27HTM    S14 8068   1.867   4.566   2.881 -0.1155  0.2938  0.1218
   28TAL   C135 8069   2.202   4.770   2.775  0.1607 -0.4600 -0.2116
   28TAL   C136 8070   2.255   4.758   2.624  0.1937 -0.9991 -0.9812
   28TAL   C137 8071   2.372   4.859   2.592 -0.3200  0.5733  0.3780
   28TAL   C138 8072   2.393   4.820   2.438 -0.9830 -0.2221 -0.0342
   28TAL   C139 8073   2.530   4.864   2.387 -0.2175 -0.1654 -0.3892
   28TAL   C140 8074   2.551   5.015   2.390  0.3103 -0.4838  0.0836
   29HTM   C141 8075   1.930   4.836   2.923  0.0017  0.0531 -0.2642
   29HTM   C142 8076   1.873   4.864   3.044 -0.2441 -0.1333 -0.3346
   29HTM   C143 8077   1.838   5.003   3.060 -0.3130 -0.1653 -0.2069
   29HTM   C144 8078   1.868   5.080   2.952 -0.1199 -0.0032 -0.0393
   29HTM    S15 8079   1.944   4.983   2.820  0.1664  0.2037 -0.0295
   30TAL   C145 8080   1.758   5.039   3.183 -0.6723 -0.9212 -0.0129
   30TAL   C146 8081   1.782   4.972   3.309  0.8217  0.5120 -0.0046
   30TAL   C147 8082   1.882   5.026   3.408 -0.8039 -0.2288 -0.1346
   30TAL   C148 8083   1.867   4.978   3.551  0.8543 -0.5820  0.7783
   30TAL   C149 8084   1.745   5.017   3.637 -0.2346  0.1054  0.3827
   30TAL   C150 8085   1.675   5.160   3.654 -0.9576 -0.7046 -0.1169
   31HTM   C151 8086   1.856   5.218   2.920 -0.2517 -0.4141  0.7738
   31HTM   C152 8087   1.792   5.261   2.807 -0.8131 -0.7601  0.9460
   31HTM   C153 8088   1.787   5.405   2.795 -1.0135 -0.7929  0.6096
   31HTM   C154 8089   1.847   5.470   2.899 -0.6049 -0.4717  0.1809
   31HTM    S16 8090   1.914   5.355   3.021  0.0699 -0.1002  0.1686
   32TAL   C155 8091   1.716   5.478   2.680  0.4853  1.0961 -0.8758
   32TAL   C156 8092   1.568   5.487   2.685 -0.5719 -0.0579 -0.6145
   32TAL   C157 8093   1.528   5.546   2.552  0.0849 -1.2629 -0.9712
   32TAL   C158 8094   1.506   5.448   2.426 -0.8542  0.1595 -0.5557
   32TAL   C159 8095   1.413   5.506   2.330 -0.2583  0.1491 -0.1522
   32TAL   C160 8096   1.323   5.406   2.259 -0.7110  0.4392 -0.5926
   33HTM   C161 8097   1.841   5.603   2.947 -0.3117 -0.4859 -0.5566
   33HTM   C162 8098   1.805   5.657   3.067 -0.1798 -0.9795 -0.2884
   33HTM   C163 8099   1.800   5.801   3.066 -0.4956 -0.9840  0.2230
   33HTM   C164 8100   1.831   5.856   2.945 -0.8683 -0.4935  0.3448
   33HTM    S17 8101   1.871   5.730   2.823 -0.8492  0.0157 -0.1812
   34TAL   C165 8102   1.760   5.888   3.193 -0.2827  1.1887  0.2431
   34TAL   C166 8103   1.855   5.874   3.310 -0.1030  0.0952  0.5606
   34TAL   C167 8104   1.817   5.924   3.452 -0.1730 -0.7329  0.7823
   34TAL   C168 8105   1.759   5.826   3.550 -0.3205 -0.7270 -1.0156
   34TAL   C169 8106   1.658   5.875   3.652 -0.3340 -0.4513 -0.6871
   34TAL   C170 8107   1.528   5.931   3.598 -0.5739  1.1205  0.4726
   35HTM   C171 8108   1.816   5.989   2.904  0.3009 -0.1992  0.0308
   35HTM   C172 8109   1.710   6.058   2.852  0.3233 -0.1903 -0.0026
   35HTM   C173 8110   1.743   6.193   2.815  0.3790 -0.2340 -0.1126
   35HTM   C174 8111   1.873   6.227   2.838  0.3991 -0.2768 -0.1632
   35HTM    S18 8112   1.965   6.089   2.910  0.3488 -0.2643 -0.0750
   36TAL   C175 8113   1.643   6.280   2.750  0.7431 -0.7814 -0.6919
   36TAL   C176 8114   1.555   6.361   2.839  0.0763 -0.4195  0.7876
   36TAL   C177 8115   1.476   6.471   2.765  0.2772 -0.3557  0.4222
   36TAL   C178 8116   1.407   6.569   2.857 -1.0290  0.5057  0.2831
   36TAL   C179 8117   1.280   6.639   2.806 -0.4632  0.4793  0.7985
   36TAL   C180 8118   1.206   6.696   2.928  0.1715  0.5474  0.5634
   37HTM   C181 8119   1.941   6.345   2.798 -1.4702  1.1157 -0.3766
   37HTM   C182 8120   1.947   6.399   2.673 -1.3556  1.6198 -0.1593
   37HTM   C183 8121   2.048   6.501   2.659 -0.5571  0.8831  0.0482
   37HTM   C184 8122   2.118   6.525   2.773 -0.0627 -0.1829 -0.0110
   37HTM    S19 8123   2.063   6.419   2.908 -0.5714 -0.3401 -0.3358
   38TAL   C185 8124   2.047   6.585   2.525  0.2780  0.1388 -0.3883
   38TAL   C186 8125   2.105   6.516   2.399 -0.7527  0.5706  0.2730
   38TAL   C187 8126   2.072   6.599   2.278 -0.9487  0.7249 -0.0307
   38TAL   C188 8127   2.069   6.516   2.152 -0.2094  0.7200  0.7737
   38TAL   C189 8128   2.199   6.484   2.075  0.0412  0.3321  0.0946
   38TAL   C190 8129   2.276   6.370   2.145  0.4756  0.2158 -0.3688
   39HTM   C191 8130   2.225   6.618   2.799  0.0187 -0.5286 -0.1823
   39HTM   C192 8131   2.226   6.688   2.916 -0.5404 -0.9391  0.0758
   39HTM   C193 8132   2.330   6.787   2.923 -0.8782 -0.6224  0.7242
   39HTM   C194 8133   2.408   6.793   2.812 -0.5768  0.0297  0.9604
   39HTM    S20 8134   2.357   6.672   2.688  0.1627  0.2960  0.3778
   40TAL   C195 8135   2.334   6.898   3.031  0.3963 -0.3190 -0.0308
   40TAL   C196 8136   2.400   6.878   3.161  0.3798  0.2054 -1.0397
   40TAL   C197 8137   2.371   6.749   3.238 -0.5516  0.0830 -0.0351
   40TAL   C198 8138   2.476   6.638   3.214  0.5567 -0.4402  1.4540
   40TAL   C199 8139   2.447   6.509   3.290  0.5939 -0.4597 -0.5949
   40TAL   C200 8140   2.574   6.444   3.342 -0.4340 -0.7854  0.1893
   41HTM   C201 8141   2.524   6.873   2.772  0.1762  0.0328 -0.5112
   41HTM   C202 8142   2.549   6.912   2.644  0.4837  0.4617 -0.3245
   41HTM   C203 8143   2.665   6.996   2.630  0.4055  0.6723  0.2595
   41HTM   C204 8144   2.729   7.021   2.748  0.0384  0.4038  0.5181
   41HTM    S21 8145   2.646   6.939   2.887 -0.2392 -0.1400  0.0406
   42TAL   C205 8146   2.711   7.045   2.492  0.2865  0.1956 -0.3141
   42TAL   C206 8147   2.611   7.139   2.420 -0.5491  0.5792 -0.0415
   42TAL   C207 8148   2.571   7.280   2.472  0.4923  0.1506  0.4394
   42TAL   C208 8149   2.682   7.357   2.560  0.2975 -0.1661  0.4954
   42TAL   C209 8150   2.636   7.447   2.670 -1.2048  0.2063  1.4058
   42TAL   C210 8151   2.736   7.541   2.722 -0.0796 -0.8994  0.1570
   43HTM   C211 8152   2.856   7.083   2.781 -0.5313  0.7478 -0.0575
   43HTM   C212 8153   2.875   7.186   2.868 -0.4238  0.9385 -0.3031
   43HTM   C213 8154   3.012   7.231   2.877 -0.3371  0.6660 -0.2440
   43HTM   C214 8155   3.097   7.162   2.796 -0.3785  0.2672  0.0467
   43HTM    S22 8156   3.011   7.034   2.702 -0.5313  0.2045  0.2702
   44TAL   C215 8157   3.065   7.330   2.985  0.7526  1.6892 -0.1962
   44TAL   C216 8158   2.997   7.456   2.981  0.2646 -0.9398  0.1364
   44TAL   C217 8159   3.091   7.568   2.950 -0.0530  0.2307  0.5542
   44TAL   C218 8160   3.016   7.699   2.925  0.4349  0.3672  0.5017
   44TAL   C219 8161   3.104   7.817   2.878 -0.0679  0.1115  0.2110
   44TAL   C220 8162   3.196   7.897   2.976 -0.5032 -0.4346 -0.5238
   45HTM   C221 8163   3.233   7.204   2.759  0.6934 -1.0633  0.1389
   45HTM   C222 8164   3.340   7.250   2.830  0.7176 -1.1407  0.1525
   45HTM   C223 8165   3.461   7.263   2.752  0.5160 -0.3822 -0.0479
   45HTM   C224 8166   3.446   7.228   2.622  0.3382  0.2737 -0.2143
   45HTM    S23 8167   3.277   7.174   2.586  0.4120 -0.0183 -0.1302
   46TAL   C225 8168   3.585   7.332   2.830  0.1073 -0.8414 -0.7457
   46TAL   C226 8169   3.599   7.476   2.856 -0.4021 -0.7670 -0.2112
   46TAL   C227 8170   3.601   7.563   2.735 -1.0915  0.1577 -0.7845
   46TAL   C228 8171   3.525   7.691   2.760 -0.2404 -0.1997  0.2743
   46TAL   C229 8172   3.523   7.774   2.636 -0.1696 -0.1398  0.2941
   46TAL   C230 8173   3.388   7.826   2.638 -0.1403  0.1279  0.0748
   47HTM   C231 8174   3.542   7.193   2.520  0.2974 -0.3955 -0.1992
   47HTM   C232 8175   3.515   7.157   2.392  0.5293 -0.2122 -0.3027
   47HTM   C233 8176   3.632   7.133   2.312  0.6749 -0.1420 -0.1115
   47HTM   C234 8177   3.749   7.152   2.379  0.5540 -0.2720  0.1377
   47HTM    S24 8178   3.720   7.201   2.550  0.2445 -0.4947  0.1504
   48TAL   C235 8179   3.624   7.074   2.169 -0.3083 -0.1283 -0.7671
   48TAL   C236 8180   3.602   6.927   2.156 -0.0691  0.3314 -0.5537
   48TAL   C237 8181   3.592   6.867   2.023  0.2882 -0.5505 -0.1538
   48TAL   C238 8182   3.696   6.920   1.911  0.5597 -0.2911 -0.6770
   48TAL   C239 8183   3.648   6.879   1.775 -0.1994  0.2476  0.9533
   48TAL   C240 8184   3.771   6.793   1.721  0.2193  0.7383 -0.3756
    1HTM     C1 8185   6.681   3.385   8.472 -0.0882 -0.2668 -0.3357
    1HTM     C2 8186   6.788   3.466   8.494  0.0128 -0.3352 -0.5689
    1HTM     C3 8187   6.754   3.605   8.506  0.1367 -0.3051 -0.5648
    1HTM     C4 8188   6.621   3.631   8.494  0.1304 -0.2136 -0.3286
    1HTM     S1 8189   6.527   3.479   8.465 -0.0340 -0.1581 -0.0907
    2TAL     C5 8190   6.864   3.714   8.540 -0.3842  0.7479 -0.6511
    2TAL     C6 8191   6.997   3.669   8.609 -0.5861  0.2885  0.5829
    2TAL     C7 8192   7.109   3.629   8.514 -0.3401 -1.5522  0.1861
    2TAL     C8 8193   7.212   3.739   8.478  0.1830  0.8429  0.5488
    2TAL     C9 8194   7.238   3.862   8.556 -0.5667 -0.0985  0.5938
    2TAL    C10 8195   7.267   3.978   8.470 -0.3290  0.0568  1.3319
    3HTM    C11 8196   6.552   3.754   8.479  0.2458 -0.4204 -0.9324
    3HTM    C12 8197   6.444   3.775   8.560  0.2944 -0.8022 -0.7613
    3HTM    C13 8198   6.380   3.902   8.539  0.2992 -0.6835 -0.0949
    3HTM    C14 8199   6.439   3.978   8.442  0.2541 -0.2112  0.2420
    3HTM     S2 8200   6.582   3.894   8.370  0.2018  0.1228 -0.2597
    4TAL    C15 8201   6.246   3.931   8.606 -0.8860 -0.2330 -1.2489
    4TAL    C16 8202   6.224   3.926   8.761  0.5042  0.0251 -0.2754
    4TAL    C17 8203   6.090   3.896   8.812  0.0135 -0.1254  0.9176
    4TAL    C18 8204   5.997   4.014   8.842  0.1395  0.0802 -0.0485
    4TAL    C19 8205   6.037   4.126   8.950  0.0686  0.6782 -0.0305
    4TAL    C20 8206   6.056   4.066   9.096 -0.4988 -0.1818 -0.9105
    5HTM    C21 8207   6.412   4.110   8.389 -0.2468  0.1258 -0.2830
    5HTM    C22 8208   6.285   4.160   8.377 -0.3413 -0.1986 -0.6964
    5HTM    C23 8209   6.274   4.269   8.283 -0.3409 -0.3084 -0.8252
    5HTM    C24 8210   6.392   4.302   8.224 -0.2461 -0.0677 -0.5098
    5HTM     S3 8211   6.528   4.197   8.282 -0.1491  0.3194 -0.0218
    6TAL    C25 8212   6.146   4.361   8.268  0.6245  0.2537  0.3530
    6TAL    C26 8213   6.046   4.339   8.140 -0.5587  0.2095  0.0480
    6TAL    C27 8214   5.932   4.242   8.140 -1.2901  0.5884 -0.0144
    6TAL    C28 8215   5.814   4.264   8.047 -0.6896  0.7821 -0.0934
    6TAL    C29 8216   5.814   4.275   7.900 -0.5081 -0.3388  1.0240
    6TAL    C30 8217   5.675   4.263   7.846  0.2103  0.0706  0.1321
    7HTM    C31 8218   6.431   4.409   8.134  0.7725  0.4236 -0.3545
    7HTM    C32 8219   6.561   4.439   8.107  0.6374  0.7209 -0.6897
    7HTM    C33 8220   6.578   4.528   7.996  0.1620  0.5255 -0.9243
    7HTM    C34 8221   6.460   4.567   7.938 -0.0656  0.0792 -0.7675
    7HTM     S4 8222   6.318   4.492   8.020  0.3060 -0.1305 -0.3081
    8TAL    C35 8223   6.713   4.584   7.956  0.1366  0.1007 -0.1216
    8TAL    C36 8224   6.821   4.584   8.054  0.6550 -0.2984 -1.0769
    8TAL    C37 8225   6.926   4.685   8.030 -1.6678 -0.4265  0.3839
    8TAL    C38 8226   7.028   4.725   8.148 -0.0085  0.3623 -0.1574
    8TAL    C39 8227   6.974   4.807   8.264  0.0923 -0.2417 -0.8503
    8TAL    C40 8228   6.860   4.908   8.257  1.2352 -1.0802  0.5612
    9HTM    C41 8229   6.427   4.665   7.838  0.5485 -0.2177  0.0737
    9HTM    C42 8230   6.320   4.653   7.754  0.5269 -0.5424  0.1473
    9HTM    C43 8231   6.305   4.763   7.663  0.0695 -0.5356  0.2257
    9HTM    C44 8232   6.400   4.859   7.677 -0.2579 -0.2058  0.2116
    9HTM     S5 8233   6.517   4.818   7.808 -0.0119  0.1245  0.0976
   10TAL    C45 8234   6.176   4.770   7.576  0.9563  0.1593  1.0753
   10TAL    C46 8235   6.165   4.665   7.462 -0.1008 -1.1018  0.1020
   10TAL    C47 8236   6.263   4.645   7.354 -0.4974  0.1619  0.2007
   10TAL    C48 8237   6.307   4.765   7.272 -0.5715  0.5419  0.5194
   10TAL    C49 8238   6.459   4.821   7.284  0.3585 -0.1869  0.2702
   10TAL    C50 8239   6.478   4.910   7.170  0.7224 -0.9149  0.1283
   11HTM    C51 8240   6.408   4.990   7.609  0.3243 -0.8738 -0.7661
   11HTM    C52 8241   6.313   5.071   7.553 -0.0392 -1.1481 -0.5566
   11HTM    C53 8242   6.365   5.195   7.503 -0.6758 -0.5177  0.2875
   11HTM    C54 8243   6.500   5.209   7.521 -0.7975  0.2370  0.7216
   11HTM     S6 8244   6.571   5.065   7.602 -0.1124  0.2102  0.0930
   12TAL    C55 8245   6.270   5.301   7.456 -0.5332 -0.3461  0.4000
   12TAL    C56 8246   6.304   5.387   7.337  0.1902  0.1650  0.4755
   12TAL    C57 8247   6.289   5.326   7.196 -0.2134  0.3713  0.7710
   12TAL    C58 8248   6.350   5.399   7.087 -0.2492 -0.0882 -0.3708
   12TAL    C59 8249   6.505   5.400   7.065  0.4193  0.5421 -0.8471
   12TAL    C60 8250   6.556   5.274   7.010  0.6765 -0.1361 -1.1334
   13HTM    C61 8251   6.597   5.302   7.456  0.2411 -0.3760  0.2113
   13HTM    C62 8252   6.704   5.272   7.378  0.5927 -0.1138  0.5827
   13HTM    C63 8253   6.776   5.388   7.331  0.2445  0.0825  0.5251
   13HTM    C64 8254   6.724   5.506   7.374 -0.3725 -0.0300  0.1099
   13HTM     S7 8255   6.578   5.480   7.478 -0.5631 -0.3954 -0.2434
   14TAL    C65 8256   6.897   5.349   7.247  0.3601  0.1798  0.6322
   14TAL    C66 8257   6.901   5.418   7.116  0.2189  0.3533  0.3378
   14TAL    C67 8258   7.011   5.371   7.024  0.4548 -0.3267 -0.2404
   14TAL    C68 8259   7.150   5.336   7.066 -0.5787  0.2646 -0.1145
   14TAL    C69 8260   7.226   5.279   6.935  0.4242 -0.9217 -0.1733
   14TAL    C70 8261   7.360   5.225   6.978  0.3098  0.9456  1.1787
   15HTM    C71 8262   6.757   5.642   7.343  0.2063  0.0337 -0.5758
   15HTM    C72 8263   6.843   5.704   7.257 -0.0113  0.1618 -0.7004
   15HTM    C73 8264   6.825   5.847   7.251  0.0199  0.1806 -0.3896
   15HTM    C74 8265   6.727   5.894   7.332  0.2611  0.0667 -0.0280
   15HTM     S8 8266   6.648   5.760   7.424  0.4694 -0.0742 -0.0521
   16TAL    C75 8267   6.895   5.932   7.144 -0.2335 -0.0684  0.9161
   16TAL    C76 8268   7.056   5.928   7.130  0.3829  0.1366 -0.7778
   16TAL    C77 8269   7.118   5.803   7.060  0.9825  0.5260 -0.0736
   16TAL    C78 8270   7.250   5.822   7.033 -0.7181 -0.1250 -0.2127
   16TAL    C79 8271   7.314   5.692   7.017  0.4856 -0.3841  1.1037
   16TAL    C80 8272   7.455   5.690   6.964 -0.8427 -0.2284  0.5313
   17HTM    C81 8273   6.675   6.024   7.363 -0.3751  0.3600 -0.5476
   17HTM    C82 8274   6.548   6.053   7.403 -0.2918  0.3655 -0.2865
   17HTM    C83 8275   6.529   6.190   7.443 -0.1049  0.2694  0.1459
   17HTM    C84 8276   6.642   6.266   7.433 -0.0456  0.1908  0.2143
   17HTM     S9 8277   6.782   6.169   7.372 -0.2228  0.2322 -0.2656
   18TAL    C85 8278   6.398   6.225   7.513  0.4315 -0.0017  0.3612
   18TAL    C86 8279   6.385   6.337   7.617  0.3792 -0.6246 -0.1038
   18TAL    C87 8280   6.242   6.351   7.655 -0.2891  0.5717 -0.1284
   18TAL    C88 8281   6.198   6.482   7.724  0.0369  0.5067  0.3842
   18TAL    C89 8282   6.275   6.517   7.844  0.5115 -0.8298  0.0657
   18TAL    C90 8283   6.209   6.612   7.944 -0.4338 -0.8241  0.1059
   19HTM    C91 8284   6.649   6.406   7.447  0.2029  0.1074  0.1627
   19HTM    C92 8285   6.750   6.472   7.510  0.1600  0.4225 -0.0901
   19HTM    C93 8286   6.738   6.616   7.505  0.0746  0.4007 -0.6610
   19HTM    C94 8287   6.628   6.659   7.438  0.0523  0.0686 -0.8434
   19HTM    S10 8288   6.530   6.521   7.375  0.1381 -0.2444 -0.3045
   20TAL    C95 8289   6.855   6.697   7.556  0.3929 -0.0014  0.7125
   20TAL    C96 8290   6.965   6.701   7.442  0.8199 -0.3018 -0.0797
   20TAL    C97 8291   7.101   6.776   7.472  0.9191 -0.2147 -0.1003
   20TAL    C98 8292   7.186   6.771   7.351  0.1054  0.5849 -0.3120
   20TAL    C99 8293   7.320   6.840   7.360  0.1876  1.1821  0.2176
   20TAL   C100 8294   7.402   6.805   7.237 -0.1934  0.4937  0.0739
   21HTM   C101 8295   6.579   6.791   7.397 -0.0124 -0.3691  0.2036
   21HTM   C102 8296   6.527   6.837   7.279  0.5504 -0.3083 -0.0268
   21HTM   C103 8297   6.484   6.974   7.285  0.9906 -0.1529 -0.3183
   21HTM   C104 8298   6.503   7.033   7.406  0.7635 -0.0959 -0.3103
   21HTM    S11 8299   6.577   6.919   7.524 -0.0301 -0.2344  0.0690
   22TAL   C105 8300   6.398   7.042   7.177 -0.0456 -0.3298  0.3984
   22TAL   C106 8301   6.394   6.992   7.031 -0.0016 -0.3302 -0.5708
   22TAL   C107 8302   6.320   7.094   6.940 -0.2130  0.3132 -0.3411
   22TAL   C108 8303   6.173   7.100   6.964  0.8398 -0.8177 -0.1320
   22TAL   C109 8304   6.101   7.198   6.872  0.6446 -0.5317 -0.4094
   22TAL   C110 8305   5.943   7.221   6.897 -0.4383  0.3062 -0.3617
   23HTM   C111 8306   6.466   7.154   7.464  0.3525 -0.2978  1.0543
   23HTM   C112 8307   6.352   7.181   7.535  0.5867 -0.3998  1.4784
   23HTM   C113 8308   6.349   7.313   7.591  0.3827 -0.1543  0.9021
   23HTM   C114 8309   6.460   7.388   7.563 -0.0071  0.1351  0.0383
   23HTM    S12 8310   6.578   7.295   7.464 -0.1476  0.1196 -0.1150
   24TAL   C115 8311   6.220   7.357   7.662  0.5231 -0.7299  0.7319
   24TAL   C116 8312   6.125   7.249   7.721 -0.0352 -0.1138  0.3551
   24TAL   C117 8313   6.025   7.314   7.808  0.4401  0.6014  0.1510
   24TAL   C118 8314   5.953   7.221   7.908  1.1170 -1.0113  0.3498
   24TAL   C119 8315   5.840   7.139   7.839 -0.0326 -0.2467  1.1534
   24TAL   C120 8316   5.716   7.218   7.825 -0.9154 -1.1293 -0.6684
   25HTM   C121 8317   6.500   7.516   7.600 -0.3618  0.4210 -0.8021
   25HTM   C122 8318   6.420   7.626   7.602 -0.2401  0.5066 -0.5751
   25HTM   C123 8319   6.492   7.750   7.618 -0.1833  0.3262  0.7831
   25HTM   C124 8320   6.627   7.733   7.628 -0.2621  0.1030  1.5918
   25HTM    S13 8321   6.674   7.559   7.618 -0.4150  0.1035  0.6935
   26TAL   C125 8322   6.423   7.885   7.617  1.4011  0.7645  0.0268
   26TAL   C126 8323   6.263   7.876   7.661 -1.4408 -0.0013  0.6751
   26TAL   C127 8324   6.171   7.991   7.602  0.2327  0.6448  0.2453
   26TAL   C128 8325   6.017   7.977   7.614 -1.3844 -0.2696 -0.0325
   26TAL   C129 8326   5.957   7.978   7.752 -0.2730 -0.0741 -1.0496
   26TAL   C130 8327   5.806   7.963   7.718  0.1851 -0.4933 -0.1091
   27HTM   C131 8328   6.733   7.834   7.670  0.2040  0.2873 -0.0531
   27HTM   C132 8329   6.803   7.830   7.787  0.1030  0.7390  0.0253
   27HTM   C133 8330   6.893   7.941   7.804 -0.1576  0.9841 -0.1698
   27HTM   C134 8331   6.892   8.029   7.700 -0.2551  0.7193 -0.3967
   27HTM    S14 8332   6.776   7.979   7.572 -0.0237  0.1353 -0.3817
   28TAL   C135 8333   6.985   7.952   7.928  0.2440 -0.1795  0.4734
   28TAL   C136 8334   6.955   7.890   8.054 -0.7965 -0.9183 -0.4087
   28TAL   C137 8335   6.841   7.956   8.134  1.1321 -0.6882  0.0834
   28TAL   C138 8336   6.846   8.099   8.186  0.0158  0.6122 -0.3067
   28TAL   C139 8337   6.717   8.170   8.209 -0.4638  0.4891 -0.0302
   28TAL   C140 8338   6.688   8.177   8.355  0.3045 -0.2228  0.9120
   29HTM   C141 8339   6.962   8.161   7.684  0.5893  0.1315 -0.4726
   29HTM   C142 8340   7.094   8.192   7.695  0.3974  0.8643 -0.0575
   29HTM   C143 8341   7.128   8.321   7.642 -0.1656  1.0983  0.1423
   29HTM   C144 8342   7.021   8.390   7.591 -0.4027  0.5440 -0.1204
   29HTM    S15 8343   6.869   8.294   7.606  0.0700 -0.3234 -0.6447
   30TAL   C145 8344   7.279   8.367   7.649 -0.6956  0.5538  0.1413
   30TAL   C146 8345   7.332   8.392   7.795  0.3068  0.0742 -0.0890
   30TAL   C147 8346   7.267   8.509   7.863 -0.3845  0.5458  0.4636
   30TAL   C148 8347   7.306   8.529   8.008  0.2098  0.4073  0.1563
   30TAL   C149 8348   7.453   8.565   8.036 -0.7276 -0.3240  0.4894
   30TAL   C150 8349   7.477   8.607   8.179  0.0101 -0.1057 -0.2992
   31HTM   C151 8350   7.009   8.519   7.530  0.3622  0.1969 -0.2205
   31HTM   C152 8351   7.092   8.627   7.534  0.5603  0.0734 -0.7666
   31HTM   C153 8352   7.047   8.738   7.454  0.4184 -0.0148 -0.8094
   31HTM   C154 8353   6.930   8.714   7.388  0.1122  0.0416 -0.2959
   31HTM    S16 8354   6.867   8.548   7.423 -0.0217  0.2116  0.2861
   32TAL   C155 8355   7.136   8.867   7.438  0.6556 -0.5194 -0.2258
   32TAL   C156 8356   7.245   8.851   7.335 -0.5724  0.1639  0.0120
   32TAL   C157 8357   7.336   8.975   7.308 -0.5084 -0.6725 -0.2056
   32TAL   C158 8358   7.474   8.960   7.246  0.5144 -0.2061 -0.5467
   32TAL   C159 8359   7.574   8.905   7.362  0.0780  0.6916  0.1441
   32TAL   C160 8360   7.711   8.956   7.333 -0.1776  0.8157 -0.0192
   33HTM   C161 8361   6.844   8.792   7.308  0.1308  0.4007 -0.1125
   33HTM   C162 8362   6.875   8.889   7.217 -0.0550  0.4591 -0.1148
   33HTM   C163 8363   6.762   8.965   7.173 -0.1898  0.2954 -0.0538
   33HTM   C164 8364   6.644   8.927   7.230 -0.1071  0.1123 -0.0049
   33HTM    S17 8365   6.668   8.790   7.345  0.1495  0.1325 -0.0324
   34TAL   C165 8366   6.755   9.058   7.050 -0.3024 -0.1792 -0.3900
   34TAL   C166 8367   6.834   9.187   7.066  0.6839 -0.7223 -0.4802
   34TAL   C167 8368   6.756   9.322   7.044  0.2025  0.0606 -0.2739
   34TAL   C168 8369   6.863   9.431   7.018  0.0908  0.6041 -0.8970
   34TAL   C169 8370   6.807   9.566   6.991  0.1841  0.4611  0.1427
   34TAL   C170 8371   6.897   9.688   6.976  0.9461  0.7841  0.5394
   35HTM   C171 8372   6.507   8.975   7.216  0.2241  0.7231  0.8168
   35HTM   C172 8373   6.392   8.907   7.241  0.2645  0.8115  1.2704
   35HTM   C173 8374   6.273   8.985   7.216  0.2202  0.6401  0.9314
   35HTM   C174 8375   6.298   9.112   7.173  0.1459  0.4210  0.2194
   35HTM    S18 8376   6.475   9.143   7.160  0.1259  0.4141 -0.0808
   36TAL   C175 8377   6.126   8.914   7.220 -0.2726  0.4226  0.4991
   36TAL   C176 8378   6.091   8.831   7.339  0.5383  0.5931 -0.2794
   36TAL   C177 8379   6.125   8.880   7.477 -0.0855  1.0762  0.1404
   36TAL   C178 8380   6.149   8.773   7.600 -0.2512  0.5368  0.6876
   36TAL   C179 8381   6.041   8.660   7.609 -0.6824 -0.7757  0.2284
   36TAL   C180 8382   6.061   8.583   7.732  0.9647 -0.2599  0.1642
   37HTM   C181 8383   6.215   9.223   7.126  0.3361  0.4001  0.1768
   37HTM   C182 8384   6.256   9.338   7.066  0.4165  0.7316  0.8411
   37HTM   C183 8385   6.148   9.424   7.024  0.4634  0.8343  0.9296
   37HTM   C184 8386   6.024   9.373   7.053  0.4184  0.5812  0.3327
   37HTM    S19 8387   6.035   9.214   7.136  0.3127  0.1905 -0.3929
   38TAL   C185 8388   6.166   9.568   6.968 -0.2488  0.5269  0.2118
   38TAL   C186 8389   6.301   9.594   6.899  0.0897 -0.6373  0.1037
   38TAL   C187 8390   6.295   9.738   6.859 -0.3640 -0.7122  0.6110
   38TAL   C188 8391   6.228   9.759   6.721  0.7762  0.2558  0.6128
   38TAL   C189 8392   6.213   9.904   6.673 -0.2956  0.2994 -0.6145
   38TAL   C190 8393   6.172  10.006   6.772  0.3905 -0.3945 -0.3183
   39HTM   C191 8394   5.890   9.410   7.034 -0.3146 -0.3123 -0.5697
   39HTM   C192 8395   5.843   9.486   6.930 -0.7738 -0.5433 -0.5370
   39HTM   C193 8396   5.703   9.518   6.940 -0.8365 -0.8975 -0.2204
   39HTM   C194 8397   5.643   9.467   7.052 -0.4250 -0.9364 -0.0117
   39HTM    S20 8398   5.759   9.374   7.153  0.0774 -0.5258 -0.2006
   40TAL   C195 8399   5.644   9.600   6.823 -0.2097  1.0244 -0.1644
   40TAL   C196 8400   5.702   9.743   6.816  0.4311 -0.7516  0.0718
   40TAL   C197 8401   5.621   9.833   6.724  0.2928  0.1178  1.0200
   40TAL   C198 8402   5.635   9.981   6.735  0.1314 -0.4609 -0.4524
   40TAL   C199 8403   5.757  10.039   6.670  0.2766  0.4669  0.7204
   40TAL   C200 8404   5.767  10.184   6.695  0.6159 -0.5653  0.1665
   41HTM   C201 8405   5.506   9.475   7.108 -0.3839  0.0036  0.3116
   41HTM   C202 8406   5.460   9.411   7.219 -0.7145  0.0647  0.2134
   41HTM   C203 8407   5.320   9.430   7.244 -0.7772  0.1300 -0.1791
   41HTM   C204 8408   5.258   9.510   7.152 -0.4942  0.1188 -0.3801
   41HTM    S21 8409   5.374   9.567   7.025 -0.1238  0.0241 -0.0868
   42TAL   C205 8410   5.263   9.363   7.368 -1.0737 -0.9724  0.8997
   42TAL   C206 8411   5.256   9.463   7.479  0.4498  0.0719  0.6737
   42TAL   C207 8412   5.223   9.402   7.615  1.3432  0.3144 -1.0119
   42TAL   C208 8413   5.337   9.379   7.708 -0.7165  0.1786 -0.2190
   42TAL   C209 8414   5.423   9.498   7.763  0.5212 -0.1247  0.3470
   42TAL   C210 8415   5.519   9.445   7.851 -0.7904 -0.5656  0.2207
   43HTM   C211 8416   5.120   9.558   7.141  0.2787  0.1650 -0.0129
   43HTM   C212 8417   5.076   9.685   7.169  0.1467  0.0373  0.3688
   43HTM   C213 8418   4.933   9.698   7.167  0.1312 -0.1124  0.4368
   43HTM   C214 8419   4.867   9.582   7.137  0.2515 -0.0989  0.1069
   43HTM    S22 8420   4.982   9.446   7.109  0.3944  0.1057 -0.3182
   44TAL   C215 8421   4.870   9.843   7.176 -0.3174  0.9077  0.6263
   44TAL   C216 8422   4.922   9.943   7.072 -0.4566 -0.2351  0.0653
   44TAL   C217 8423   4.885  10.089   7.097  0.1006 -0.4394 -0.6428
   44TAL   C218 8424   4.909  10.140   7.241 -0.0814 -0.5469 -0.3255
   44TAL   C219 8425   5.040  10.123   7.309  0.9018 -0.1338  0.6642
   44TAL   C220 8426   5.040  10.195   7.443 -0.7816 -0.4009  0.7617
   45HTM   C221 8427   4.725   9.562   7.131  0.3749  0.1767  0.1610
   45HTM   C222 8428   4.673   9.445   7.085  0.7074  0.1010 -0.0311
   45HTM   C223 8429   4.531   9.450   7.063  0.7821 -0.0892 -0.5873
   45HTM   C224 8430   4.475   9.571   7.092  0.5069 -0.1587 -0.8197
   45HTM    S23 8431   4.598   9.689   7.150  0.1289  0.0122 -0.3500
   46TAL   C225 8432   4.459   9.328   7.000 -0.8355 -0.3123  0.1256
   46TAL   C226 8433   4.479   9.303   6.848  1.2256 -0.5392  0.8008
   46TAL   C227 8434   4.410   9.169   6.792 -0.3990  0.3535 -0.5008
   46TAL   C228 8435   4.412   9.123   6.643  0.1413  0.2532 -0.0641
   46TAL   C229 8436   4.339   8.984   6.612  0.7913 -0.9751 -0.6767
   46TAL   C230 8437   4.430   8.877   6.561 -0.8255  0.3001  0.2294
   47HTM   C231 8438   4.334   9.602   7.112 -0.5446 -0.1128 -0.9555
   47HTM   C232 8439   4.221   9.533   7.082 -0.8891  0.6446 -1.4766
   47HTM   C233 8440   4.100   9.592   7.135 -0.6280  0.9426 -1.2068
   47HTM   C234 8441   4.122   9.706   7.206 -0.0846  0.4122 -0.4800
   47HTM    S24 8442   4.297   9.749   7.211  0.1414 -0.5117 -0.0768
   48TAL   C235 8443   3.965   9.532   7.090  0.9660 -0.0564 -1.7757
   48TAL   C236 8444   3.835   9.600   7.142  0.5400  0.3488  0.5797
   48TAL   C237 8445   3.818   9.746   7.102 -1.0861 -0.4121  0.6040
   48TAL   C238 8446   3.715   9.811   7.188  0.2746  0.1874 -0.5064
   48TAL   C239 8447   3.730   9.819   7.342 -0.6817  0.0683  0.1521
   48TAL   C240 8448   3.854   9.901   7.376 -0.2478 -0.5023 -0.6197
    1HTM     C1 8449   6.323   4.427  26.507 -0.0445  0.0384 -0.5383
    1HTM     C2 8450   6.344   4.454  26.639  0.3438 -0.8801 -0.3986
    1HTM     C3 8451   6.446   4.552  26.663  0.5736 -1.2110  0.0014
    1HTM     C4 8452   6.504   4.600  26.549  0.3607 -0.5449  0.1660
    1HTM     S1 8453   6.432   4.525  26.401 -0.1505  0.5608 -0.1738
    2TAL     C5 8454   6.485   4.600  26.802  0.2968 -0.4145  0.2700
    2TAL     C6 8455   6.481   4.479  26.903  0.4402 -0.2738 -0.2567
    2TAL     C7 8456   6.552   4.503  27.026 -0.5540  0.7299 -0.5948
    2TAL     C8 8457   6.701   4.503  27.015 -0.3163 -0.7049  0.0368
    2TAL     C9 8458   6.785   4.386  26.963 -0.0534  0.3529 -0.5158
    2TAL    C10 8459   6.931   4.380  27.008  1.1456 -0.5583 -0.6264
    3HTM    C11 8460   6.610   4.696  26.539  0.3351 -0.7071 -0.1185
    3HTM    C12 8461   6.595   4.824  26.494 -0.0383 -0.8014 -0.2694
    3HTM    C13 8462   6.714   4.904  26.507 -0.2896 -0.4190 -0.3033
    3HTM    C14 8463   6.820   4.838  26.562 -0.1080 -0.0331 -0.1770
    3HTM     S2 8464   6.777   4.667  26.602  0.3986 -0.1235 -0.0056
    4TAL    C15 8465   6.706   5.062  26.494  0.3917  0.6382  1.8265
    4TAL    C16 8466   6.569   5.136  26.491  0.6191 -0.8593  0.4838
    4TAL    C17 8467   6.558   5.283  26.437 -0.3858 -0.5209  0.1155
    4TAL    C18 8468   6.635   5.316  26.311 -0.9152 -0.2843  0.1737
    4TAL    C19 8469   6.603   5.219  26.196 -0.3855 -0.7422  0.9236
    4TAL    C20 8470   6.720   5.165  26.107  0.2309 -0.1644  0.4682
    5HTM    C21 8471   6.957   4.883  26.577  0.4554  0.0514 -0.0135
    5HTM    C22 8472   7.071   4.829  26.526  0.4690  0.5118 -0.4930
    5HTM    C23 8473   7.189   4.908  26.551  0.3232  0.7548 -0.5732
    5HTM    C24 8474   7.164   5.023  26.620  0.1984  0.4797 -0.1555
    5HTM     S3 8475   6.989   5.040  26.660  0.2561 -0.1123  0.3768
    6TAL    C25 8476   7.334   4.888  26.484  1.1398 -0.7752 -0.8571
    6TAL    C26 8477   7.344   4.832  26.341  0.0070  0.3894 -0.5543
    6TAL    C27 8478   7.271   4.932  26.250 -0.5164  0.5612  0.1808
    6TAL    C28 8479   7.232   4.881  26.111  0.5752  0.0128 -0.4013
    6TAL    C29 8480   7.164   4.746  26.098  0.2561 -0.0769  0.2838
    6TAL    C30 8481   7.019   4.743  26.152 -0.3876 -0.4341 -0.3727
    7HTM    C31 8482   7.251   5.133  26.655  0.1649  0.0645 -0.3145
    7HTM    C32 8483   7.380   5.134  26.698  0.1408  0.2939 -0.2446
    7HTM    C33 8484   7.434   5.266  26.718 -0.1861  0.3871  0.0319
    7HTM    C34 8485   7.345   5.366  26.690 -0.4110  0.2291  0.1719
    7HTM     S4 8486   7.186   5.300  26.636 -0.2261 -0.0521 -0.0349
    8TAL    C35 8487   7.576   5.287  26.780 -0.0233  0.1003  0.3372
    8TAL    C36 8488   7.703   5.298  26.695 -0.3171  0.6808 -0.4676
    8TAL    C37 8489   7.733   5.165  26.640  0.1799  0.2120 -0.6087
    8TAL    C38 8490   7.883   5.168  26.612  0.2454  0.1720 -0.6245
    8TAL    C39 8491   7.949   5.036  26.577  0.1422  0.2938 -0.5997
    8TAL    C40 8492   8.096   5.062  26.568 -0.0162  0.2067  0.4730
    9HTM    C41 8493   7.345   5.511  26.707 -0.0703  0.2950  0.0183
    9HTM    C42 8494   7.444   5.597  26.670 -0.0827  0.2875 -0.0343
    9HTM    C43 8495   7.404   5.735  26.667 -0.1283  0.2710 -0.2074
    9HTM    C44 8496   7.273   5.754  26.701 -0.1504  0.2654 -0.2863
    9HTM     S5 8497   7.191   5.599  26.740 -0.1153  0.2813 -0.1487
   10TAL    C45 8498   7.512   5.826  26.622 -0.3031 -0.1778  0.7923
   10TAL    C46 8499   7.617   5.842  26.728  0.4373  0.1498 -0.1812
   10TAL    C47 8500   7.739   5.928  26.700 -0.4514  0.3181 -0.0089
   10TAL    C48 8501   7.847   5.895  26.796 -0.3534  0.0681 -0.2754
   10TAL    C49 8502   7.926   6.020  26.829  1.1060 -1.0910  0.2178
   10TAL    C50 8503   8.038   6.005  26.924 -0.5769 -0.0400 -0.9220
   11HTM    C51 8504   7.203   5.876  26.694 -0.0354 -0.0713 -0.1175
   11HTM    C52 8505   7.247   6.001  26.661 -0.1936 -0.0298 -0.1726
   11HTM    C53 8506   7.142   6.099  26.654 -0.2916 -0.1210 -0.0086
   11HTM    C54 8507   7.018   6.049  26.681 -0.2079 -0.2320  0.1705
   11HTM     S6 8508   7.025   5.873  26.719  0.0024 -0.2301  0.1467
   12TAL    C55 8509   7.158   6.252  26.624  0.4584 -0.2550  0.3419
   12TAL    C56 8510   7.297   6.320  26.666  0.7406  0.1420  0.0198
   12TAL    C57 8511   7.320   6.452  26.600 -0.0592 -0.7960 -0.7829
   12TAL    C58 8512   7.451   6.529  26.648  0.6485  0.2413  0.7342
   12TAL    C59 8513   7.469   6.669  26.586 -0.7678  0.1822 -0.0256
   12TAL    C60 8514   7.601   6.739  26.636  0.3068  0.4535 -0.0712
   13HTM    C61 8515   6.892   6.115  26.654 -0.1403 -0.5333 -0.1077
   13HTM    C62 8516   6.798   6.061  26.571 -0.5251 -0.9137  0.5507
   13HTM    C63 8517   6.680   6.142  26.557 -0.5771 -0.9630  0.7019
   13HTM    C64 8518   6.683   6.257  26.629 -0.2320 -0.6200  0.1587
   13HTM     S7 8519   6.837   6.273  26.722  0.1887 -0.2053 -0.5915
   14TAL    C65 8520   6.564   6.103  26.482 -0.3296  0.6915 -0.5518
   14TAL    C66 8521   6.571   6.030  26.348  0.0444 -0.2738 -1.1258
   14TAL    C67 8522   6.657   5.909  26.331 -0.1667  0.5361 -0.1910
   14TAL    C68 8523   6.659   5.833  26.189 -0.7738  0.1755  0.1346
   14TAL    C69 8524   6.662   5.679  26.197  0.2192 -0.7524  0.1119
   14TAL    C70 8525   6.754   5.597  26.103 -0.4105 -0.1129  0.5019
   15HTM    C71 8526   6.592   6.374  26.640  0.7225 -0.1841  0.2255
   15HTM    C72 8527   6.460   6.381  26.676  0.6993 -0.3462  0.1726
   15HTM    C73 8528   6.407   6.514  26.675  0.4512 -0.4441 -0.1435
   15HTM    C74 8529   6.498   6.610  26.639  0.2849 -0.3564 -0.3327
   15HTM     S8 8530   6.659   6.537  26.603  0.4302 -0.1419 -0.1243
   16TAL    C75 8531   6.281   6.547  26.750 -0.3140  0.8932  0.4011
   16TAL    C76 8532   6.156   6.516  26.664 -0.4201 -0.7850 -0.7162
   16TAL    C77 8533   6.025   6.574  26.714  0.0357  0.1788  0.3936
   16TAL    C78 8534   5.952   6.508  26.840  0.1993 -1.3134 -0.6092
   16TAL    C79 8535   5.820   6.591  26.863 -0.0972  0.1282 -0.3364
   16TAL    C80 8536   5.778   6.578  27.017 -0.2781 -0.9304  0.0608
   17HTM    C81 8537   6.475   6.748  26.616  0.1416 -0.1197  0.4222
   17HTM    C82 8538   6.363   6.822  26.591  0.0434 -0.4210 -0.0687
   17HTM    C83 8539   6.391   6.960  26.561 -0.1578 -0.5033 -0.6466
   17HTM    C84 8540   6.524   6.991  26.562 -0.2130 -0.2647 -0.5958
   17HTM     S9 8541   6.625   6.847  26.602 -0.0136  0.0851  0.1909
   18TAL    C85 8542   6.265   7.040  26.526  0.0339  1.0846 -0.5270
   18TAL    C86 8543   6.254   7.046  26.371  0.8549  0.0173  0.4717
   18TAL    C87 8544   6.192   7.186  26.328 -0.1669  0.1425  0.4592
   18TAL    C88 8545   6.231   7.226  26.185 -0.9979 -0.2886 -0.0876
   18TAL    C89 8546   6.156   7.333  26.106 -1.0198 -0.6666 -0.3449
   18TAL    C90 8547   6.136   7.473  26.174  0.2212  0.0268  0.1971
   19HTM    C91 8548   6.598   7.116  26.558 -0.1513 -0.5081  0.1857
   19HTM    C92 8549   6.558   7.240  26.517 -0.5059 -0.5660  0.3424
   19HTM    C93 8550   6.663   7.339  26.523 -0.7948 -0.2667  0.4916
   19HTM    C94 8551   6.782   7.291  26.568 -0.6604  0.0195  0.4493
   19HTM    S10 8552   6.771   7.115  26.608 -0.1546 -0.0676  0.2147
   20TAL    C95 8553   6.646   7.475  26.461  0.5662 -0.1982  0.6337
   20TAL    C96 8554   6.568   7.490  26.323 -0.6463  0.6190  0.8649
   20TAL    C97 8555   6.653   7.425  26.206  0.4570  0.6624 -0.0314
   20TAL    C98 8556   6.611   7.480  26.075  0.1024 -1.2215  0.4108
   20TAL    C99 8557   6.624   7.417  25.945  1.2731 -0.1509 -0.2728
   20TAL   C100 8558   6.763   7.436  25.888 -0.0445  0.6344  0.5762
   21HTM   C101 8559   6.918   7.345  26.573  0.9361 -1.3950  0.3186
   21HTM   C102 8560   7.021   7.337  26.484  1.3198 -1.5817  0.7672
   21HTM   C103 8561   7.139   7.409  26.525  0.8838 -0.8529  0.7815
   21HTM   C104 8562   7.126   7.471  26.645  0.1678 -0.1106  0.3450
   21HTM    S11 8563   6.963   7.444  26.717 -0.0131 -0.2755 -0.1225
   22TAL   C105 8564   7.256   7.395  26.431 -1.1144  0.2167  0.1742
   22TAL   C106 8565   7.330   7.264  26.426 -0.0591 -0.9702 -0.0377
   22TAL   C107 8566   7.444   7.247  26.525 -0.3703 -0.4812  0.2546
   22TAL   C108 8567   7.521   7.129  26.472  0.8294 -0.7791 -0.5945
   22TAL   C109 8568   7.673   7.107  26.528  0.4165  0.8561  0.8760
   22TAL   C110 8569   7.690   7.116  26.683  0.2371  1.3766 -0.4449
   23HTM   C111 8570   7.216   7.561  26.718 -0.4721  0.2114  0.0146
   23HTM   C112 8571   7.351   7.550  26.734 -0.3995  0.1534 -0.5994
   23HTM   C113 8572   7.411   7.662  26.802 -0.0181  0.1833 -0.9727
   23HTM   C114 8573   7.322   7.758  26.839  0.1997  0.2641 -0.6432
   23HTM    S12 8574   7.154   7.715  26.789 -0.0617  0.3090  0.1699
   24TAL   C115 8575   7.558   7.677  26.818 -0.3818  0.2669 -0.4602
   24TAL   C116 8576   7.610   7.603  26.950 -1.0911 -0.2745  0.1456
   24TAL   C117 8577   7.764   7.626  26.970  0.6455  0.6848 -0.9003
   24TAL   C118 8578   7.806   7.744  27.052  0.1733 -1.0903  1.1135
   24TAL   C119 8579   7.760   7.772  27.193 -0.7065  0.4295 -0.1035
   24TAL   C120 8580   7.761   7.642  27.283 -0.7869 -0.3794  0.3059
   25HTM   C121 8581   7.325   7.880  26.917 -0.2678  0.2095  0.0302
   25HTM   C122 8582   7.234   7.981  26.936  0.3091  0.8864 -0.6704
   25HTM   C123 8583   7.288   8.095  27.005  0.7790  0.7465 -0.7992
   25HTM   C124 8584   7.419   8.082  27.038  0.5606 -0.0370 -0.1957
   25HTM    S13 8585   7.486   7.923  26.985 -0.2622 -0.6639  0.5878
   26TAL   C125 8586   7.198   8.208  27.056 -0.8419  0.0143 -0.5374
   26TAL   C126 8587   7.076   8.267  26.985 -0.5441 -0.4615  0.7568
   26TAL   C127 8588   6.952   8.183  26.944 -0.5937  0.2183 -0.5603
   26TAL   C128 8589   6.841   8.278  26.913  0.5512  0.0125  0.9566
   26TAL   C129 8590   6.698   8.233  26.889  0.0846  0.9804  0.9548
   26TAL   C130 8591   6.644   8.139  26.775 -0.5436  0.5548 -0.0442
   27HTM   C131 8592   7.498   8.160  27.134 -0.3698 -0.7228  0.1138
   27HTM   C132 8593   7.550   8.285  27.119 -0.8833 -0.5164  0.0143
   27HTM   C133 8594   7.637   8.325  27.227 -0.6455 -0.2769 -0.2623
   27HTM   C134 8595   7.651   8.231  27.324  0.0492 -0.3007 -0.3742
   27HTM    S14 8596   7.555   8.083  27.287  0.4603 -0.6299 -0.1368
   28TAL   C135 8597   7.708   8.463  27.224  0.4378  0.5444 -0.9290
   28TAL   C136 8598   7.796   8.478  27.110  0.6820 -0.5560  0.2338
   28TAL   C137 8599   7.878   8.356  27.061 -1.1708 -0.9514 -0.5241
   28TAL   C138 8600   7.961   8.360  26.933  0.0720  0.0553 -0.4305
   28TAL   C139 8601   8.104   8.421  26.909  0.2764  0.1258 -0.5086
   28TAL   C140 8602   8.119   8.571  26.894  0.2135  0.0387  0.5998
   29HTM   C141 8603   7.716   8.237  27.453 -0.0376  0.2431 -0.2925
   29HTM   C142 8604   7.801   8.323  27.517  0.1324 -0.0172 -0.1655
   29HTM   C143 8605   7.845   8.276  27.645  0.0034 -0.2739 -0.2136
   29HTM   C144 8606   7.794   8.154  27.680 -0.2649 -0.2094 -0.3775
   29HTM    S15 8607   7.685   8.089  27.552 -0.3764  0.1837 -0.4844
   30TAL   C145 8608   7.947   8.350  27.734 -0.4178  0.2498  0.5677
   30TAL   C146 8609   8.089   8.391  27.692  0.5284  0.1191 -0.6832
   30TAL   C147 8610   8.140   8.446  27.572  0.6359 -0.1259 -0.1591
   30TAL   C148 8611   8.069   8.495  27.449 -0.2550  0.3820  0.4223
   30TAL   C149 8612   8.158   8.563  27.342 -0.3848  0.6094 -0.9960
   30TAL   C150 8613   8.084   8.663  27.248 -0.1103  0.3364  0.0994
   31HTM   C151 8614   7.818   8.082  27.803 -0.2841 -0.0141  0.0511
   31HTM   C152 8615   7.838   7.948  27.814 -0.8620 -0.0987  0.1588
   31HTM   C153 8616   7.859   7.903  27.950 -1.0849 -0.0831  0.1974
   31HTM   C154 8617   7.853   8.004  28.042 -0.6768  0.0134  0.1192
   31HTM    S16 8618   7.822   8.164  27.964  0.0259  0.0926 -0.0102
   32TAL   C155 8619   7.880   7.751  27.970 -0.5354 -0.3529  0.4801
   32TAL   C156 8620   8.017   7.699  27.953 -0.1803  0.9161 -0.1993
   32TAL   C157 8621   8.049   7.551  27.961 -0.7688 -0.8639 -0.4613
   32TAL   C158 8622   8.009   7.482  28.094 -0.2975  0.4122  0.6687
   32TAL   C159 8623   8.043   7.328  28.120  0.0807 -0.6341  0.6556
   32TAL   C160 8624   8.173   7.309  28.205  0.2110 -1.0190  0.3051
   33HTM   C161 8625   7.874   8.011  28.185  0.6008 -0.3148 -0.2943
   33HTM   C162 8626   7.946   8.100  28.259  0.4954  0.2567 -0.8612
   33HTM   C163 8627   7.925   8.088  28.400  0.5623  1.1026 -0.7710
   33HTM   C164 8628   7.837   7.990  28.435  0.7186  1.1762 -0.1354
   33HTM    S17 8629   7.773   7.904  28.290  0.7941  0.1749  0.4026
   34TAL   C165 8630   7.980   8.174  28.520 -1.5035 -0.6893  1.0504
   34TAL   C166 8631   8.002   8.324  28.482  0.3585  0.5334  0.3877
   34TAL   C167 8632   8.052   8.405  28.606 -0.2428 -0.3542  0.2818
   34TAL   C168 8633   7.939   8.427  28.705 -0.2091  0.9195 -0.5936
   34TAL   C169 8634   7.945   8.518  28.824 -0.2887  0.3950 -0.6694
   34TAL   C170 8635   7.929   8.663  28.788 -0.1287 -0.2841 -0.6544
   35HTM   C171 8636   7.790   7.952  28.572  0.6172  0.1378  0.2005
   35HTM   C172 8637   7.693   8.015  28.644  0.7259  0.3947  0.1259
   35HTM   C173 8638   7.652   7.942  28.761  0.1875  0.3234 -0.1016
   35HTM   C174 8639   7.717   7.824  28.779 -0.3316  0.0121 -0.2007
   35HTM    S18 8640   7.838   7.795  28.647 -0.1797 -0.2169 -0.0129
   36TAL   C175 8641   7.573   8.016  28.867  1.6865 -0.1004  0.0954
   36TAL   C176 8642   7.441   7.941  28.909  0.8188 -0.5836 -0.7471
   36TAL   C177 8643   7.331   8.005  28.996  0.6384  0.6399 -0.5303
   36TAL   C178 8644   7.364   8.027  29.139  0.7691  0.5232 -0.2970
   36TAL   C179 8645   7.413   7.905  29.225 -1.0895 -0.4549  0.2989
   36TAL   C180 8646   7.390   7.933  29.380 -0.4172  0.1467  0.6711
   37HTM   C181 8647   7.710   7.727  28.880  0.3952 -0.1068 -0.2311
   37HTM   C182 8648   7.762   7.720  29.006  1.2344 -0.2449 -0.5744
   37HTM   C183 8649   7.751   7.590  29.067  1.4450 -0.2557 -0.5560
   37HTM   C184 8650   7.690   7.498  28.988  0.7663 -0.1258 -0.1988
   37HTM    S19 8651   7.641   7.568  28.829 -0.1989  0.0214  0.1448
   38TAL   C185 8652   7.795   7.564  29.206 -0.2668 -0.1602  0.2829
   38TAL   C186 8653   7.748   7.653  29.316  0.9681 -0.2220  0.7551
   38TAL   C187 8654   7.781   7.617  29.462 -0.2927  0.6093  0.2212
   38TAL   C188 8655   7.929   7.638  29.497  0.5708 -0.6372  0.1346
   38TAL   C189 8656   7.985   7.780  29.518  0.5854  0.1027  0.1625
   38TAL   C190 8657   8.120   7.767  29.580  0.7041  0.4958  0.3638
   39HTM   C191 8658   7.664   7.357  29.018  0.1465 -0.2991  0.2846
   39HTM   C192 8659   7.754   7.258  29.042  0.0346 -0.3198  0.6256
   39HTM   C193 8660   7.694   7.130  29.071 -0.1054 -0.2453  0.6629
   39HTM   C194 8661   7.558   7.132  29.068 -0.1004 -0.1679  0.3503
   39HTM    S20 8662   7.494   7.297  29.029  0.0831 -0.1831 -0.0182
   40TAL   C195 8663   7.774   7.005  29.094  0.4608 -0.3526 -0.5394
   40TAL   C196 8664   7.783   6.959  29.238 -0.2657 -0.1500 -0.3319
   40TAL   C197 8665   7.891   6.851  29.272 -0.7374  0.8116 -0.2254
   40TAL   C198 8666   7.876   6.740  29.383  0.5286 -0.0103  1.1918
   40TAL   C199 8667   7.773   6.625  29.366 -0.0642 -0.3939  0.5245
   40TAL   C200 8668   7.792   6.537  29.237 -0.5172  0.3498  0.1779
   41HTM   C201 8669   7.466   7.024  29.050  0.1198  0.0287 -0.9594
   41HTM   C202 8670   7.337   7.045  29.014  0.2875  0.0931 -1.5410
   41HTM   C203 8671   7.259   6.924  29.002  0.0751  0.1785 -1.0774
   41HTM   C204 8672   7.330   6.811  29.029 -0.2548  0.1793 -0.1424
   41HTM    S21 8673   7.501   6.848  29.072 -0.3232  0.0715  0.2281
   42TAL   C205 8674   7.108   6.932  28.979  0.4369 -0.1967  0.1983
   42TAL   C206 8675   7.015   7.036  29.042 -0.5336 -0.0613  0.0333
   42TAL   C207 8676   6.884   6.970  29.054  0.6204  0.3070  0.1034
   42TAL   C208 8677   6.756   7.047  29.105  0.4734 -0.4540  0.6768
   42TAL   C209 8678   6.658   6.949  29.158  0.3341 -0.0944 -0.1021
   42TAL   C210 8679   6.627   6.968  29.307  0.6137 -0.8415 -0.5038
   43HTM   C211 8680   7.292   6.668  29.035  0.5555  0.8922  0.0155
   43HTM   C212 8681   7.173   6.604  29.051  0.2062  1.4713 -0.1848
   43HTM   C213 8682   7.185   6.461  29.061 -0.5351  1.3800 -0.4265
   43HTM   C214 8683   7.314   6.416  29.053 -0.7512  0.7312 -0.4105
   43HTM    S22 8684   7.430   6.553  29.032 -0.0294  0.1807 -0.0864
   44TAL   C215 8685   7.058   6.364  29.063  0.2818  0.1264  0.2115
   44TAL   C216 8686   7.002   6.352  28.928 -0.5199  0.6283  0.4301
   44TAL   C217 8687   6.887   6.243  28.929 -0.4773  0.7457  0.4065
   44TAL   C218 8688   6.758   6.265  29.014 -0.6452 -1.3923  0.4865
   44TAL   C219 8689   6.685   6.396  28.961  0.7767  0.1845  0.0245
   44TAL   C220 8690   6.576   6.449  29.063  0.2816  0.4480  0.4353
   45HTM   C221 8691   7.361   6.285  29.057  0.7435  0.3155  0.0536
   45HTM   C222 8692   7.344   6.183  29.146  1.0712  0.4591  0.2863
   45HTM   C223 8693   7.404   6.059  29.104  0.7731  0.3479  0.1833
   45HTM   C224 8694   7.467   6.067  28.984  0.2184  0.1196 -0.1280
   45HTM    S23 8695   7.456   6.232  28.913  0.0278  0.0263 -0.3167
   46TAL   C225 8696   7.380   5.939  29.185 -0.4613 -0.0161 -1.0396
   46TAL   C226 8697   7.247   5.875  29.142 -0.1515  0.0452  0.2436
   46TAL   C227 8698   7.185   5.754  29.209  0.1659  0.3323  0.0813
   46TAL   C228 8699   7.115   5.786  29.340  0.0478  0.0314 -0.1170
   46TAL   C229 8700   6.977   5.854  29.325  0.5766 -0.4705  0.5572
   46TAL   C230 8701   6.978   5.998  29.351  0.3296 -1.0837 -0.2481
   47HTM   C231 8702   7.545   5.970  28.907 -0.3584  0.1224 -0.1639
   47HTM   C232 8703   7.623   6.005  28.801  0.0799  0.3159  0.2161
   47HTM   C233 8704   7.686   5.893  28.736  0.7056  0.4733  0.5370
   47HTM   C234 8705   7.656   5.772  28.793  0.7443  0.3996  0.4016
   47HTM    S24 8706   7.545   5.791  28.934 -0.0123  0.1235 -0.1458
   48TAL   C235 8707   7.770   5.899  28.615  0.5860  0.1499  0.5486
   48TAL   C236 8708   7.800   5.779  28.518 -0.6368 -0.3193 -0.3240
   48TAL   C237 8709   7.921   5.814  28.434 -0.5712  0.7659  0.4311
   48TAL   C238 8710   8.026   5.712  28.394 -0.2327  0.5302 -0.8336
   48TAL   C239 8711   7.989   5.589  28.313  0.1456 -0.2066 -0.1694
   48TAL   C240 8712   8.117   5.497  28.310 -0.3757 -0.3978  0.0763
    1HTM     C1 8713   4.022   0.173   1.059  0.7515 -0.1821 -0.2759
    1HTM     C2 8714   4.044   0.270   1.153  0.5363 -0.4795  0.0865
    1HTM     C3 8715   3.959   0.385   1.138  0.1919 -0.6595  0.5947
    1HTM     C4 8716   3.872   0.376   1.033  0.1444 -0.4992  0.6199
    1HTM     S1 8717   3.892   0.220   0.944  0.5339 -0.1055 -0.0012
    2TAL     C5 8718   3.960   0.500   1.236  1.2140  0.3409 -0.6926
    2TAL     C6 8719   4.057   0.613   1.229  0.0534  0.6021  0.6717
    2TAL     C7 8720   4.138   0.645   1.360  0.3824 -0.0779 -0.9747
    2TAL     C8 8721   4.254   0.746   1.365  1.3532  0.4754 -0.0113
    2TAL     C9 8722   4.356   0.720   1.262 -0.0459 -0.0340 -0.2434
    2TAL    C10 8723   4.453   0.598   1.289  0.4015  0.0369 -0.1709
    3HTM    C11 8724   3.761   0.463   0.962  0.0912  0.2967 -0.5447
    3HTM    C12 8725   3.706   0.448   0.838 -0.1017  0.9771 -0.5462
    3HTM    C13 8726   3.605   0.547   0.808 -0.1542  1.1504  0.1503
    3HTM    C14 8727   3.584   0.636   0.908 -0.0014  0.6021  0.6829
    3HTM     S2 8728   3.689   0.603   1.050  0.2224 -0.1817  0.3434
    4TAL    C15 8729   3.530   0.559   0.682  0.4006  0.9222  1.2394
    4TAL    C16 8730   3.605   0.547   0.548  0.0245  0.3444  0.5352
    4TAL    C17 8731   3.556   0.438   0.443 -1.1689  0.6588 -1.3647
    4TAL    C18 8732   3.611   0.298   0.459 -0.5880 -0.3972 -0.2580
    4TAL    C19 8733   3.592   0.202   0.351  0.7415 -0.7273  1.0489
    4TAL    C20 8734   3.610   0.057   0.400  0.2064  0.0322 -0.7960
    5HTM    C21 8735   3.482   0.741   0.923 -0.1353  0.1920  0.1176
    5HTM    C22 8736   3.348   0.737   0.900 -0.0978  0.4065 -0.1492
    5HTM    C23 8737   3.278   0.856   0.942 -0.0378  0.3851  0.0096
    5HTM    C24 8738   3.359   0.950   0.998 -0.0297  0.1543  0.3975
    5HTM     S3 8739   3.531   0.896   1.001 -0.0977 -0.0555  0.5939
    6TAL    C25 8740   3.128   0.871   0.923 -0.7498  0.0703 -0.2687
    6TAL    C26 8741   3.045   0.858   1.050  0.3784  0.1921  0.3401
    6TAL    C27 8742   2.902   0.871   1.011  0.3853  0.2188  1.4194
    6TAL    C28 8743   2.820   0.913   1.131 -0.0514  0.2524  0.1760
    6TAL    C29 8744   2.672   0.909   1.085 -0.5435 -1.1794  1.0802
    6TAL    C30 8745   2.589   0.931   1.206  1.1442  0.7375 -0.4291
    7HTM    C31 8746   3.319   1.067   1.074  0.2435 -0.1233 -0.3206
    7HTM    C32 8747   3.318   1.088   1.208  0.4923 -0.2880 -0.2915
    7HTM    C33 8748   3.277   1.221   1.246  0.6238 -0.3135 -0.0550
    7HTM    C34 8749   3.247   1.301   1.140  0.4752 -0.1681  0.0962
    7HTM     S4 8750   3.268   1.215   0.983  0.1552  0.0136 -0.0494
    8TAL    C35 8751   3.285   1.262   1.390 -0.8928  0.0147 -1.0226
    8TAL    C36 8752   3.159   1.232   1.473 -0.8101  1.3259  0.3247
    8TAL    C37 8753   3.173   1.236   1.624 -0.7654 -0.6857 -0.3079
    8TAL    C38 8754   3.047   1.188   1.705 -0.2407 -1.0380  0.1425
    8TAL    C39 8755   3.079   1.078   1.808  1.6101 -0.1055 -0.4259
    8TAL    C40 8756   3.175   1.131   1.925 -0.4463  0.7179  0.0414
    9HTM    C41 8757   3.198   1.437   1.125  0.3379  0.1172 -0.1619
    9HTM    C42 8758   3.129   1.515   1.212 -0.1280 -0.1725 -0.2628
    9HTM    C43 8759   3.077   1.636   1.153 -0.6515 -0.4436 -0.3650
    9HTM    C44 8760   3.106   1.649   1.021 -0.5848 -0.3606 -0.3421
    9HTM     S5 8761   3.203   1.510   0.960  0.1501  0.0697 -0.1884
   10TAL    C45 8762   2.988   1.723   1.243  0.5042 -0.1363 -0.4550
   10TAL    C46 8763   2.942   1.872   1.218 -0.0065 -0.5030  0.1864
   10TAL    C47 8764   2.843   1.936   1.320 -0.4686 -0.2527 -0.1646
   10TAL    C48 8765   2.910   2.044   1.416  0.4776 -0.5002 -0.2682
   10TAL    C49 8766   2.970   2.168   1.350  0.1432 -0.1224  1.1085
   10TAL    C50 8767   3.019   2.275   1.444  0.1901  0.0655 -0.2637
   11HTM    C51 8768   3.068   1.752   0.923 -0.4469  0.2192  0.1613
   11HTM    C52 8769   2.948   1.762   0.859 -0.2257 -0.1661 -0.3335
   11HTM    C53 8770   2.944   1.864   0.758 -0.0004 -0.4901 -0.6706
   11HTM    C54 8771   3.062   1.931   0.743 -0.0499 -0.3518 -0.4327
   11HTM     S6 8772   3.187   1.871   0.858 -0.3874  0.2027  0.2406
   12TAL    C55 8773   2.823   1.894   0.682  0.3396  1.2669  0.2574
   12TAL    C56 8774   2.715   1.966   0.753  0.6535  0.3101  0.1077
   12TAL    C57 8775   2.588   1.977   0.657  0.2298 -0.0271 -0.3747
   12TAL    C58 8776   2.585   2.079   0.538  0.9721  0.7355 -0.1699
   12TAL    C59 8777   2.508   2.014   0.420 -0.5522 -0.7756  0.2614
   12TAL    C60 8778   2.495   2.110   0.307  0.1054  0.3733  0.8217
   13HTM    C61 8779   3.113   2.035   0.654 -0.2573  0.7082  0.0458
   13HTM    C62 8780   3.046   2.106   0.558 -0.0008  0.9667  0.0567
   13HTM    C63 8781   3.128   2.205   0.492  0.4591  0.4483 -0.1676
   13HTM    C64 8782   3.256   2.209   0.537  0.5533 -0.2055 -0.3495
   13HTM     S7 8783   3.285   2.088   0.668  0.0645 -0.2171 -0.2508
   14TAL    C65 8784   3.070   2.314   0.392 -0.4861  1.2958  0.3521
   14TAL    C66 8785   2.927   2.319   0.374  0.8563 -0.0493  0.2718
   14TAL    C67 8786   2.879   2.367   0.237 -1.2051  0.2356  0.4924
   14TAL    C68 8787   2.911   2.510   0.190  0.4114  0.0633 -0.8449
   14TAL    C69 8788   2.855   2.624   0.276 -0.2821  0.2498  0.2369
   14TAL    C70 8789   2.702   2.618   0.294  0.1053  0.0486  0.1660
   15HTM    C71 8790   3.359   2.301   0.503  0.0416  0.4171  0.2596
   15HTM    C72 8791   3.418   2.324   0.382 -0.5369  0.7178  0.0306
   15HTM    C73 8792   3.534   2.409   0.390 -0.3884  0.5442 -0.2908
   15HTM    C74 8793   3.565   2.449   0.516  0.3033  0.1112 -0.3068
   15HTM     S8 8794   3.448   2.384   0.637  0.8248 -0.1128  0.0859
   16TAL    C75 8795   3.600   2.445   0.264 -0.2384  0.3564 -0.3625
   16TAL    C76 8796   3.504   2.497   0.148 -0.4155  0.9145  0.5690
   16TAL    C77 8797   3.572   2.552   0.021 -0.2354 -0.0087 -0.1657
   16TAL    C78 8798   3.640   2.684   0.054 -1.3187 -0.5405  0.1786
   16TAL    C79 8799   3.558   2.790   0.120  0.0683 -0.1342 -0.1828
   16TAL    C80 8800   3.604   2.949   0.134  0.0632 -0.1330  0.5482
   17HTM    C81 8801   3.691   2.515   0.558  0.3177  0.2562 -0.0241
   17HTM    C82 8802   3.805   2.459   0.609  0.1064  0.1144  0.2996
   17HTM    C83 8803   3.904   2.555   0.648  0.0680 -0.0057  0.6998
   17HTM    C84 8804   3.867   2.685   0.628  0.2502  0.0446  0.6814
   17HTM     S9 8805   3.702   2.695   0.556  0.4861  0.2490  0.1530
   18TAL    C85 8806   4.021   2.499   0.724  1.0298  0.7425 -0.4660
   18TAL    C86 8807   4.162   2.557   0.702 -0.6141 -0.0791 -0.1597
   18TAL    C87 8808   4.213   2.556   0.555 -0.4680 -0.2621  0.5450
   18TAL    C88 8809   4.331   2.450   0.551  0.8060 -0.3751 -0.3509
   18TAL    C89 8810   4.473   2.503   0.570 -0.7217  0.6142  0.2604
   18TAL    C90 8811   4.581   2.396   0.614  1.6453  0.3033  0.9608
   19HTM    C91 8812   3.936   2.811   0.633 -0.4758  0.7677  0.7998
   19HTM    C92 8813   4.018   2.871   0.723 -0.2257  1.0145  0.4156
   19HTM    C93 8814   4.072   2.997   0.679  0.3713  0.4832 -0.4453
   19HTM    C94 8815   4.030   3.034   0.555  0.5764 -0.1687 -0.7176
   19HTM    S10 8816   3.918   2.911   0.483  0.0274 -0.1621  0.0986
   20TAL    C95 8817   4.186   3.067   0.757  0.0878 -0.2974 -0.0569
   20TAL    C96 8818   4.315   2.986   0.793 -0.6882 -0.0829  0.2622
   20TAL    C97 8819   4.399   2.976   0.665  0.9844 -0.6192  0.1120
   20TAL    C98 8820   4.533   2.914   0.674 -0.5913 -0.3812 -0.2019
   20TAL    C99 8821   4.647   2.998   0.737 -0.6587  0.6583 -0.4384
   20TAL   C100 8822   4.765   2.896   0.744  0.5011  0.1574  0.6827
   21HTM   C101 8823   4.079   3.130   0.460  0.6181  0.0208  0.6001
   21HTM   C102 8824   4.065   3.116   0.325  0.4009 -0.7294  0.6881
   21HTM   C103 8825   4.105   3.233   0.250 -0.2159 -0.9354  0.0061
   21HTM   C104 8826   4.151   3.335   0.329 -0.4689 -0.3422 -0.6018
   21HTM    S11 8827   4.146   3.292   0.504  0.0561  0.5294 -0.3583
   22TAL   C105 8828   4.110   3.221   0.101 -0.7927 -0.0621  1.1700
   22TAL   C106 8829   4.006   3.137   0.020  0.0061  0.6129 -0.2530
   22TAL   C107 8830   4.052   3.149  -0.128  0.3021 -0.0615 -0.3768
   22TAL   C108 8831   4.176   3.071  -0.160  0.3372 -0.4969 -1.5621
   22TAL   C109 8832   4.160   2.917  -0.140 -0.0258 -0.1963  0.2630
   22TAL   C110 8833   4.291   2.855  -0.108  0.6640  1.0490  0.2974
   23HTM   C111 8834   4.196   3.468   0.293 -0.6965  0.2402 -0.1989
   23HTM   C112 8835   4.259   3.551   0.380 -1.0121  0.2218  0.0483
   23HTM   C113 8836   4.287   3.682   0.327 -0.7142  0.1954  0.1332
   23HTM   C114 8837   4.245   3.698   0.198 -0.1714  0.1937 -0.0493
   23HTM    S12 8838   4.167   3.549   0.134  0.0071  0.2256 -0.3449
   24TAL   C115 8839   4.354   3.783   0.424 -0.0644  0.2664 -0.7040
   24TAL   C116 8840   4.429   3.734   0.553 -0.0927 -0.4474  0.9049
   24TAL   C117 8841   4.581   3.704   0.543  1.1211 -0.7955 -0.2625
   24TAL   C118 8842   4.606   3.563   0.475 -0.3293 -0.4978 -0.8619
   24TAL   C119 8843   4.606   3.457   0.581  0.0382  0.3513  0.3196
   24TAL   C120 8844   4.598   3.317   0.528  0.9247 -0.0483 -0.4755
   25HTM   C121 8845   4.262   3.809   0.092  0.4323  0.1502  0.6999
   25HTM   C122 8846   4.167   3.877   0.021  0.2331  0.7835  1.5460
   25HTM   C123 8847   4.221   3.976  -0.069  0.0582  0.7850  1.4420
   25HTM   C124 8848   4.358   3.983  -0.067  0.1240  0.1527  0.5155
   25HTM    S13 8849   4.428   3.865   0.050  0.4142 -0.4986 -0.3028
   26TAL   C125 8850   4.118   4.037  -0.160 -0.3482  0.5705  0.4894
   26TAL   C126 8851   3.982   4.081  -0.122  0.3695  0.6286  0.5383
   26TAL   C127 8852   3.873   4.136  -0.219 -0.7782 -0.0352  0.5275
   26TAL   C128 8853   3.820   4.019  -0.289  0.6896 -0.4664 -0.1811
   26TAL   C129 8854   3.735   4.037  -0.414 -0.2069 -0.3002  0.3237
   26TAL   C130 8855   3.746   3.913  -0.503 -0.8114  0.3393  0.3078
   27HTM   C131 8856   4.446   4.050  -0.162  0.4636 -0.0279  0.4236
   27HTM   C132 8857   4.577   4.081  -0.141  0.6045 -0.2424 -0.1030
   27HTM   C133 8858   4.641   4.146  -0.253  0.2774 -0.3935 -0.3810
   27HTM   C134 8859   4.558   4.165  -0.359 -0.1128 -0.2947 -0.0659
   27HTM    S14 8860   4.392   4.102  -0.327 -0.0974 -0.0004  0.6120
   28TAL   C135 8861   4.781   4.197  -0.240 -0.7306  0.3231  0.5650
   28TAL   C136 8862   4.810   4.312  -0.138  0.0842 -0.5086 -1.0479
   28TAL   C137 8863   4.767   4.451  -0.170  1.2174  0.1593  0.3386
   28TAL   C138 8864   4.853   4.537  -0.080  0.1441  0.3730  0.0798
   28TAL   C139 8865   4.822   4.688  -0.080  0.2943 -0.0551 -0.0960
   28TAL   C140 8866   4.724   4.728   0.032 -0.2306 -0.3812  0.2605
   29HTM   C141 8867   4.586   4.202  -0.494 -0.3291 -0.0758  0.6715
   29HTM   C142 8868   4.546   4.130  -0.602  0.1959 -0.7373  0.9060
   29HTM   C143 8869   4.578   4.192  -0.728  0.5362 -1.3583  0.6762
   29HTM   C144 8870   4.642   4.312  -0.716  0.2709 -1.1703  0.2664
   29HTM    S15 8871   4.668   4.356  -0.543 -0.4350 -0.1865  0.1387
   30TAL   C145 8872   4.524   4.131  -0.854  0.0792  0.3155 -0.1205
   30TAL   C146 8873   4.373   4.110  -0.864  0.7738  0.6052 -0.6820
   30TAL   C147 8874   4.277   4.219  -0.826  0.4964 -0.3390  0.0872
   30TAL   C148 8875   4.139   4.176  -0.808 -0.3342 -0.7627  0.7779
   30TAL   C149 8876   4.047   4.275  -0.734  0.2255  0.5947  0.8073
   30TAL   C150 8877   3.907   4.214  -0.735 -0.0933  0.1087  0.4174
   31HTM   C151 8878   4.685   4.404  -0.821  0.1717 -0.0125  0.4617
   31HTM   C152 8879   4.622   4.514  -0.869 -0.5306 -0.5977 -0.0033
   31HTM   C153 8880   4.695   4.584  -0.971 -1.0415 -0.6413 -0.4067
   31HTM   C154 8881   4.815   4.527  -1.002 -0.7288 -0.0894 -0.2488
   31HTM    S16 8882   4.844   4.379  -0.903  0.2427  0.5331  0.4262
   32TAL   C155 8883   4.658   4.716  -1.019 -0.0179 -0.1167  0.3698
   32TAL   C156 8884   4.527   4.774  -0.969 -0.2866  0.4187 -0.3404
   32TAL   C157 8885   4.464   4.895  -1.038  0.0335 -0.0828  0.6884
   32TAL   C158 8886   4.321   4.930  -0.997 -0.4851  0.3447  0.3199
   32TAL   C159 8887   4.292   4.979  -0.853 -0.0162 -0.1918  0.3667
   32TAL   C160 8888   4.385   5.066  -0.785 -0.4686 -1.2976 -0.2680
   33HTM   C161 8889   4.905   4.554  -1.104 -0.4182  0.1177  0.2347
   33HTM   C162 8890   5.039   4.577  -1.095 -0.4628  0.2526  0.6104
   33HTM   C163 8891   5.108   4.568  -1.222 -0.1303  0.5288  0.7677
   33HTM   C164 8892   5.026   4.538  -1.327  0.1676  0.6047  0.5105
   33HTM    S17 8893   4.854   4.519  -1.273  0.0506  0.3309  0.0467
   34TAL   C165 8894   5.251   4.600  -1.227 -1.0062  0.4599 -0.0608
   34TAL   C166 8895   5.295   4.742  -1.241 -0.4396  0.0910  0.2378
   34TAL   C167 8896   5.282   4.826  -1.376 -1.2800 -0.3396 -0.6571
   34TAL   C168 8897   5.350   4.970  -1.361 -0.1297  0.3024 -0.7269
   34TAL   C169 8898   5.371   5.047  -1.479  0.1527  0.8031  0.7561
   34TAL   C170 8899   5.494   5.133  -1.454  0.2430  0.3210  0.0061
   35HTM   C171 8900   5.046   4.512  -1.465 -0.4264 -0.0806  0.0638
   35HTM   C172 8901   5.104   4.593  -1.559 -0.5220 -0.1719 -0.0734
   35HTM   C173 8902   5.134   4.525  -1.683 -0.5040 -0.3319  0.0176
   35HTM   C174 8903   5.099   4.394  -1.683 -0.3945 -0.3624  0.2242
   35HTM    S18 8904   5.026   4.343  -1.527 -0.3052 -0.1904  0.3213
   36TAL   C175 8905   5.202   4.594  -1.793  0.3425 -1.5473  0.0780
   36TAL   C176 8906   5.128   4.712  -1.858  0.3375 -1.7429  0.0913
   36TAL   C177 8907   5.209   4.774  -1.973 -0.2130 -0.3261 -0.3724
   36TAL   C178 8908   5.167   4.912  -2.017  0.6384 -0.5222 -0.7229
   36TAL   C179 8909   5.211   5.040  -1.925  1.1575  0.8582 -0.5772
   36TAL   C180 8910   5.100   5.079  -1.830  0.1012  0.5166 -0.6426
   37HTM   C181 8911   5.126   4.275  -1.776  0.4994 -0.3265  0.2986
   37HTM   C182 8912   5.147   4.148  -1.733  0.4946 -0.4879 -0.1721
   37HTM   C183 8913   5.156   4.052  -1.840 -0.3390 -0.2234 -0.4940
   37HTM   C184 8914   5.141   4.106  -1.964 -0.9702  0.1394 -0.2690
   37HTM    S19 8915   5.115   4.284  -1.956 -0.5571  0.1758  0.3721
   38TAL   C185 8916   5.179   3.907  -1.801 -1.0556  0.4744 -1.0698
   38TAL   C186 8917   5.287   3.874  -1.680  0.6458 -0.5701 -0.1765
   38TAL   C187 8918   5.264   3.939  -1.538  0.6185  0.2264  0.7415
   38TAL   C188 8919   5.367   3.883  -1.431 -0.5602 -0.6879  0.1748
   38TAL   C189 8920   5.347   3.749  -1.376 -0.7237  0.8247 -0.4234
   38TAL   C190 8921   5.452   3.723  -1.269 -0.0684  0.3026  0.7060
   39HTM   C191 8922   5.142   4.045  -2.094  0.6155 -0.1441 -0.0694
   39HTM   C192 8923   5.131   4.114  -2.212  1.1414 -0.2905 -0.2098
   39HTM   C193 8924   5.121   4.029  -2.328  0.7424 -0.4530 -0.0601
   39HTM   C194 8925   5.125   3.895  -2.298 -0.0880 -0.4303  0.1960
   39HTM    S20 8926   5.141   3.867  -2.121 -0.4329 -0.2003  0.2667
   40TAL   C195 8927   5.097   4.083  -2.468 -0.5530 -0.2665  0.5085
   40TAL   C196 8928   4.960   4.129  -2.510 -0.2151 -0.5914 -0.2315
   40TAL   C197 8929   4.881   4.021  -2.564  0.4297 -0.1657  0.9249
   40TAL   C198 8930   4.748   4.053  -2.625  0.0377 -0.8846 -0.4560
   40TAL   C199 8931   4.648   3.947  -2.662  0.1157 -0.1614  0.9131
   40TAL   C200 8932   4.684   3.841  -2.762 -1.1250  0.1361  0.3424
   41HTM   C201 8933   5.112   3.769  -2.367 -0.5311 -0.0553 -0.0675
   41HTM   C202 8934   5.014   3.724  -2.450 -0.7709 -0.3430  0.3633
   41HTM   C203 8935   5.028   3.585  -2.487 -0.6967 -0.3829  0.5431
   41HTM   C204 8936   5.137   3.525  -2.431 -0.4003 -0.1257  0.2486
   41HTM    S21 8937   5.231   3.639  -2.328 -0.1901  0.1894 -0.2819
   42TAL   C205 8938   4.917   3.529  -2.563  0.6286  1.0646 -0.0742
   42TAL   C206 8939   4.903   3.561  -2.709  0.6698 -0.3576 -0.7463
   42TAL   C207 8940   5.025   3.533  -2.793 -0.7307 -0.3802  0.2716
   42TAL   C208 8941   5.116   3.663  -2.810  0.1713 -0.2274 -0.3620
   42TAL   C209 8942   5.243   3.623  -2.869 -1.0267 -0.3171  0.4069
   42TAL   C210 8943   5.348   3.535  -2.790 -0.6299  0.0463  0.6037
   43HTM   C211 8944   5.181   3.386  -2.433 -0.6755 -0.3248  0.3639
   43HTM   C212 8945   5.150   3.296  -2.531 -0.4135 -0.3855  0.3357
   43HTM   C213 8946   5.215   3.169  -2.516  0.3031 -0.0591  0.0525
   43HTM   C214 8947   5.297   3.161  -2.407  0.5876  0.2503 -0.1344
   43HTM    S22 8948   5.296   3.316  -2.314 -0.0325  0.1529  0.0332
   44TAL   C215 8949   5.209   3.046  -2.613  0.0988 -0.0941  0.9075
   44TAL   C216 8950   5.086   2.981  -2.671  0.4251  0.6086  0.1610
   44TAL   C217 8951   5.100   2.845  -2.750 -0.6160 -0.0937  0.0400
   44TAL   C218 8952   5.186   2.866  -2.881 -0.3892  0.4940 -0.5698
   44TAL   C219 8953   5.148   2.956  -2.998  0.3884 -0.6643 -0.5339
   44TAL   C220 8954   4.995   2.974  -3.034 -0.0958 -0.6780 -0.6836
   45HTM   C221 8955   5.382   3.059  -2.350 -0.2518  0.2237 -0.0368
   45HTM   C222 8956   5.458   2.958  -2.402  0.5900  0.8492 -0.0620
   45HTM   C223 8957   5.512   2.869  -2.302  1.1977  1.1771 -0.0949
   45HTM   C224 8958   5.478   2.902  -2.174  0.8192  0.8017 -0.0943
   45HTM    S23 8959   5.373   3.049  -2.170 -0.3433 -0.0015 -0.0524
   46TAL   C225 8960   5.592   2.749  -2.357 -0.1974 -0.2550 -1.8034
   46TAL   C226 8961   5.535   2.667  -2.477 -0.4810 -0.3863 -1.4505
   46TAL   C227 8962   5.537   2.517  -2.466  0.5378 -0.4433 -0.4407
   46TAL   C228 8963   5.446   2.451  -2.366  0.6844  0.0566  1.2210
   46TAL   C229 8964   5.455   2.300  -2.361  0.6456  0.4409  0.2444
   46TAL   C230 8965   5.432   2.244  -2.224  0.2115  0.0970  0.1556
   47HTM   C231 8966   5.503   2.839  -2.048  0.8648  0.0019 -0.1924
   47HTM   C232 8967   5.544   2.709  -2.040  1.3343  0.1426 -0.2341
   47HTM   C233 8968   5.553   2.660  -1.905  1.2007  0.0356 -0.2651
   47HTM   C234 8969   5.519   2.751  -1.810  0.6293 -0.1867 -0.2467
   47HTM    S24 8970   5.473   2.909  -1.884  0.2126 -0.2788 -0.1885
   48TAL   C235 8971   5.603   2.528  -1.888 -0.1101 -0.0812 -0.8409
   48TAL   C236 8972   5.729   2.486  -1.821 -0.3412  0.3297 -0.4504
   48TAL   C237 8973   5.866   2.541  -1.882  0.3156 -0.7030 -1.2333
   48TAL   C238 8974   5.884   2.551  -2.040 -0.0742 -0.3086  0.3644
   48TAL   C239 8975   5.986   2.651  -2.084  0.1071  0.5916  0.0007
   48TAL   C240 8976   5.941   2.712  -2.207 -0.2062 -0.1595 -0.2530
    1HTM     C1 8977   5.224   5.681  11.141 -0.1455 -0.3490 -0.0946
    1HTM     C2 8978   5.334   5.701  11.218 -0.1862 -0.1491 -0.0875
    1HTM     C3 8979   5.339   5.831  11.280 -0.3560 -0.0894 -0.1991
    1HTM     C4 8980   5.232   5.910  11.249 -0.4447 -0.2437 -0.2915
    1HTM     S1 8981   5.117   5.826  11.139 -0.3196 -0.4781 -0.2441
    2TAL     C5 8982   5.428   5.859  11.399  0.0419 -0.5132 -0.5225
    2TAL     C6 8983   5.441   5.758  11.513 -0.5258  0.1997  0.0293
    2TAL     C7 8984   5.557   5.781  11.607 -0.0195  0.1112 -0.0952
    2TAL     C8 8985   5.563   5.668  11.709 -0.4507 -0.7209  0.0235
    2TAL     C9 8986   5.698   5.643  11.782  0.7150 -1.5178  0.3684
    2TAL    C10 8987   5.739   5.499  11.778 -0.3061 -0.8939  0.5960
    3HTM    C11 8988   5.184   6.047  11.287 -0.0617  0.9323 -0.1144
    3HTM    C12 8989   5.190   6.098  11.413 -0.9570  0.5956  0.0794
    3HTM    C13 8990   5.118   6.222  11.428 -1.4912  0.2950  0.0393
    3HTM    C14 8991   5.057   6.265  11.314 -1.0032  0.4029 -0.1852
    3HTM     S2 8992   5.086   6.151  11.177  0.1781  0.8957 -0.3645
    4TAL    C15 8993   5.134   6.284  11.576 -0.1949  0.9068  0.9379
    4TAL    C16 8994   5.274   6.351  11.610  0.2066 -0.3720  0.3154
    4TAL    C17 8995   5.335   6.456  11.509  1.0269  0.1368 -0.1548
    4TAL    C18 8996   5.483   6.480  11.520  0.1834 -0.0041  0.9242
    4TAL    C19 8997   5.526   6.606  11.440 -0.5771  0.7407 -0.6345
    4TAL    C20 8998   5.678   6.619  11.463  0.7068 -0.5730 -0.4098
    5HTM    C21 8999   4.973   6.386  11.298 -0.3050 -0.0045  0.1238
    5HTM    C22 9000   4.944   6.437  11.175 -0.9561 -0.5647  0.0281
    5HTM    C23 9001   4.901   6.574  11.178 -1.1848 -0.6258 -0.3500
    5HTM    C24 9002   4.896   6.628  11.303 -0.7082 -0.1122 -0.5430
    5HTM     S3 9003   4.947   6.508  11.428  0.0722  0.4933 -0.2596
    6TAL    C25 9004   4.876   6.647  11.048  0.6990  0.4232 -0.2772
    6TAL    C26 9005   4.961   6.642  10.926 -0.2608 -0.2407  0.1539
    6TAL    C27 9006   5.110   6.684  10.933 -0.2295  0.9467  0.5528
    6TAL    C28 9007   5.174   6.656  10.800 -0.8400  0.2928  0.1087
    6TAL    C29 9008   5.163   6.519  10.736 -0.4380  0.0505  1.1383
    6TAL    C30 9009   5.202   6.499  10.591  0.3154 -1.2159  0.5040
    7HTM    C31 9010   4.841   6.759  11.352  0.3181  0.0189 -0.3509
    7HTM    C32 9011   4.739   6.829  11.296  0.0688 -0.4244 -0.4609
    7HTM    C33 9012   4.700   6.946  11.371 -0.6405 -0.6827 -0.4091
    7HTM    C34 9013   4.773   6.964  11.485 -0.9319 -0.4366 -0.2599
    7HTM     S4 9014   4.897   6.835  11.506 -0.3284  0.1451 -0.1721
    8TAL    C35 9015   4.583   7.032  11.330 -0.1688  0.4515 -0.9874
    8TAL    C36 9016   4.560   7.060  11.187 -0.4995 -0.0315  0.4715
    8TAL    C37 9017   4.646   7.157  11.102  0.5059 -0.3736 -0.6262
    8TAL    C38 9018   4.565   7.192  10.984 -0.2540 -0.3836 -0.3642
    8TAL    C39 9019   4.621   7.279  10.876  0.8060  0.0758  0.0704
    8TAL    C40 9020   4.506   7.323  10.787 -0.4185  0.2906 -0.2100
    9HTM    C41 9021   4.775   7.073  11.587  0.3553  0.0127  0.0075
    9HTM    C42 9022   4.730   7.202  11.578  0.7969  0.1570 -0.2127
    9HTM    C43 9023   4.764   7.283  11.692  0.8434  0.1593 -0.2282
    9HTM    C44 9024   4.836   7.216  11.787  0.4372  0.0165 -0.0202
    9HTM     S5 9025   4.865   7.044  11.740 -0.0390 -0.1329  0.2139
   10TAL    C45 9026   4.730   7.428  11.684  0.0989 -1.1216 -0.1157
   10TAL    C46 9027   4.828   7.520  11.610  0.2040 -0.1728  0.6065
   10TAL    C47 9028   4.824   7.673  11.642 -1.3504  0.8107 -0.3811
   10TAL    C48 9029   4.925   7.739  11.564 -0.8389 -0.3477  0.9180
   10TAL    C49 9030   5.004   7.857  11.607  0.0701  0.8559 -0.1484
   10TAL    C50 9031   5.109   7.836  11.710  0.7255  0.7041  0.0167
   11HTM    C51 9032   4.900   7.269  11.908  0.2143 -0.0607  0.0548
   11HTM    C52 9033   4.959   7.390  11.928  1.1197 -0.4095 -0.3617
   11HTM    C53 9034   5.020   7.405  12.057  1.5634 -0.5488 -0.5543
   11HTM    C54 9035   5.009   7.294  12.136  0.9960 -0.3066 -0.2841
   11HTM     S6 9036   4.919   7.162  12.052 -0.1514  0.1198  0.2384
   12TAL    C55 9037   5.076   7.536  12.110  0.6968 -0.9195  0.8483
   12TAL    C56 9038   4.993   7.662  12.102 -0.1212 -0.1781  0.0217
   12TAL    C57 9039   4.875   7.644  12.177  1.1365 -0.0424 -0.7387
   12TAL    C58 9040   4.775   7.750  12.153  0.5105 -0.0671 -0.5920
   12TAL    C59 9041   4.641   7.713  12.212  0.7365 -0.1982 -0.0445
   12TAL    C60 9042   4.531   7.813  12.189  0.1187  0.5344 -0.0919
   13HTM    C61 9043   5.032   7.266  12.276 -0.6318  0.1481  0.0564
   13HTM    C62 9044   4.978   7.170  12.356 -1.2734  0.6324  0.2291
   13HTM    C63 9045   5.013   7.182  12.495 -1.0175  0.5329  0.1745
   13HTM    C64 9046   5.094   7.289  12.521 -0.1807 -0.0272 -0.0401
   13HTM     S7 9047   5.132   7.382  12.372  0.3534 -0.4759 -0.1909
   14TAL    C65 9048   4.958   7.068  12.583  0.2856 -0.1881  0.5147
   14TAL    C66 9049   4.998   6.924  12.554  0.1286  0.1044 -0.3924
   14TAL    C67 9050   4.943   6.828  12.661  0.1162 -0.2419  1.0515
   14TAL    C68 9051   5.042   6.774  12.755  0.2236  0.3220  0.3086
   14TAL    C69 9052   4.988   6.721  12.883  0.3912  1.2178  0.0239
   14TAL    C70 9053   5.097   6.647  12.963  0.7019  0.2653 -0.1135
   15HTM    C71 9054   5.174   7.303  12.642  0.1784  0.0893  0.0397
   15HTM    C72 9055   5.179   7.232  12.758  0.0336  0.2818  0.1636
   15HTM    C73 9056   5.287   7.270  12.845 -0.0558  0.4039  0.2222
   15HTM    C74 9057   5.365   7.370  12.794  0.0207  0.3045  0.1428
   15HTM     S8 9058   5.307   7.424  12.632  0.2131  0.0471 -0.0135
   16TAL    C75 9059   5.298   7.225  12.987  1.3740 -0.4958  0.4880
   16TAL    C76 9060   5.266   7.076  13.010 -0.5749 -0.2851 -0.6783
   16TAL    C77 9061   5.261   7.046  13.154  0.3385  0.9185  0.4184
   16TAL    C78 9062   5.175   6.925  13.194  0.0595 -0.5103 -0.0073
   16TAL    C79 9063   5.188   6.885  13.337 -0.7882 -0.4735 -0.8675
   16TAL    C80 9064   5.328   6.833  13.385 -0.2952  0.6920  0.7111
   17HTM    C81 9065   5.494   7.428  12.833  0.1831 -0.0377  0.0657
   17HTM    C82 9066   5.612   7.412  12.766  0.2526 -0.1590  0.2158
   17HTM    C83 9067   5.723   7.481  12.828  0.2242 -0.1918  0.3028
   17HTM    C84 9068   5.689   7.548  12.942  0.1333 -0.0955  0.2193
   17HTM     S9 9069   5.514   7.530  12.980  0.0757  0.0452  0.0221
   18TAL    C85 9070   5.861   7.506  12.766 -0.0211  0.1908 -0.1144
   18TAL    C86 9071   5.877   7.437  12.628 -0.3143 -0.4541 -0.2384
   18TAL    C87 9072   5.967   7.510  12.528 -0.3169  0.2567  0.3183
   18TAL    C88 9073   6.121   7.495  12.563  1.0715 -0.6683  0.7390
   18TAL    C89 9074   6.215   7.540  12.455 -0.2149 -0.4077 -0.0870
   18TAL    C90 9075   6.370   7.502  12.482  0.0588  0.2434  0.5619
   19HTM    C91 9076   5.759   7.647  13.030  0.5462  0.4480 -0.1355
   19HTM    C92 9077   5.891   7.667  13.054  0.5002  1.0304 -0.3271
   19HTM    C93 9078   5.919   7.785  13.132  0.1187  1.2948 -0.5867
   19HTM    C94 9079   5.807   7.856  13.167 -0.1262  0.9140 -0.5938
   19HTM    S10 9080   5.658   7.777  13.103  0.1077  0.1863 -0.2697
   20TAL    C95 9081   6.058   7.825  13.164  0.4995 -0.1258  0.5707
   20TAL    C96 9082   6.196   7.764  13.111  1.1731 -1.3250 -0.1138
   20TAL    C97 9083   6.213   7.766  12.963 -0.0949 -0.6799  0.5182
   20TAL    C98 9084   6.143   7.871  12.878 -0.2821 -0.3305  0.1683
   20TAL    C99 9085   6.125   7.831  12.735 -0.2137  0.8702 -1.0365
   20TAL   C100 9086   6.040   7.929  12.669  0.6175  0.0468 -1.3484
   21HTM   C101 9087   5.796   7.983  13.219 -0.1155 -0.1930  0.4471
   21HTM   C102 9088   5.713   8.087  13.187 -0.0595 -0.2665  0.0541
   21HTM   C103 9089   5.731   8.203  13.270  0.1279  0.1079 -0.5002
   21HTM   C104 9090   5.828   8.188  13.366  0.2150  0.4667 -0.5297
   21HTM    S11 9091   5.904   8.025  13.358  0.0657  0.3589  0.1456
   22TAL   C105 9092   5.636   8.329  13.254 -0.1730  0.6031  0.2985
   22TAL   C106 9093   5.632   8.387  13.105  0.6067 -0.9786  0.6787
   22TAL   C107 9094   5.766   8.447  13.054  0.4643 -0.0840  0.4015
   22TAL   C108 9095   5.841   8.555  13.146  0.3595 -0.2086  0.6772
   22TAL   C109 9096   5.777   8.687  13.173  0.4928 -1.3400  0.2849
   22TAL   C110 9097   5.861   8.789  13.261 -0.4258  0.5222 -0.5265
   23HTM   C111 9098   5.879   8.299  13.448 -0.0167 -0.0252 -0.3247
   23HTM   C112 9099   6.005   8.302  13.499  0.0026  0.0836 -0.3772
   23HTM   C113 9100   6.030   8.413  13.586 -0.1397 -0.0398 -0.1776
   23HTM   C114 9101   5.923   8.496  13.602 -0.2672 -0.2426  0.0266
   23HTM    S12 9102   5.780   8.439  13.507 -0.2174 -0.2939 -0.0170
   24TAL   C115 9103   6.162   8.427  13.663 -0.5022  0.7564  0.5519
   24TAL   C116 9104   6.144   8.398  13.810  0.8437  0.2176 -0.3654
   24TAL   C117 9105   6.191   8.254  13.862  0.4714 -0.3551  0.7654
   24TAL   C118 9106   6.132   8.253  14.003 -0.8758  0.0059 -0.3440
   24TAL   C119 9107   6.160   8.135  14.096 -0.2509 -0.8691  0.0491
   24TAL   C120 9108   6.285   8.149  14.189  0.0021 -0.1029 -0.1146
   25HTM   C121 9109   5.909   8.640  13.645 -0.2060 -0.0393  0.4191
   25HTM   C122 9110   5.805   8.727  13.629 -0.1811 -0.0158  0.3836
   25HTM   C123 9111   5.836   8.863  13.663 -0.0743  0.0298  0.1121
   25HTM   C124 9112   5.964   8.880  13.706 -0.0178  0.0410 -0.0596
   25HTM    S13 9113   6.056   8.725  13.706 -0.0959 -0.0056  0.1099
   26TAL   C125 9114   5.734   8.976  13.650  0.5259 -0.2355 -1.3507
   26TAL   C126 9115   5.761   9.076  13.537  0.2129  1.6810  0.9401
   26TAL   C127 9116   5.646   9.141  13.473 -0.5490  0.9664  0.6238
   26TAL   C128 9117   5.685   9.236  13.358 -0.9257 -0.4986  0.3727
   26TAL   C129 9118   5.769   9.360  13.372 -0.0313 -1.2380  0.5897
   26TAL   C130 9119   5.743   9.456  13.489  1.0157 -0.2651  0.3975
   27HTM   C131 9120   6.037   8.992  13.757 -0.1103  0.5560  0.1237
   27HTM   C132 9121   6.047   9.043  13.883 -0.0184  0.7412  0.0434
   27HTM   C133 9122   6.145   9.148  13.896  0.2664  0.4962 -0.0987
   27HTM   C134 9123   6.209   9.177  13.780  0.3919  0.1242 -0.1264
   27HTM    S14 9124   6.151   9.074  13.644  0.1581  0.0538  0.0258
   28TAL   C135 9125   6.174   9.211  14.032 -0.2046 -0.6251  0.7786
   28TAL   C136 9126   6.067   9.308  14.091 -0.0670  0.2083  0.3140
   28TAL   C137 9127   5.945   9.239  14.162  0.9660 -0.6408 -1.5101
   28TAL   C138 9128   5.969   9.134  14.270 -0.6420  0.8457 -0.4168
   28TAL   C139 9129   5.824   9.091  14.317  0.0324  0.4541  0.2063
   28TAL   C140 9130   5.740   8.975  14.259  0.1154 -0.6058 -0.8903
   29HTM   C141 9131   6.294   9.292  13.743 -0.1779  0.0287 -0.3019
   29HTM   C142 9132   6.285   9.383  13.642 -0.1235 -0.1554 -0.4733
   29HTM   C143 9133   6.378   9.492  13.653 -0.2333 -0.0548 -0.5403
   29HTM   C144 9134   6.458   9.485  13.763 -0.3713  0.2063 -0.4198
   29HTM    S15 9135   6.422   9.338  13.861 -0.3735  0.3462 -0.2111
   30TAL   C145 9136   6.376   9.601  13.536 -0.0666 -0.3503  0.8594
   30TAL   C146 9137   6.293   9.573  13.406 -0.4324  0.7664  0.2426
   30TAL   C147 9138   6.371   9.599  13.273 -0.1526  0.1300 -0.1385
   30TAL   C148 9139   6.391   9.741  13.216 -0.2810  0.2324 -0.4162
   30TAL   C149 9140   6.271   9.809  13.147 -0.5462  0.1531  0.4606
   30TAL   C150 9141   6.308   9.957  13.112 -0.5118  1.6570 -0.2983
   31HTM   C151 9142   6.559   9.579  13.814  0.2331  1.1925 -0.2354
   31HTM   C152 9143   6.637   9.662  13.739  0.3120  1.6292  0.3133
   31HTM   C153 9144   6.746   9.720  13.812  0.3537  1.0585  0.7207
   31HTM   C154 9145   6.751   9.683  13.943  0.3067  0.1868  0.4829
   31HTM    S16 9146   6.617   9.569  13.984  0.2051  0.0176 -0.2805
   32TAL   C155 9147   6.844   9.802  13.730  0.8027 -0.0430 -0.9730
   32TAL   C156 9148   6.971   9.733  13.675  0.4186  1.0522  0.6064
   32TAL   C157 9149   7.072   9.651  13.758  0.6527  0.3865  0.1161
   32TAL   C158 9150   7.172   9.746  13.824  0.7090  0.1876 -0.9769
   32TAL   C159 9151   7.250   9.690  13.934  0.3389 -0.0365  0.8422
   32TAL   C160 9152   7.363   9.790  13.960  0.1618  0.0189  0.7998
   33HTM   C161 9153   6.824   9.733  14.053  0.3327 -0.0529  0.0566
   33HTM   C162 9154   6.822   9.680  14.178  0.4569 -0.0979  0.0408
   33HTM   C163 9155   6.917   9.740  14.268  0.5965 -0.1805 -0.0517
   33HTM   C164 9156   6.992   9.838  14.211  0.5791 -0.1988 -0.1062
   33HTM    S17 9157   6.948   9.863  14.038  0.3832 -0.1121 -0.0446
   34TAL   C165 9158   6.936   9.684  14.405  0.1050  0.2411  0.0735
   34TAL   C166 9159   6.821   9.627  14.478  0.5312  0.7277  0.3727
   34TAL   C167 9160   6.843   9.579  14.629 -0.1117 -0.0118  0.6340
   34TAL   C168 9161   6.731   9.502  14.699 -0.2432 -0.1689 -0.6826
   34TAL   C169 9162   6.615   9.588  14.747 -0.0874 -1.9465  0.1780
   34TAL   C170 9163   6.509   9.536  14.834  0.4936 -0.2796 -1.5214
   35HTM   C171 9164   7.094   9.923  14.256 -0.0955 -0.2319 -0.1404
   35HTM   C172 9165   7.117  10.043  14.196 -0.4821 -0.0722  0.0250
   35HTM   C173 9166   7.243  10.102  14.231 -0.7277  0.3546  0.2110
   35HTM   C174 9167   7.317  10.027  14.318 -0.5284  0.5206  0.1872
   35HTM    S18 9168   7.231   9.874  14.363 -0.0111  0.1476 -0.0738
   36TAL   C175 9169   7.298  10.236  14.172 -0.3829 -0.4890 -1.2594
   36TAL   C176 9170   7.299  10.265  14.025  0.3134 -0.0075 -0.0387
   36TAL   C177 9171   7.364  10.156  13.944  0.1455 -0.2067 -0.0665
   36TAL   C178 9172   7.510  10.150  13.952 -0.2778 -0.0929 -0.3360
   36TAL   C179 9173   7.588  10.065  13.856 -0.6101  0.1206 -0.1289
   36TAL   C180 9174   7.731  10.107  13.829 -0.7476  0.5802 -0.1896
   37HTM   C181 9175   7.454  10.033  14.371  0.1398  0.0721 -1.4272
   37HTM   C182 9176   7.490   9.961  14.480 -0.1308 -1.1350 -2.0919
   37HTM   C183 9177   7.617  10.000  14.536 -0.2334 -1.7675 -1.3785
   37HTM   C184 9178   7.677  10.103  14.469 -0.0411 -1.0429 -0.1698
   37HTM    S19 9179   7.578  10.157  14.329  0.2872  0.5067  0.1638
   38TAL   C185 9180   7.676   9.916  14.645  0.0244 -0.3355 -0.2436
   38TAL   C186 9181   7.596   9.867  14.767  0.3069 -0.8066 -0.3989
   38TAL   C187 9182   7.631   9.956  14.886 -1.0269 -0.9577 -0.4802
   38TAL   C188 9183   7.566   9.920  15.015 -0.2314 -0.5049 -0.4508
   38TAL   C189 9184   7.598   9.772  15.072  0.8499 -0.4152  1.0468
   38TAL   C190 9185   7.590   9.769  15.224  0.2357 -0.6740 -0.6504
   39HTM   C191 9186   7.795  10.184  14.508  0.0472 -0.0836 -0.1350
   39HTM   C192 9187   7.811  10.243  14.630  0.1719 -0.3198 -0.0348
   39HTM   C193 9188   7.925  10.331  14.637  0.2644 -0.4475  0.0641
   39HTM   C194 9189   7.996  10.338  14.521  0.2104 -0.3087  0.0398
   39HTM    S20 9190   7.924  10.234  14.392  0.0370 -0.0035 -0.1115
   40TAL   C195 9191   7.962  10.392  14.778 -0.1845  0.5070 -0.1804
   40TAL   C196 9192   7.935  10.338  14.923  0.6926  0.1018  0.0463
   40TAL   C197 9193   7.784  10.348  14.963 -0.9630 -0.6042  0.0776
   40TAL   C198 9194   7.723  10.480  14.982 -0.6784  0.1553 -0.3804
   40TAL   C199 9195   7.802  10.582  15.070  0.0829  0.2552  0.0807
   40TAL   C200 9196   7.883  10.681  14.983 -0.5971  0.6814  0.0430
   41HTM   C201 9197   8.096  10.442  14.491  0.4280 -0.0307  0.1881
   41HTM   C202 9198   8.203  10.479  14.568  0.5142 -0.0048  0.0567
   41HTM   C203 9199   8.281  10.586  14.511  0.5055 -0.0872 -0.1118
   41HTM   C204 9200   8.234  10.631  14.391  0.4125 -0.1760 -0.1088
   41HTM    S21 9201   8.087  10.541  14.340  0.3282 -0.1624  0.1085
   42TAL   C205 9202   8.391  10.643  14.592 -0.7133  0.0504  0.9204
   42TAL   C206 9203   8.395  10.621  14.741 -1.2219 -0.3011 -0.2672
   42TAL   C207 9204   8.520  10.662  14.820 -0.0726  0.4698  0.8824
   42TAL   C208 9205   8.629  10.554  14.822 -0.6524 -0.2503  0.3560
   42TAL   C209 9206   8.613  10.452  14.927 -0.1012  0.0779  0.0573
   42TAL   C210 9207   8.713  10.334  14.950 -0.1531  0.6227 -0.3008
   43HTM   C211 9208   8.284  10.734  14.309  0.0276 -0.1313  0.4782
   43HTM   C212 9209   8.281  10.733  14.173 -0.1315 -0.3772  0.4823
   43HTM   C213 9210   8.316  10.859  14.113 -0.4184 -0.4201  0.2177
   43HTM   C214 9211   8.347  10.956  14.204 -0.4780 -0.2068  0.0111
   43HTM    S22 9212   8.333  10.895  14.373 -0.1741  0.0668  0.1365
   44TAL   C215 9213   8.353  10.877  13.968  0.8339  0.5221 -1.1396
   44TAL   C216 9214   8.233  10.863  13.858  0.6499 -0.0668 -0.8901
   44TAL   C217 9215   8.282  10.906  13.726 -0.2110 -1.0949  0.2137
   44TAL   C218 9216   8.172  10.913  13.619  0.1338 -1.3472  0.1407
   44TAL   C219 9217   8.224  10.995  13.507  0.3638 -0.5903 -1.0754
   44TAL   C220 9218   8.144  10.982  13.378  0.7316  0.3294  0.1537
   45HTM   C221 9219   8.360  11.101  14.193 -0.0721 -0.0202  0.1114
   45HTM   C222 9220   8.286  11.178  14.108 -0.5171  0.0988  0.6013
   45HTM   C223 9221   8.299  11.320  14.132 -0.5046  0.0613  0.8197
   45HTM   C224 9222   8.384  11.350  14.235 -0.0503 -0.0861  0.4962
   45HTM    S23 9223   8.453  11.202  14.310  0.4007 -0.1900 -0.1137
   46TAL   C225 9224   8.207  11.424  14.062 -0.2269 -0.5269  0.0333
   46TAL   C226 9225   8.096  11.381  13.968  0.2717  0.6541 -0.5606
   46TAL   C227 9226   7.957  11.335  14.026  0.0401  0.6337 -0.4345
   46TAL   C228 9227   7.847  11.312  13.920  0.4265  0.5905 -0.6134
   46TAL   C229 9228   7.718  11.259  13.985  0.2667 -1.1261  0.8094
   46TAL   C230 9229   7.595  11.258  13.886 -0.2501  0.1828  0.2635
   47HTM   C231 9230   8.446  11.469  14.284 -0.6379 -0.2824 -0.6282
   47HTM   C232 9231   8.578  11.503  14.274 -0.4500 -0.8695 -0.2542
   47HTM   C233 9232   8.609  11.632  14.330 -0.0070 -1.0582 -0.0558
   47HTM   C234 9233   8.501  11.696  14.383  0.1429 -0.6151 -0.2787
   47HTM    S24 9234   8.351  11.598  14.365 -0.2671  0.0804 -0.7598
   48TAL   C235 9235   8.751  11.699  14.319 -0.1392  0.1903  0.0191
   48TAL   C236 9236   8.801  11.817  14.414  0.7138  1.7080 -0.6451
   48TAL   C237 9237   8.769  11.958  14.380 -0.1139 -0.5861 -0.6551
   48TAL   C238 9238   8.854  12.002  14.263  0.4947  0.2225 -0.1686
   48TAL   C239 9239   8.782  12.119  14.196 -0.3049  0.3883 -0.1861
   48TAL   C240 9240   8.831  12.116  14.047  1.0788  0.3503 -0.3811
    1HTM     C1 9241   0.493   1.185   4.323  0.1524 -0.4480  0.4152
    1HTM     C2 9242   0.516   1.176   4.457  0.8192  0.1392  0.3489
    1HTM     C3 9243   0.656   1.162   4.491  1.0386  0.7797 -0.2446
    1HTM     C4 9244   0.738   1.160   4.382  0.5390  0.6809 -0.6309
    1HTM     S1 9245   0.646   1.177   4.228 -0.2534 -0.2360 -0.2722
    2TAL     C5 9246   0.708   1.151   4.638  0.5908 -0.9911  0.1735
    2TAL     C6 9247   0.650   1.254   4.749 -0.7721  0.6498  0.4306
    2TAL     C7 9248   0.647   1.181   4.886 -1.0754  0.7631  0.2089
    2TAL     C8 9249   0.592   1.272   4.991 -0.0600  0.6181 -0.2431
    2TAL     C9 9250   0.522   1.190   5.089  0.3413 -0.2796 -0.2895
    2TAL    C10 9251   0.452   1.272   5.195 -0.5860  0.0859  0.7578
    3HTM    C11 9252   0.883   1.149   4.364 -0.0630 -0.0475  0.5010
    3HTM    C12 9253   0.948   1.161   4.244 -0.2640  0.0286  0.3992
    3HTM    C13 9254   1.090   1.142   4.253 -0.2339  0.1392  0.1668
    3HTM    C14 9255   1.134   1.115   4.379 -0.0099  0.1475  0.0910
    3HTM     S2 9256   0.998   1.112   4.498  0.1819  0.0153  0.3093
    4TAL    C15 9257   1.187   1.158   4.134  0.5817  0.3330 -0.4499
    4TAL    C16 9258   1.125   1.189   4.003  0.7689 -0.9150 -1.1091
    4TAL    C17 9259   1.232   1.233   3.910  0.6327  0.8991 -0.6115
    4TAL    C18 9260   1.189   1.218   3.769 -0.5359 -0.3621  0.3898
    4TAL    C19 9261   1.226   1.099   3.673  0.0008  0.3030  0.1540
    4TAL    C20 9262   1.359   1.024   3.681  0.1158 -0.1957  0.3018
    5HTM    C21 9263   1.268   1.095   4.430 -0.2018 -0.2393 -0.1643
    5HTM    C22 9264   1.382   1.044   4.375 -0.2047 -0.0353 -0.3656
    5HTM    C23 9265   1.490   1.029   4.469 -0.0941 -0.0787 -0.4995
    5HTM    C24 9266   1.459   1.070   4.595 -0.0069 -0.3156 -0.4001
    5HTM     S3 9267   1.289   1.130   4.605 -0.0581 -0.5039 -0.1278
    6TAL    C25 9268   1.631   0.995   4.423 -1.1952  0.3071 -0.4183
    6TAL    C26 9269   1.649   0.908   4.302  1.0176  0.4664 -0.2171
    6TAL    C27 9270   1.783   0.853   4.266 -0.2209  0.0492 -0.3717
    6TAL    C28 9271   1.838   0.757   4.376 -0.5611 -0.4676 -0.8939
    6TAL    C29 9272   1.990   0.714   4.384  0.6171  0.5506  0.6829
    6TAL    C30 9273   2.031   0.650   4.518  0.7026  1.1491 -0.2973
    7HTM    C31 9274   1.537   1.098   4.719 -0.4038  0.0252  0.6206
    7HTM    C32 9275   1.525   1.205   4.803 -0.6627 -0.4860  1.2504
    7HTM    C33 9276   1.620   1.204   4.912 -0.4853 -0.7569  1.0951
    7HTM    C34 9277   1.704   1.097   4.910 -0.0910 -0.4524  0.3472
    7HTM     S4 9278   1.670   0.987   4.771  0.0881  0.2053 -0.2236
    8TAL    C35 9279   1.642   1.313   5.022 -0.4360 -1.3891  0.9825
    8TAL    C36 9280   1.518   1.407   5.054 -0.5794  1.2378 -1.3847
    8TAL    C37 9281   1.553   1.507   5.161  0.0984 -1.0559 -0.0196
    8TAL    C38 9282   1.436   1.579   5.209  0.3949 -1.1628  0.4261
    8TAL    C39 9283   1.334   1.509   5.299 -0.3168 -0.3158  0.1342
    8TAL    C40 9284   1.381   1.487   5.444 -0.2969  0.1377  0.7389
    9HTM    C41 9285   1.824   1.065   4.990 -0.8887  0.1020  0.1873
    9HTM    C42 9286   1.953   1.107   4.979 -0.8770 -0.0412 -0.3031
    9HTM    C43 9287   2.038   1.057   5.084 -0.5004 -0.2548 -0.7071
    9HTM    C44 9288   1.974   0.977   5.174 -0.2250 -0.2745 -0.5247
    9HTM     S5 9289   1.799   0.959   5.133 -0.4215 -0.0227  0.1769
   10TAL    C45 9290   2.186   1.106   5.063 -0.5524  1.5346  0.8989
   10TAL    C46 9291   2.294   1.047   5.159  0.6377  0.0920  0.9474
   10TAL    C47 9292   2.370   0.935   5.090  1.7161  0.1897 -0.1494
   10TAL    C48 9293   2.487   0.974   5.002 -0.2039 -0.4871  0.5203
   10TAL    C49 9294   2.603   1.058   5.043 -0.6628 -0.1650 -0.4104
   10TAL    C50 9295   2.667   0.989   5.173  0.1384 -0.7515  0.7250
   11HTM    C51 9296   2.013   0.906   5.292 -0.1723  0.2668 -0.0026
   11HTM    C52 9297   2.069   0.953   5.407 -0.3406  0.4663 -0.0015
   11HTM    C53 9298   2.119   0.849   5.494 -0.5898  0.6061  0.3144
   11HTM    C54 9299   2.101   0.723   5.444 -0.6117  0.5132  0.5545
   11HTM     S6 9300   2.020   0.726   5.283 -0.3168  0.2398  0.3987
   12TAL    C55 9301   2.213   0.871   5.618 -0.4327  0.5198  0.0715
   12TAL    C56 9302   2.327   0.971   5.612 -0.3620 -0.9196 -0.3653
   12TAL    C57 9303   2.463   0.918   5.564 -0.1227 -0.0262  0.2880
   12TAL    C58 9304   2.503   0.767   5.592  0.3352  0.3494 -0.4448
   12TAL    C59 9305   2.593   0.703   5.482 -0.5577  0.4931  0.1650
   12TAL    C60 9306   2.624   0.548   5.496  0.6010  0.8911 -0.6343
   13HTM    C61 9307   2.132   0.593   5.503 -0.3473 -0.1562  0.3799
   13HTM    C62 9308   2.092   0.531   5.618 -0.2508 -0.7249  0.1124
   13HTM    C63 9309   2.148   0.400   5.635 -0.1821 -0.7915 -0.5497
   13HTM    C64 9310   2.232   0.362   5.534 -0.2262 -0.2735 -0.7871
   13HTM     S7 9311   2.245   0.490   5.408 -0.3589  0.3433 -0.1881
   14TAL    C65 9312   2.107   0.314   5.756  0.0707  0.0957  0.3026
   14TAL    C66 9313   1.959   0.287   5.792  0.4683  0.7246 -0.3522
   14TAL    C67 9314   1.954   0.158   5.872  0.4807 -0.4868  0.2788
   14TAL    C68 9315   1.813   0.124   5.942 -1.1231  0.5171  0.2433
   14TAL    C69 9316   1.732   0.219   6.032  0.5245  0.5696 -0.0760
   14TAL    C70 9317   1.713   0.154   6.163 -0.6385 -0.7924 -0.1979
   15HTM    C71 9318   2.302   0.234   5.521  0.2111  0.1798  0.3863
   15HTM    C72 9319   2.249   0.110   5.537  0.1055  0.2430  0.5324
   15HTM    C73 9320   2.341   0.003   5.505 -0.0731  0.1316  0.3899
   15HTM    C74 9321   2.463   0.046   5.464 -0.1038 -0.0167  0.1351
   15HTM     S8 9322   2.473   0.227   5.463  0.0922 -0.0271  0.0545
   16TAL    C75 9323   2.285  -0.141   5.493  0.3332 -0.6800 -0.0132
   16TAL    C76 9324   2.187  -0.186   5.612 -0.3295 -0.3217  0.0192
   16TAL    C77 9325   2.156  -0.347   5.609 -1.5101 -0.7389 -0.6195
   16TAL    C78 9326   2.009  -0.388   5.640 -0.0322 -1.0720 -0.4465
   16TAL    C79 9327   1.996  -0.535   5.680  0.1899  0.2262 -0.2081
   16TAL    C80 9328   1.869  -0.616   5.693 -0.9843  0.5936  0.1902
   17HTM    C81 9329   2.569  -0.029   5.397 -0.6196 -0.7988 -0.3514
   17HTM    C82 9330   2.621  -0.149   5.437 -0.6457 -0.9482 -0.7470
   17HTM    C83 9331   2.741  -0.187   5.367 -0.2044 -0.3525 -0.3451
   17HTM    C84 9332   2.780  -0.097   5.272  0.1583  0.2511  0.3569
   17HTM     S9 9333   2.668   0.044   5.265 -0.0310  0.1131  0.5665
   18TAL    C85 9334   2.828  -0.315   5.414  0.2703 -0.1958  0.7785
   18TAL    C86 9335   2.831  -0.345   5.559 -0.9884  0.0053  0.1578
   18TAL    C87 9336   2.921  -0.475   5.577  1.4076 -0.6706 -0.6635
   18TAL    C88 9337   2.901  -0.535   5.721  0.2584 -1.9198 -0.2190
   18TAL    C89 9338   2.903  -0.687   5.715 -0.6742 -0.6839  0.1512
   18TAL    C90 9339   3.022  -0.768   5.659 -0.1889  0.6063  0.2473
   19HTM    C91 9340   2.897  -0.103   5.188 -0.1969 -0.7910 -0.0586
   19HTM    C92 9341   3.020  -0.158   5.206 -0.4555 -1.6128 -0.7124
   19HTM    C93 9342   3.113  -0.128   5.100 -0.5373 -1.4235 -0.7310
   19HTM    C94 9343   3.061  -0.050   5.002 -0.3411 -0.4575 -0.0916
   19HTM    S10 9344   2.889  -0.007   5.036 -0.0353  0.2941  0.5893
   20TAL    C95 9345   3.257  -0.183   5.115  0.6933 -0.2611  0.7025
   20TAL    C96 9346   3.271  -0.326   5.155  0.3665 -0.2859  0.3734
   20TAL    C97 9347   3.414  -0.374   5.163 -0.1346 -0.0785 -0.4510
   20TAL    C98 9348   3.491  -0.313   5.285 -0.2872 -0.9383 -0.1217
   20TAL    C99 9349   3.645  -0.324   5.250  0.2899  0.1868 -0.6544
   20TAL   C100 9350   3.727  -0.207   5.213 -0.8852  0.0704 -0.4083
   21HTM   C101 9351   3.104  -0.023   4.870  0.1566  0.4834  0.1647
   21HTM   C102 9352   3.228   0.007   4.822  0.0316  1.2124  0.2725
   21HTM   C103 9353   3.230   0.042   4.682 -0.0268  0.9817  0.2124
   21HTM   C104 9354   3.107   0.039   4.624  0.0537  0.0767  0.0586
   21HTM    S11 9355   2.978  -0.009   4.741  0.2107 -0.5592 -0.0229
   22TAL   C105 9356   3.373   0.055   4.631 -0.0926 -0.1896  0.5953
   22TAL   C106 9357   3.451   0.186   4.616  0.3262  0.4968  0.7857
   22TAL   C107 9358   3.405   0.317   4.689 -0.2220  0.2762  0.5170
   22TAL   C108 9359   3.300   0.401   4.614 -0.4250  0.8581 -0.0123
   22TAL   C109 9360   3.335   0.456   4.470  0.2642 -0.0959 -0.4442
   22TAL   C110 9361   3.220   0.531   4.392 -0.3687  0.3527 -0.1540
   23HTM   C111 9362   3.065   0.087   4.491 -0.2111  0.0920  0.3058
   23HTM   C112 9363   3.144   0.117   4.384  0.0836 -0.2475  0.4212
   23HTM   C113 9364   3.070   0.146   4.264  0.4104 -0.5957  0.1293
   23HTM   C114 9365   2.935   0.138   4.280  0.3649 -0.5217 -0.2085
   23HTM    S12 9366   2.890   0.092   4.448 -0.0979 -0.0025 -0.1844
   24TAL   C115 9367   3.122   0.193   4.132  0.5693 -0.3490  1.2838
   24TAL   C116 9368   3.272   0.240   4.124 -0.2187  1.0938  0.6192
   24TAL   C117 9369   3.311   0.335   4.008  0.2493 -0.4902  0.4070
   24TAL   C118 9370   3.448   0.388   3.995 -0.1132 -0.0719  0.1530
   24TAL   C119 9371   3.496   0.463   4.121 -0.2884  0.4480 -0.0138
   24TAL   C120 9372   3.627   0.549   4.106  0.8127 -0.1938  0.1446
   25HTM   C121 9373   2.821   0.180   4.200  0.0789  0.4253 -0.1519
   25HTM   C122 9374   2.732   0.282   4.220  0.4129  0.8347 -0.6918
   25HTM   C123 9375   2.639   0.300   4.111  0.7107  0.8128 -0.9540
   25HTM   C124 9376   2.657   0.212   4.009  0.6038  0.3868 -0.6139
   25HTM    S13 9377   2.793   0.099   4.041  0.1149 -0.0230  0.0688
   26TAL   C125 9378   2.518   0.387   4.122  0.4659  0.9062 -0.7437
   26TAL   C126 9379   2.534   0.540   4.103  0.8946 -0.3393  0.0689
   26TAL   C127 9380   2.515   0.619   4.230 -0.0349 -0.0759  0.0131
   26TAL   C128 9381   2.615   0.604   4.348  0.6455  0.0330 -0.3422
   26TAL   C129 9382   2.549   0.582   4.476  0.3834 -0.1795 -0.7300
   26TAL   C130 9383   2.658   0.571   4.587 -0.2695  0.6361  0.0504
   27HTM   C131 9384   2.579   0.197   3.881 -0.3469  0.3538  0.5093
   27HTM   C132 9385   2.595   0.078   3.817 -0.1780  0.1473  0.9297
   27HTM   C133 9386   2.550   0.079   3.680  0.1551 -0.2937  0.8115
   27HTM   C134 9387   2.498   0.198   3.640  0.2402 -0.4234  0.3009
   27HTM    S14 9388   2.504   0.320   3.772 -0.0966  0.0047 -0.0731
   28TAL   C135 9389   2.560  -0.050   3.593  0.3442 -0.6373 -0.5885
   28TAL   C136 9390   2.492  -0.169   3.659 -0.2757  0.9886 -1.0391
   28TAL   C137 9391   2.507  -0.305   3.593 -0.6922 -0.1539  0.4010
   28TAL   C138 9392   2.433  -0.414   3.658  0.0806  0.4390  0.1313
   28TAL   C139 9393   2.423  -0.526   3.557  0.3069 -0.1111 -0.5966
   28TAL   C140 9394   2.359  -0.646   3.628  0.1128  0.4838  0.7364
   29HTM   C141 9395   2.449   0.233   3.505 -0.0497 -0.3616  0.3357
   29HTM   C142 9396   2.512   0.207   3.387 -0.2027 -0.9770  0.3800
   29HTM   C143 9397   2.442   0.257   3.272  0.1197 -0.7138  0.2939
   29HTM   C144 9398   2.325   0.320   3.301  0.5186  0.1022  0.1839
   29HTM    S15 9399   2.294   0.322   3.479  0.5180  0.6055  0.1806
   30TAL   C145 9400   2.497   0.247   3.126  0.5086  0.1212 -0.8866
   30TAL   C146 9401   2.650   0.281   3.113 -0.2441  0.4180 -0.3383
   30TAL   C147 9402   2.717   0.405   3.191 -0.4666 -1.1004  0.5647
   30TAL   C148 9403   2.678   0.549   3.136  0.1250  0.1434  0.3052
   30TAL   C149 9404   2.712   0.584   2.988 -0.4567  0.4324  0.3072
   30TAL   C150 9405   2.696   0.726   2.947 -0.5746 -0.6762 -0.3600
   31HTM   C151 9406   2.208   0.367   3.220 -0.0279 -0.1723 -0.1929
   31HTM   C152 9407   2.079   0.325   3.236  0.1741 -1.0167 -0.6419
   31HTM   C153 9408   1.992   0.361   3.126  0.2205 -1.1951 -0.7386
   31HTM   C154 9409   2.055   0.431   3.027  0.0537 -0.4866 -0.3634
   31HTM    S16 9410   2.230   0.456   3.064 -0.1765  0.4682  0.1452
   32TAL   C155 9411   1.843   0.318   3.122  0.7942  0.1739  0.1897
   32TAL   C156 9412   1.764   0.268   3.245  0.4188 -0.0814 -0.1465
   32TAL   C157 9413   1.754   0.115   3.247 -0.0175 -0.6590 -0.4375
   32TAL   C158 9414   1.686   0.054   3.371 -0.6191 -0.0152 -0.3312
   32TAL   C159 9415   1.742   0.107   3.504 -0.1763  0.0791  0.0570
   32TAL   C160 9416   1.669   0.049   3.629 -0.7956 -0.5447 -0.0839
   33HTM   C161 9417   2.000   0.482   2.902 -0.1169 -0.3962  0.0082
   33HTM   C162 9418   2.046   0.454   2.776 -0.4205 -0.2458 -0.1382
   33HTM   C163 9419   1.964   0.509   2.671 -0.4185  0.2788  0.1291
   33HTM   C164 9420   1.857   0.579   2.716 -0.1133  0.5284  0.4794
   33HTM    S17 9421   1.850   0.581   2.897  0.1977  0.1170  0.4989
   34TAL   C165 9422   1.990   0.485   2.518  0.0330 -1.3296 -1.0100
   34TAL   C166 9423   2.116   0.414   2.487  0.4264  0.9624 -0.0654
   34TAL   C167 9424   2.251   0.481   2.455 -0.3660 -0.8309  0.1616
   34TAL   C168 9425   2.376   0.412   2.493  0.1107  0.0881 -1.9754
   34TAL   C169 9426   2.407   0.378   2.644 -0.5290 -0.0714 -0.2999
   34TAL   C170 9427   2.430   0.495   2.736 -0.5483 -0.4240 -0.2290
   35HTM   C171 9428   1.770   0.669   2.643 -0.3799 -0.0561  0.2859
   35HTM   C172 9429   1.635   0.651   2.634 -0.4830  0.5305  0.5798
   35HTM   C173 9430   1.570   0.746   2.547 -0.2372  0.7169  0.5969
   35HTM   C174 9431   1.655   0.836   2.491  0.0532  0.2724  0.3160
   35HTM    S18 9432   1.826   0.808   2.542  0.0386 -0.4215  0.0058
   36TAL   C175 9433   1.424   0.722   2.524  0.3661 -0.5232 -0.5788
   36TAL   C176 9434   1.374   0.597   2.465 -0.6793 -0.6269 -0.6453
   36TAL   C177 9435   1.219   0.605   2.463 -0.8520 -0.3796 -0.7897
   36TAL   C178 9436   1.145   0.556   2.593  0.4295 -0.3888 -0.4224
   36TAL   C179 9437   0.992   0.586   2.570 -0.4258  0.3288 -0.4800
   36TAL   C180 9438   0.916   0.502   2.674  0.9257  0.1774  0.5480
   37HTM   C181 9439   1.634   0.952   2.410  0.2206  0.6564  0.3962
   37HTM   C182 9440   1.720   0.995   2.314  0.6387  1.0479  0.9319
   37HTM   C183 9441   1.675   1.112   2.243  0.5298  0.8248  0.6298
   37HTM   C184 9442   1.554   1.158   2.285  0.0287  0.2631 -0.1362
   37HTM    S19 9443   1.487   1.056   2.419 -0.3475 -0.0298 -0.5386
   38TAL   C185 9444   1.752   1.163   2.116  0.3551  0.4029  0.3204
   38TAL   C186 9445   1.887   1.107   2.071  0.4111 -0.7349  0.3451
   38TAL   C187 9446   1.993   1.220   2.032  1.0191 -0.7466 -0.0528
   38TAL   C188 9447   2.142   1.214   2.037 -0.8397 -0.0681  0.5786
   38TAL   C189 9448   2.193   1.075   1.995  0.6695 -0.3577  0.2526
   38TAL   C190 9449   2.349   1.074   1.989 -0.4350  0.3044  0.0090
   39HTM   C191 9450   1.485   1.280   2.259 -0.6304 -0.3353 -0.2535
   39HTM   C192 9451   1.462   1.382   2.347 -0.4595 -0.5132  0.0003
   39HTM   C193 9452   1.402   1.498   2.287 -0.1825 -0.2263  0.2692
   39HTM   C194 9453   1.379   1.485   2.153 -0.1421  0.1704  0.2204
   39HTM    S20 9454   1.432   1.323   2.093 -0.4533  0.2125 -0.1720
   40TAL   C195 9455   1.378   1.631   2.353 -0.5637 -0.0053 -0.8673
   40TAL   C196 9456   1.242   1.649   2.421  0.9072  0.4084 -0.1563
   40TAL   C197 9457   1.122   1.684   2.321  0.7312 -0.0056 -0.5821
   40TAL   C198 9458   1.033   1.803   2.374  0.2026  0.6740  0.9744
   40TAL   C199 9459   0.982   1.812   2.516 -0.2273 -0.4552  1.7583
   40TAL   C200 9460   0.853   1.892   2.545  0.3263  0.0104 -0.8928
   41HTM   C201 9461   1.306   1.567   2.069  0.1136  0.3329  0.3003
   41HTM   C202 9462   1.218   1.518   1.978 -0.3058  0.4861  0.6148
   41HTM   C203 9463   1.188   1.611   1.871 -0.5442  0.5459  0.7327
   41HTM   C204 9464   1.253   1.730   1.882 -0.3066  0.4383  0.5081
   41HTM    S21 9465   1.359   1.735   2.029  0.2410  0.2516  0.1274
   42TAL   C205 9466   1.124   1.556   1.744  0.7346  0.2508 -0.8151
   42TAL   C206 9467   0.967   1.593   1.735 -1.0330  0.2535 -0.1973
   42TAL   C207 9468   0.889   1.504   1.639 -0.6830  1.4190 -0.6237
   42TAL   C208 9469   0.750   1.556   1.616 -0.3586  0.2169 -0.4508
   42TAL   C209 9470   0.703   1.541   1.472  0.1239 -0.9797 -0.6186
   42TAL   C210 9471   0.577   1.628   1.452 -0.1704 -0.2105  0.6745
   43HTM   C211 9472   1.272   1.833   1.780  0.0139  0.1837 -0.0909
   43HTM   C212 9473   1.382   1.907   1.749 -0.2172  0.5276 -0.1037
   43HTM   C213 9474   1.354   2.019   1.664 -0.5979  0.5209  0.0077
   43HTM   C214 9475   1.223   2.031   1.630 -0.6571  0.1720  0.1053
   43HTM    S22 9476   1.123   1.900   1.703 -0.2334 -0.1780  0.0639
   44TAL   C215 9477   1.472   2.109   1.628  0.5631 -0.1359  0.1087
   44TAL   C216 9478   1.577   2.067   1.524 -0.2097  0.6537  0.5688
   44TAL   C217 9479   1.708   2.143   1.520  0.4030 -0.9744  0.0314
   44TAL   C218 9480   1.784   2.160   1.656 -0.1702  0.0191  0.8575
   44TAL   C219 9481   1.851   2.050   1.732  0.4662  0.0301 -0.8296
   44TAL   C220 9482   1.925   2.086   1.865  0.9279 -0.2659  0.2199
   45HTM   C221 9483   1.159   2.133   1.558  0.0869  0.1532 -0.2724
   45HTM   C222 9484   1.197   2.194   1.442  0.0587  0.2806 -0.2151
   45HTM   C223 9485   1.116   2.307   1.407 -0.1661  0.1109 -0.2500
   45HTM   C224 9486   1.016   2.333   1.496 -0.3095 -0.1458 -0.3340
   45HTM    S23 9487   1.017   2.215   1.633 -0.1704 -0.1935 -0.3758
   46TAL   C225 9488   1.157   2.369   1.278  0.6956 -0.1439  0.2212
   46TAL   C226 9489   1.302   2.400   1.228 -0.4602 -0.4960 -0.5927
   46TAL   C227 9490   1.337   2.549   1.225  0.1634 -0.1202  0.6929
   46TAL   C228 9491   1.286   2.654   1.126 -0.2966 -0.2608  0.8827
   46TAL   C229 9492   1.141   2.699   1.134 -0.3285  0.6361  0.2439
   46TAL   C230 9493   1.099   2.794   1.023 -0.8253 -1.5380 -0.1633
   47HTM   C231 9494   0.898   2.418   1.487  0.5453  0.0331 -0.4225
   47HTM   C232 9495   0.793   2.425   1.574  0.6089 -0.7292 -0.2682
   47HTM   C233 9496   0.688   2.514   1.531  0.2158 -0.9506  0.2179
   47HTM   C234 9497   0.713   2.574   1.412 -0.1475 -0.3571  0.4342
   47HTM    S24 9498   0.872   2.523   1.343 -0.0204  0.5345  0.0377
   48TAL   C235 9499   0.561   2.550   1.602  1.1150 -0.3870  0.2123
   48TAL   C236 9500   0.453   2.446   1.647 -0.0810  0.0689  0.4565
   48TAL   C237 9501   0.340   2.512   1.712  0.2534 -0.2555  0.2366
   48TAL   C238 9502   0.206   2.434   1.735  0.1831 -0.6961  0.5004
   48TAL   C239 9503   0.126   2.415   1.610 -0.4032  0.0694  0.5112
   48TAL   C240 9504   0.011   2.324   1.640 -0.0758  0.5819 -0.2926
    1HTM     C1 9505   0.331   5.618   5.841  0.6362  0.0641  0.2972
    1HTM     C2 9506   0.301   5.722   5.925  0.7372  0.2863  0.0597
    1HTM     C3 9507   0.388   5.836   5.908  0.3610  0.4689 -0.7466
    1HTM     C4 9508   0.483   5.819   5.812 -0.0267  0.3857 -1.1242
    1HTM     S1 9509   0.471   5.657   5.735  0.0537  0.0682 -0.4853
    2TAL     C5 9510   0.379   5.960   6.001 -0.2936  0.1862 -0.8214
    2TAL     C6 9511   0.286   5.972   6.124  0.7094 -0.2373 -0.1443
    2TAL     C7 9512   0.273   5.863   6.218 -1.3221  0.5440 -1.2598
    2TAL     C8 9513   0.156   5.887   6.314  0.5653  0.4290  0.6046
    2TAL     C9 9514   0.165   5.817   6.447  0.5547 -0.8781 -1.0195
    2TAL    C10 9515   0.226   5.895   6.557 -0.4929 -0.3447 -0.2446
    3HTM    C11 9516   0.592   5.899   5.751  0.3380 -0.7474 -0.2479
    3HTM    C12 9517   0.641   5.903   5.624  0.4677 -0.4762 -0.1903
    3HTM    C13 9518   0.725   6.017   5.598 -0.0836 -0.0340 -0.0747
    3HTM    C14 9519   0.740   6.099   5.705 -0.6337  0.0320 -0.0444
    3HTM     S2 9520   0.648   6.039   5.848 -0.4970 -0.4628 -0.1601
    4TAL    C15 9521   0.770   6.031   5.450 -0.1891  0.3161 -0.7087
    4TAL    C16 9522   0.689   5.991   5.330 -0.6752  0.6359 -0.3555
    4TAL    C17 9523   0.539   5.987   5.315  0.6656  0.2353 -0.6800
    4TAL    C18 9524   0.459   6.118   5.300  0.3895  0.0305  0.1938
    4TAL    C19 9525   0.323   6.131   5.236  0.2702 -0.0628  0.5195
    4TAL    C20 9526   0.313   6.123   5.080  1.0132  0.8417  0.1366
    5HTM    C21 9527   0.848   6.199   5.732  0.1796 -0.2399 -0.5084
    5HTM    C22 9528   0.904   6.237   5.850  0.1844 -0.3151 -0.4864
    5HTM    C23 9529   1.003   6.341   5.836  0.1471 -0.2701 -0.4185
    5HTM    C24 9530   1.022   6.382   5.707  0.1139 -0.1610 -0.3887
    5HTM     S3 9531   0.915   6.292   5.593  0.1272 -0.1060 -0.4445
    6TAL    C25 9532   1.097   6.387   5.945 -0.0602  0.1775 -1.0373
    6TAL    C26 9533   1.028   6.442   6.078  0.1400 -0.0672  1.3164
    6TAL    C27 9534   1.131   6.428   6.189  0.4503 -0.6644 -1.4073
    6TAL    C28 9535   1.088   6.500   6.326  1.2856 -0.2450 -1.0548
    6TAL    C29 9536   0.963   6.448   6.399  0.0562 -0.7782  0.3482
    6TAL    C30 9537   0.866   6.554   6.463  0.3299  0.3256  0.9298
    7HTM    C31 9538   1.126   6.471   5.656  0.3382 -0.0214  0.5636
    7HTM    C32 9539   1.201   6.444   5.546  0.6603 -0.5490  0.9011
    7HTM    C33 9540   1.297   6.547   5.515  0.6755 -0.6415  0.6325
    7HTM    C34 9541   1.295   6.652   5.602  0.3650 -0.1845  0.0900
    7HTM     S4 9542   1.171   6.629   5.731  0.0267  0.4026 -0.1252
    8TAL    C35 9543   1.390   6.532   5.395  1.0126  0.1528  0.8577
    8TAL    C36 9544   1.316   6.491   5.259  0.4304 -0.0689 -0.5406
    8TAL    C37 9545   1.410   6.501   5.144  0.3547 -0.4570  0.7882
    8TAL    C38 9546   1.360   6.438   5.016 -0.5000  0.1775 -0.2361
    8TAL    C39 9547   1.422   6.491   4.889  0.2794 -0.4717 -0.6344
    8TAL    C40 9548   1.392   6.401   4.778  0.0404  0.3084  0.0793
    9HTM    C41 9549   1.375   6.778   5.599  0.2118  0.0474 -0.5554
    9HTM    C42 9550   1.399   6.850   5.712  0.2536 -0.4810 -0.2228
    9HTM    C43 9551   1.475   6.970   5.690  0.4619 -0.5010  0.3500
    9HTM    C44 9552   1.509   6.990   5.560  0.5789  0.0122  0.4542
    9HTM     S5 9553   1.448   6.857   5.454  0.4340  0.5649 -0.1678
   10TAL    C45 9554   1.502   7.070   5.800  0.1419 -0.6726 -0.1521
   10TAL    C46 9555   1.545   6.999   5.930 -1.1622  0.4724  0.5812
   10TAL    C47 9556   1.530   7.095   6.054  0.3504  0.2376  0.0723
   10TAL    C48 9557   1.560   7.047   6.196 -0.3836  0.5052 -0.2444
   10TAL    C49 9558   1.558   7.150   6.307  0.4308 -0.8238 -0.0759
   10TAL    C50 9559   1.441   7.256   6.308  0.0815  0.3039 -0.2888
   11HTM    C51 9560   1.577   7.098   5.501  0.6732 -0.1202  0.8817
   11HTM    C52 9561   1.537   7.229   5.503  0.6338 -0.1326  1.4219
   11HTM    C53 9562   1.624   7.316   5.428  0.1174  0.0505  1.0260
   11HTM    C54 9563   1.729   7.253   5.370 -0.2370  0.2025  0.1840
   11HTM     S6 9564   1.728   7.076   5.405  0.0564  0.1258 -0.1774
   12TAL    C55 9565   1.595   7.455   5.409 -0.1192 -0.5621  0.1145
   12TAL    C56 9566   1.625   7.564   5.520  0.3867  0.1810  0.7618
   12TAL    C57 9567   1.591   7.692   5.455 -0.8246 -0.7144 -0.8045
   12TAL    C58 9568   1.638   7.805   5.559 -0.2718  0.4738  0.0529
   12TAL    C59 9569   1.594   7.944   5.511 -0.5769 -0.3548 -0.2990
   12TAL    C60 9570   1.711   8.044   5.544  0.0231  1.1398 -0.2208
   13HTM    C61 9571   1.842   7.292   5.286 -0.8007 -0.1915 -0.8122
   13HTM    C62 9572   1.879   7.419   5.252 -0.8508 -0.2118 -0.9449
   13HTM    C63 9573   2.005   7.426   5.181 -0.3112 -0.1493 -0.0147
   13HTM    C64 9574   2.063   7.305   5.161  0.1504 -0.0811  0.8270
   13HTM     S7 9575   1.964   7.171   5.230 -0.0623 -0.0908  0.5076
   14TAL    C65 9576   2.063   7.561   5.168  0.5154 -0.9199 -0.1830
   14TAL    C66 9577   2.048   7.622   5.038 -0.7023  0.1510 -0.1746
   14TAL    C67 9578   2.136   7.759   5.034  0.0349  0.8751  0.0926
   14TAL    C68 9579   2.100   7.864   4.934 -0.6691  0.0863  0.8275
   14TAL    C69 9580   2.155   8.007   4.945 -0.2790  1.0919  0.5131
   14TAL    C70 9581   2.286   8.038   4.862 -0.0349  0.5455  0.8189
   15HTM    C71 9582   2.190   7.270   5.108  0.2695  0.1144  0.0781
   15HTM    C72 9583   2.267   7.356   5.035  0.3873 -0.1318 -0.0902
   15HTM    C73 9584   2.392   7.299   4.991  0.3241 -0.3786  0.0464
   15HTM    C74 9585   2.410   7.170   5.031  0.1580 -0.3209  0.3188
   15HTM     S8 9586   2.270   7.109   5.127  0.0679  0.0531  0.4250
   16TAL    C75 9587   2.482   7.395   4.907 -0.1801  0.1333  0.1190
   16TAL    C76 9588   2.494   7.544   4.959 -0.6947 -0.5900 -0.1970
   16TAL    C77 9589   2.589   7.642   4.891  0.4664  0.3310 -0.4129
   16TAL    C78 9590   2.583   7.789   4.946 -0.3754  0.2623  0.4177
   16TAL    C79 9591   2.639   7.805   5.085 -0.1759 -0.0365  0.9720
   16TAL    C80 9592   2.642   7.947   5.146 -0.4856 -0.1553  0.0671
   17HTM    C81 9593   2.527   7.085   5.003  0.5138  0.3604  0.7482
   17HTM    C82 9594   2.559   6.976   5.079  0.5659  0.4451  0.8479
   17HTM    C83 9595   2.688   6.920   5.048  0.2570 -0.0067  0.3386
   17HTM    C84 9596   2.754   6.986   4.949 -0.0308 -0.4359 -0.1496
   17HTM     S9 9597   2.658   7.125   4.886  0.0670 -0.3015 -0.0027
   18TAL    C85 9598   2.758   6.807   5.130  0.1039 -0.2180 -0.2394
   18TAL    C86 9599   2.708   6.668   5.098 -0.3734 -0.3556  0.0629
   18TAL    C87 9600   2.801   6.586   4.998  0.5556  0.7760 -0.9156
   18TAL    C88 9601   2.766   6.435   4.982  0.1545 -0.1753 -0.8875
   18TAL    C89 9602   2.624   6.401   4.936 -0.0280  0.7401  0.2785
   18TAL    C90 9603   2.629   6.256   4.911 -0.4201  0.5063  0.0383
   19HTM    C91 9604   2.886   6.963   4.889 -0.0306  0.3334  0.4205
   19HTM    C92 9605   2.985   6.882   4.935 -0.0067  0.1328  0.0279
   19HTM    C93 9606   3.101   6.877   4.850 -0.1990  0.1990 -0.2390
   19HTM    C94 9607   3.090   6.955   4.738 -0.3694  0.4501 -0.0500
   19HTM    S10 9608   2.932   7.040   4.732 -0.2999  0.6236  0.4840
   20TAL    C95 9609   3.208   6.769   4.859 -0.3588 -0.2218 -1.1850
   20TAL    C96 9610   3.165   6.636   4.901  0.4590  0.4031 -0.4750
   20TAL    C97 9611   3.261   6.522   4.894 -1.1667  0.4000 -0.0054
   20TAL    C98 9612   3.211   6.386   4.930  0.4732 -0.3397 -0.0377
   20TAL    C99 9613   3.325   6.289   4.972 -0.0421  0.4356  0.2756
   20TAL   C100 9614   3.441   6.268   4.877 -0.1491 -1.1131 -0.9829
   21HTM   C101 9615   3.172   6.968   4.620 -0.1440  0.1281  0.1297
   21HTM   C102 9616   3.308   6.961   4.614 -0.1044  0.5749  0.4179
   21HTM   C103 9617   3.363   7.005   4.488  0.0095  0.6295  0.4861
   21HTM   C104 9618   3.268   7.045   4.398  0.0569  0.2242  0.2499
   21HTM    S11 9619   3.102   7.031   4.466 -0.0396 -0.2616 -0.0796
   22TAL   C105 9620   3.512   6.980   4.456  0.4832  0.5208 -0.3570
   22TAL   C106 9621   3.614   7.082   4.520 -0.7976  0.0505 -0.5959
   22TAL   C107 9622   3.637   7.088   4.675  0.1744  0.5873  0.3876
   22TAL   C108 9623   3.689   7.223   4.712 -0.4091 -0.8492  0.9878
   22TAL   C109 9624   3.723   7.232   4.851 -1.1701 -0.1941 -0.2007
   22TAL   C110 9625   3.866   7.292   4.878  0.2205  0.3652 -0.4629
   23HTM   C111 9626   3.281   7.100   4.268 -0.1846  0.7394  0.2703
   23HTM   C112 9627   3.379   7.186   4.229 -0.0128  0.5223  0.2167
   23HTM   C113 9628   3.358   7.243   4.099  0.4678 -0.0635 -0.1290
   23HTM   C114 9629   3.243   7.201   4.038  0.6624 -0.2926 -0.3388
   23HTM    S12 9630   3.153   7.084   4.142  0.2507  0.2173 -0.1145
   24TAL   C115 9631   3.454   7.356   4.034  0.7136 -0.5658  0.1624
   24TAL   C116 9632   3.606   7.330   4.029  0.3491  0.2822 -0.9656
   24TAL   C117 9633   3.685   7.455   3.989  0.1677 -0.2944  0.1933
   24TAL   C118 9634   3.836   7.464   3.962  0.3276 -0.0734  0.2967
   24TAL   C119 9635   3.927   7.353   4.024  0.9086  0.0710 -0.2074
   24TAL   C120 9636   3.915   7.328   4.171 -0.0637  0.9469  0.2169
   25HTM   C121 9637   3.188   7.220   3.902 -0.5784 -0.0883  0.3241
   25HTM   C122 9638   3.179   7.338   3.836 -0.6027 -0.0731  0.3545
   25HTM   C123 9639   3.116   7.328   3.706 -0.1093 -0.1464  0.1186
   25HTM   C124 9640   3.078   7.201   3.674  0.2911 -0.2177 -0.0919
   25HTM    S13 9641   3.118   7.084   3.805  0.0744 -0.1974 -0.0076
   26TAL   C125 9642   3.112   7.436   3.608 -0.4954  0.2293 -1.0444
   26TAL   C126 9643   3.229   7.535   3.604 -0.0005  0.4488  0.4968
   26TAL   C127 9644   3.198   7.664   3.528  0.0247  0.1854  0.1831
   26TAL   C128 9645   3.168   7.647   3.393 -0.4119  0.9841  0.1582
   26TAL   C129 9646   3.246   7.705   3.278 -0.8891 -0.1120 -0.7248
   26TAL   C130 9647   3.386   7.674   3.260  0.1405 -0.0090  0.2502
   27HTM   C131 9648   3.001   7.146   3.551 -0.0284 -0.5173  0.1007
   27HTM   C132 9649   2.914   7.207   3.465 -0.0592 -0.3816  0.2244
   27HTM   C133 9650   2.894   7.133   3.342  0.0272 -0.1098  0.0446
   27HTM   C134 9651   2.965   7.017   3.336  0.1240 -0.0380 -0.2162
   27HTM    S14 9652   3.064   6.991   3.485  0.1132 -0.3103 -0.2552
   28TAL   C135 9653   2.820   7.200   3.224  0.4037 -0.0806  0.1233
   28TAL   C136 9654   2.673   7.175   3.192 -0.1633  0.0350  0.1352
   28TAL   C137 9655   2.608   7.278   3.094 -0.2874 -0.1228 -0.2931
   28TAL   C138 9656   2.459   7.282   3.068 -0.1646  0.7724  1.0771
   28TAL   C139 9657   2.357   7.301   3.193  0.3199  0.6219 -0.1300
   28TAL   C140 9658   2.216   7.341   3.151  0.4263  0.3774 -0.3993
   29HTM   C141 9659   2.980   6.924   3.231 -0.0382 -0.0615 -0.2104
   29HTM   C142 9660   3.094   6.901   3.160 -0.1667 -0.1578 -0.3884
   29HTM   C143 9661   3.080   6.800   3.058 -0.4194 -0.1214 -0.3909
   29HTM   C144 9662   2.955   6.746   3.051 -0.4836  0.0028 -0.2147
   29HTM    S15 9663   2.844   6.819   3.174 -0.2278  0.0840 -0.0306
   30TAL   C145 9664   3.204   6.763   2.967  0.3676 -0.6603 -1.3580
   30TAL   C146 9665   3.304   6.660   3.028  0.3262 -0.6830 -0.1315
   30TAL   C147 9666   3.425   6.637   2.937 -0.3956  0.1066 -0.6358
   30TAL   C148 9667   3.435   6.491   2.883 -0.2252 -0.1699 -0.1013
   30TAL   C149 9668   3.328   6.451   2.781  0.1705  1.2688  0.1293
   30TAL   C150 9669   3.390   6.315   2.746 -0.5767 -0.6231 -0.5664
   31HTM   C151 9670   2.912   6.643   2.965  0.1735  0.1354  0.3412
   31HTM   C152 9671   2.923   6.623   2.830  0.0619  0.5065  0.2766
   31HTM   C153 9672   2.833   6.523   2.778 -0.1040  0.7720  0.0446
   31HTM   C154 9673   2.753   6.466   2.874 -0.1188  0.6035 -0.0677
   31HTM    S16 9674   2.786   6.535   3.037  0.0772  0.0925  0.1122
   32TAL   C155 9675   2.822   6.498   2.635  0.3350  0.0688  0.4596
   32TAL   C156 9676   2.741   6.607   2.555 -0.5978  0.2474 -0.5738
   32TAL   C157 9677   2.661   6.561   2.440  0.2516 -0.1401  1.0471
   32TAL   C158 9678   2.661   6.681   2.368  1.0606 -1.2998 -0.5481
   32TAL   C159 9679   2.567   6.675   2.244 -0.5222 -1.2199 -1.0670
   32TAL   C160 9680   2.496   6.815   2.228  0.4618 -0.4125  0.3995
   33HTM   C161 9681   2.659   6.355   2.865  0.2639  0.4237 -0.5193
   33HTM   C162 9682   2.667   6.235   2.928  0.6962  0.5521 -0.3209
   33HTM   C163 9683   2.566   6.141   2.886  0.7269  0.2872  0.1909
   33HTM   C164 9684   2.480   6.190   2.792  0.3178 -0.0432  0.3829
   33HTM    S17 9685   2.521   6.360   2.748 -0.1413 -0.0455 -0.0714
   34TAL   C165 9686   2.563   5.997   2.924 -0.0278 -0.0596  0.0038
   34TAL   C166 9687   2.517   5.972   3.069 -0.3873  0.5121 -0.3340
   34TAL   C167 9688   2.386   6.017   3.115 -0.5966  0.2055 -0.2856
   34TAL   C168 9689   2.336   5.991   3.257  0.3538 -0.8763 -0.8601
   34TAL   C169 9690   2.214   6.060   3.321 -0.6748 -1.0888  0.1674
   34TAL   C170 9691   2.175   6.032   3.465 -0.0555 -0.2196  0.7770
   35HTM   C171 9692   2.366   6.130   2.718 -0.3106  0.4285  0.2475
   35HTM   C172 9693   2.309   6.008   2.738 -0.1146  0.2898 -0.0130
   35HTM   C173 9694   2.201   5.979   2.647  0.2834  0.0806 -0.4229
   35HTM   C174 9695   2.177   6.079   2.557  0.3906  0.0597 -0.4748
   35HTM    S18 9696   2.289   6.218   2.581 -0.0056  0.3047 -0.0066
   36TAL   C175 9697   2.128   5.845   2.681 -0.1963  0.4930 -0.1443
   36TAL   C176 9698   2.193   5.716   2.618 -0.9238  1.7881 -0.7729
   36TAL   C177 9699   2.191   5.676   2.466  0.3411 -0.0799 -0.7695
   36TAL   C178 9700   2.039   5.648   2.419 -0.5268 -0.3411 -0.4180
   36TAL   C179 9701   2.020   5.642   2.273 -0.7319  0.5054  0.4770
   36TAL   C180 9702   1.890   5.582   2.223  0.4033  0.0742 -0.2964
   37HTM   C181 9703   2.086   6.085   2.449  0.0091  0.6870  0.4786
   37HTM   C182 9704   2.115   6.055   2.320  0.5221  0.4400  0.6450
   37HTM   C183 9705   2.000   6.052   2.234  0.8108 -0.0806  0.2635
   37HTM   C184 9706   1.883   6.080   2.298  0.5181 -0.2304 -0.1938
   37HTM    S19 9707   1.910   6.112   2.473 -0.1500  0.2783 -0.1779
   38TAL   C185 9708   2.015   6.017   2.092 -0.4362  0.5674  0.2874
   38TAL   C186 9709   2.017   6.133   1.992  0.1442 -0.3513  1.2359
   38TAL   C187 9710   1.987   6.094   1.849  0.6378  0.5837  0.5864
   38TAL   C188 9711   2.101   6.145   1.749 -0.2758 -0.0660  0.5262
   38TAL   C189 9712   2.055   6.194   1.612 -0.4705 -1.0669  0.5634
   38TAL   C190 9713   2.173   6.215   1.507 -0.4136 -0.5652 -0.5013
   39HTM   C191 9714   1.745   6.076   2.262  0.1069 -0.4669  0.2237
   39HTM   C192 9715   1.649   6.126   2.346  0.0103 -0.9079  0.3827
   39HTM   C193 9716   1.515   6.114   2.294  0.0600 -0.7371  0.2109
   39HTM   C194 9717   1.509   6.055   2.172  0.1945 -0.1659 -0.0789
   39HTM    S20 9718   1.673   6.009   2.111  0.2695  0.2033 -0.1582
   40TAL   C195 9719   1.397   6.149   2.381 -0.4144  0.0430  0.8879
   40TAL   C196 9720   1.362   6.076   2.519 -0.0591  0.0985  1.0355
   40TAL   C197 9721   1.209   6.058   2.544 -0.4458 -0.1719 -0.1855
   40TAL   C198 9722   1.175   5.933   2.627 -0.6993  0.4880 -0.1809
   40TAL   C199 9723   1.160   5.804   2.550  0.4896 -0.1326 -1.0696
   40TAL   C200 9724   1.030   5.798   2.470  0.2900  0.6103 -0.5106
   41HTM   C201 9725   1.404   5.999   2.087  0.3708 -0.1343  0.3637
   41HTM   C202 9726   1.405   5.875   2.029  0.1724 -0.1477  0.3897
   41HTM   C203 9727   1.274   5.831   1.987  0.1221  0.1205  0.2565
   41HTM   C204 9728   1.175   5.920   2.013  0.2821  0.3383  0.1291
   41HTM    S21 9729   1.238   6.069   2.093  0.5105  0.2208  0.1677
   42TAL   C205 9730   1.252   5.684   1.935  0.6875  0.1150 -1.1428
   42TAL   C206 9731   1.215   5.675   1.791  0.8204  0.8357  0.5031
   42TAL   C207 9732   1.187   5.520   1.770 -0.0343 -0.1705  0.2748
   42TAL   C208 9733   1.148   5.467   1.632 -0.4327 -0.6719  0.3810
   42TAL   C209 9734   1.103   5.314   1.644  0.8741 -0.8090  0.5166
   42TAL   C210 9735   1.058   5.248   1.512 -0.1465  0.5987 -0.7454
   43HTM   C211 9736   1.030   5.936   1.991  0.1575 -0.2044 -0.3372
   43HTM   C212 9737   0.964   6.055   1.997  0.5825  0.0535 -0.6861
   43HTM   C213 9738   0.823   6.045   1.970  0.5191  0.4556 -0.5237
   43HTM   C214 9739   0.782   5.918   1.943  0.0458  0.5042 -0.0509
   43HTM    S22 9740   0.918   5.800   1.950 -0.3597  0.0423  0.2280
   44TAL   C215 9741   0.734   6.167   2.002  1.1385  0.4116  0.4374
   44TAL   C216 9742   0.754   6.307   1.935 -0.4424 -0.3460 -0.3523
   44TAL   C217 9743   0.766   6.303   1.786 -0.3516  0.0610 -0.0211
   44TAL   C218 9744   0.852   6.420   1.732 -0.3559 -0.0500  0.7856
   44TAL   C219 9745   0.888   6.405   1.575  0.0950 -0.0979  0.5955
   44TAL   C220 9746   0.949   6.517   1.500 -0.6297 -0.2241  0.8725
   45HTM   C221 9747   0.650   5.860   1.918  0.2693  0.4065 -0.5587
   45HTM   C222 9748   0.613   5.729   1.921  0.4251  0.3682 -0.2119
   45HTM   C223 9749   0.471   5.709   1.910  0.4172  0.1842  0.1930
   45HTM   C224 9750   0.400   5.825   1.899  0.2554  0.0815  0.1548
   45HTM    S23 9751   0.508   5.970   1.901  0.0993  0.2111 -0.3996
   46TAL   C225 9752   0.418   5.572   1.896 -0.4381  1.0607  0.7557
   46TAL   C226 9753   0.448   5.481   2.016 -0.3059 -0.1832  0.2293
   46TAL   C227 9754   0.347   5.370   2.032  1.3298  0.6875 -0.3390
   46TAL   C228 9755   0.307   5.328   2.179 -0.0038  1.2394  0.1333
   46TAL   C229 9756   0.230   5.194   2.180 -0.8987  0.3428 -0.4286
   46TAL   C230 9757   0.261   5.113   2.308  0.8436  0.5914  0.5826
   47HTM   C231 9758   0.258   5.848   1.896 -0.1612  0.7325 -0.1899
   47HTM   C232 9759   0.205   5.965   1.851 -0.5938  0.4325 -0.4826
   47HTM   C233 9760   0.062   5.964   1.840 -0.5955 -0.1076 -0.4422
   47HTM   C234 9761   0.005   5.845   1.877 -0.1641 -0.2193 -0.1188
   47HTM    S24 9762   0.130   5.725   1.928  0.2811  0.3535  0.1620
   48TAL   C235 9763  -0.013   6.091   1.826  0.4538  0.3810  0.2352
   48TAL   C236 9764  -0.166   6.103   1.868 -0.3916 -1.6526  0.8568
   48TAL   C237 9765  -0.237   6.221   1.795 -0.0233 -0.9752 -0.7489
   48TAL   C238 9766  -0.391   6.223   1.796  0.0740 -0.7545  0.5818
   48TAL   C239 9767  -0.444   6.355   1.744  0.7528  0.2248  0.7587
   48TAL   C240 9768  -0.584   6.381   1.778  0.0009 -0.9840 -0.3351
    1HTM     C1 9769   4.434   6.901   8.422  0.1300 -0.0184 -0.1881
    1HTM     C2 9770   4.442   6.845   8.546  0.2559 -0.0019 -0.1893
    1HTM     C3 9771   4.518   6.723   8.550  0.2145 -0.0297 -0.2601
    1HTM     C4 9772   4.567   6.685   8.428  0.0567 -0.0673 -0.3123
    1HTM     S1 9773   4.521   6.803   8.299 -0.0526 -0.0704 -0.2766
    2TAL     C5 9774   4.520   6.651   8.685 -0.3597  0.7742  0.0217
    2TAL     C6 9775   4.610   6.707   8.805  1.1482  0.1540  0.3279
    2TAL     C7 9776   4.664   6.596   8.892 -0.9966  0.0840  0.9552
    2TAL     C8 9777   4.806   6.639   8.949  2.0437  0.7901  1.4264
    2TAL     C9 9778   4.817   6.772   9.030  0.6120  0.2069 -0.0957
    2TAL    C10 9779   4.742   6.756   9.161  0.5210 -0.6303  0.1496
    3HTM    C11 9780   4.645   6.568   8.392  0.1290 -0.0990 -0.3016
    3HTM    C12 9781   4.759   6.528   8.456 -0.0768 -0.6801 -0.2801
    3HTM    C13 9782   4.839   6.436   8.380 -0.3929 -0.8727 -0.3827
    3HTM    C14 9783   4.786   6.405   8.258 -0.4278 -0.4383 -0.4817
    3HTM     S2 9784   4.630   6.490   8.230 -0.0619  0.2530 -0.4537
    4TAL    C15 9785   4.969   6.385   8.453 -0.0520  0.3894  0.3099
    4TAL    C16 9786   5.083   6.484   8.453 -0.8378 -0.0390  0.7558
    4TAL    C17 9787   5.219   6.423   8.502 -0.0226 -0.6485 -0.0983
    4TAL    C18 9788   5.272   6.345   8.379  0.3045 -1.3113 -0.0004
    4TAL    C19 9789   5.420   6.298   8.369 -0.0835  0.1358  0.2501
    4TAL    C20 9790   5.458   6.301   8.217 -1.0329  0.3658 -0.1866
    5HTM    C21 9791   4.826   6.305   8.165  0.2181 -0.0518  0.1366
    5HTM    C22 9792   4.949   6.265   8.120  0.3403 -0.3666  0.7248
    5HTM    C23 9793   4.944   6.157   8.025  0.5101 -0.2986  0.6371
    5HTM    C24 9794   4.817   6.114   7.998  0.5173  0.0680 -0.0181
    5HTM     S3 9795   4.694   6.207   8.091  0.3086  0.3580 -0.5792
    6TAL    C25 9796   5.077   6.101   7.967 -0.0971 -0.5461 -0.0286
    6TAL    C26 9797   5.101   6.133   7.813 -0.0410 -0.0617  0.0020
    6TAL    C27 9798   5.218   6.063   7.756 -0.4763  0.4737 -0.1063
    6TAL    C28 9799   5.253   6.110   7.622 -0.8322 -0.2295  0.8293
    6TAL    C29 9800   5.297   6.258   7.598 -0.3760 -0.0739 -0.3916
    6TAL    C30 9801   5.444   6.276   7.618 -0.0939 -0.3692 -0.3685
    7HTM    C31 9802   4.771   6.004   7.922 -0.1586 -0.0695 -0.3465
    7HTM    C32 9803   4.741   5.997   7.789 -0.0224 -0.1791 -0.3724
    7HTM    C33 9804   4.701   5.866   7.745  0.0874 -0.2306 -0.3195
    7HTM    C34 9805   4.701   5.773   7.844  0.0350 -0.1604 -0.2530
    7HTM     S4 9806   4.751   5.843   8.002 -0.1587 -0.0226 -0.2521
    8TAL    C35 9807   4.655   5.858   7.600  0.0631  0.0532 -0.1629
    8TAL    C36 9808   4.729   5.761   7.500  0.0330 -0.1807  0.0643
    8TAL    C37 9809   4.873   5.781   7.461 -0.0254  0.0147  0.9017
    8TAL    C38 9810   4.943   5.698   7.360  0.0848  0.1572  0.6006
    8TAL    C39 9811   5.079   5.753   7.336  0.1800  0.3465 -0.1001
    8TAL    C40 9812   5.181   5.669   7.246 -0.6340 -0.6255 -0.2175
    9HTM    C41 9813   4.673   5.627   7.832 -0.3096 -0.2584 -0.1113
    9HTM    C42 9814   4.578   5.554   7.767 -0.3434 -0.7604  0.4761
    9HTM    C43 9815   4.577   5.415   7.801  0.0092 -0.6037  1.1542
    9HTM    C44 9816   4.672   5.380   7.893  0.3119  0.0177  1.0837
    9HTM     S5 9817   4.771   5.523   7.943  0.1742  0.4566  0.1484
   10TAL    C45 9818   4.481   5.320   7.725 -0.2087 -0.0667  0.9460
   10TAL    C46 9819   4.430   5.366   7.582 -0.4782 -0.0837  0.3265
   10TAL    C47 9820   4.535   5.386   7.474  1.0127 -0.3156  0.2783
   10TAL    C48 9821   4.490   5.385   7.323 -0.5195 -0.1528 -0.5424
   10TAL    C49 9822   4.375   5.471   7.280  0.4259 -0.2893  0.0208
   10TAL    C50 9823   4.369   5.609   7.316 -0.7341 -0.8557  0.5922
   11HTM    C51 9824   4.698   5.248   7.941  0.0510 -0.3239 -0.1794
   11HTM    C52 9825   4.816   5.180   7.949 -0.1554 -0.7067 -0.3697
   11HTM    C53 9826   4.803   5.049   8.009 -0.4966 -0.7066 -0.4375
   11HTM    C54 9827   4.676   5.019   8.047 -0.5503 -0.3240 -0.2990
   11HTM     S6 9828   4.562   5.153   8.010 -0.1712  0.0691 -0.0703
   12TAL    C55 9829   4.926   4.964   8.025  0.4301  0.8476  0.1317
   12TAL    C56 9830   4.957   4.875   7.897  0.0816  0.0974 -0.7602
   12TAL    C57 9831   5.088   4.799   7.911  0.6048  0.7648  0.3822
   12TAL    C58 9832   5.162   4.760   7.785  0.1473 -0.5293  0.6343
   12TAL    C59 9833   5.203   4.868   7.690 -0.4293 -0.1572 -1.0266
   12TAL    C60 9834   5.289   4.818   7.580 -1.2070  0.3477  0.3635
   13HTM    C61 9835   4.611   4.905   8.117  0.2139 -0.0734 -0.0898
   13HTM    C62 9836   4.664   4.779   8.125  0.2990 -0.0266  0.0756
   13HTM    C63 9837   4.577   4.684   8.189  0.3811  0.0072  0.2410
   13HTM    C64 9838   4.457   4.736   8.229  0.3588 -0.0138  0.2015
   13HTM     S7 9839   4.446   4.912   8.189  0.2312 -0.0781 -0.0494
   14TAL    C65 9840   4.623   4.547   8.225  0.1010  0.7218  0.1880
   14TAL    C66 9841   4.773   4.537   8.267 -0.7633  0.4844  0.4847
   14TAL    C67 9842   4.855   4.432   8.187 -0.6655 -0.1429  0.2536
   14TAL    C68 9843   4.822   4.298   8.234  1.0111  0.6611  0.0680
   14TAL    C69 9844   4.878   4.241   8.362  0.3942 -0.7011 -0.3365
   14TAL    C70 9845   5.018   4.266   8.403  0.3293 -0.3408  0.1446
   15HTM    C71 9846   4.338   4.687   8.288  0.2832 -0.0649  0.4482
   15HTM    C72 9847   4.304   4.561   8.330  0.1241  0.1053  0.8459
   15HTM    C73 9848   4.168   4.550   8.375  0.0509  0.3769  0.7014
   15HTM    C74 9849   4.098   4.666   8.368  0.1541  0.4138  0.1939
   15HTM     S8 9850   4.199   4.801   8.304  0.3532  0.1060 -0.1436
   16TAL    C75 9851   4.119   4.410   8.419  0.0204  0.5326 -0.0475
   16TAL    C76 9852   4.194   4.295   8.350 -0.3898  0.3645  0.2079
   16TAL    C77 9853   4.125   4.160   8.375 -0.7840  1.2538  0.1427
   16TAL    C78 9854   4.114   4.110   8.516 -0.1875 -0.2893 -0.2965
   16TAL    C79 9855   4.229   4.090   8.604  0.0718 -0.7473 -0.9207
   16TAL    C80 9856   4.193   4.041   8.746  0.1395 -0.2138  1.4287
   17HTM    C81 9857   3.964   4.706   8.389 -0.1258 -0.0005  0.4275
   17HTM    C82 9858   3.888   4.795   8.318 -0.1951  0.1088  0.6380
   17HTM    C83 9859   3.749   4.796   8.355 -0.1730 -0.0023  0.7229
   17HTM    C84 9860   3.718   4.707   8.454 -0.0866 -0.1964  0.5778
   17HTM     S9 9861   3.864   4.615   8.509 -0.0262 -0.2545  0.3199
   18TAL    C85 9862   3.646   4.901   8.295 -0.6733  0.0129  0.5460
   18TAL    C86 9863   3.672   4.968   8.156  0.0634  0.5197  0.3862
   18TAL    C87 9864   3.560   5.037   8.084  0.5319 -0.1288  0.5568
   18TAL    C88 9865   3.576   5.059   7.934  0.0669 -1.2847 -0.5437
   18TAL    C89 9866   3.478   5.143   7.861 -0.2344  0.0088  0.6054
   18TAL    C90 9867   3.464   5.288   7.866 -0.8338 -0.3968 -0.0658
   19HTM    C91 9868   3.593   4.680   8.528  0.1062  0.2168  0.3188
   19HTM    C92 9869   3.572   4.585   8.623 -0.2877 -0.3878 -0.3579
   19HTM    C93 9870   3.435   4.576   8.668 -0.4732 -0.6692 -0.9584
   19HTM    C94 9871   3.352   4.666   8.607 -0.2207 -0.2797 -0.7395
   19HTM    S10 9872   3.441   4.768   8.488  0.2748  0.4793  0.2497
   20TAL    C95 9873   3.400   4.469   8.772  0.2911  0.2571 -0.3182
   20TAL    C96 9874   3.490   4.440   8.898  0.0667 -0.3322  0.1292
   20TAL    C97 9875   3.429   4.317   8.964  0.3683 -0.0728 -0.5779
   20TAL    C98 9876   3.508   4.240   9.080  0.8270 -0.2267 -0.0031
   20TAL    C99 9877   3.541   4.329   9.194 -0.6055 -0.9796 -0.1801
   20TAL   C100 9878   3.684   4.314   9.244  0.0946  0.7190  0.1461
   21HTM   C101 9879   3.216   4.681   8.625  0.0763 -0.3919  0.3860
   21HTM   C102 9880   3.142   4.769   8.552  0.4908  0.0074  0.4401
   21HTM   C103 9881   3.001   4.766   8.582  0.4147  0.3487  0.1326
   21HTM   C104 9882   2.968   4.675   8.678 -0.0578  0.2097 -0.1557
   21HTM    S11 9883   3.112   4.586   8.739 -0.4464 -0.3674 -0.0605
   22TAL   C105 9884   2.906   4.852   8.500 -0.0529 -0.0228  0.9636
   22TAL   C106 9885   2.916   4.904   8.350 -0.9913  1.3375 -0.9137
   22TAL   C107 9886   2.800   4.992   8.291  0.2570 -0.5410 -0.6756
   22TAL   C108 9887   2.797   5.142   8.339 -0.0886  1.2616 -0.0504
   22TAL   C109 9888   2.673   5.203   8.290  0.6899 -0.8664  0.0989
   22TAL   C110 9889   2.583   5.282   8.389 -0.4827  0.1104 -0.2341
   23HTM   C111 9890   2.843   4.643   8.749 -0.3402  0.0674 -0.2376
   23HTM   C112 9891   2.774   4.713   8.844 -0.8497  0.3060 -0.7734
   23HTM   C113 9892   2.656   4.645   8.891 -0.9017  0.2609 -0.9642
   23HTM   C114 9893   2.636   4.523   8.833 -0.4320 -0.0118 -0.5741
   23HTM    S12 9894   2.764   4.485   8.713  0.1168 -0.2348  0.0697
   24TAL   C115 9895   2.557   4.731   8.970  0.4312  0.7643 -0.2950
   24TAL   C116 9896   2.551   4.702   9.123 -0.4240 -0.0578  0.5622
   24TAL   C117 9897   2.553   4.560   9.176  0.5560  0.2553 -0.9312
   24TAL   C118 9898   2.520   4.542   9.323  0.6726  0.4342 -0.0710
   24TAL   C119 9899   2.375   4.587   9.362 -0.0640  0.5656  0.3320
   24TAL   C120 9900   2.254   4.529   9.276 -1.4646 -0.3444  0.3249
   25HTM   C121 9901   2.553   4.410   8.875  0.1155 -0.5711 -0.2701
   25HTM   C122 9902   2.594   4.284   8.905  0.1383 -0.5300 -0.1309
   25HTM   C123 9903   2.487   4.197   8.946  0.2134 -0.3829  0.3939
   25HTM   C124 9904   2.364   4.257   8.947  0.2480 -0.3118  0.6546
   25HTM    S13 9905   2.375   4.429   8.895  0.1877 -0.4258  0.2548
   26TAL   C125 9906   2.529   4.064   8.997  0.8388 -0.1422  0.5739
   26TAL   C126 9907   2.540   3.960   8.891 -0.7199  0.1806 -0.2026
   26TAL   C127 9908   2.553   3.807   8.929  0.4997  0.3003  0.1544
   26TAL   C128 9909   2.425   3.725   8.957 -0.1888 -0.5218  0.4488
   26TAL   C129 9910   2.295   3.727   8.867  0.1398  0.1388  0.6105
   26TAL   C130 9911   2.218   3.595   8.905  0.7324 -0.4455 -0.5692
   27HTM   C131 9912   2.231   4.203   8.963  0.0535  0.1537  0.0982
   27HTM   C132 9913   2.177   4.155   9.079 -0.2992  0.7207  0.1779
   27HTM   C133 9914   2.040   4.111   9.065 -0.2932  0.7551  0.0005
   27HTM   C134 9915   1.990   4.126   8.939  0.0641  0.2142 -0.2146
   27HTM    S14 9916   2.112   4.197   8.827  0.4234 -0.3850 -0.2098
   28TAL   C135 9917   1.970   4.079   9.193  0.1778  0.2972  1.1872
   28TAL   C136 9918   1.932   3.934   9.224 -0.2354 -0.5188  0.1964
   28TAL   C137 9919   2.053   3.849   9.248  0.3412  0.5110 -0.2080
   28TAL   C138 9920   2.057   3.698   9.214 -0.4658  0.0593 -0.4804
   28TAL   C139 9921   1.943   3.613   9.289 -1.1882 -0.4106  0.1576
   28TAL   C140 9922   1.989   3.562   9.432  0.6756 -0.5091  0.0572
   29HTM   C141 9923   1.857   4.094   8.886 -0.2436  0.0994  0.2857
   29HTM   C142 9924   1.786   3.978   8.889 -0.4458  0.2261  0.3996
   29HTM   C143 9925   1.666   3.981   8.809 -0.3483  0.2954  0.2565
   29HTM   C144 9926   1.647   4.099   8.744 -0.0718  0.2216  0.0337
   29HTM    S15 9927   1.778   4.217   8.780  0.0882  0.0575 -0.0127
   30TAL   C145 9928   1.565   3.864   8.812 -0.0501 -0.2320  0.3510
   30TAL   C146 9929   1.520   3.787   8.932  0.1513  1.2368 -0.1515
   30TAL   C147 9930   1.479   3.841   9.081  0.5000 -0.4104  1.1616
   30TAL   C148 9931   1.418   3.987   9.089 -0.9147 -0.3156  0.5762
   30TAL   C149 9932   1.405   4.054   9.228  0.5522  0.9338 -0.0136
   30TAL   C150 9933   1.299   3.984   9.323 -0.1366  0.0675  0.0297
   31HTM   C151 9934   1.552   4.145   8.647  0.0517  0.2376  0.1904
   31HTM   C152 9935   1.510   4.274   8.640  0.2360  0.2789 -0.1698
   31HTM   C153 9936   1.415   4.298   8.534  0.3001  0.1304 -0.2618
   31HTM   C154 9937   1.385   4.187   8.462  0.1647 -0.0239  0.0283
   31HTM    S16 9938   1.475   4.042   8.521 -0.0560  0.0064  0.4430
   32TAL   C155 9939   1.359   4.430   8.491  0.2815 -0.1600 -0.1320
   32TAL   C156 9940   1.387   4.557   8.570 -0.8928 -0.1596 -0.3022
   32TAL   C157 9941   1.340   4.685   8.510  0.3141 -0.6153  0.2233
   32TAL   C158 9942   1.195   4.715   8.488  0.5277 -0.2201  1.4566
   32TAL   C159 9943   1.155   4.840   8.407 -1.3432  0.7801 -0.0115
   32TAL   C160 9944   1.214   4.860   8.264  0.2293 -0.4898 -0.5115
   33HTM   C161 9945   1.292   4.163   8.358  0.0121 -0.3522 -0.0128
   33HTM   C162 9946   1.157   4.167   8.375  0.0334 -1.1519  0.4239
   33HTM   C163 9947   1.083   4.124   8.259 -0.0931 -1.2727  0.5484
   33HTM   C164 9948   1.162   4.089   8.153 -0.2109 -0.5652  0.2061
   33HTM    S17 9949   1.337   4.106   8.193 -0.1709  0.3154 -0.3028
   34TAL   C165 9950   0.937   4.146   8.256 -0.2934  0.1220 -0.2602
   34TAL   C166 9951   0.857   4.226   8.349 -0.2782 -0.5936 -1.1643
   34TAL   C167 9952   0.880   4.383   8.356 -1.0266 -0.1078 -0.4649
   34TAL   C168 9953   0.775   4.463   8.433 -0.3405  0.9198 -0.4434
   34TAL   C169 9954   0.627   4.436   8.407  0.0401  0.4878  0.0941
   34TAL   C170 9955   0.523   4.515   8.494  0.0528 -0.1985  0.7497
   35HTM   C171 9956   1.119   4.046   8.016  0.4522  0.4090 -0.2859
   35HTM   C172 9957   1.139   3.918   7.972  0.6748  0.3545 -0.0316
   35HTM   C173 9958   1.061   3.884   7.856  0.5646 -0.0868  0.1677
   35HTM   C174 9959   0.982   3.986   7.811  0.2579 -0.3688  0.0654
   35HTM    S18 9960   0.999   4.133   7.913  0.0831 -0.0970 -0.2932
   36TAL   C175 9961   1.059   3.738   7.808  0.3786  0.2439  0.0582
   36TAL   C176 9962   1.073   3.617   7.903  0.1582 -0.1610  0.4799
   36TAL   C177 9963   1.043   3.479   7.862 -0.9645  1.0590  0.2676
   36TAL   C178 9964   1.088   3.360   7.943 -0.3084  0.1214 -0.0832
   36TAL   C179 9965   1.082   3.227   7.871 -0.2610 -0.3713 -0.8870
   36TAL   C180 9966   0.961   3.153   7.831  0.1557  0.7682 -0.7105
   37HTM   C181 9967   0.874   4.006   7.715  0.8911 -0.1853 -0.0527
   37HTM   C182 9968   0.754   4.068   7.730  0.9867 -0.1118  0.4464
   37HTM   C183 9969   0.662   4.043   7.622  0.5441 -0.0041  0.7921
   37HTM   C184 9970   0.712   3.962   7.525  0.1111  0.0045  0.5565
   37HTM    S19 9971   0.880   3.910   7.563  0.2295 -0.1239 -0.1257
   38TAL   C185 9972   0.517   4.094   7.635 -1.2480  1.1109 -0.3318
   38TAL   C186 9973   0.402   3.991   7.653 -0.4144  0.5546  0.3937
   38TAL   C187 9974   0.392   3.894   7.771 -0.6372  0.2926 -0.5993
   38TAL   C188 9975   0.257   3.816   7.784  1.0056  0.4561 -0.4780
   38TAL   C189 9976   0.277   3.691   7.874 -0.3309  0.3876  0.2331
   38TAL   C190 9977   0.165   3.702   7.972  0.6313  0.6383  0.3461
   39HTM   C191 9978   0.665   3.922   7.388  0.6369  0.6937  0.0992
   39HTM   C192 9979   0.567   3.975   7.309  0.8730  1.2204  0.1518
   39HTM   C193 9980   0.565   3.920   7.176  0.3235  1.0123  0.2429
   39HTM   C194 9981   0.660   3.825   7.153 -0.3315  0.3267  0.2598
   39HTM    S20 9982   0.762   3.798   7.300 -0.3049 -0.1124  0.1612
   40TAL   C195 9983   0.467   3.963   7.058 -0.2727  0.6883 -0.2462
   40TAL   C196 9984   0.384   4.085   7.087 -0.8616  0.1815  0.4849
   40TAL   C197 9985   0.307   4.119   6.966 -1.6188 -0.0394  0.2783
   40TAL   C198 9986   0.244   4.262   6.967 -0.5831 -0.1192  1.0318
   40TAL   C199 9987   0.156   4.280   6.847  1.1430  0.2384 -1.0656
   40TAL   C200 9988   0.172   4.238   6.702 -0.0772 -0.5535 -0.2242
   41HTM   C201 9989   0.690   3.742   7.043 -0.3173 -0.0227 -0.0408
   41HTM   C202 9990   0.712   3.608   7.038 -1.2672 -0.1912  0.0134
   41HTM   C203 9991   0.761   3.561   6.911 -1.5047 -0.5832  0.0597
   41HTM   C204 9992   0.778   3.661   6.819 -0.7359 -0.7136  0.0409
   41HTM    S21 9993   0.731   3.822   6.886  0.3562 -0.3484 -0.0374
   42TAL   C205 9994   0.809   3.416   6.897  0.5191  0.4398  0.0627
   42TAL   C206 9995   0.702   3.299   6.920  0.0933  0.0122 -0.1164
   42TAL   C207 9996   0.586   3.302   6.816  1.2549  0.7750  0.5214
   42TAL   C208 9997   0.608   3.325   6.663  0.1972 -0.0416  0.0961
   42TAL   C209 9998   0.482   3.320   6.584 -0.0906 -0.5709  0.9818
   42TAL   C210 9999   0.515   3.380   6.447 -0.2916  0.6915  0.4365
   43HTM   C21110000   0.806   3.652   6.677  0.1781 -0.0259 -0.3975
   43HTM   C21210001   0.897   3.585   6.600  0.4395  0.5529 -0.5991
   43HTM   C21310002   0.892   3.621   6.461  0.2719  0.9164 -0.5023
   43HTM   C21410003   0.797   3.715   6.432 -0.1171  0.6147 -0.2272
   43HTM    S2210004   0.706   3.765   6.579 -0.3036 -0.1578 -0.0675
   44TAL   C21510005   0.989   3.552   6.371 -0.1974  1.2853  0.0272
   44TAL   C21610006   0.983   3.391   6.379  0.6279  0.6795 -0.0409
   44TAL   C21710007   0.865   3.330   6.312 -0.1068 -0.3688  0.1054
   44TAL   C21810008   0.878   3.186   6.286  0.2858  0.3651  0.7357
   44TAL   C21910009   0.748   3.133   6.223  0.0734 -0.0294  0.2906
   44TAL   C22010010   0.736   3.129   6.071  0.3837  0.3280 -0.4009
   45HTM   C22110011   0.749   3.783   6.314 -0.1130 -0.5392  0.2844
   45HTM   C22210012   0.639   3.863   6.304 -0.4203 -0.9550  0.2308
   45HTM   C22310013   0.604   3.897   6.169 -0.2619 -0.7947  0.2294
   45HTM   C22410014   0.687   3.842   6.075  0.1662 -0.2565  0.2817
   45HTM    S2310015   0.816   3.743   6.152  0.4044  0.0922  0.3375
   46TAL   C22510016   0.477   3.977   6.141  1.0645  0.3223  0.5547
   46TAL   C22610017   0.352   3.934   6.215  0.0291  0.4471 -0.1257
   46TAL   C22710018   0.231   3.944   6.127  0.3106 -0.2088  0.4346
   46TAL   C22810019   0.118   3.846   6.164  0.4595  0.5121  0.1345
   46TAL   C22910020   0.003   3.852   6.057 -0.2914  0.0020 -0.0124
   46TAL   C23010021  -0.113   3.758   6.079  0.0648 -0.1735 -0.1176
   47HTM   C23110022   0.684   3.857   5.937 -0.5055 -0.3971 -0.2567
   47HTM   C23210023   0.656   3.767   5.839 -0.3777 -0.2836 -0.3990
   47HTM   C23310024   0.651   3.824   5.707 -0.2402 -0.1240 -0.3346
   47HTM   C23410025   0.677   3.958   5.704 -0.2631 -0.1159 -0.1433
   47HTM    S2410026   0.708   4.023   5.870 -0.4617 -0.3107 -0.0287
   48TAL   C23510027   0.605   3.754   5.590  0.3937  0.9974  0.1583
   48TAL   C23610028   0.680   3.667   5.488  0.2881  0.4295 -0.5098
   48TAL   C23710029   0.669   3.703   5.341  0.1953  0.2877  0.2063
   48TAL   C23810030   0.526   3.722   5.275 -0.4830  0.2440 -0.4121
   48TAL   C23910031   0.556   3.716   5.132  0.6851  1.2711  0.6764
   48TAL   C24010032   0.437   3.704   5.041  0.4297  0.5173 -0.1861
    1HTM     C110033   3.283   5.671  12.024 -0.2713  0.0502  0.1424
    1HTM     C210034   3.236   5.650  11.898 -0.5065 -0.1835  0.2658
    1HTM     C310035   3.178   5.767  11.837 -0.3645 -0.2211  0.0546
    1HTM     C410036   3.180   5.877  11.917 -0.0211 -0.0159 -0.2300
    1HTM     S110037   3.256   5.842  12.077  0.1509  0.2425 -0.2537
    2TAL     C510038   3.081   5.764  11.720  0.3669  0.0285 -0.5392
    2TAL     C610039   2.948   5.679  11.721 -0.3333 -0.3577 -0.4643
    2TAL     C710040   2.826   5.748  11.663  0.1536 -0.1729  0.5480
    2TAL     C810041   2.856   5.804  11.523  0.0238 -0.3065 -1.3617
    2TAL     C910042   2.755   5.899  11.454 -0.7651 -1.0902  0.3702
    2TAL    C1010043   2.812   5.944  11.324 -0.1712  1.1281  0.7525
    3HTM    C1110044   3.158   6.020  11.881  0.3102 -0.0838  0.2869
    3HTM    C1210045   3.040   6.083  11.907  0.3456 -0.0453  0.3567
    3HTM    C1310046   3.025   6.209  11.839  0.2954 -0.0986  0.2682
    3HTM    C1410047   3.132   6.243  11.762  0.2217 -0.1776  0.1308
    3HTM     S210048   3.261   6.117  11.768  0.2099 -0.1909  0.1028
    4TAL    C1510049   2.899   6.303  11.854  0.7328  0.3515  0.4204
    4TAL    C1610050   2.766   6.230  11.882 -0.3067 -0.1493  0.3936
    4TAL    C1710051   2.704   6.142  11.765 -0.5953  0.2942 -0.1833
    4TAL    C1810052   2.583   6.200  11.697 -0.2602 -0.0951 -0.0352
    4TAL    C1910053   2.500   6.090  11.640 -0.4363  1.8179 -0.9928
    4TAL    C2010054   2.353   6.114  11.636  0.3452 -0.1397 -0.2499
    5HTM    C2110055   3.154   6.360  11.671  0.0161  0.6544 -0.4894
    5HTM    C2210056   3.147   6.379  11.536  0.5463  1.0529 -0.4697
    5HTM    C2310057   3.179   6.512  11.494  0.9835  1.1082  0.0246
    5HTM    C2410058   3.211   6.596  11.596  0.7866  0.7519  0.3809
    5HTM     S310059   3.202   6.512  11.756  0.0279  0.3155  0.1186
    6TAL    C2510060   3.165   6.545  11.340  0.1310  0.5671 -0.1435
    6TAL    C2610061   3.045   6.491  11.252 -0.3695  0.5414 -1.0307
    6TAL    C2710062   2.917   6.525  11.328  0.0696 -0.6980 -0.2418
    6TAL    C2810063   2.791   6.515  11.241  1.0027 -0.1329 -0.0491
    6TAL    C2910064   2.732   6.376  11.244 -0.3379 -0.0169 -0.0080
    6TAL    C3010065   2.606   6.335  11.165 -0.2779 -0.6957 -0.0105
    7HTM    C3110066   3.247   6.732  11.593 -0.2895 -0.1939 -0.3847
    7HTM    C3210067   3.235   6.799  11.711 -1.2858 -0.3639 -0.3724
    7HTM    C3310068   3.246   6.942  11.698 -1.2447 -0.3394 -0.0849
    7HTM    C3410069   3.266   6.984  11.570 -0.2173 -0.1508  0.1223
    7HTM     S410070   3.273   6.845  11.455  0.7860  0.0119 -0.0307
    8TAL    C3510071   3.239   7.025  11.827 -0.0980  0.0172 -0.1952
    8TAL    C3610072   3.108   7.092  11.849  0.2626 -0.8036  0.0506
    8TAL    C3710073   3.079   7.159  11.982  1.1490 -0.1473 -0.2608
    8TAL    C3810074   2.936   7.217  11.963  0.2714 -0.1114 -0.0216
    8TAL    C3910075   2.881   7.320  12.067 -0.5796  0.3966 -0.6982
    8TAL    C4010076   2.788   7.412  11.991  0.2245 -0.5897 -0.7633
    9HTM    C4110077   3.293   7.115  11.517  0.4332 -0.1019  0.1092
    9HTM    C4210078   3.351   7.142  11.397  0.5567 -0.1060  0.1681
    9HTM    C4310079   3.369   7.282  11.372  0.3340 -0.0964  0.0637
    9HTM    C4410080   3.323   7.363  11.472  0.0406 -0.0853 -0.0747
    9HTM     S510081   3.255   7.266  11.608  0.0228 -0.0859 -0.0841
   10TAL    C4510082   3.419   7.331  11.238  0.1500  0.6427  0.3076
   10TAL    C4610083   3.566   7.297  11.206 -0.0175  1.3145 -0.3280
   10TAL    C4710084   3.607   7.276  11.059 -0.5211  0.3199  0.4050
   10TAL    C4810085   3.563   7.160  10.970 -0.2120  1.4323 -0.3256
   10TAL    C4910086   3.646   7.122  10.849  0.4852 -0.2169 -0.2058
   10TAL    C5010087   3.801   7.124  10.864  0.7217 -0.4162  0.1040
   11HTM    C5110088   3.356   7.496  11.488  0.0869 -0.7594  0.3887
   11HTM    C5210089   3.295   7.610  11.442 -0.4026 -1.0482  0.3035
   11HTM    C5310090   3.359   7.731  11.486 -0.8159 -0.7406  0.0684
   11HTM    C5410091   3.468   7.710  11.565 -0.6414 -0.2173 -0.0257
   11HTM     S610092   3.499   7.534  11.591  0.0638 -0.0712  0.1772
   12TAL    C5510093   3.314   7.873  11.443 -0.3567  0.9992  0.2280
   12TAL    C5610094   3.180   7.888  11.372 -0.5536 -0.7069 -0.2675
   12TAL    C5710095   3.139   8.026  11.344 -0.2510 -0.6445  0.5331
   12TAL    C5810096   2.997   8.060  11.307 -0.1220  0.1574 -0.1879
   12TAL    C5910097   2.914   8.101  11.429 -0.4690 -0.6354  0.0422
   12TAL    C6010098   2.765   8.082  11.392 -0.3685  0.4329  0.1694
   13HTM    C6110099   3.567   7.807  11.617 -0.5587 -0.1171  0.0443
   13HTM    C6210100   3.616   7.915  11.549 -1.1507 -0.0615 -0.3059
   13HTM    C6310101   3.675   8.015  11.633 -1.0881  0.2221 -0.6828
   13HTM    C6410102   3.671   7.985  11.766 -0.4486  0.3828 -0.6199
   13HTM     S710103   3.591   7.825  11.795  0.1289  0.1868 -0.0752
   14TAL    C6510104   3.691   8.152  11.570 -0.6044 -0.3650 -0.7432
   14TAL    C6610105   3.555   8.217  11.526 -0.5217 -0.7350  0.7608
   14TAL    C6710106   3.448   8.244  11.636 -0.6898 -0.2130  0.4552
   14TAL    C6810107   3.323   8.313  11.575  0.3497  0.4532 -0.0600
   14TAL    C6910108   3.209   8.359  11.677 -0.1904  0.4455  0.8415
   14TAL    C7010109   3.138   8.271  11.769 -0.4394  0.7809 -0.9814
   15HTM    C7110110   3.716   8.066  11.875 -0.4497  0.7641  0.3082
   15HTM    C7210111   3.650   8.115  11.985 -0.1937  1.1624  0.2887
   15HTM    C7310112   3.735   8.184  12.078  0.1667  0.8044  0.2279
   15HTM    C7410113   3.866   8.187  12.040  0.1853  0.1331  0.2005
   15HTM     S810114   3.892   8.104  11.882 -0.2543 -0.1008  0.2501
   16TAL    C7510115   3.669   8.246  12.199  0.3681  0.8472  0.4390
   16TAL    C7610116   3.526   8.303  12.187  0.2793  0.6682 -0.2354
   16TAL    C7710117   3.480   8.390  12.075 -0.5392  0.7126  0.2288
   16TAL    C7810118   3.333   8.437  12.109 -0.3965  1.0539 -0.1028
   16TAL    C7910119   3.283   8.569  12.036  0.8741 -0.0392 -0.2596
   16TAL    C8010120   3.131   8.582  12.023 -0.1512 -0.1882  0.0735
   17HTM    C8110121   3.985   8.241  12.107 -0.2682 -0.0688 -0.4586
   17HTM    C8210122   4.110   8.247  12.052 -0.2003 -0.0842 -0.3088
   17HTM    C8310123   4.209   8.306  12.137 -0.2227 -0.4031 -0.0587
   17HTM    C8410124   4.160   8.346  12.258 -0.3076 -0.6307 -0.0178
   17HTM     S910125   3.984   8.311  12.273 -0.3664 -0.4588 -0.2936
   18TAL    C8510126   4.362   8.309  12.103  1.0194  0.6465 -0.3988
   18TAL    C8610127   4.417   8.184  12.026 -1.1804 -0.6671  0.6754
   18TAL    C8710128   4.556   8.221  11.982 -0.0310 -0.2692 -0.0872
   18TAL    C8810129   4.621   8.111  11.904 -0.7412 -0.5470  0.3321
   18TAL    C8910130   4.760   8.129  11.829  0.0267 -0.5739 -0.1438
   18TAL    C9010131   4.873   8.202  11.901 -0.4725  0.3818 -1.3602
   19HTM    C9110132   4.222   8.424  12.365  0.2227 -0.3918 -0.0196
   19HTM    C9210133   4.300   8.536  12.357  1.0372 -0.9452 -0.1266
   19HTM    C9310134   4.337   8.589  12.486  1.2869 -0.9994 -0.1760
   19HTM    C9410135   4.288   8.518  12.591  0.6630 -0.4873 -0.1066
   19HTM    S1010136   4.190   8.377  12.536 -0.2957  0.1077  0.0277
   20TAL    C9510137   4.418   8.716  12.515  1.1173  0.5726  0.2093
   20TAL    C9610138   4.547   8.746  12.438  0.5501  0.2854  0.0453
   20TAL    C9710139   4.655   8.645  12.476 -0.1594 -0.7470 -0.3508
   20TAL    C9810140   4.750   8.603  12.364  0.2609  0.3946 -0.2231
   20TAL    C9910141   4.835   8.700  12.283 -0.4785 -0.8747  0.2242
   20TAL   C10010142   4.807   8.696  12.140 -0.1832 -0.1910 -0.4853
   21HTM   C10110143   4.294   8.542  12.731  0.4594 -0.1102  0.1727
   21HTM   C10210144   4.186   8.523  12.811  0.3920 -0.0389  0.0997
   21HTM   C10310145   4.205   8.570  12.946  0.2291  0.2076  0.0381
   21HTM   C10410146   4.327   8.625  12.968  0.1723  0.3243  0.0648
   21HTM    S1110147   4.429   8.622  12.820  0.3214  0.1304  0.1702
   22TAL   C10510148   4.095   8.549  13.048 -0.4920 -1.1188  0.0313
   22TAL   C10610149   3.978   8.457  13.015 -0.0970  0.6074  1.0230
   22TAL   C10710150   3.897   8.403  13.137  0.1652 -0.6594 -0.7347
   22TAL   C10810151   3.749   8.358  13.102 -0.9810 -0.0238 -0.8580
   22TAL   C10910152   3.665   8.318  13.222  0.7207 -0.2426  0.0349
   22TAL   C11010153   3.558   8.214  13.195 -0.4976  0.1990  0.1646
   23HTM   C11110154   4.389   8.681  13.081 -0.7980  0.2466 -0.1012
   23HTM   C11210155   4.524   8.692  13.099 -0.7842  0.7532 -0.4792
   23HTM   C11310156   4.563   8.714  13.236 -0.4842  0.9347 -0.5920
   23HTM   C11410157   4.458   8.720  13.322 -0.2693  0.5666 -0.2996
   23HTM    S1210158   4.300   8.698  13.237 -0.4304 -0.0426  0.1437
   24TAL   C11510159   4.710   8.723  13.256 -0.6705  0.3675 -0.0644
   24TAL   C11610160   4.780   8.752  13.388  0.1911  0.0588 -0.2047
   24TAL   C11710161   4.935   8.752  13.387  0.1411  0.4707  0.0665
   24TAL   C11810162   4.981   8.752  13.533 -0.1167 -0.1376  0.4877
   24TAL   C11910163   5.130   8.753  13.548 -0.1735  0.1283 -0.1455
   24TAL   C12010164   5.233   8.829  13.466 -0.4354  0.9284  0.1943
   25HTM   C12110165   4.454   8.743  13.464  0.7222  0.0216  0.2741
   25HTM   C12210166   4.517   8.671  13.561  0.0023 -0.2583  0.5443
   25HTM   C12310167   4.485   8.715  13.695 -0.8175 -0.5015  0.4420
   25HTM   C12410168   4.399   8.820  13.699 -0.7228 -0.4071  0.0940
   25HTM    S1310169   4.350   8.873  13.533  0.4181 -0.0005 -0.1339
   26TAL   C12510170   4.568   8.672  13.816  0.0659  0.1656  0.4178
   26TAL   C12610171   4.724   8.689  13.820  1.0045 -0.7593  0.2507
   26TAL   C12710172   4.806   8.614  13.925  0.0987 -0.5416 -0.2461
   26TAL   C12810173   4.795   8.464  13.917 -0.1723  0.6270 -0.5175
   26TAL   C12910174   4.869   8.381  13.818 -0.4895 -0.8616  0.6800
   26TAL   C13010175   5.004   8.332  13.855 -0.1743 -0.5414 -0.5503
   27HTM   C13110176   4.334   8.881  13.811  0.6897 -0.1140 -0.0085
   27HTM   C13210177   4.258   8.994  13.803  0.9100  0.0105 -0.4122
   27HTM   C13310178   4.212   9.042  13.931  0.1897  0.0012 -0.6564
   27HTM   C13410179   4.254   8.966  14.036 -0.5799 -0.1303 -0.4392
   27HTM    S1410180   4.354   8.826  13.981 -0.4536 -0.2537  0.0951
   28TAL   C13510181   4.117   9.159  13.939  0.1810 -0.6510 -0.5584
   28TAL   C13610182   4.145   9.288  13.869 -0.4514  1.2092 -0.3887
   28TAL   C13710183   4.061   9.409  13.916  0.7969  0.9588 -0.3070
   28TAL   C13810184   4.119   9.487  14.027  0.2643 -0.3917 -1.0712
   28TAL   C13910185   4.067   9.631  14.062  0.1966  0.6308 -0.1355
   28TAL   C14010186   3.922   9.641  14.123 -0.8513 -0.8885 -0.0130
   29HTM   C14110187   4.246   8.993  14.174  0.1943  0.4977 -0.4470
   29HTM   C14210188   4.319   9.090  14.236  0.1000  0.6271 -0.5352
   29HTM   C14310189   4.270   9.125  14.366  0.1831  0.5559 -0.4847
   29HTM   C14410190   4.159   9.055  14.404  0.3411  0.3723 -0.3572
   29HTM    S1510191   4.108   8.938  14.276  0.3972  0.2743 -0.2910
   30TAL   C14510192   4.333   9.247  14.433 -0.3254  0.4035  0.3965
   30TAL   C14610193   4.471   9.213  14.482 -0.5229  0.0532  0.0027
   30TAL   C14710194   4.503   9.087  14.566 -0.6455 -0.3051  0.4582
   30TAL   C14810195   4.413   9.055  14.690 -0.0702 -0.0045  0.0889
   30TAL   C14910196   4.435   8.926  14.752 -0.2590  0.2727  0.8562
   30TAL   C15010197   4.309   8.915  14.845 -0.4457  0.0680  0.3803
   31HTM   C15110198   4.084   9.074  14.529 -1.0993  0.5195 -0.6082
   31HTM   C15210199   4.085   9.166  14.629 -1.0749  0.6028 -0.6850
   31HTM   C15310200   4.017   9.123  14.749 -0.0429  0.2187 -0.2060
   31HTM   C15410201   3.963   8.998  14.739  0.7195 -0.1575  0.2360
   31HTM    S1610202   3.995   8.924  14.577  0.1891 -0.0550  0.0801
   32TAL   C15510203   3.994   9.218  14.867  0.3324 -0.4638 -1.0100
   32TAL   C15610204   3.883   9.325  14.860  0.6865 -0.1081  0.5773
   32TAL   C15710205   3.772   9.277  14.945  0.0753 -0.4160  0.3043
   32TAL   C15810206   3.730   9.380  15.052  0.3248  0.5129 -0.5040
   32TAL   C15910207   3.836   9.467  15.119 -0.2345 -0.2725  0.2809
   32TAL   C16010208   3.776   9.540  15.236  0.7239  0.6193 -0.6241
   33HTM   C16110209   3.871   8.927  14.831 -0.0151  0.5356 -0.6724
   33HTM   C16210210   3.868   8.920  14.967 -0.1122  0.9142 -0.6535
   33HTM   C16310211   3.772   8.826  15.018  0.1201  0.7747 -0.4709
   33HTM   C16410212   3.702   8.761  14.921  0.3943  0.2896 -0.3511
   33HTM    S1710213   3.752   8.814  14.756  0.3803 -0.0310 -0.4600
   34TAL   C16510214   3.770   8.797  15.168  0.4976  0.3102  1.0365
   34TAL   C16610215   3.645   8.733  15.233 -0.2502 -0.7008  0.8318
   34TAL   C16710216   3.657   8.593  15.282  0.2988 -0.0817 -0.0671
   34TAL   C16810217   3.521   8.543  15.330  0.2447  0.2398 -0.3916
   34TAL   C16910218   3.540   8.405  15.388 -0.7706  0.1218  0.5885
   34TAL   C17010219   3.416   8.339  15.440  0.0471 -0.6711  1.0220
   35HTM   C17110220   3.580   8.671  14.932 -0.2621  0.2429 -0.1894
   35HTM   C17210221   3.448   8.700  14.913 -0.1971  0.1920 -0.7756
   35HTM   C17310222   3.364   8.584  14.900 -0.1244  0.1573 -0.9437
   35HTM   C17410223   3.431   8.466  14.909 -0.1338  0.1817 -0.4860
   35HTM    S1810224   3.608   8.493  14.934 -0.2363  0.2509  0.1984
   36TAL   C17510225   3.217   8.611  14.879  0.0494  0.4383  0.5971
   36TAL   C17610226   3.129   8.649  14.994  0.2672  0.3927 -0.5963
   36TAL   C17710227   3.073   8.525  15.073 -0.0330 -0.0536  0.4670
   36TAL   C17810228   3.029   8.564  15.218 -0.3527 -0.7131  0.6835
   36TAL   C17910229   2.946   8.467  15.297  0.4142  0.4447 -0.0421
   36TAL   C18010230   2.971   8.441  15.449  0.4290  0.1299 -0.0143
   37HTM   C18110231   3.370   8.332  14.922  0.5002 -0.6786 -0.6357
   37HTM   C18210232   3.376   8.245  15.027  0.5104 -0.4628 -0.4561
   37HTM   C18310233   3.315   8.117  15.001  0.3045 -0.4378 -0.1061
   37HTM   C18410234   3.261   8.107  14.876  0.1372 -0.6345 -0.0192
   37HTM    S1910235   3.284   8.259  14.781  0.2274 -0.8685 -0.3751
   38TAL   C18510236   3.300   8.021  15.120 -0.3119  0.2809  0.9652
   38TAL   C18610237   3.206   8.048  15.242  0.1419  0.5269  0.3698
   38TAL   C18710238   3.189   7.927  15.332 -0.3250  0.1410  0.5220
   38TAL   C18810239   3.103   7.805  15.290  0.7906 -0.5239  0.6519
   38TAL   C18910240   2.961   7.832  15.241  0.1911  0.1274  0.5942
   38TAL   C19010241   2.935   7.860  15.092  0.3802  0.2645  0.1134
   39HTM   C19110242   3.180   8.006  14.815 -0.0086 -0.0486 -0.1824
   39HTM   C19210243   3.222   7.877  14.795  0.0030 -0.1512  0.4616
   39HTM   C19310244   3.123   7.794  14.732  0.1143 -0.4028  0.6175
   39HTM   C19410245   3.006   7.859  14.704  0.1876 -0.4920  0.0920
   39HTM    S2010246   3.012   8.031  14.755  0.1211 -0.2634 -0.6458
   40TAL   C19510247   3.158   7.649  14.694  1.1525 -0.7728  0.2231
   40TAL   C19610248   3.198   7.554  14.803  0.2663  0.6081 -0.1687
   40TAL   C19710249   3.086   7.512  14.906 -0.7937 -0.4771  0.6424
   40TAL   C19810250   2.981   7.416  14.863  0.0472 -0.6909  0.4045
   40TAL   C19910251   2.842   7.478  14.893  1.0789  0.1823  0.5732
   40TAL   C20010252   2.702   7.389  14.888 -0.2957 -0.4022  0.0657
   41HTM   C20110253   2.882   7.807  14.665  0.4560  0.1967  0.2214
   41HTM   C20210254   2.766   7.821  14.737  0.2835  0.5626 -0.1194
   41HTM   C20310255   2.658   7.739  14.688  0.1956  0.8305 -0.3779
   41HTM   C20410256   2.691   7.664  14.579  0.3010  0.6689 -0.2343
   41HTM    S2110257   2.863   7.690  14.530  0.5212  0.1620  0.2423
   42TAL   C20510258   2.523   7.713  14.754 -0.2751  0.3057  0.2606
   42TAL   C20610259   2.509   7.743  14.903 -0.7632  0.4829 -0.1987
   42TAL   C20710260   2.379   7.747  14.976  0.0546  0.5478 -0.1949
   42TAL   C20810261   2.261   7.653  14.941  0.3697  0.3990  0.4495
   42TAL   C20910262   2.163   7.719  14.835 -0.6375 -0.3736  0.5413
   42TAL   C21010263   2.050   7.624  14.798 -0.2697  0.3478 -0.1715
   43HTM   C21110264   2.607   7.574  14.503 -1.0538  0.1634  0.0333
   43HTM   C21210265   2.575   7.449  14.548 -0.5037  0.0322  0.0784
   43HTM   C21310266   2.539   7.358  14.443  0.0568 -0.2142  0.0980
   43HTM   C21410267   2.545   7.412  14.318 -0.0659 -0.2711  0.0676
   43HTM    S2210268   2.595   7.586  14.324 -0.9055 -0.0155  0.0117
   44TAL   C21510269   2.512   7.219  14.470 -0.6286  0.2752 -0.4293
   44TAL   C21610270   2.542   7.152  14.606  0.2690  1.5314  0.6641
   44TAL   C21710271   2.464   7.016  14.627 -0.1048  0.2187 -1.2604
   44TAL   C21810272   2.314   7.033  14.627  0.6471  0.2533  0.0203
   44TAL   C21910273   2.273   7.121  14.742  0.0647  0.5312 -0.1565
   44TAL   C22010274   2.120   7.139  14.761 -0.1346  0.4703  0.3598
   45HTM   C22110275   2.514   7.376  14.183 -0.4934  0.8659 -0.2807
   45HTM   C22210276   2.574   7.404  14.064 -1.0414  1.5484 -0.4070
   45HTM   C22310277   2.503   7.353  13.950 -0.9278  1.1137 -0.2863
   45HTM   C22410278   2.389   7.285  13.982 -0.2930  0.0993 -0.0676
   45HTM    S2310279   2.362   7.281  14.160  0.2144 -0.3889  0.0033
   46TAL   C22510280   2.544   7.396  13.813 -0.4956 -0.7412 -0.0403
   46TAL   C22610281   2.658   7.335  13.724 -0.1885  0.0163 -0.2048
   46TAL   C22710282   2.686   7.188  13.741  0.2096 -0.4490  0.0768
   46TAL   C22810283   2.757   7.147  13.611 -0.1231 -0.6385  0.5120
   46TAL   C22910284   2.812   7.002  13.624 -0.4085 -0.4157  0.3607
   46TAL   C23010285   2.879   6.935  13.505  0.0477 -0.3894  0.5840
   47HTM   C23110286   2.294   7.217  13.892  0.2485  0.2997  0.1560
   47HTM   C23210287   2.237   7.269  13.780  0.8501  0.4845 -0.0710
   47HTM   C23310288   2.162   7.172  13.703  0.9875  0.6818 -0.4580
   47HTM   C23410289   2.163   7.047  13.757  0.4906  0.6475 -0.5260
   47HTM    S2410290   2.257   7.041  13.911 -0.1946  0.3610 -0.1033
   48TAL   C23510291   2.082   7.209  13.585  0.1303  0.9115  0.0573
   48TAL   C23610292   2.034   7.109  13.471 -0.6005  0.6804 -0.5124
   48TAL   C23710293   2.142   7.045  13.372 -0.3532  0.4754 -0.1404
   48TAL   C23810294   2.294   7.060  13.362 -0.4926 -0.1892 -0.1622
   48TAL   C23910295   2.341   7.199  13.314 -0.6598 -0.1663  0.7304
   48TAL   C24010296   2.501   7.218  13.318  0.3708 -0.7561 -0.4278
    1HTM     C110297   1.756   1.101  16.861 -0.4200  0.1694 -0.1532
    1HTM     C210298   1.752   1.011  16.963 -0.1922 -0.1313 -0.4063
    1HTM     C310299   1.853   1.032  17.064  0.0885 -0.4810 -0.6118
    1HTM     C410300   1.934   1.138  17.038  0.0747 -0.4470 -0.5152
    1HTM     S110301   1.889   1.220  16.884 -0.2968  0.0330 -0.1549
    2TAL     C510302   1.881   0.925  17.175  0.1739  0.0035 -0.0080
    2TAL     C610303   1.764   0.912  17.275  0.3694  0.0153  0.9214
    2TAL     C710304   1.767   0.780  17.339  1.4289 -0.5545  0.1810
    2TAL     C810305   1.649   0.737  17.418 -0.3886  0.4305 -0.3067
    2TAL     C910306   1.568   0.819  17.520  0.7661  0.0112  0.0085
    2TAL    C1010307   1.633   0.878  17.648  0.0018  0.6739 -0.8738
    3HTM    C1110308   2.040   1.201  17.127 -0.2574 -0.2771  0.0018
    3HTM    C1210309   2.057   1.186  17.261  0.0289 -0.1560 -0.0186
    3HTM    C1310310   2.156   1.273  17.318  0.0134  0.0298 -0.2766
    3HTM    C1410311   2.215   1.356  17.226 -0.2847  0.0503 -0.4528
    3HTM     S210312   2.149   1.329  17.061 -0.5712 -0.1652 -0.3052
    4TAL    C1510313   2.177   1.298  17.478 -0.0822  0.4228  1.0186
    4TAL    C1610314   2.060   1.338  17.565  0.2889  0.3746  0.6667
    4TAL    C1710315   1.976   1.466  17.565  1.1029 -0.4125  0.2241
    4TAL    C1810316   1.910   1.499  17.422  1.0819 -0.0847  0.2902
    4TAL    C1910317   1.790   1.590  17.432  0.0332 -1.1180  0.7045
    4TAL    C2010318   1.719   1.592  17.292  0.4320  0.1258  0.3453
    5HTM    C2110319   2.310   1.464  17.247  0.4372 -0.2370 -0.5543
    5HTM    C2210320   2.307   1.597  17.215  0.1582 -0.2013 -0.3853
    5HTM    C2310321   2.425   1.669  17.257 -0.3005  0.1431  0.3400
    5HTM    C2410322   2.517   1.592  17.321 -0.3712  0.3701  0.7239
    5HTM     S310323   2.463   1.420  17.333  0.1400  0.1647  0.1953
    6TAL    C2510324   2.433   1.819  17.229 -0.0106  0.3709  0.7691
    6TAL    C2610325   2.448   1.833  17.073 -1.0770 -0.3501  0.0909
    6TAL    C2710326   2.411   1.963  16.998 -0.1263  0.7754 -0.5018
    6TAL    C2810327   2.400   1.953  16.843  0.3680 -0.4424 -0.7751
    6TAL    C2910328   2.511   1.887  16.762 -0.1486  1.2472  0.2232
    6TAL    C3010329   2.545   1.945  16.622 -0.7704  0.7099 -0.1976
    7HTM    C3110330   2.636   1.639  17.385 -0.6202  0.0046  0.1272
    7HTM    C3210331   2.757   1.658  17.325 -0.5535  0.1075  0.2928
    7HTM    C3310332   2.865   1.679  17.418 -0.6288 -0.2099  0.4549
    7HTM    C3410333   2.826   1.676  17.549 -0.7530 -0.5549  0.4141
    7HTM     S410334   2.649   1.647  17.565 -0.7847 -0.5052  0.1645
    8TAL    C3510335   3.010   1.707  17.379 -0.5679 -0.4695  0.7227
    8TAL    C3610336   3.062   1.805  17.277  0.0098 -0.0342  0.7604
    8TAL    C3710337   3.118   1.940  17.338  0.1110  0.3181  0.0028
    8TAL    C3810338   3.253   1.919  17.399 -0.0037  0.0421 -0.2829
    8TAL    C3910339   3.314   2.044  17.480 -0.0220  0.2131  0.3032
    8TAL    C4010340   3.416   2.137  17.398  0.7515  1.1083 -0.2674
    9HTM    C4110341   2.900   1.662  17.668 -0.7296  0.0607  0.4280
    9HTM    C4210342   3.006   1.579  17.688 -1.0575 -0.3174  0.6056
    9HTM    C4310343   3.072   1.599  17.815 -0.8897 -0.2093  0.5016
    9HTM    C4410344   3.016   1.698  17.890 -0.4339  0.2513  0.2449
    9HTM     S510345   2.875   1.774  17.807 -0.1791  0.5867  0.1134
   10TAL    C4510346   3.198   1.513  17.853  0.4042  0.2307  0.5216
   10TAL    C4610347   3.201   1.366  17.813 -0.5870 -0.2475  0.1121
   10TAL    C4710348   3.092   1.271  17.861 -0.1209  0.8082 -1.0183
   10TAL    C4810349   3.057   1.254  18.010 -0.4766  0.4679 -1.5308
   10TAL    C4910350   3.155   1.303  18.126 -0.4517  0.1482  0.8922
   10TAL    C5010351   3.096   1.280  18.265  1.4398 -0.3874  0.1383
   11HTM    C5110352   3.068   1.749  18.008 -0.6717  0.4096  0.0561
   11HTM    C5210353   3.181   1.823  18.028 -0.9990  0.8542  0.2713
   11HTM    C5310354   3.223   1.828  18.166 -0.9587  0.5444  0.2713
   11HTM    C5410355   3.143   1.757  18.250 -0.6006 -0.1365  0.0566
   11HTM     S610356   3.007   1.678  18.162 -0.2841 -0.4415 -0.1655
   12TAL    C5510357   3.346   1.901  18.202 -0.4102  0.0619  0.7294
   12TAL    C5610358   3.473   1.889  18.118 -0.2260 -0.3359  1.0370
   12TAL    C5710359   3.502   1.998  18.022 -0.4448 -0.7371 -0.0773
   12TAL    C5810360   3.571   2.126  18.079 -0.1179  0.3632  0.5604
   12TAL    C5910361   3.475   2.238  18.036 -0.9158  0.0552  0.4089
   12TAL    C6010362   3.526   2.368  18.054 -0.5899 -0.7341  0.6398
   13HTM    C6110363   3.164   1.735  18.393  0.4393  0.3566 -0.0830
   13HTM    C6210364   3.179   1.825  18.495  0.8249  0.3480 -0.1268
   13HTM    C6310365   3.187   1.764  18.625  0.3612  0.3794 -0.0782
   13HTM    C6410366   3.180   1.628  18.623 -0.3780  0.4121  0.0032
   13HTM     S710367   3.161   1.566  18.454 -0.5470  0.4056  0.0244
   14TAL    C6510368   3.161   1.853  18.755 -0.4983 -0.4508  0.6742
   14TAL    C6610369   3.287   1.947  18.789  0.3227  0.6034  0.6054
   14TAL    C6710370   3.247   2.032  18.901 -0.4363  0.5909  0.9102
   14TAL    C6810371   3.330   2.151  18.936 -0.3945  0.9069 -0.3117
   14TAL    C6910372   3.359   2.247  18.830  0.6464 -0.5736  0.1838
   14TAL    C7010373   3.242   2.339  18.801  0.9273 -0.9892  0.2933
   15HTM    C7110374   3.200   1.531  18.727  0.4864 -0.2451 -0.1560
   15HTM    C7210375   3.207   1.397  18.704  0.6367 -0.2674  0.0081
   15HTM    C7310376   3.240   1.319  18.820 -0.0085 -0.1510  0.2789
   15HTM    C7410377   3.259   1.394  18.933 -0.6506 -0.0399  0.3209
   15HTM     S810378   3.236   1.570  18.900 -0.4891 -0.0739  0.0195
   16TAL    C7510379   3.249   1.176  18.819  0.4004  0.4480 -0.0937
   16TAL    C7610380   3.376   1.103  18.810 -0.7946  0.3944 -0.5901
   16TAL    C7710381   3.459   1.141  18.694  0.3005  0.2718 -0.1216
   16TAL    C7810382   3.601   1.074  18.685 -0.4662  0.0466 -0.9336
   16TAL    C7910383   3.622   0.924  18.716 -0.0878 -0.7524 -1.1079
   16TAL    C8010384   3.550   0.839  18.614  0.2002  0.7729 -0.2079
   17HTM    C8110385   3.291   1.367  19.069 -0.3873  0.2495 -0.4557
   17HTM    C8210386   3.259   1.257  19.143 -0.4473  0.1297 -0.6580
   17HTM    C8310387   3.286   1.273  19.284 -0.2782 -0.2041 -0.6509
   17HTM    C8410388   3.337   1.394  19.317 -0.0894 -0.3387 -0.4432
   17HTM     S910389   3.356   1.500  19.172 -0.1106 -0.0523 -0.2390
   18TAL    C8510390   3.259   1.156  19.383  0.6120 -0.3221  0.1736
   18TAL    C8610391   3.149   1.060  19.324 -0.5368 -0.6933  0.6570
   18TAL    C8710392   3.124   0.946  19.412  0.3464  0.1533 -0.1282
   18TAL    C8810393   3.090   0.968  19.552 -1.2973 -0.9049  0.4835
   18TAL    C8910394   3.101   0.850  19.644  0.4263  1.1405  0.3400
   18TAL    C9010395   3.220   0.750  19.620 -0.4177  0.0595  0.3969
   19HTM    C9110396   3.390   1.443  19.439  0.7379 -0.1485 -0.2737
   19HTM    C9210397   3.351   1.558  19.502  0.9305  0.2147 -0.8020
   19HTM    C9310398   3.387   1.562  19.641  0.5865  0.6275 -0.7229
   19HTM    C9410399   3.453   1.451  19.685  0.1314  0.5790 -0.1327
   19HTM    S1010400   3.475   1.331  19.552  0.1019  0.0039  0.3717
   20TAL    C9510401   3.334   1.670  19.742 -0.6920 -0.7784 -0.2102
   20TAL    C9610402   3.437   1.781  19.758 -0.9329 -0.2804  0.0308
   20TAL    C9710403   3.378   1.902  19.838  0.8338  0.7019 -0.3701
   20TAL    C9810404   3.476   2.020  19.842  0.1534  0.6053 -0.9391
   20TAL    C9910405   3.419   2.147  19.889  0.1191 -0.7154  0.0604
   20TAL   C10010406   3.522   2.257  19.910 -0.2413  0.1993  0.8289
   21HTM   C10110407   3.502   1.404  19.814  0.3891 -0.1959 -0.3797
   21HTM   C10210408   3.525   1.476  19.927  1.0551  0.4541 -0.9069
   21HTM   C10310409   3.579   1.399  20.035  1.1116  0.9325 -0.5875
   21HTM   C10410410   3.598   1.267  20.005  0.4888  0.6473  0.1831
   21HTM    S1110411   3.548   1.231  19.835 -0.2231 -0.2546  0.5680
   22TAL   C10510412   3.614   1.472  20.169  0.0572  0.2888 -0.0562
   22TAL   C10610413   3.495   1.480  20.264 -0.4327  1.4862 -0.2929
   22TAL   C10710414   3.528   1.555  20.399  0.0817  0.2044  1.0893
   22TAL   C10810415   3.387   1.588  20.435 -0.5653 -0.1895 -1.4140
   22TAL   C10910416   3.350   1.664  20.558  0.3835 -0.4197 -0.3453
   22TAL   C11010417   3.362   1.592  20.686  0.2255 -0.1706 -0.1800
   23HTM   C11110418   3.645   1.152  20.081 -0.4451 -0.6517 -0.0770
   23HTM   C11210419   3.688   1.034  20.027 -0.5144 -0.8509  0.2947
   23HTM   C11310420   3.725   0.936  20.126 -0.4598 -0.5201  0.6108
   23HTM   C11410421   3.709   0.978  20.254 -0.3488 -0.0687  0.4804
   23HTM    S1210422   3.646   1.147  20.261 -0.3043 -0.0261 -0.0569
   24TAL   C11510423   3.762   0.799  20.076 -0.4568  1.2129 -0.9073
   24TAL   C11610424   3.638   0.693  20.056  0.2756  0.8151  0.2372
   24TAL   C11710425   3.558   0.673  20.178  0.7353  0.6862 -0.1346
   24TAL   C11810426   3.433   0.579  20.157  0.1792  0.0371 -0.3415
   24TAL   C11910427   3.309   0.608  20.064  0.0289 -0.5430  0.7141
   24TAL   C12010428   3.219   0.715  20.118 -0.3472 -1.1371  0.1903
   25HTM   C12110429   3.727   0.911  20.377 -0.0340  0.0283  0.1438
   25HTM   C12210430   3.646   0.929  20.485  0.3042  0.1549  0.3796
   25HTM   C12310431   3.681   0.848  20.599  0.4344  0.0157  0.2398
   25HTM   C12410432   3.789   0.767  20.577  0.1956 -0.2172 -0.1021
   25HTM    S1310433   3.855   0.788  20.411 -0.2157 -0.2791 -0.2754
   26TAL   C12510434   3.601   0.857  20.730  0.0163  0.8095 -0.0731
   26TAL   C12610435   3.545   0.991  20.773  0.2459 -0.1567 -0.1433
   26TAL   C12710436   3.488   0.992  20.915  0.5737  0.4213 -0.5855
   26TAL   C12810437   3.437   1.116  20.967 -1.0316 -0.1900 -0.7929
   26TAL   C12910438   3.382   1.099  21.102  0.0695  0.4289 -0.7814
   26TAL   C13010439   3.314   1.216  21.151 -0.2043 -1.2710  0.2203
   27HTM   C13110440   3.866   0.695  20.680  0.2145 -0.4775 -0.1731
   27HTM   C13210441   4.000   0.671  20.676  0.1330 -0.9592 -0.0644
   27HTM   C13310442   4.053   0.616  20.798 -0.0548 -0.5669  0.1960
   27HTM   C13410443   3.959   0.599  20.896 -0.1165  0.2138  0.2844
   27HTM    S1410444   3.795   0.651  20.840  0.0591  0.5165  0.0450
   28TAL   C13510445   4.200   0.584  20.805 -0.5306  0.1452 -0.0513
   28TAL   C13610446   4.280   0.651  20.909 -0.5258 -0.0542 -0.3100
   28TAL   C13710447   4.430   0.619  20.875  0.2804  0.7531  0.0083
   28TAL   C13810448   4.539   0.679  20.957 -1.6002 -0.2087 -0.4689
   28TAL   C13910449   4.552   0.615  21.090 -0.4045 -0.8665 -0.2634
   28TAL   C14010450   4.659   0.691  21.165  0.5219  0.7088  0.2939
   29HTM   C14110451   3.972   0.539  21.032  0.0040 -0.2345  0.4545
   29HTM   C14210452   3.993   0.611  21.147 -1.0796 -0.2791  0.6995
   29HTM   C14310453   4.019   0.529  21.262 -1.6471 -0.3102  0.8116
   29HTM   C14410454   4.018   0.395  21.236 -0.9963 -0.2894  0.6522
   29HTM    S1510455   3.984   0.362  21.062  0.3948 -0.2284  0.3457
   30TAL   C14510456   4.051   0.594  21.397 -0.6530 -0.7720  0.8814
   30TAL   C14610457   3.963   0.708  21.455  0.0346  0.2483  0.2686
   30TAL   C14710458   3.807   0.680  21.452 -0.1662  0.6547 -0.3136
   30TAL   C14810459   3.710   0.786  21.459 -0.4544 -0.0875 -0.3105
   30TAL   C14910460   3.707   0.888  21.344 -0.4004 -0.5348  0.7548
   30TAL   C15010461   3.602   0.998  21.368 -0.0124  0.0631 -0.0272
   31HTM   C15110462   4.034   0.281  21.333  0.3028 -0.4367 -0.0028
   31HTM   C15210463   4.105   0.268  21.448  1.0552 -0.2956 -0.4382
   31HTM   C15310464   4.108   0.133  21.499  1.6128 -0.2845 -0.4287
   31HTM   C15410465   4.039   0.044  21.423  1.2854 -0.4172  0.0145
   31HTM    S1610466   3.964   0.123  21.279  0.2396 -0.5676  0.4575
   32TAL   C15510467   4.167   0.100  21.635 -0.6642 -0.8356 -0.0678
   32TAL   C15610468   4.320   0.094  21.629 -0.1479 -0.6897 -0.3939
   32TAL   C15710469   4.371   0.091  21.775 -1.0531  0.4448 -0.0099
   32TAL   C15810470   4.520   0.066  21.787  0.2552  0.8333  0.6980
   32TAL   C15910471   4.570   0.076  21.933 -0.4904 -0.5405  1.1434
   32TAL   C16010472   4.604  -0.057  21.977 -0.5274  0.9976 -0.7440
   33HTM   C16110473   4.011  -0.107  21.445  0.2311  0.4000  0.0001
   33HTM   C16210474   4.079  -0.188  21.531  0.8644  0.2322 -0.6380
   33HTM   C16310475   4.034  -0.325  21.529  1.0593  0.1699 -0.7911
   33HTM   C16410476   3.932  -0.348  21.442  0.5745  0.2900 -0.2701
   33HTM    S1710477   3.884  -0.198  21.354 -0.1715  0.4927  0.4608
   34TAL   C16510478   4.094  -0.420  21.632 -0.1651  0.2947  0.3454
   34TAL   C16610479   4.121  -0.378  21.771 -0.4830  0.8548 -0.2697
   34TAL   C16710480   4.156  -0.476  21.888 -0.5224  0.5452 -1.4300
   34TAL   C16810481   4.147  -0.406  22.015 -0.8785 -0.1597  0.4929
   34TAL   C16910482   4.242  -0.280  22.031 -0.0874 -0.1921  0.6575
   34TAL   C17010483   4.194  -0.198  22.143  0.5798 -0.1103 -0.0842
   35HTM   C17110484   3.870  -0.471  21.396 -0.0640  0.0403  0.0448
   35HTM   C17210485   3.837  -0.587  21.460 -0.4118 -0.0130 -0.2284
   35HTM   C17310486   3.776  -0.685  21.374 -0.7288  0.3783 -0.4578
   35HTM   C17410487   3.763  -0.644  21.245 -0.6228  0.7302 -0.3604
   35HTM    S1810488   3.828  -0.477  21.221 -0.1103  0.5934  0.0330
   36TAL   C17510489   3.724  -0.815  21.420 -0.2293  0.0361 -0.2388
   36TAL   C17610490   3.808  -0.926  21.462 -0.3251 -0.2479 -0.1964
   36TAL   C17710491   3.927  -0.916  21.559 -0.2121  0.3359  0.5819
   36TAL   C17810492   4.028  -1.028  21.523  0.5956 -1.0695  0.9165
   36TAL   C17910493   4.169  -0.987  21.558  0.9579  0.5777 -1.1267
   36TAL   C18010494   4.187  -0.989  21.711  0.2485 -0.8076 -1.2251
   37HTM   C18110495   3.710  -0.716  21.126 -0.0136 -0.0358  0.0394
   37HTM   C18210496   3.677  -0.654  21.009 -0.0079  0.0488  0.0830
   37HTM   C18310497   3.601  -0.737  20.919 -0.2438  0.2048  0.1359
   37HTM   C18410498   3.577  -0.862  20.967 -0.4292  0.2389  0.1329
   37HTM    S1910499   3.649  -0.886  21.131 -0.3196  0.0754  0.0622
   38TAL   C18510500   3.568  -0.685  20.781 -0.7340  0.5492 -0.2294
   38TAL   C18610501   3.673  -0.665  20.674  0.1752 -0.9291  0.2158
   38TAL   C18710502   3.775  -0.556  20.704 -0.9133  1.1708 -0.9390
   38TAL   C18810503   3.891  -0.546  20.609  0.3210  0.3115 -0.2274
   38TAL   C18910504   3.875  -0.510  20.459 -0.8296  1.1281 -0.4452
   38TAL   C19010505   4.009  -0.464  20.403 -0.2250 -1.1140  0.0402
   39HTM   C19110506   3.511  -0.972  20.915  0.2076  0.1789 -0.5764
   39HTM   C19210507   3.394  -0.986  20.845  0.4500  0.3380 -1.0204
   39HTM   C19310508   3.353  -1.123  20.828  0.0508  0.4133 -0.7029
   39HTM   C19410509   3.438  -1.214  20.884 -0.4957  0.3119 -0.0166
   39HTM    S2010510   3.578  -1.132  20.964 -0.5493  0.1115  0.2840
   40TAL   C19510511   3.225  -1.151  20.751 -0.0900 -1.1862 -0.0454
   40TAL   C19610512   3.077  -1.128  20.813 -0.6003  0.6152  0.0985
   40TAL   C19710513   3.062  -1.090  20.956 -0.6125  0.2416  0.8792
   40TAL   C19810514   2.936  -1.032  20.989  0.2341  0.3368 -0.2323
   40TAL   C19910515   2.912  -1.043  21.141  0.2905  0.5306 -0.9443
   40TAL   C20010516   2.767  -1.032  21.176 -0.3338 -0.6088 -0.3497
   41HTM   C20110517   3.433  -1.361  20.886  0.1391 -0.4644  0.4857
   41HTM   C20210518   3.333  -1.447  20.922  0.1756 -0.4462  0.6337
   41HTM   C20310519   3.367  -1.585  20.901  0.0789 -0.4472  0.4773
   41HTM   C20410520   3.492  -1.605  20.850 -0.0312 -0.4656  0.2101
   41HTM    S2110521   3.578  -1.449  20.824 -0.0214 -0.4838  0.1336
   42TAL   C20510522   3.279  -1.700  20.938 -0.4379 -0.9712  0.1404
   42TAL   C20610523   3.124  -1.662  20.939 -0.6806  0.1068 -0.0578
   42TAL   C20710524   3.028  -1.770  20.976 -0.0739  1.0937  0.5399
   42TAL   C20810525   3.012  -1.887  20.871 -0.4686 -0.4766 -0.1818
   42TAL   C20910526   2.876  -1.945  20.863 -0.3340  0.1043  0.3333
   42TAL   C21010527   2.853  -2.047  20.753  0.4501 -0.0973 -0.0520
   43HTM   C21110528   3.573  -1.721  20.813 -0.2092 -0.4260 -0.2604
   43HTM   C21210529   3.529  -1.840  20.762  0.2208 -0.5209 -0.4230
   43HTM   C21310530   3.629  -1.943  20.760  0.4890 -0.2688 -0.2007
   43HTM   C21410531   3.750  -1.903  20.809  0.2634  0.0182  0.1304
   43HTM    S2210532   3.747  -1.731  20.863 -0.3096 -0.0078  0.1879
   44TAL   C21510533   3.586  -2.079  20.720 -0.1528  0.8619 -0.0855
   44TAL   C21610534   3.601  -2.196  20.825  0.5700 -0.3318  0.4182
   44TAL   C21710535   3.512  -2.324  20.802 -0.7217 -0.7537 -0.7698
   44TAL   C21810536   3.532  -2.436  20.896 -0.4711  0.6342  0.7171
   44TAL   C21910537   3.671  -2.486  20.910  0.3294  0.4293  0.3105
   44TAL   C22010538   3.672  -2.627  20.967 -0.4185 -0.2959 -1.5055
   45HTM   C22110539   3.874  -1.978  20.805 -0.3840  0.0067  0.1409
   45HTM   C22210540   3.926  -2.063  20.899 -0.4529  0.0944  0.2580
   45HTM   C22310541   4.047  -2.128  20.857 -0.3891  0.0999  0.4311
   45HTM   C22410542   4.087  -2.094  20.731 -0.2718  0.0165  0.4467
   45HTM    S2310543   3.974  -1.975  20.655 -0.2322 -0.0763  0.2408
   46TAL   C22510544   4.107  -2.236  20.941  0.3623 -0.1967 -0.8522
   46TAL   C22610545   4.252  -2.229  20.974 -0.0173  0.1786 -0.0092
   46TAL   C22710546   4.306  -2.109  21.062  0.5202 -0.2279  0.1885
   46TAL   C22810547   4.302  -2.103  21.223  0.0064  1.1848 -0.2740
   46TAL   C22910548   4.194  -2.192  21.298 -0.3329 -0.1629 -0.2457
   46TAL   C23010549   4.193  -2.164  21.449 -0.7435 -0.2717 -0.2684
   47HTM   C23110550   4.198  -2.145  20.653 -0.5466 -0.6357  0.3357
   47HTM   C23210551   4.253  -2.062  20.560 -1.1771 -0.1618  0.3724
   47HTM   C23310552   4.341  -2.129  20.467 -0.9154  0.4935  0.1345
   47HTM   C23410553   4.353  -2.263  20.490 -0.0856  0.5190 -0.0837
   47HTM    S2410554   4.253  -2.316  20.631  0.4339 -0.2888 -0.0040
   48TAL   C23510555   4.415  -2.042  20.363  0.6771 -0.4420  0.1517
   48TAL   C23610556   4.503  -2.129  20.269 -0.5986 -0.6186  0.2711
   48TAL   C23710557   4.588  -2.020  20.209 -1.4408 -0.7928 -0.2724
   48TAL   C23810558   4.740  -2.056  20.174  0.4868 -0.1180 -0.1190
   48TAL   C23910559   4.768  -2.177  20.084 -0.9182  0.3053 -0.4628
   48TAL   C24010560   4.793  -2.161  19.939  0.1350  0.0259 -0.1284
    1HTM     C110561   3.223   7.013  27.437  0.1419 -0.1366 -0.2691
    1HTM     C210562   3.128   7.086  27.372  0.0309 -0.3903 -0.3972
    1HTM     C310563   3.178   7.210  27.317 -0.1798 -0.3552 -0.5097
    1HTM     C410564   3.311   7.231  27.340 -0.2294 -0.0749 -0.4685
    1HTM     S110565   3.384   7.095  27.433 -0.0123  0.1687 -0.2816
    2TAL     C510566   3.096   7.297  27.221 -0.5717 -0.1385  0.0463
    2TAL     C610567   2.947   7.285  27.225 -0.4682  0.2244  0.6229
    2TAL     C710568   2.882   7.302  27.359  0.2250  0.6073 -0.1842
    2TAL     C810569   2.732   7.286  27.340 -0.1668 -0.5695 -0.4357
    2TAL     C910570   2.643   7.284  27.469 -0.3620  0.5702  0.0055
    2TAL    C1010571   2.678   7.201  27.592  0.6030 -0.4156  0.6292
    3HTM    C1110572   3.410   7.337  27.305  0.9083 -0.2105 -0.2832
    3HTM    C1210573   3.545   7.335  27.326  0.9732  0.5698 -0.5388
    3HTM    C1310574   3.611   7.458  27.292  0.1712  1.0326 -0.4869
    3HTM    C1410575   3.527   7.554  27.243 -0.5053  0.6050 -0.1923
    3HTM     S210576   3.357   7.496  27.238 -0.1793 -0.4235  0.0450
    4TAL    C1510577   3.761   7.469  27.286 -0.5716  0.6140 -0.2864
    4TAL    C1610578   3.821   7.485  27.426 -0.1414  0.1147  0.4637
    4TAL    C1710579   3.968   7.535  27.429 -0.0422 -0.2781  0.7320
    4TAL    C1810580   3.990   7.681  27.405 -0.2927 -0.6066 -0.4807
    4TAL    C1910581   4.140   7.687  27.399  0.5032 -0.4310 -0.7369
    4TAL    C2010582   4.172   7.835  27.389 -0.5506  0.8696  0.1620
    5HTM    C2110583   3.558   7.687  27.210  0.4078 -0.1066  0.4241
    5HTM    C2210584   3.459   7.781  27.209  0.2468 -0.2660  0.8702
    5HTM    C2310585   3.504   7.912  27.172 -0.1185 -0.1770  0.7348
    5HTM    C2410586   3.637   7.919  27.145 -0.2359  0.0503  0.1856
    5HTM     S310587   3.717   7.758  27.164  0.1084  0.1704 -0.2056
    6TAL    C2510588   3.408   8.024  27.156  0.0269  0.2267 -1.9024
    6TAL    C2610589   3.393   8.118  27.282  0.1658  0.9123 -0.1348
    6TAL    C2710590   3.321   8.246  27.257 -0.1193  0.3073  0.9900
    6TAL    C2810591   3.280   8.323  27.382 -0.5257 -0.8797 -0.0417
    6TAL    C2910592   3.214   8.455  27.342  0.0176  0.2394 -0.5597
    6TAL    C3010593   3.074   8.464  27.411 -0.4456 -0.2997 -0.2801
    7HTM    C3110594   3.728   8.022  27.115  0.1063 -0.6875  0.7403
    7HTM    C3210595   3.703   8.154  27.094  0.0478 -0.6578  0.9947
    7HTM    C3310596   3.821   8.234  27.073 -0.0082 -0.6245  0.8035
    7HTM    C3410597   3.937   8.162  27.077  0.0077 -0.6288  0.4043
    7HTM     S410598   3.905   7.987  27.109  0.0952 -0.6756  0.2365
    8TAL    C3510599   3.783   8.381  27.052 -0.3601  0.3883  0.1743
    8TAL    C3610600   3.743   8.438  26.913  0.6376 -0.5248 -0.1298
    8TAL    C3710601   3.773   8.370  26.776  0.5919 -0.1097  0.7435
    8TAL    C3810602   3.641   8.329  26.709 -0.4375  0.8208 -0.1179
    8TAL    C3910603   3.656   8.313  26.558  0.3558 -0.2557  0.0383
    8TAL    C4010604   3.528   8.295  26.478  0.4028 -0.0470 -0.9397
    9HTM    C4110605   4.073   8.214  27.070  0.0861 -0.0401  0.2496
    9HTM    C4210606   4.181   8.139  27.107  0.0162 -0.2122  0.1092
    9HTM    C4310607   4.307   8.208  27.094  0.1266 -0.4726 -0.2232
    9HTM    C4410608   4.295   8.336  27.046  0.2804 -0.4992 -0.3354
    9HTM     S510609   4.122   8.379  27.015  0.2981 -0.1949 -0.0278
   10TAL    C4510610   4.437   8.146  27.135 -0.0378  0.6336  0.0377
   10TAL    C4610611   4.455   8.108  27.286 -0.1045  0.7252 -0.0316
   10TAL    C4710612   4.594   8.069  27.335  0.5110 -0.3277  0.3268
   10TAL    C4810613   4.661   7.958  27.264  0.6979 -0.0112 -0.2779
   10TAL    C4910614   4.640   7.812  27.303  1.1257 -0.3531  0.3905
   10TAL    C5010615   4.520   7.721  27.277 -0.3219  1.0155  0.0005
   11HTM    C5110616   4.396   8.434  27.011 -0.4592  0.0686  0.7045
   11HTM    C5210617   4.390   8.519  26.904 -0.8966  0.0284  0.6957
   11HTM    C5310618   4.508   8.600  26.887 -0.9725  0.0390  0.1941
   11HTM    C5410619   4.604   8.576  26.980 -0.5931  0.0873 -0.1801
   11HTM     S610620   4.553   8.450  27.098 -0.1066  0.1235  0.0751
   12TAL    C5510621   4.540   8.660  26.750  0.3912 -1.1330  0.5387
   12TAL    C5610622   4.635   8.596  26.646 -0.1339 -0.0028 -0.7060
   12TAL    C5710623   4.649   8.689  26.530  0.1012  0.6728 -0.0170
   12TAL    C5810624   4.732   8.623  26.418  0.4166 -0.0141 -0.1779
   12TAL    C5910625   4.761   8.730  26.314 -0.2572 -0.0013  0.3078
   12TAL    C6010626   4.836   8.670  26.192  0.8131 -0.2756 -0.0328
   13HTM    C6110627   4.737   8.625  26.997 -0.0243  0.3033 -0.0341
   13HTM    C6210628   4.853   8.553  26.993 -0.0082  0.3234  0.0663
   13HTM    C6310629   4.971   8.633  27.010 -0.0148  0.4062 -0.2747
   13HTM    C6410630   4.945   8.766  27.026 -0.0360  0.4492 -0.6349
   13HTM     S710631   4.768   8.800  27.022 -0.0494  0.3880 -0.5711
   14TAL    C6510632   5.110   8.562  26.991 -0.4790 -0.9085  0.4434
   14TAL    C6610633   5.132   8.442  26.903 -0.2685  0.5030  0.5978
   14TAL    C6710634   5.121   8.466  26.747  0.7437  0.3961 -0.7832
   14TAL    C6810635   5.160   8.325  26.695  0.5016 -0.3426 -0.2154
   14TAL    C6910636   5.131   8.314  26.555 -0.0716  0.2059  0.2547
   14TAL    C7010637   5.202   8.196  26.482  0.1670  0.1275  0.1248
   15HTM    C7110638   5.032   8.872  27.053  0.1203  0.1145  0.0226
   15HTM    C7210639   5.157   8.876  27.108  0.2131  0.1782 -0.1903
   15HTM    C7310640   5.215   9.008  27.112  0.0765  0.2358 -0.1197
   15HTM    C7410641   5.134   9.105  27.060 -0.1207  0.2160  0.1467
   15HTM     S810642   4.977   9.036  27.002 -0.1491  0.1223  0.3306
   16TAL    C7510643   5.369   9.026  27.162  1.0279 -0.3246  1.5802
   16TAL    C7610644   5.484   8.965  27.094 -0.3041  0.3041  0.6908
   16TAL    C7710645   5.501   9.008  26.951  0.1025  0.2864 -0.8865
   16TAL    C7810646   5.615   8.941  26.875 -0.6044  0.0001  0.8579
   16TAL    C7910647   5.558   8.849  26.756 -1.1969  0.6591 -0.3271
   16TAL    C8010648   5.684   8.779  26.691 -0.2874  0.5557  0.2370
   17HTM    C8110649   5.157   9.254  27.042 -0.2451  0.1689  0.3348
   17HTM    C8210650   5.255   9.338  27.086 -0.4020  0.4158  0.2241
   17HTM    C8310651   5.255   9.467  27.022 -0.4478  0.2163 -0.1869
   17HTM    C8410652   5.156   9.482  26.930 -0.3259 -0.1829 -0.3894
   17HTM     S910653   5.054   9.333  26.916 -0.1424 -0.3388 -0.0746
   18TAL    C8510654   5.372   9.557  27.040 -0.9589 -0.7856 -0.4833
   18TAL    C8610655   5.515   9.491  27.057  0.3418 -0.5088 -0.0613
   18TAL    C8710656   5.569   9.549  27.183  0.3204  0.3117 -0.4047
   18TAL    C8810657   5.666   9.448  27.254 -0.1182 -0.5569 -0.3679
   18TAL    C8910658   5.591   9.340  27.334 -0.1629 -0.1397 -0.3855
   18TAL    C9010659   5.671   9.223  27.399  0.0691  0.2997 -0.0195
   19HTM    C9110660   5.136   9.600  26.844 -0.1585 -0.4153  0.1313
   19HTM    C9210661   5.111   9.600  26.711 -0.2161 -0.6018  0.1421
   19HTM    C9310662   5.084   9.731  26.656  0.2282 -0.6151 -0.1178
   19HTM    C9410663   5.090   9.831  26.749  0.6247 -0.4387 -0.3267
   19HTM    S1010664   5.129   9.767  26.913  0.4666 -0.2407 -0.2104
   20TAL    C9510665   5.077   9.748  26.505  0.3611  1.0404 -0.0178
   20TAL    C9610666   5.020   9.626  26.422  0.1536  0.3259  0.0185
   20TAL    C9710667   5.040   9.677  26.277 -0.3504 -1.0092  0.3222
   20TAL    C9810668   5.043   9.572  26.172  0.9867  1.3805 -0.5638
   20TAL    C9910669   5.139   9.445  26.191  0.3518 -0.5129 -0.8209
   20TAL   C10010670   5.128   9.355  26.073 -0.3775  0.1267  0.8589
   21HTM   C10110671   5.066   9.978  26.733 -0.8637  0.3820  0.0644
   21HTM   C10210672   5.103  10.079  26.817 -1.3897  0.3487  0.3448
   21HTM   C10310673   5.071  10.210  26.767 -1.1770  0.3637  0.2484
   21HTM   C10410674   5.011  10.210  26.645 -0.4891  0.4084 -0.1048
   21HTM    S1110675   4.988  10.042  26.583 -0.0529  0.4351 -0.3465
   22TAL   C10510676   5.095  10.330  26.853 -0.1547  0.0799 -0.9287
   22TAL   C10610677   5.198  10.345  26.962 -0.9535  0.3898 -0.2191
   22TAL   C10710678   5.200  10.270  27.099  0.3170  0.2645 -0.0924
   22TAL   C10810679   5.265  10.134  27.117  0.4987  0.1417 -0.2418
   22TAL   C10910680   5.415  10.120  27.148 -0.3598 -0.6419  0.5480
   22TAL   C11010681   5.451   9.979  27.152 -0.1046 -0.1219  0.2674
   23HTM   C11110682   4.967  10.316  26.557 -0.2862  0.0942  0.3755
   23HTM   C11210683   4.881  10.297  26.453 -0.9559  0.0423  0.9203
   23HTM   C11310684   4.822  10.418  26.403 -0.9823  0.0599  0.9942
   23HTM   C11410685   4.863  10.530  26.469 -0.3325  0.1254  0.5053
   23HTM    S1210686   4.979  10.491  26.601  0.3684  0.1702 -0.0898
   24TAL   C11510687   4.735  10.413  26.280  0.6589  0.2286  0.3292
   24TAL   C11610688   4.659  10.283  26.241  0.2049  0.0214  0.1889
   24TAL   C11710689   4.552  10.304  26.129  0.5737 -0.9692  0.5311
   24TAL   C11810690   4.509  10.167  26.080 -0.0891  1.0072  0.0023
   24TAL   C11910691   4.412  10.181  25.962  1.0052 -0.4160  0.6266
   24TAL   C12010692   4.477  10.189  25.832 -0.2791 -0.3915  0.1958
   25HTM   C12110693   4.824  10.668  26.455 -0.5196 -0.1662  0.0306
   25HTM   C12210694   4.743  10.727  26.362 -0.1304 -0.2528 -0.3691
   25HTM   C12310695   4.721  10.867  26.384  0.3091 -0.0823 -0.9770
   25HTM   C12410696   4.786  10.916  26.493  0.2546  0.1343 -1.0403
   25HTM    S1310697   4.879  10.788  26.578 -0.3603  0.1399 -0.3321
   26TAL   C12510698   4.621  10.953  26.298 -0.4772  1.6182  0.9143
   26TAL   C12610699   4.477  10.904  26.318  0.4474 -0.2327 -0.3056
   26TAL   C12710700   4.399  10.919  26.447  0.7025  0.3084  0.4017
   26TAL   C12810701   4.346  11.063  26.462  0.0734  1.1842 -0.3854
   26TAL   C12910702   4.271  11.097  26.594 -0.5950  0.0923  0.6076
   26TAL   C13010703   4.136  11.026  26.615 -0.7449 -0.7282 -0.9087
   27HTM   C13110704   4.767  11.035  26.566 -0.0573  0.2044 -0.0406
   27HTM   C13210705   4.748  11.040  26.701  0.0495  0.0642 -0.0200
   27HTM   C13310706   4.725  11.173  26.752  0.2830  0.0363  0.1640
   27HTM   C13410707   4.726  11.270  26.655  0.3543  0.1555  0.2837
   27HTM    S1410708   4.757  11.199  26.492  0.1303  0.3133  0.1722
   28TAL   C13510709   4.709  11.206  26.896  0.1509  0.1579  0.7576
   28TAL   C13610710   4.721  11.111  27.007 -0.1987 -1.0701  0.2826
   28TAL   C13710711   4.854  11.040  27.012  0.6033 -0.0475 -0.3772
   28TAL   C13810712   4.874  10.941  27.133 -0.3555  0.4607  0.2791
   28TAL   C13910713   5.009  10.885  27.156 -0.1536 -0.6175 -0.1527
   28TAL   C14010714   5.034  10.746  27.101 -0.6349 -0.3137  0.3184
   29HTM   C14110715   4.712  11.418  26.654  0.3593  0.1416  0.1193
   29HTM   C14210716   4.764  11.500  26.558  0.7449 -0.0587  0.1512
   29HTM   C14310717   4.757  11.640  26.591  0.5729  0.0139 -0.1802
   29HTM   C14410718   4.701  11.665  26.713  0.0562  0.2697 -0.4654
   29HTM    S1510719   4.651  11.512  26.796 -0.2557  0.4400 -0.3360
   30TAL   C14510720   4.788  11.748  26.486 -0.4269  0.3435  0.4658
   30TAL   C14610721   4.711  11.716  26.353 -0.7499  0.4976  0.4217
   30TAL   C14710722   4.755  11.840  26.255  0.5344 -0.9643 -0.6294
   30TAL   C14810723   4.693  11.857  26.115  0.4415 -0.9784  0.5867
   30TAL   C14910724   4.741  11.972  26.026 -0.1597 -0.7987 -0.3966
   30TAL   C15010725   4.633  12.075  26.007  0.5484  0.0759  0.8621
   31HTM   C15110726   4.680  11.782  26.795  0.0963 -0.0274  0.0235
   31HTM   C15210727   4.603  11.792  26.907  0.7172 -0.2757  0.4787
   31HTM   C15310728   4.619  11.917  26.977  1.0037 -0.3757  0.5956
   31HTM   C15410729   4.708  12.002  26.918  0.6011 -0.2041  0.2286
   31HTM    S1610730   4.779  11.931  26.768 -0.1769  0.1001 -0.2964
   32TAL   C15510731   4.548  11.939  27.110 -0.5396  1.2701  0.2256
   32TAL   C15610732   4.385  11.928  27.131 -0.7240  0.5908  0.2341
   32TAL   C15710733   4.337  11.968  27.281 -0.6715  0.6926  0.6815
   32TAL   C15810734   4.186  11.955  27.307 -0.0283  0.8232  0.5007
   32TAL   C15910735   4.154  11.983  27.458  0.0918 -0.0857  0.0489
   32TAL   C16010736   4.011  11.948  27.498 -0.1720 -0.4769 -0.6409
   33HTM   C16110737   4.732  12.135  26.962 -0.0985  0.6922 -0.1589
   33HTM   C16210738   4.682  12.245  26.898 -0.2624  0.7919  0.1369
   33HTM   C16310739   4.720  12.370  26.960 -0.4661  0.6841  0.4849
   33HTM   C16410740   4.798  12.355  27.070 -0.4575  0.5023  0.4537
   33HTM    S1710741   4.830  12.181  27.106 -0.1892  0.4527 -0.0199
   34TAL   C16510742   4.647  12.485  26.899  0.5506 -0.7193 -0.0578
   34TAL   C16610743   4.652  12.630  26.932 -0.2978 -0.1457  0.1186
   34TAL   C16710744   4.559  12.695  26.838  0.3302 -0.4304  0.1849
   34TAL   C16810745   4.616  12.751  26.714 -0.2364 -0.7197  0.1088
   34TAL   C16910746   4.715  12.870  26.721  0.3859 -0.7737 -0.0015
   34TAL   C17010747   4.753  12.908  26.581 -0.4110 -0.0489  0.0291
   35HTM   C17110748   4.859  12.455  27.157  0.4246 -0.4151 -0.2892
   35HTM   C17210749   4.895  12.583  27.128  0.7362 -0.5882 -0.6728
   35HTM   C17310750   4.970  12.648  27.232  0.5847 -0.3389 -0.7172
   35HTM   C17410751   4.990  12.570  27.342  0.1573  0.0246 -0.3675
   35HTM    S1810752   4.916  12.406  27.321 -0.0886  0.0805  0.0482
   36TAL   C17510753   5.030  12.782  27.208  1.3504 -0.1668  0.1150
   36TAL   C17610754   4.932  12.876  27.143 -0.0348 -1.4160 -0.2824
   36TAL   C17710755   5.019  12.985  27.085 -0.5454 -0.0060  0.2695
   36TAL   C17810756   5.014  12.993  26.934  0.7738  0.5506  0.6212
   36TAL   C17910757   5.096  13.101  26.879  0.5830  0.5162 -1.8414
   36TAL   C18010758   5.042  13.129  26.745  0.9278 -0.8697  0.5051
   37HTM   C18110759   5.043  12.588  27.481  0.2690 -0.3133  0.3024
   37HTM   C18210760   4.964  12.558  27.588  0.7546 -0.5448  0.6018
   37HTM   C18310761   5.009  12.617  27.711  0.8029 -0.0495  0.3495
   37HTM   C18410762   5.122  12.693  27.698  0.3542  0.5599 -0.1419
   37HTM    S1910763   5.181  12.694  27.528 -0.1685  0.5551 -0.3264
   38TAL   C18510764   4.939  12.573  27.836  0.7635 -0.2839  0.0458
   38TAL   C18610765   4.989  12.458  27.920 -0.0050  0.6704  0.6776
   38TAL   C18710766   4.872  12.368  27.972 -0.7213  0.5518  0.1503
   38TAL   C18810767   4.778  12.431  28.072 -0.6780 -0.0138 -0.4580
   38TAL   C18910768   4.687  12.351  28.154 -0.0140  0.1563 -0.5676
   38TAL   C19010769   4.754  12.220  28.207  0.5551 -0.0488 -0.8285
   39HTM   C19110770   5.193  12.785  27.785  0.1752  0.4242 -0.0458
   39HTM   C19210771   5.321  12.830  27.770  0.1076  0.7095  0.2031
   39HTM   C19310772   5.370  12.905  27.883 -0.0546  0.2613  0.5765
   39HTM   C19410773   5.280  12.917  27.984 -0.1108 -0.3661  0.6121
   39HTM    S2010774   5.124  12.835  27.944  0.0379 -0.4395  0.1732
   40TAL   C19510775   5.510  12.975  27.892  0.8252 -0.5231  1.0837
   40TAL   C19610776   5.491  13.122  27.847 -0.5088  0.4997  0.7278
   40TAL   C19710777   5.590  13.219  27.881  0.1973  0.3046 -0.5576
   40TAL   C19810778   5.553  13.365  27.899  0.1111  0.1524 -0.3216
   40TAL   C19910779   5.666  13.428  27.979 -0.6847 -0.2190  0.6426
   40TAL   C20010780   5.631  13.570  27.990 -0.3224 -1.2088 -0.1627
   41HTM   C20110781   5.282  12.993  28.110 -0.2021  0.0563 -0.5057
   41HTM   C20210782   5.378  12.988  28.206  0.0775  0.1981 -0.7744
   41HTM   C20310783   5.360  13.085  28.311 -0.0688 -0.1704 -0.4539
   41HTM   C20410784   5.251  13.164  28.295 -0.4598 -0.5929  0.0600
   41HTM    S2110785   5.160  13.122  28.145 -0.6756 -0.5583  0.1791
   42TAL   C20510786   5.479  13.078  28.413  0.1000 -0.4393  0.3622
   42TAL   C20610787   5.508  13.200  28.508 -0.8417 -0.4874 -0.5180
   42TAL   C20710788   5.583  13.307  28.427 -0.4929  0.1960 -0.5506
   42TAL   C20810789   5.642  13.415  28.529  0.4292 -0.6451  0.5183
   42TAL   C20910790   5.765  13.383  28.623  0.8470 -0.0267 -0.4085
   42TAL   C21010791   5.820  13.503  28.703 -0.7461 -0.0144  0.4111
   43HTM   C21110792   5.210  13.273  28.383 -0.0011 -0.3072 -0.2874
   43HTM   C21210793   5.245  13.405  28.389 -0.5132 -0.1266 -1.0104
   43HTM   C21310794   5.174  13.480  28.489 -0.5137  0.0517 -1.1435
   43HTM   C21410795   5.084  13.406  28.559 -0.0022  0.0072 -0.5224
   43HTM    S2210796   5.083  13.234  28.504  0.5241 -0.2657  0.2861
   44TAL   C21510797   5.202  13.629  28.510 -0.5935  0.9972  0.3691
   44TAL   C21610798   5.215  13.711  28.384 -0.3636  0.7451  0.0826
   44TAL   C21710799   5.261  13.848  28.445 -0.3605  0.2448  0.6163
   44TAL   C21810800   5.271  13.956  28.338 -0.0480  0.4703 -0.3435
   44TAL   C21910801   5.295  14.085  28.405  0.5317 -1.7713  0.1920
   44TAL   C22010802   5.281  14.208  28.308 -0.8197  1.0729 -0.2844
   45HTM   C22110803   4.974  13.442  28.657  0.0045  0.1671  0.1397
   45HTM   C22210804   4.881  13.541  28.651  0.1310  0.3353  0.7963
   45HTM   C22310805   4.779  13.531  28.751  0.4148  0.1121  1.0686
   45HTM   C22410806   4.793  13.423  28.833  0.5044 -0.2263  0.6188
   45HTM    S2310807   4.939  13.326  28.791  0.2354 -0.2900 -0.1896
   46TAL   C22510808   4.666  13.632  28.774 -0.0057  0.6650  0.3371
   46TAL   C22610809   4.587  13.656  28.645  0.5124 -1.6131 -0.5454
   46TAL   C22710810   4.469  13.767  28.649 -0.3025 -0.0010 -0.6219
   46TAL   C22810811   4.432  13.835  28.516 -0.4277 -0.1329  0.3347
   46TAL   C22910812   4.294  13.899  28.504 -0.3388  1.2077 -0.3168
   46TAL   C23010813   4.268  13.957  28.365  0.4386 -0.3073 -0.3676
   47HTM   C23110814   4.727  13.376  28.947  0.3916  0.2085  0.6240
   47HTM   C23210815   4.771  13.293  29.046  0.4374  0.2049  0.6000
   47HTM   C23310816   4.676  13.272  29.152  0.3269 -0.1276  0.4374
   47HTM   C23410817   4.559  13.339  29.134  0.1967 -0.3776  0.3374
   47HTM    S2410818   4.560  13.435  28.981  0.2037 -0.2109  0.4417
   48TAL   C23510819   4.690  13.163  29.244 -0.3696 -0.5388 -0.3349
   48TAL   C23610820   4.585  13.129  29.352 -0.3908 -0.6921 -0.3584
   48TAL   C23710821   4.468  13.055  29.284 -0.0681  0.7792  0.3759
   48TAL   C23810822   4.381  13.015  29.404  0.0963 -0.1867  0.0113
   48TAL   C23910823   4.269  12.930  29.370  0.2907  0.5147 -0.3057
   48TAL   C24010824   4.195  12.900  29.512 -0.6560 -0.0188  0.4557
    1HTM     C110825   3.722   0.655   1.796  0.3248  0.4693 -0.9039
    1HTM     C210826   3.590   0.662   1.764  0.4463  0.9386 -1.3419
    1HTM     C310827   3.514   0.751   1.847  0.3236  0.5094 -0.9833
    1HTM     C410828   3.589   0.814   1.943  0.1084 -0.2872 -0.2719
    1HTM     S110829   3.762   0.763   1.935  0.0437 -0.5591  0.0025
    2TAL     C510830   3.363   0.766   1.827 -0.7333 -0.7096 -0.6808
    2TAL     C610831   3.298   0.782   1.686 -0.5284 -0.2323 -0.1874
    2TAL     C710832   3.172   0.704   1.678  0.0690 -0.1500  0.2222
    2TAL     C810833   3.074   0.749   1.569  0.2450  0.2693  1.0527
    2TAL     C910834   2.933   0.705   1.577  0.1410  0.4905 -0.7405
    2TAL    C1010835   2.848   0.740   1.459 -0.1669 -0.3355 -0.3539
    3HTM    C1110836   3.555   0.902   2.049  0.7124  0.0374  0.5458
    3HTM    C1210837   3.501   1.027   2.047  0.6437  0.0076  0.5299
    3HTM    C1310838   3.477   1.082   2.178  0.0243 -0.2424  0.5237
    3HTM    C1410839   3.512   0.999   2.280 -0.3794 -0.4031  0.5348
    3HTM     S210840   3.579   0.843   2.218 -0.0055 -0.2501  0.5542
    4TAL    C1510841   3.438   1.228   2.189  0.6947 -0.6598  0.5767
    4TAL    C1610842   3.537   1.324   2.121 -0.8727  0.0401 -0.6954
    4TAL    C1710843   3.659   1.355   2.204  0.1354 -0.2424 -0.4646
    4TAL    C1810844   3.713   1.487   2.185  0.3000 -0.0727  0.2796
    4TAL    C1910845   3.821   1.533   2.281 -0.5987 -0.2074  1.0582
    4TAL    C2010846   3.884   1.668   2.239 -0.3858  0.6731  0.0833
    5HTM    C2110847   3.506   1.018   2.421 -0.1811 -0.4082  0.2174
    5HTM    C2210848   3.437   0.941   2.510  0.1783 -0.4734  0.4475
    5HTM    C2310849   3.459   0.976   2.647  0.4497 -0.3278  0.3685
    5HTM    C2410850   3.545   1.080   2.664  0.2972 -0.1515  0.0780
    5HTM     S310851   3.605   1.142   2.506 -0.2049 -0.1558 -0.1197
    6TAL    C2510852   3.386   0.906   2.771  0.3762  0.0013 -0.0125
    6TAL    C2610853   3.242   0.928   2.782  0.2120  0.1112  0.2056
    6TAL    C2710854   3.143   0.847   2.691  0.0284 -0.1283  0.0430
    6TAL    C2810855   2.995   0.872   2.708  0.9392  0.6593 -0.9463
    6TAL    C2910856   2.900   0.800   2.615 -0.8376  1.3174 -0.4514
    6TAL    C3010857   2.763   0.861   2.581  0.5371 -0.1011 -0.7390
    7HTM    C3110858   3.577   1.146   2.794 -0.7927 -0.4498  0.6343
    7HTM    C3210859   3.694   1.128   2.861 -0.9466 -1.0856  0.7498
    7HTM    C3310860   3.701   1.200   2.986 -0.4537 -0.6276  0.4670
    7HTM    C3410861   3.589   1.272   3.014  0.0760  0.3575  0.1359
    7HTM     S410862   3.465   1.255   2.884 -0.0073  0.7864  0.1558
    8TAL    C3510863   3.821   1.194   3.084 -0.9581  0.0700  0.3625
    8TAL    C3610864   3.953   1.131   3.034  0.1778  0.0820 -0.4283
    8TAL    C3710865   4.038   1.102   3.152  0.0323  0.6263  0.1397
    8TAL    C3810866   4.004   0.987   3.229  0.5813 -0.3506 -0.3504
    8TAL    C3910867   4.105   0.985   3.350  0.1498  0.2036  0.7368
    8TAL    C4010868   4.102   0.879   3.455  0.3246 -0.1576 -0.5197
    9HTM    C4110869   3.548   1.336   3.129 -0.0107 -0.0983  0.2013
    9HTM    C4210870   3.582   1.460   3.177 -0.4463  0.0958  0.0185
    9HTM    C4310871   3.538   1.484   3.312 -0.5753  0.1616 -0.0347
    9HTM    C4410872   3.471   1.380   3.367 -0.2382  0.0177  0.1074
    9HTM     S510873   3.457   1.241   3.253  0.2724 -0.2139  0.3214
   10TAL    C4510874   3.580   1.614   3.388  0.3257  0.0805 -0.2241
   10TAL    C4610875   3.505   1.743   3.354  0.4599 -0.3799 -0.2523
   10TAL    C4710876   3.527   1.813   3.212 -0.3095  0.8318 -0.1969
   10TAL    C4810877   3.529   1.970   3.227 -0.3076  1.0883  0.2548
   10TAL    C4910878   3.521   2.037   3.093 -0.3650  0.9926  0.4664
   10TAL    C5010879   3.516   2.194   3.098  1.1832  0.0123 -0.4842
   11HTM    C5110880   3.403   1.368   3.498  0.0136 -0.2504  0.2911
   11HTM    C5210881   3.282   1.311   3.521 -0.2342  0.2723  0.3172
   11HTM    C5310882   3.242   1.314   3.660 -0.3098  0.6667  0.2891
   11HTM    C5410883   3.333   1.374   3.742 -0.1196  0.4449  0.2414
   11HTM     S610884   3.477   1.431   3.649  0.1720 -0.2852  0.2283
   12TAL    C5510885   3.120   1.239   3.713  0.8004  0.9835 -0.9374
   12TAL    C5610886   3.107   1.092   3.659 -0.4572 -0.6177 -0.0852
   12TAL    C5710887   2.978   1.030   3.658  1.6158  0.5405  1.6366
   12TAL    C5810888   2.924   0.964   3.775  0.2110 -0.0273 -0.3436
   12TAL    C5910889   2.781   0.906   3.762  0.2771  1.1567  0.6345
   12TAL    C6010890   2.661   1.006   3.723  0.0585  0.3481 -0.2778
   13HTM    C6110891   3.332   1.392   3.890  0.0338 -0.0131  0.6441
   13HTM    C6210892   3.429   1.348   3.976 -0.4405  0.0326  1.2150
   13HTM    C6310893   3.398   1.371   4.114 -1.2167  0.1161  1.0382
   13HTM    C6410894   3.278   1.432   4.135 -1.3343  0.1340  0.3323
   13HTM     S710895   3.194   1.466   3.979 -0.4671  0.0463 -0.1675
   14TAL    C6510896   3.509   1.335   4.217 -0.0986 -0.4850 -0.8511
   14TAL    C6610897   3.654   1.382   4.191  0.2100 -0.3628 -0.5313
   14TAL    C6710898   3.761   1.322   4.278 -0.9738  0.3254  0.1696
   14TAL    C6810899   3.769   1.171   4.291 -0.1493  1.2949  1.1731
   14TAL    C6910900   3.808   1.089   4.163  0.0962 -0.0934 -0.9501
   14TAL    C7010901   3.834   0.944   4.204 -0.1141 -0.8764 -0.6088
   15HTM    C7110902   3.218   1.457   4.266 -0.0279  0.7698 -0.2102
   15HTM    C7210903   3.096   1.410   4.305  0.2461  0.1768 -0.0366
   15HTM    C7310904   3.072   1.421   4.447  0.6525 -0.5790  0.1028
   15HTM    C7410905   3.176   1.477   4.516  0.6883 -0.5623  0.0356
   15HTM     S810906   3.313   1.519   4.407  0.2080  0.4168 -0.2109
   16TAL    C7510907   2.932   1.382   4.493 -0.6238  0.7551 -0.2950
   16TAL    C7610908   2.896   1.236   4.500  0.6714  0.2014  0.0214
   16TAL    C7710909   2.914   1.176   4.645  1.4523 -0.5711  0.4111
   16TAL    C7810910   2.858   1.035   4.673  0.0415 -0.2460  0.4324
   16TAL    C7910911   2.886   0.919   4.573 -0.5034 -0.1834 -0.5053
   16TAL    C8010912   3.023   0.865   4.555 -0.1253  0.1066 -0.3027
   17HTM    C8110913   3.198   1.498   4.657  0.2131 -0.1365 -0.3366
   17HTM    C8210914   3.115   1.473   4.763  0.3555 -0.3972 -0.2841
   17HTM    C8310915   3.175   1.501   4.891  0.4410 -0.4677 -0.3083
   17HTM    C8410916   3.303   1.546   4.884  0.3638 -0.2608 -0.3795
   17HTM     S910917   3.359   1.559   4.713  0.1757  0.0415 -0.4214
   18TAL    C8510918   3.090   1.472   5.011  0.6224  0.2749  2.2288
   18TAL    C8610919   3.073   1.333   5.048 -0.0275  1.9889 -0.6638
   18TAL    C8710920   3.123   1.287   5.190 -0.3025  0.0856 -0.1213
   18TAL    C8810921   3.030   1.320   5.304 -0.8961  0.3982 -0.9014
   18TAL    C8910922   2.967   1.190   5.345  0.1583 -0.3236  0.2630
   18TAL    C9010923   2.877   1.194   5.468 -0.0693 -0.8722 -0.4506
   19HTM    C9110924   3.387   1.593   4.987  0.2363  0.0672  0.6478
   19HTM    C9210925   3.451   1.538   5.094  0.8017  0.2891  0.4303
   19HTM    C9310926   3.543   1.628   5.159  0.8363  0.5593  0.0142
   19HTM    C9410927   3.549   1.751   5.101  0.2971  0.5435 -0.0854
   19HTM    S1010928   3.438   1.764   4.960 -0.3007  0.1833  0.3417
   20TAL    C9510929   3.608   1.589   5.296 -0.7483  0.6269  0.9961
   20TAL    C9610930   3.492   1.580   5.392 -0.3629  0.6839 -1.0904
   20TAL    C9710931   3.538   1.554   5.538 -1.4540  0.5085 -0.3344
   20TAL    C9810932   3.612   1.666   5.603 -1.2423  0.4094  0.8550
   20TAL    C9910933   3.533   1.764   5.674 -0.2965  0.0537 -0.8427
   20TAL   C10010934   3.624   1.895   5.691 -0.3688  0.7362  0.4223
   21HTM   C10110935   3.619   1.870   5.148  0.1715  0.3481 -0.8000
   21HTM   C10210936   3.563   1.986   5.191 -0.0710  0.2176 -0.7633
   21HTM   C10310937   3.658   2.083   5.238 -0.2964  0.2782 -0.4261
   21HTM   C10410938   3.788   2.041   5.231 -0.2257  0.4549 -0.2056
   21HTM    S1110939   3.799   1.874   5.164  0.1339  0.5594 -0.4085
   22TAL   C10510940   3.596   2.210   5.308  0.2635  0.8746 -0.2792
   22TAL   C10610941   3.542   2.182   5.448  0.5118  0.8419 -1.0050
   22TAL   C10710942   3.451   2.291   5.498 -0.0982 -0.9204 -0.6636
   22TAL   C10810943   3.522   2.438   5.499  0.1838 -0.2624 -0.4515
   22TAL   C10910944   3.631   2.461   5.599 -0.0664 -0.0053 -0.0250
   22TAL   C11010945   3.645   2.606   5.640 -0.5924 -0.5669 -0.4201
   23HTM   C11110946   3.913   2.116   5.250 -0.1816  0.2172 -0.3430
   23HTM   C11210947   3.935   2.247   5.278  0.0470  0.2468 -0.6486
   23HTM   C11310948   4.072   2.289   5.259  0.1363 -0.0545 -0.6734
   23HTM   C11410949   4.154   2.189   5.216 -0.0243 -0.3137 -0.3862
   23HTM    S1210950   4.064   2.033   5.196 -0.3029 -0.1965 -0.0602
   24TAL   C11510951   4.107   2.423   5.311 -0.3620 -0.1796 -0.0871
   24TAL   C11610952   4.107   2.413   5.465 -0.4277 -0.5752 -0.0804
   24TAL   C11710953   4.197   2.529   5.509  0.5429 -0.0475 -0.5511
   24TAL   C11810954   4.349   2.522   5.491  0.3914 -0.2196  0.3026
   24TAL   C11910955   4.402   2.666   5.524 -0.5080  0.9664  1.2724
   24TAL   C12010956   4.555   2.669   5.536  0.7147 -0.2370  0.8479
   25HTM   C12110957   4.293   2.179   5.211 -0.0081  0.0807 -0.6315
   25HTM   C12210958   4.361   2.061   5.212 -0.0703  0.0439 -0.1764
   25HTM   C12310959   4.503   2.076   5.229 -0.1333 -0.0120  0.4406
   25HTM   C12410960   4.544   2.205   5.241 -0.1190 -0.0180  0.4559
   25HTM    S1310961   4.405   2.319   5.232 -0.0245  0.0473 -0.3137
   26TAL   C12510962   4.585   1.943   5.230  0.3505 -1.1892 -0.3272
   26TAL   C12610963   4.515   1.803   5.219  0.8099 -1.0010 -0.1977
   26TAL   C12710964   4.594   1.674   5.242  0.7032 -1.2349  0.2621
   26TAL   C12810965   4.659   1.655   5.380 -0.0414 -0.4423 -0.0442
   26TAL   C12910966   4.806   1.687   5.349 -0.7330 -0.9663 -0.3041
   26TAL   C13010967   4.895   1.739   5.463 -0.2011 -0.0872  0.5348
   27HTM   C13110968   4.677   2.262   5.232 -0.0459  0.7008 -0.2355
   27HTM   C13210969   4.743   2.322   5.335  0.3709  0.5049 -0.3872
   27HTM   C13310970   4.870   2.379   5.297  0.7070 -0.3237 -0.5717
   27HTM   C13410971   4.900   2.364   5.165  0.5464 -0.7595 -0.5609
   27HTM    S1410972   4.770   2.275   5.078 -0.0464 -0.1526 -0.3147
   28TAL   C13510973   4.960   2.453   5.396 -0.3137 -0.3427  0.5450
   28TAL   C13610974   5.088   2.391   5.440  0.5334  1.9380  0.2080
   28TAL   C13710975   5.103   2.254   5.517  0.2162  0.5488 -0.6770
   28TAL   C13810976   5.088   2.247   5.669  0.9489 -0.1667 -0.5110
   28TAL   C13910977   5.079   2.110   5.737 -0.3034  0.3044 -0.0068
   28TAL   C14010978   5.000   2.097   5.873 -0.6668 -0.3378  0.1594
   29HTM   C14110979   5.009   2.412   5.083 -0.5925 -0.7197 -0.6224
   29HTM   C14210980   5.006   2.521   5.001 -0.8966 -0.9670 -0.9443
   29HTM   C14310981   5.128   2.542   4.928 -0.7496 -0.5162 -0.5730
   29HTM   C14410982   5.225   2.450   4.955 -0.3336  0.0748  0.0316
   29HTM    S1510983   5.168   2.328   5.075 -0.0932  0.1081  0.1803
   30TAL   C14510984   5.146   2.655   4.829  0.8778 -0.0350 -0.2947
   30TAL   C14610985   5.083   2.610   4.700 -0.0541 -0.6598  0.6200
   30TAL   C14710986   5.086   2.725   4.589  0.2443 -0.3476 -0.2291
   30TAL   C14810987   4.979   2.843   4.610 -0.2470  0.6625  0.6099
   30TAL   C14910988   4.985   2.950   4.507 -0.6756 -0.7412 -0.1428
   30TAL   C15010989   4.909   3.086   4.536  0.4478  0.6954  0.2278
   31HTM   C15110990   5.356   2.434   4.891  0.0215  0.0380 -0.0110
   31HTM   C15210991   5.464   2.514   4.913 -0.0644  0.1346  0.0570
   31HTM   C15310992   5.582   2.475   4.841 -0.0082  0.2933  0.0615
   31HTM   C15410993   5.564   2.364   4.763  0.1205  0.3177 -0.0032
   31HTM    S1610994   5.396   2.301   4.775  0.1811  0.1407 -0.0751
   32TAL   C15510995   5.714   2.546   4.863 -0.4741  0.1702 -0.4223
   32TAL   C15610996   5.753   2.649   4.747  0.3471 -0.1898 -1.2517
   32TAL   C15710997   5.890   2.723   4.768  1.0073  0.4471 -0.1776
   32TAL   C15810998   6.008   2.633   4.771  0.2544 -0.1495  0.2216
   32TAL   C15910999   6.125   2.704   4.708 -0.5519  0.2581 -0.1220
   32TAL   C16011000   6.238   2.604   4.671  1.0359 -0.3963  0.5556
   33HTM   C16111001   5.656   2.276   4.687  0.1383  0.2047  0.3942
   33HTM   C16211002   5.643   2.140   4.686  0.1018  0.2083  0.3327
   33HTM   C16311003   5.735   2.074   4.597 -0.0067  0.2326  0.2015
   33HTM   C16411004   5.818   2.159   4.530 -0.0529  0.2475  0.1629
   33HTM    S1711005   5.786   2.331   4.575  0.0375  0.2318  0.2901
   34TAL   C16511006   5.731   1.924   4.581  0.4690  0.6997 -0.7512
   34TAL   C16611007   5.607   1.851   4.531 -0.3853  0.8292 -0.5731
   34TAL   C16711008   5.633   1.696   4.546 -0.8618 -0.4559  0.4715
   34TAL   C16811009   5.713   1.621   4.429  1.3565 -0.6818  0.5365
   34TAL   C16911010   5.631   1.627   4.303  0.0281  0.2004 -0.4666
   34TAL   C17011011   5.653   1.749   4.218 -0.0623 -0.4391 -0.3139
   35HTM   C17111012   5.939   2.135   4.472 -0.0992  0.1167  0.0930
   35HTM   C17211013   5.975   2.065   4.360 -0.3980  0.4428 -0.2156
   35HTM   C17311014   6.108   2.096   4.313 -0.4784  0.4917 -0.4116
   35HTM   C17411015   6.173   2.189   4.389 -0.2405  0.2030 -0.2526
   35HTM    S1811016   6.070   2.246   4.526  0.1059 -0.1559  0.1606
   36TAL   C17511017   6.173   2.028   4.192 -0.1038 -1.1807 -0.8128
   36TAL   C17611018   6.111   1.912   4.125 -0.2462  0.1437  0.7570
   36TAL   C17711019   6.181   1.868   3.989  0.3278  0.5591 -0.3906
   36TAL   C17811020   6.165   1.972   3.881 -0.3201  0.0569 -0.5625
   36TAL   C17911021   6.056   1.933   3.771  0.2710  0.1136 -0.2590
   36TAL   C18011022   5.908   1.969   3.820 -0.1786  0.5284  0.2522
   37HTM   C18111023   6.309   2.233   4.383 -0.4961 -0.0769 -0.3749
   37HTM   C18211024   6.420   2.155   4.393 -0.5468 -0.1332 -0.2503
   37HTM   C18311025   6.543   2.229   4.402 -0.5445 -0.1904  0.2198
   37HTM   C18411026   6.525   2.364   4.400 -0.4921 -0.1778  0.4541
   37HTM    S1911027   6.351   2.408   4.384 -0.4413 -0.0918  0.0961
   38TAL   C18511028   6.671   2.140   4.393 -0.0561 -0.8110 -0.1089
   38TAL   C18611029   6.720   2.043   4.507  1.1080  0.0423  0.8615
   38TAL   C18711030   6.757   2.115   4.635 -0.8991 -0.0564 -0.5355
   38TAL   C18811031   6.815   2.012   4.734 -1.3055  0.5531 -0.6369
   38TAL   C18911032   6.770   2.036   4.880  0.7175  0.0511  0.3153
   38TAL   C19011033   6.625   1.974   4.890 -0.3660  0.5708  0.2984
   39HTM   C19111034   6.617   2.478   4.411 -0.0255  0.1579  0.5450
   39HTM   C19211035   6.579   2.603   4.451 -0.0672  0.0746  0.7738
   39HTM   C19311036   6.689   2.696   4.459 -0.1314  0.1554  0.7156
   39HTM   C19411037   6.810   2.642   4.427 -0.1385  0.3002  0.4426
   39HTM    S2011038   6.795   2.468   4.383 -0.0641  0.3461  0.2361
   40TAL   C19511039   6.670   2.849   4.491  0.5566  0.3795  0.4748
   40TAL   C19611040   6.526   2.911   4.483 -0.2473  1.1219 -0.3332
   40TAL   C19711041   6.533   3.063   4.473 -0.1832  0.9220 -0.6024
   40TAL   C19811042   6.416   3.140   4.533 -0.1242 -0.3304 -1.1187
   40TAL   C19911043   6.364   3.127   4.678 -1.3131 -0.5750  0.5043
   40TAL   C20011044   6.226   3.078   4.684  0.7760  0.8850  0.1653
   41HTM   C20111045   6.946   2.700   4.424 -0.1411 -0.1603 -0.4486
   41HTM   C20211046   6.999   2.812   4.481 -0.2613 -0.0683 -0.5176
   41HTM   C20311047   7.136   2.836   4.444 -0.3587  0.1877 -0.7224
   41HTM   C20411048   7.188   2.742   4.360 -0.3128  0.2908 -0.8096
   41HTM    S2111049   7.066   2.615   4.320 -0.1416  0.0709 -0.6382
   42TAL   C20511050   7.213   2.949   4.503 -0.4746 -1.9738  0.3966
   42TAL   C20611051   7.281   2.922   4.637 -0.2727 -0.8725 -0.0299
   42TAL   C20711052   7.378   3.017   4.701 -0.6985 -0.5546 -0.9069
   42TAL   C20811053   7.419   3.012   4.853 -0.0266  0.1837 -0.1996
   42TAL   C20911054   7.463   2.884   4.916 -0.0850  0.8174  0.7131
   42TAL   C21011055   7.496   2.889   5.062  0.5211  0.5304 -0.1156
   43HTM   C21111056   7.319   2.717   4.305 -0.8325 -0.2312 -0.1866
   43HTM   C21211057   7.398   2.796   4.228 -1.0277  0.0007 -0.1498
   43HTM   C21311058   7.519   2.731   4.182 -0.7701  0.3797 -0.0190
   43HTM   C21411059   7.531   2.603   4.224 -0.3784  0.4369  0.0443
   43HTM    S2211060   7.391   2.553   4.327 -0.3041  0.0131 -0.0575
   44TAL   C21511061   7.614   2.820   4.099  0.1951  0.0330  0.0272
   44TAL   C21611062   7.683   2.933   4.178  0.0080  0.5145  1.5780
   44TAL   C21711063   7.798   2.907   4.277  0.1069 -0.1206 -0.7684
   44TAL   C21811064   7.946   2.912   4.211  1.3567  0.2022 -0.0882
   44TAL   C21911065   7.982   2.811   4.093  0.3766  0.0803 -0.4344
   44TAL   C22011066   8.120   2.808   4.039 -1.0192  0.2501  0.6572
   45HTM   C22111067   7.633   2.494   4.207 -0.1186  0.0776  0.1044
   45HTM   C22211068   7.641   2.366   4.252 -0.3061  0.0536  0.0728
   45HTM   C22311069   7.763   2.299   4.215 -0.4788 -0.1742 -0.0951
   45HTM   C22411070   7.848   2.377   4.142 -0.4230 -0.3241 -0.1914
   45HTM    S2311071   7.780   2.542   4.114 -0.1458 -0.1880 -0.0767
   46TAL   C22511072   7.806   2.164   4.279 -0.1751 -0.5297 -0.4659
   46TAL   C22611073   7.774   2.153   4.425  0.4878  0.7873  0.1431
   46TAL   C22711074   7.854   2.043   4.498  0.7703  0.8279 -0.0818
   46TAL   C22811075   8.002   2.054   4.510 -0.7515 -0.1675 -0.4956
   46TAL   C22911076   8.076   1.925   4.464  0.3780 -0.0292 -0.8424
   46TAL   C23011077   8.224   1.932   4.472 -1.1021  0.3125  0.0202
   47HTM   C23111078   7.973   2.342   4.068 -0.1953 -0.0172 -0.2599
   47HTM   C23211079   8.082   2.420   4.043 -0.5717  0.2612 -1.0954
   47HTM   C23311080   8.193   2.347   3.987 -0.5707  0.4009 -1.2739
   47HTM   C23411081   8.169   2.214   3.969 -0.1936  0.2290 -0.5743
   47HTM    S2411082   8.003   2.170   4.023  0.1926 -0.1254  0.3712
   48TAL   C23511083   8.310   2.434   3.951 -1.2134 -0.1154 -0.2491
   48TAL   C23611084   8.441   2.377   3.884  0.6913  0.6733  0.3661
   48TAL   C23711085   8.501   2.242   3.919 -0.3510 -0.1563  0.5569
   48TAL   C23811086   8.633   2.202   3.837  0.0355  0.7245 -0.1908
   48TAL   C23911087   8.657   2.245   3.688 -0.2887 -0.0623  0.4957
   48TAL   C24011088   8.552   2.194   3.576  0.1774  0.3359  0.0176
    1HTM     C111089   7.193   3.896   6.573 -0.1688 -0.2700 -0.4099
    1HTM     C211090   7.229   3.822   6.682 -0.1880 -0.4471 -0.5245
    1HTM     C311091   7.122   3.799   6.775 -0.0472 -0.0418 -0.2551
    1HTM     C411092   7.004   3.855   6.738  0.0793  0.4443  0.0649
    1HTM     S111093   7.019   3.943   6.581  0.0299  0.4278  0.0506
    2TAL     C511094   7.150   3.723   6.903 -0.0878 -0.5352 -0.3508
    2TAL     C611095   7.272   3.657   6.943 -0.5882 -0.4072 -0.3681
    2TAL     C711096   7.406   3.744   6.946  0.7627 -0.6498 -0.1486
    2TAL     C811097   7.533   3.681   6.981  0.0736  0.7495 -1.4618
    2TAL     C911098   7.611   3.593   6.886  0.5214  0.3480 -0.1664
    2TAL    C1011099   7.700   3.490   6.942 -0.1152  0.8194  0.4043
    3HTM    C1111100   6.873   3.849   6.808  0.2604 -0.3374  0.7561
    3HTM    C1211101   6.854   3.915   6.926 -0.1175  0.1696  0.4191
    3HTM    C1311102   6.718   3.911   6.974 -0.4007  0.8785 -0.2824
    3HTM    C1411103   6.633   3.842   6.892 -0.2386  0.9121 -0.4807
    3HTM     S211104   6.720   3.776   6.748  0.2883  0.0443  0.2089
    4TAL    C1511105   6.696   3.964   7.119  0.4682  1.5293  0.5118
    4TAL    C1611106   6.583   3.904   7.205  1.0212  0.3932  0.2361
    4TAL    C1711107   6.563   3.975   7.343  0.2883  0.5171 -0.0772
    4TAL    C1811108   6.528   4.119   7.324 -0.4145 -0.7222 -0.2934
    4TAL    C1911109   6.556   4.210   7.446  0.2010 -0.0315  0.4906
    4TAL    C2011110   6.529   4.360   7.422 -0.3863 -0.3871  0.2604
    5HTM    C2111111   6.485   3.821   6.901 -0.5914 -0.4028  0.9254
    5HTM    C2211112   6.416   3.705   6.918 -0.8312 -0.2743  0.8266
    5HTM    C2311113   6.273   3.723   6.925 -0.8547 -0.0641  0.0473
    5HTM    C2411114   6.234   3.853   6.915 -0.6327 -0.0324 -0.4479
    5HTM     S311115   6.375   3.964   6.894 -0.3748 -0.2673  0.0349
    6TAL    C2511116   6.175   3.608   6.933 -0.7259 -0.0623  1.0798
    6TAL    C2611117   6.226   3.471   6.881 -0.8433  0.3056 -0.1258
    6TAL    C2711118   6.116   3.370   6.887  0.8189 -0.3493 -0.8169
    6TAL    C2811119   6.129   3.222   6.849 -0.7724 -0.0122 -0.1403
    6TAL    C2911120   6.105   3.230   6.697 -0.1858  0.9942 -0.5113
    6TAL    C3011121   6.082   3.112   6.609 -0.1685  1.5069  1.0732
    7HTM    C3111122   6.109   3.919   6.911 -0.1136 -0.2411  0.8398
    7HTM    C3211123   5.998   3.865   6.853 -0.1050 -0.1598  0.7463
    7HTM    C3311124   5.884   3.954   6.852  0.0952  0.1017  0.2187
    7HTM    C3411125   5.909   4.075   6.909  0.2393  0.2199 -0.0898
    7HTM     S411126   6.078   4.087   6.969  0.1322  0.0085  0.2645
    8TAL    C3511127   5.753   3.904   6.791  0.1162 -0.2371 -0.9894
    8TAL    C3611128   5.740   3.910   6.643  0.7877  0.2549  0.4068
    8TAL    C3711129   5.614   3.833   6.590 -0.8119  0.2782 -0.2903
    8TAL    C3811130   5.567   3.872   6.446  0.7537  0.4739 -0.1736
    8TAL    C3911131   5.435   3.799   6.417  0.9120 -1.8257  0.0014
    8TAL    C4011132   5.411   3.653   6.429  0.1536 -0.4099 -0.2450
    9HTM    C4111133   5.826   4.187   6.936  0.0868  0.0080  0.0030
    9HTM    C4211134   5.852   4.319   6.913  0.4569  0.0210  0.4618
    9HTM    C4311135   5.754   4.408   6.970  0.6188  0.0916  0.6320
    9HTM    C4411136   5.653   4.344   7.036  0.3723  0.1325  0.3032
    9HTM     S511137   5.675   4.165   7.032 -0.0875  0.0847 -0.2517
   10TAL    C4511138   5.769   4.554   6.966 -0.5373 -0.5292  0.5377
   10TAL    C4611139   5.909   4.626   6.966 -0.0749  0.4589 -0.5205
   10TAL    C4711140   5.918   4.767   7.031 -0.0920  0.6318 -0.5656
   10TAL    C4811141   5.830   4.864   6.945  0.1040  0.1429  0.2895
   10TAL    C4911142   5.831   5.011   6.978 -1.0184 -1.4081 -0.9777
   10TAL    C5011143   5.956   5.079   7.055  0.1953 -0.9618  0.6798
   11HTM    C5111144   5.543   4.386   7.110 -0.1820 -0.0616 -0.1978
   11HTM    C5211145   5.537   4.432   7.238 -0.3096 -0.3585 -0.0968
   11HTM    C5311146   5.403   4.453   7.285 -0.3624 -0.6404 -0.1191
   11HTM    C5411147   5.307   4.423   7.193 -0.2751 -0.5587 -0.2370
   11HTM     S611148   5.379   4.366   7.038 -0.1182 -0.1156 -0.3299
   12TAL    C5511149   5.374   4.512   7.423 -1.1767  0.2468  0.1410
   12TAL    C5611150   5.439   4.446   7.542  0.8502  0.0299  0.3056
   12TAL    C5711151   5.440   4.288   7.555 -0.3991 -0.0174  0.0046
   12TAL    C5811152   5.318   4.200   7.568  0.0104 -0.4355 -0.5505
   12TAL    C5911153   5.231   4.246   7.684 -0.3449  0.0196 -0.7933
   12TAL    C6011154   5.103   4.156   7.712 -0.1972 -0.8754  0.3902
   13HTM    C6111155   5.164   4.435   7.190 -0.0829  0.5198  0.0792
   13HTM    C6211156   5.086   4.547   7.183 -0.5316  0.1830 -0.4981
   13HTM    C6311157   4.945   4.519   7.185 -0.4293 -0.3868 -0.7020
   13HTM    C6411158   4.915   4.386   7.194  0.0973 -0.4847 -0.2805
   13HTM     S711159   5.064   4.285   7.200  0.5078  0.1405  0.4126
   14TAL    C6511160   4.843   4.636   7.183  1.2449 -0.1429  0.6378
   14TAL    C6611161   4.907   4.774   7.227  1.0819 -0.4589 -0.2479
   14TAL    C6711162   4.812   4.888   7.210  0.2084 -0.0159 -0.2508
   14TAL    C6811163   4.817   4.994   7.325 -0.1305 -0.0085  0.8632
   14TAL    C6911164   4.765   4.968   7.470 -1.5102  1.1796 -0.3212
   14TAL    C7011165   4.854   5.052   7.559 -0.4495 -0.0568  0.6729
   15HTM    C7111166   4.783   4.312   7.191 -0.3162 -0.4595 -0.1050
   15HTM    C7211167   4.760   4.179   7.207 -0.5836 -0.3206  0.8272
   15HTM    C7311168   4.620   4.145   7.217 -0.6458  0.0392  1.2137
   15HTM    C7411169   4.537   4.253   7.210 -0.4259  0.1747  0.5763
   15HTM     S811170   4.629   4.406   7.189 -0.1206 -0.1441 -0.5705
   16TAL    C7511171   4.581   4.003   7.260  0.6101 -0.2008 -0.2807
   16TAL    C7611172   4.588   3.985   7.417  0.8905  0.0181  0.0087
   16TAL    C7711173   4.717   3.953   7.480 -0.2317  0.1134  0.3874
   16TAL    C7811174   4.808   3.831   7.440  1.0568 -0.1629  0.7125
   16TAL    C7911175   4.923   3.819   7.533 -0.5875 -0.7983  0.9711
   16TAL    C8011176   5.018   3.711   7.474 -0.8142 -0.5333 -0.5471
   17HTM    C8111177   4.390   4.264   7.193 -0.4387  0.2364 -0.2974
   17HTM    C8211178   4.316   4.325   7.096 -0.4600  0.1795 -0.3164
   17HTM    C8311179   4.175   4.295   7.105 -0.4343  0.0389 -0.3777
   17HTM    C8411180   4.142   4.212   7.208 -0.3934 -0.0112 -0.4053
   17HTM     S911181   4.288   4.164   7.303 -0.3840  0.1160 -0.3557
   18TAL    C8511182   4.090   4.348   6.995  0.9661  0.4416  0.0303
   18TAL    C8611183   4.105   4.495   6.944 -0.1597  0.1575  0.7502
   18TAL    C8711184   4.052   4.524   6.797  0.1244  0.0851 -0.0689
   18TAL    C8811185   3.900   4.483   6.786  0.4491  0.2634  0.1453
   18TAL    C8911186   3.857   4.531   6.648  0.1023 -0.2389  0.5855
   18TAL    C9011187   3.737   4.448   6.586 -0.5737 -0.6330  0.0139
   19HTM    C9111188   4.026   4.146   7.245 -0.0933 -0.4433 -0.0317
   19HTM    C9211189   4.001   4.030   7.313 -0.4659 -0.6763 -0.5476
   19HTM    C9311190   3.861   4.003   7.331 -0.5617 -0.5026 -0.9999
   19HTM    C9411191   3.779   4.097   7.276 -0.2621 -0.1371 -0.8289
   19HTM    S1011192   3.873   4.229   7.198  0.1676  0.0171 -0.0773
   20TAL    C9511193   3.807   3.878   7.397 -0.1260 -0.7383 -0.7160
   20TAL    C9611194   3.848   3.874   7.543  0.0222  0.2234  0.1612
   20TAL    C9711195   3.867   3.733   7.611 -0.1557 -0.9231  0.2293
   20TAL    C9811196   3.814   3.706   7.754  0.1124 -0.0304 -0.0495
   20TAL    C9911197   3.672   3.726   7.768 -0.3591 -0.0005  0.8307
   20TAL   C10011198   3.646   3.664   7.898 -0.3846 -0.5976 -0.2470
   21HTM   C10111199   3.630   4.114   7.291 -0.3019  0.0660  0.0704
   21HTM   C10211200   3.578   4.240   7.293 -0.0935  0.1818 -0.9198
   21HTM   C10311201   3.434   4.243   7.299 -0.1144  0.4787 -1.4528
   21HTM   C10411202   3.376   4.119   7.302 -0.3389  0.5894 -0.8691
   21HTM    S1111203   3.501   3.988   7.297 -0.5428  0.3250  0.4091
   22TAL   C10511204   3.360   4.371   7.305 -0.6275 -0.2966 -0.1761
   22TAL   C10611205   3.431   4.484   7.227  0.5628 -0.4236 -0.5636
   22TAL   C10711206   3.351   4.514   7.102  0.3614  0.4574  1.0407
   22TAL   C10811207   3.397   4.605   6.993  0.1538 -0.0814  0.4734
   22TAL   C10911208   3.318   4.740   6.998 -1.2675 -0.3425  0.2978
   22TAL   C11011209   3.371   4.843   7.093 -0.5575 -0.0623  0.4191
   23HTM   C11111210   3.227   4.078   7.300  0.0295  0.0684 -0.2516
   23HTM   C11211211   3.163   3.992   7.384  0.5324 -0.3013 -0.2389
   23HTM   C11311212   3.030   3.957   7.341  0.5996 -0.8060 -0.0473
   23HTM   C11411213   2.992   4.016   7.224  0.1480 -0.8211  0.0858
   23HTM    S1211214   3.123   4.122   7.158 -0.4016 -0.1942 -0.0212
   24TAL   C11511215   2.932   3.880   7.433  0.3179 -0.0829  0.1184
   24TAL   C11611216   2.859   3.952   7.551 -1.3220 -0.7910  0.2220
   24TAL   C11711217   2.806   4.095   7.527 -0.9286 -0.1956 -0.0756
   24TAL   C11811218   2.894   4.222   7.569 -0.6748  0.5489  0.5107
   24TAL   C11911219   2.811   4.355   7.561  1.0963  0.3790  0.8884
   24TAL   C12011220   2.901   4.477   7.583  1.4206 -0.0882 -0.5047
   25HTM   C12111221   2.871   3.996   7.148 -0.0363  0.2314  0.4210
   25HTM   C12211222   2.834   3.890   7.072  0.1977  0.0018  0.6245
   25HTM   C12311223   2.711   3.909   7.001  0.1617 -0.3992  0.5699
   25HTM   C12411224   2.654   4.031   7.022 -0.0998 -0.4753  0.3249
   25HTM    S1311225   2.752   4.131   7.136 -0.3226 -0.0430  0.1427
   26TAL   C12511226   2.648   3.802   6.901 -0.4525 -0.7433  0.2989
   26TAL   C12611227   2.646   3.664   6.932 -0.1859  0.2866  0.1698
   26TAL   C12711228   2.550   3.621   7.050 -0.0500 -1.4728 -0.7196
   26TAL   C12811229   2.394   3.639   7.040 -0.1660 -0.0368  0.3384
   26TAL   C12911230   2.318   3.557   6.938 -0.5693 -0.1874  0.8293
   26TAL   C13011231   2.201   3.641   6.901  0.2604  0.2790  0.8641
   27HTM   C13111232   2.545   4.110   6.957  0.3175  0.0560 -0.8721
   27HTM   C13211233   2.422   4.070   6.915  0.3104  0.0904 -0.8843
   27HTM   C13311234   2.338   4.178   6.869  0.0744  0.2104 -0.1957
   27HTM   C13411235   2.398   4.300   6.876 -0.0984  0.2675  0.3413
   27HTM    S1411236   2.565   4.289   6.942  0.0245  0.1737  0.0167
   28TAL   C13511237   2.212   4.143   6.794 -0.9688  0.9644 -1.0551
   28TAL   C13611238   2.078   4.140   6.871 -0.2112 -0.2523 -0.7201
   28TAL   C13711239   1.972   4.100   6.780  0.1324  1.4538  1.6158
   28TAL   C13811240   1.828   4.098   6.839  0.0436  0.6489 -0.0975
   28TAL   C13911241   1.735   4.059   6.722  0.5482  0.0874 -1.4223
   28TAL   C14011242   1.588   4.117   6.752 -0.9536 -0.2104  0.3749
   29HTM   C14111243   2.340   4.433   6.864 -0.5612 -0.2214 -0.2482
   29HTM   C14211244   2.232   4.470   6.789 -0.8385 -0.2326  0.1409
   29HTM   C14311245   2.195   4.608   6.805 -0.9363 -0.2928  0.4463
   29HTM   C14411246   2.274   4.676   6.892 -0.7338 -0.3274  0.2900
   29HTM    S1511247   2.404   4.571   6.961 -0.4010 -0.2867 -0.2591
   30TAL   C14511248   2.086   4.654   6.716 -0.8647 -1.8262  1.2469
   30TAL   C14611249   1.944   4.616   6.744  1.0034  1.1729  0.6294
   30TAL   C14711250   1.884   4.651   6.878 -0.7058  0.4887 -1.4083
   30TAL   C14811251   1.751   4.598   6.917  0.7240 -0.2686 -0.8104
   30TAL   C14911252   1.726   4.455   6.957  0.9380  0.6510  0.1968
   30TAL   C15011253   1.582   4.451   7.014  0.1609 -0.1714  0.0082
   31HTM   C15111254   2.291   4.819   6.936  0.0305  0.4494 -0.2215
   31HTM   C15211255   2.369   4.920   6.888  0.0449  0.5832  0.0787
   31HTM   C15311256   2.357   5.043   6.962  0.0358  0.3775  0.4258
   31HTM   C15411257   2.269   5.037   7.066  0.0145  0.0871  0.3904
   31HTM    S1611258   2.194   4.873   7.079  0.0042  0.0503 -0.0878
   32TAL   C15511259   2.425   5.169   6.910  0.4014  0.1393  0.2925
   32TAL   C15611260   2.581   5.170   6.878 -0.0848 -0.8779 -0.1088
   32TAL   C15711261   2.676   5.109   6.989 -0.3166 -0.4049  1.6287
   32TAL   C15811262   2.827   5.131   6.953 -0.3528  1.4493  0.5724
   32TAL   C15911263   2.935   5.017   6.989  0.0243  0.0132  0.2918
   32TAL   C16011264   2.990   5.003   7.126 -0.1506 -0.6870 -0.0092
   33HTM   C16111265   2.230   5.124   7.179  0.0701 -0.0238  0.1662
   33HTM   C16211266   2.229   5.091   7.312 -0.1748  0.0038  0.1706
   33HTM   C16311267   2.201   5.202   7.399 -0.6378 -0.0360  0.0803
   33HTM   C16411268   2.182   5.320   7.333 -0.7458 -0.0938  0.0072
   33HTM    S1711269   2.197   5.299   7.155 -0.2674 -0.1027  0.0468
   34TAL   C16511270   2.180   5.173   7.551  0.0451 -0.3450  1.0597
   34TAL   C16611271   2.053   5.091   7.584 -0.1412  0.2571 -1.5936
   34TAL   C16711272   2.049   4.944   7.554 -0.9133  0.0556  1.0538
   34TAL   C16811273   1.940   4.863   7.620  0.0320 -0.0373 -0.1492
   34TAL   C16911274   1.913   4.729   7.550 -0.2484  0.1989  0.2331
   34TAL   C17011275   1.819   4.630   7.615 -0.5197 -0.0538 -0.7851
   35HTM   C17111276   2.164   5.451   7.392 -0.5880  0.3733 -0.2022
   35HTM   C17211277   2.249   5.555   7.412 -0.5946  0.4128 -0.3713
   35HTM   C17311278   2.193   5.661   7.492 -0.3715  0.2357  0.0266
   35HTM   C17411279   2.064   5.637   7.532 -0.1949  0.0611  0.4989
   35HTM    S1811280   2.005   5.478   7.472 -0.2973  0.1073  0.4777
   36TAL   C17511281   2.277   5.780   7.529  0.0233  0.2545  1.2860
   36TAL   C17611282   2.302   5.816   7.675  0.1684  0.1042  0.8171
   36TAL   C17711283   2.417   5.751   7.753 -0.1806  1.9639 -0.5400
   36TAL   C17811284   2.401   5.599   7.794 -0.7388  0.7255 -0.7604
   36TAL   C17911285   2.454   5.499   7.700 -0.5414  0.1743  0.1441
   36TAL   C18011286   2.467   5.359   7.768  1.2997  0.2972 -0.0842
   37HTM   C18111287   1.980   5.720   7.616  0.1439 -0.7744 -0.1691
   37HTM   C18211288   1.896   5.820   7.574 -0.1448 -1.2009 -0.6249
   37HTM   C18311289   1.817   5.877   7.679 -0.3783 -1.0130 -0.9018
   37HTM   C18411290   1.839   5.822   7.802 -0.2676 -0.4433 -0.6572
   37HTM    S1911291   1.963   5.691   7.794  0.1434 -0.0972 -0.0536
   38TAL   C18511292   1.728   5.996   7.637  0.8467 -0.5542 -0.4671
   38TAL   C18611293   1.593   6.004   7.717 -0.1801  0.0050  0.4245
   38TAL   C18711294   1.472   5.900   7.682  0.5247  0.8764 -0.3105
   38TAL   C18811295   1.515   5.761   7.636  0.3006 -0.0275 -1.7774
   38TAL   C18911296   1.554   5.649   7.734  0.8751  0.1736 -0.3808
   38TAL   C19011297   1.591   5.526   7.662 -0.1472 -0.0885 -0.0236
   39HTM   C19111298   1.792   5.859   7.936  0.3985  0.1363  0.1700
   39HTM   C19211299   1.787   5.980   8.000  1.3284 -0.0987  0.7409
   39HTM   C19311300   1.740   5.972   8.136  1.3738 -0.3905  0.7405
   39HTM   C19411301   1.710   5.845   8.176  0.4785 -0.3780  0.1694
   39HTM    S2011302   1.738   5.725   8.044 -0.4990  0.0062 -0.4167
   40TAL   C19511303   1.700   6.100   8.209 -0.4081 -0.5257  0.6212
   40TAL   C19611304   1.764   6.242   8.181  0.8533 -1.1570  0.3929
   40TAL   C19711305   1.698   6.328   8.068 -0.0251 -0.2330 -0.6436
   40TAL   C19811306   1.563   6.381   8.104  0.3657  0.2497  0.3599
   40TAL   C19911307   1.512   6.455   7.981 -0.3976  0.0843 -0.6574
   40TAL   C20011308   1.367   6.495   8.014  0.2176  0.7546 -0.8262
   41HTM   C20111309   1.682   5.789   8.313 -0.0361 -0.1292  0.2040
   41HTM   C20211310   1.731   5.676   8.370 -0.1580 -0.1663  0.2351
   41HTM   C20311311   1.691   5.658   8.507 -0.3062 -0.1658  0.1915
   41HTM   C20411312   1.611   5.757   8.554 -0.2974 -0.1282  0.1268
   41HTM    S2111313   1.580   5.883   8.429 -0.0997 -0.0902  0.1161
   42TAL   C20511314   1.755   5.540   8.584 -0.6744 -0.1561 -0.7088
   42TAL   C20611315   1.906   5.564   8.633  0.0377  0.3030 -0.0973
   42TAL   C20711316   1.966   5.440   8.712  0.8014  0.6767 -0.0580
   42TAL   C20811317   2.116   5.441   8.751  0.1547 -0.4535 -0.3893
   42TAL   C20911318   2.138   5.517   8.885 -0.5097  0.1535 -0.3168
   42TAL   C21011319   2.286   5.558   8.906  0.1733  0.1631  0.2353
   43HTM   C21111320   1.557   5.784   8.689 -0.4974 -0.1527  0.2546
   43HTM   C21211321   1.427   5.803   8.727 -0.4689 -0.1824  0.3684
   43HTM   C21311322   1.407   5.802   8.869 -0.3040  0.0610  0.3946
   43HTM   C21411323   1.522   5.782   8.940 -0.2069  0.2762  0.3015
   43HTM    S2211324   1.664   5.763   8.832 -0.3169  0.1875  0.1709
   44TAL   C21511325   1.266   5.799   8.922 -1.4772  0.0816 -0.5737
   44TAL   C21611326   1.174   5.673   8.889 -0.0491 -0.3442 -0.5035
   44TAL   C21711327   1.061   5.678   8.989 -0.1160 -0.7266  0.2875
   44TAL   C21811328   1.059   5.605   9.119  0.0902  0.1255  0.2797
   44TAL   C21911329   1.177   5.591   9.205  0.0936  0.6369  0.3555
   44TAL   C22011330   1.123   5.508   9.320 -0.2717  0.5134 -0.2533
   45HTM   C22111331   1.550   5.765   9.088  0.2490  0.0741 -0.3547
   45HTM   C22211332   1.670   5.727   9.139  0.2329 -0.0354 -0.3972
   45HTM   C22311333   1.676   5.731   9.283  0.2333 -0.2048 -0.3922
   45HTM   C22411334   1.560   5.772   9.341  0.2496 -0.2244 -0.3461
   45HTM    S2311335   1.433   5.809   9.218  0.2660 -0.0290 -0.3048
   46TAL   C22511336   1.811   5.705   9.338  0.5373  0.0097  0.6359
   46TAL   C22611337   1.823   5.566   9.406 -0.2217 -0.3502  0.5610
   46TAL   C22711338   1.945   5.546   9.488 -0.3299 -0.2319  0.3252
   46TAL   C22811339   1.997   5.665   9.583  0.8294  0.2141 -0.5311
   46TAL   C22911340   2.144   5.629   9.623 -0.0110 -0.5847 -0.2448
   46TAL   C23011341   2.152   5.519   9.728 -0.4885 -1.6170 -0.3655
   47HTM   C23111342   1.521   5.759   9.477  0.0367  0.3544  0.3163
   47HTM   C23211343   1.403   5.704   9.518 -0.0130  0.3108  0.1152
   47HTM   C23311344   1.387   5.701   9.661 -0.2538  0.2995  0.0882
   47HTM   C23411345   1.492   5.754   9.729 -0.3877  0.3346  0.2690
   47HTM    S2411346   1.621   5.812   9.618 -0.2188  0.3851  0.4891
   48TAL   C23511347   1.260   5.649   9.735 -1.8563  0.0594 -1.1060
   48TAL   C23611348   1.133   5.635   9.664 -1.1186  0.4201 -0.2713
   48TAL   C23711349   1.092   5.776   9.647 -0.0399  0.4289 -0.1676
   48TAL   C23811350   0.995   5.796   9.536  0.7157 -0.5898  0.3487
   48TAL   C23911351   0.952   5.936   9.506  0.3139 -0.6841  0.2050
   48TAL   C24011352   1.068   6.048   9.494  0.0830 -0.0482 -0.1812
    1HTM     C111353   4.423   5.069   4.115 -0.1670 -0.0446 -0.2487
    1HTM     C211354   4.547   5.039   4.162 -0.1671 -0.6143 -0.6050
    1HTM     C311355   4.650   5.128   4.115  0.0620 -0.9028 -0.6570
    1HTM     C411356   4.604   5.226   4.033  0.2366 -0.5528 -0.3403
    1HTM     S111357   4.426   5.214   4.008  0.1246  0.1737  0.0512
    2TAL     C511358   4.790   5.103   4.179  0.1699 -0.5373  0.1979
    2TAL     C611359   4.865   4.997   4.113  0.3925  0.1213  0.4391
    2TAL     C711360   5.013   4.970   4.152 -1.2945 -0.3032 -0.5328
    2TAL     C811361   5.112   5.091   4.176  0.2391  0.7860  0.8306
    2TAL     C911362   5.093   5.188   4.287  0.1126  0.5006 -1.6859
    2TAL    C1011363   5.140   5.127   4.428  0.4815  0.5817  0.1146
    3HTM    C1111364   4.675   5.324   3.966  0.1701  0.5297  1.1448
    3HTM    C1211365   4.793   5.333   3.898 -0.0385 -0.0736  0.6838
    3HTM    C1311366   4.812   5.458   3.829 -0.1193 -0.5717 -0.2699
    3HTM    C1411367   4.708   5.544   3.844  0.0279 -0.3485 -0.5361
    3HTM     S211368   4.577   5.475   3.946  0.2816  0.5148  0.4044
    4TAL    C1511369   4.927   5.475   3.730 -0.4911  0.2110 -1.3645
    4TAL    C1611370   5.073   5.518   3.792  0.6673 -0.1070 -0.2940
    4TAL    C1711371   5.132   5.453   3.920  0.7185 -1.4101  0.7459
    4TAL    C1811372   5.278   5.461   3.917 -0.5883  0.5346 -0.2482
    4TAL    C1911373   5.349   5.380   4.034  0.4684  0.3046  0.4505
    4TAL    C2011374   5.330   5.422   4.177  0.3796 -0.9139  0.2541
    5HTM    C2111375   4.675   5.674   3.790  0.1239  0.1794  0.5533
    5HTM    C2211376   4.760   5.769   3.741  0.0883  0.3331  0.7893
    5HTM    C2311377   4.695   5.892   3.706 -0.0490  0.1944  0.5491
    5HTM    C2411378   4.561   5.892   3.727 -0.1183 -0.0647  0.1302
    5HTM     S311379   4.505   5.734   3.794 -0.0146 -0.1546  0.0055
    6TAL    C2511380   4.786   5.995   3.636  0.2924  0.8225 -0.0554
    6TAL    C2611381   4.795   6.136   3.692  0.4269 -0.3177  0.2334
    6TAL    C2711382   4.792   6.144   3.852  0.4651 -0.5983  0.5928
    6TAL    C2811383   4.798   6.294   3.901 -0.2844  0.5732  0.7231
    6TAL    C2911384   4.661   6.346   3.947  1.3533 -0.2176  0.2754
    6TAL    C3011385   4.660   6.474   4.045 -1.0460  0.4664  1.0043
    7HTM    C3111386   4.465   5.997   3.717  0.5922  0.3808 -0.0563
    7HTM    C3211387   4.400   6.033   3.603  1.0287  0.8669 -0.1649
    7HTM    C3311388   4.300   6.134   3.622  1.2487  1.0899 -0.1958
    7HTM    C3411389   4.289   6.177   3.751  0.9799  0.7740 -0.1108
    7HTM     S411390   4.406   6.091   3.859  0.4240  0.1656  0.0160
    8TAL    C3511391   4.207   6.164   3.501  0.1959  0.3698  0.3912
    8TAL    C3611392   4.132   6.032   3.434  0.5329  0.4953 -0.2302
    8TAL    C3711393   4.076   5.919   3.523  0.5197  0.8357  1.0928
    8TAL    C3811394   3.959   5.941   3.627 -0.0895  0.5866  0.7714
    8TAL    C3911395   3.827   6.004   3.576 -0.2094  0.7734 -1.0780
    8TAL    C4011396   3.723   6.011   3.700  0.2966  0.0738  0.1767
    9HTM    C4111397   4.186   6.267   3.816  0.1135 -0.5960  0.4580
    9HTM    C4211398   4.128   6.383   3.775  0.3488 -0.6083  0.0829
    9HTM    C4311399   4.021   6.428   3.860  0.4944 -0.0703 -0.0089
    9HTM    C4411400   3.997   6.346   3.966  0.3702  0.3521  0.2963
    9HTM     S511401   4.109   6.204   3.967  0.0573  0.1013  0.7266
   10TAL    C4511402   3.957   6.564   3.840 -0.5033  0.0136  0.2903
   10TAL    C4611403   3.861   6.560   3.717  0.3856 -1.1452  0.1402
   10TAL    C4711404   3.747   6.458   3.697 -0.2499  0.9518  1.1215
   10TAL    C4811405   3.612   6.506   3.759 -0.3224  0.3503 -0.3094
   10TAL    C4911406   3.484   6.456   3.688 -0.5888  0.2975 -0.2684
   10TAL    C5011407   3.481   6.315   3.649  0.2259  0.4184 -0.3081
   11HTM    C5111408   3.885   6.341   4.046  0.5937  0.3851 -0.1231
   11HTM    C5211409   3.771   6.282   4.001  0.8016 -0.0434 -0.0960
   11HTM    C5311410   3.657   6.305   4.086  0.6906 -0.3037 -0.1732
   11HTM    C5411411   3.684   6.382   4.195  0.3983 -0.0738 -0.2592
   11HTM     S611412   3.857   6.431   4.200  0.2391  0.4939 -0.2492
   12TAL    C5511413   3.525   6.234   4.054  0.3711  0.6664 -0.3681
   12TAL    C5611414   3.540   6.092   4.004 -0.8632  0.1491 -0.9814
   12TAL    C5711415   3.412   6.009   4.028 -0.0030  0.5083  0.1734
   12TAL    C5811416   3.423   5.847   4.021 -0.5320 -0.2150  0.8698
   12TAL    C5911417   3.409   5.785   3.882  0.2019  0.3836  0.3931
   12TAL    C6011418   3.427   5.626   3.860  1.2448 -0.2541 -0.2797
   13HTM    C6111419   3.588   6.432   4.287 -0.0544 -0.2434 -0.1085
   13HTM    C6211420   3.615   6.485   4.410 -0.1909 -1.1508  0.3302
   13HTM    C6311421   3.498   6.528   4.482 -0.2446 -1.3663  0.3729
   13HTM    C6411422   3.381   6.508   4.414 -0.1492 -0.6232 -0.0332
   13HTM     S711423   3.410   6.433   4.253  0.0174  0.4146 -0.5048
   14TAL    C6511424   3.503   6.585   4.623 -0.0996 -0.2933  0.8924
   14TAL    C6611425   3.637   6.629   4.684  0.4171  0.7287  0.6954
   14TAL    C6711426   3.607   6.647   4.832 -0.1679 -0.3323  0.2063
   14TAL    C6811427   3.727   6.717   4.901  0.6521 -0.9745 -0.7701
   14TAL    C6911428   3.715   6.721   5.066  0.2840 -0.6604 -0.7292
   14TAL    C7011429   3.712   6.589   5.153 -0.6010  0.5053  0.0605
   15HTM    C7111430   3.245   6.518   4.450  0.0760  0.1118  0.9146
   15HTM    C7211431   3.168   6.433   4.524 -0.2697  0.2791  0.7501
   15HTM    C7311432   3.037   6.485   4.553 -0.3934  0.3678  0.0670
   15HTM    C7411433   3.014   6.609   4.501 -0.1420  0.2681 -0.2891
   15HTM     S811434   3.158   6.670   4.411  0.2737  0.0529  0.2142
   16TAL    C7511435   2.939   6.408   4.637 -0.0862 -0.3991 -0.3164
   16TAL    C7611436   2.855   6.320   4.564 -0.1520  0.1806  0.0778
   16TAL    C7711437   2.907   6.184   4.510 -0.1323  0.0727 -0.8845
   16TAL    C7811438   2.788   6.085   4.485 -0.5792  0.1414  0.4298
   16TAL    C7911439   2.734   6.006   4.598  0.4665 -0.7300 -0.3480
   16TAL    C8011440   2.818   5.881   4.621 -0.6606 -0.2275 -0.0575
   17HTM    C8111441   2.893   6.691   4.499 -0.3545 -0.4016 -0.4942
   17HTM    C8211442   2.857   6.792   4.415 -0.2980 -0.5405 -0.6874
   17HTM    C8311443   2.729   6.851   4.446 -0.0049 -0.0193 -0.4350
   17HTM    C8411444   2.667   6.794   4.554  0.1619  0.5171 -0.0496
   17HTM     S911445   2.767   6.662   4.625 -0.0397  0.4048  0.0252
   18TAL    C8511446   2.671   6.956   4.351  0.2775  0.8433  0.7756
   18TAL    C8611447   2.749   7.079   4.378  0.3026  0.0143  0.3771
   18TAL    C8711448   2.656   7.201   4.319 -0.7033  0.5213 -0.5232
   18TAL    C8811449   2.561   7.272   4.422 -0.8857 -0.1860  0.1749
   18TAL    C8911450   2.518   7.409   4.388  0.0514  1.0205 -0.2209
   18TAL    C9011451   2.411   7.459   4.484  0.0830 -0.4203  0.0566
   19HTM    C9111452   2.526   6.810   4.604  0.4197  0.4432 -0.7887
   19HTM    C9211453   2.456   6.720   4.678  0.3390 -0.2718 -1.6996
   19HTM    C9311454   2.330   6.770   4.728  0.0392 -0.9162 -1.7765
   19HTM    C9411455   2.305   6.899   4.692 -0.1088 -0.6924 -0.9241
   19HTM    S1011456   2.439   6.967   4.591  0.1209  0.3574  0.0492
   20TAL    C9511457   2.226   6.693   4.816 -0.0685  0.7127  0.2428
   20TAL    C9611458   2.242   6.728   4.958 -0.1848 -0.0729 -0.6939
   20TAL    C9711459   2.266   6.618   5.072  0.1294  0.0012 -0.2480
   20TAL    C9811460   2.327   6.663   5.203  0.4945 -1.1325 -0.2666
   20TAL    C9911461   2.275   6.780   5.289  0.2465 -0.1017  0.3267
   20TAL   C10011462   2.361   6.791   5.414 -0.4633  0.1278 -0.1628
   21HTM   C10111463   2.200   7.001   4.736  0.3855 -0.3720  0.2296
   21HTM   C10211464   2.072   6.974   4.772  0.3602 -0.7873 -0.1645
   21HTM   C10311465   1.987   7.090   4.777 -0.1252 -1.1030 -0.7672
   21HTM   C10411466   2.051   7.206   4.745 -0.4698 -0.9286 -0.8329
   21HTM    S1111467   2.225   7.177   4.706 -0.2061 -0.3473 -0.1329
   22TAL   C10511468   1.844   7.077   4.822 -0.4629  0.5435  0.2313
   22TAL   C10611469   1.764   7.007   4.714  0.0699  0.1113 -1.0273
   22TAL   C10711470   1.690   7.104   4.620 -0.0435  0.8649 -0.2971
   22TAL   C10811471   1.629   7.012   4.508  0.3553  0.4495 -0.0637
   22TAL   C10911472   1.495   7.072   4.457 -0.0216  1.1525  0.4833
   22TAL   C11011473   1.422   7.001   4.339  0.2066 -0.0978 -0.3089
   23HTM   C11111474   2.001   7.338   4.718  0.0760  0.4925  0.5632
   23HTM   C11211475   2.062   7.433   4.641 -0.2429 -0.0628 -0.4146
   23HTM   C11311476   1.979   7.548   4.614 -0.4989 -0.4350 -1.2807
   23HTM   C11411477   1.855   7.540   4.670 -0.3752 -0.1634 -0.9630
   23HTM    S1211478   1.833   7.387   4.762  0.0777  0.5893  0.4652
   24TAL   C11511479   2.024   7.665   4.531  0.2039 -0.4234  1.5032
   24TAL   C11611480   2.017   7.644   4.371 -1.3373 -0.5332  0.1858
   24TAL   C11711481   2.025   7.779   4.293 -0.4292 -0.1968  0.0790
   24TAL   C11811482   2.054   7.759   4.151  0.2415  1.2312  0.2844
   24TAL   C11911483   2.040   7.887   4.073  0.0152 -0.7909  0.5719
   24TAL   C12011484   2.172   7.949   4.044 -0.1235  0.5289 -1.7201
   25HTM   C12111485   1.744   7.638   4.682 -0.6084  0.3775 -0.4044
   25HTM   C12211486   1.672   7.710   4.593 -1.2196  0.5018  0.1712
   25HTM   C12311487   1.582   7.805   4.654 -1.1542  0.1029  0.9114
   25HTM   C12411488   1.586   7.805   4.790 -0.4932 -0.3255  0.9000
   25HTM    S1311489   1.704   7.683   4.852  0.1026 -0.2579 -0.0536
   26TAL   C12511490   1.489   7.882   4.554 -0.3838 -0.1278 -0.0073
   26TAL   C12611491   1.516   7.905   4.416 -0.9232 -0.3402  1.5089
   26TAL   C12711492   1.394   7.963   4.342 -0.4866  1.0067  0.2765
   26TAL   C12811493   1.433   7.992   4.195 -0.0588 -0.8885  0.7770
   26TAL   C12911494   1.327   8.072   4.130 -0.9622  0.9773 -0.3442
   26TAL   C13011495   1.348   8.088   3.979 -0.5993  0.3728  0.0551
   27HTM   C13111496   1.510   7.885   4.879  0.2414  0.0292  0.1509
   27HTM   C13211497   1.450   8.007   4.868  0.6652  0.2542  0.3363
   27HTM   C13311498   1.371   8.043   4.983  0.7083  0.3115  0.3482
   27HTM   C13411499   1.370   7.948   5.081  0.3173  0.1303  0.1720
   27HTM    S1411500   1.470   7.805   5.035 -0.1392 -0.1289 -0.0242
   28TAL   C13511501   1.275   8.160   4.985  0.2644  0.4030 -0.2566
   28TAL   C13611502   1.173   8.177   4.876  0.5156 -1.2173 -0.0859
   28TAL   C13711503   1.052   8.088   4.879  0.2464  0.3882  0.5802
   28TAL   C13811504   0.945   8.123   4.777  0.4496 -0.4093 -0.7533
   28TAL   C13911505   0.889   8.013   4.670 -0.2503 -0.5336 -0.9513
   28TAL   C14011506   0.995   7.964   4.576  0.2389 -0.0006 -0.1876
   29HTM   C14111507   1.310   7.949   5.213  0.4389 -0.3503  0.3548
   29HTM   C14211508   1.296   7.835   5.287  1.1372 -0.0832  0.9350
   29HTM   C14311509   1.237   7.857   5.417  1.0414  0.2272  0.8413
   29HTM   C14411510   1.208   7.987   5.442  0.2700  0.1968  0.1897
   29HTM    S1511511   1.252   8.094   5.303 -0.4004 -0.2296 -0.3605
   30TAL   C14511512   1.190   7.751   5.500 -0.2251  1.0441 -0.1546
   30TAL   C14611513   1.084   7.651   5.447 -1.1524 -1.1975  0.2129
   30TAL   C14711514   1.067   7.539   5.546 -0.9298 -0.4011  1.3525
   30TAL   C14811515   0.989   7.429   5.489  0.2422 -0.8223  0.8057
   30TAL   C14911516   1.047   7.318   5.409 -0.1941  0.3666  0.5193
   30TAL   C15011517   1.165   7.245   5.472  0.1067 -0.6734  0.0593
   31HTM   C15111518   1.145   8.043   5.561 -0.2954  0.3112  0.2141
   31HTM   C15211519   1.019   8.096   5.571 -0.0442  0.9129  0.2528
   31HTM   C15311520   0.985   8.137   5.705  0.0659  0.7589  0.3289
   31HTM   C15411521   1.083   8.115   5.796 -0.1012  0.0398  0.3483
   31HTM    S1611522   1.229   8.040   5.720 -0.4131 -0.5028  0.2710
   32TAL   C15511523   0.851   8.193   5.740 -0.4831 -1.5395 -0.1676
   32TAL   C15611524   0.789   8.297   5.637 -0.2415 -0.1103 -0.2520
   32TAL   C15711525   0.642   8.326   5.673 -0.9313 -0.1330 -0.2754
   32TAL   C15811526   0.585   8.432   5.588  0.8882 -0.3795  0.0537
   32TAL   C15911527   0.441   8.477   5.635  1.2711  0.0903 -0.4590
   32TAL   C16011528   0.360   8.548   5.526  0.0918  0.1742 -0.0947
   33HTM   C16111529   1.111   8.154   5.937 -0.1638 -0.1782  0.0853
   33HTM   C16211530   1.024   8.219   6.020 -0.0073  0.1798 -0.0254
   33HTM   C16311531   1.077   8.243   6.151  0.1829  0.6058 -0.1763
   33HTM   C16411532   1.204   8.197   6.169  0.1716  0.5726 -0.1806
   33HTM    S1711533   1.268   8.119   6.020 -0.0823 -0.0037  0.0069
   34TAL   C16511534   0.997   8.315   6.255  0.3934  0.0077 -0.2197
   34TAL   C16611535   0.924   8.447   6.208  0.4584  0.7679 -0.3437
   34TAL   C16711536   0.871   8.505   6.347 -0.0188  0.0609  0.7762
   34TAL   C16811537   0.725   8.488   6.371  0.1467  0.5230 -0.4862
   34TAL   C16911538   0.653   8.591   6.456  0.1277  0.0369  0.7847
   34TAL   C17011539   0.705   8.613   6.603  0.7082  0.5321  0.1956
   35HTM   C17111540   1.296   8.186   6.290 -0.4945  0.2063 -0.0327
   35HTM   C17211541   1.423   8.137   6.290 -0.4053  0.4308 -0.2482
   35HTM   C17311542   1.484   8.135   6.421 -0.2728  0.3048 -0.3119
   35HTM   C17411543   1.403   8.183   6.520 -0.2608 -0.0156 -0.1447
   35HTM    S1811544   1.243   8.234   6.456 -0.4174 -0.1845  0.1077
   36TAL   C17511545   1.635   8.100   6.446  0.5717 -0.4341 -0.0624
   36TAL   C17611546   1.667   7.970   6.374  0.6017 -0.1897  0.5073
   36TAL   C17711547   1.787   7.895   6.418  0.4670  0.5219  0.0926
   36TAL   C17811548   1.786   7.867   6.563 -0.2143 -0.2183 -0.2530
   36TAL   C17911549   1.894   7.763   6.591 -0.5220 -0.0933  0.7981
   36TAL   C18011550   1.896   7.735   6.744  0.3498 -0.2188 -0.0492
   37HTM   C18111551   1.416   8.180   6.668  0.5531  0.5195 -0.4623
   37HTM   C18211552   1.347   8.250   6.763  0.6201  0.6002 -0.4737
   37HTM   C18311553   1.379   8.210   6.898  0.2473  0.2785 -0.4780
   37HTM   C18411554   1.471   8.110   6.906 -0.1039 -0.0476 -0.4700
   37HTM    S1911555   1.525   8.057   6.742  0.0099  0.0270 -0.4560
   38TAL   C18511556   1.325   8.301   7.013  1.2060 -0.1355  0.3117
   38TAL   C18611557   1.180   8.358   6.999  0.7338 -0.1114 -0.3459
   38TAL   C18711558   1.131   8.458   7.093  1.0040 -0.8301 -0.1478
   38TAL   C18811559   1.081   8.580   7.022 -0.5026 -0.0278 -0.6856
   38TAL   C18911560   0.992   8.592   6.902  0.2511  0.7834  0.2784
   38TAL   C19011561   0.972   8.726   6.833  0.3171 -0.5661 -0.0047
   39HTM   C19111562   1.529   8.043   7.033  0.5468  0.2666  0.3744
   39HTM   C19211563   1.599   7.927   7.025  0.7180  0.3761  0.2493
   39HTM   C19311564   1.637   7.873   7.153  0.2455 -0.0333  0.2230
   39HTM   C19411565   1.595   7.949   7.259 -0.2859 -0.4549  0.3280
   39HTM    S2011566   1.505   8.095   7.204 -0.2304 -0.3670  0.4694
   40TAL   C19511567   1.728   7.749   7.159  0.0252 -0.2328 -0.1941
   40TAL   C19611568   1.681   7.618   7.215  0.7419 -0.8017  0.0421
   40TAL   C19711569   1.632   7.517   7.110 -0.3278  1.0538 -1.4467
   40TAL   C19811570   1.529   7.558   7.013  0.9555 -0.0641 -0.7497
   40TAL   C19911571   1.531   7.504   6.883  0.5079  0.7727  0.0365
   40TAL   C20011572   1.423   7.555   6.792  0.1872 -0.5116 -0.7714
   41HTM   C20111573   1.610   7.929   7.396  0.0885  0.4748  0.4062
   41HTM   C20211574   1.695   7.999   7.477  0.1193  0.2203  0.5958
   41HTM   C20311575   1.680   7.969   7.617  0.2462 -0.3049  0.5049
   41HTM   C20411576   1.582   7.877   7.643  0.3123 -0.4510  0.2459
   41HTM    S2111577   1.502   7.820   7.492  0.2185  0.0676  0.0957
   42TAL   C20511578   1.773   8.013   7.726 -0.2412  0.3023 -0.1020
   42TAL   C20611579   1.916   8.038   7.692 -0.4106 -0.0103  0.0551
   42TAL   C20711580   1.995   7.990   7.814 -0.4320 -1.3480 -0.1616
   42TAL   C20811581   2.003   8.079   7.939  0.3330 -1.1638 -0.2212
   42TAL   C20911582   2.050   8.233   7.920 -0.4614  1.5561  0.4650
   42TAL   C21011583   2.051   8.302   8.059  0.6712  0.2420 -0.2496
   43HTM   C21111584   1.537   7.816   7.764  0.7988 -0.4134 -0.3546
   43HTM   C21211585   1.407   7.794   7.802  0.7106  0.2992 -0.2080
   43HTM   C21311586   1.394   7.700   7.910  0.3403  0.8065  0.1969
   43HTM   C21411587   1.513   7.651   7.955  0.1463  0.4806  0.3592
   43HTM    S2211588   1.652   7.719   7.863  0.4182 -0.4999  0.0105
   44TAL   C21511589   1.251   7.665   7.948  0.8483 -0.1351  0.1931
   44TAL   C21611590   1.134   7.763   7.934  0.3906 -0.0872 -0.7361
   44TAL   C21711591   1.107   7.848   8.064  0.1086 -0.4821  1.8469
   44TAL   C21811592   1.225   7.939   8.104  0.1819 -0.0418  0.7263
   44TAL   C21911593   1.211   7.967   8.252  0.5127 -0.9440 -0.3776
   44TAL   C22011594   1.332   8.033   8.314  0.5888  0.1930 -0.1957
   45HTM   C22111595   1.548   7.554   8.062 -0.3153 -0.2067  0.1389
   45HTM   C22211596   1.502   7.426   8.072  0.0235 -0.3763 -0.3717
   45HTM   C22311597   1.569   7.348   8.173  0.0501 -0.5213 -0.5004
   45HTM   C22411598   1.666   7.417   8.240 -0.2684 -0.4622 -0.0871
   45HTM    S2311599   1.680   7.587   8.179 -0.6295 -0.2170  0.5008
   46TAL   C22511600   1.543   7.206   8.198  0.1656 -0.7134  0.6436
   46TAL   C22611601   1.440   7.116   8.114 -0.1947  0.3927 -0.2371
   46TAL   C22711602   1.369   7.007   8.206 -0.0036  0.1453 -0.5992
   46TAL   C22811603   1.280   7.059   8.313 -0.0622  0.8751 -0.3787
   46TAL   C22911604   1.329   7.052   8.459  0.3708  0.1930 -0.1535
   46TAL   C23011605   1.462   6.999   8.502  0.0131 -1.3963 -1.0523
   47HTM   C23111606   1.733   7.389   8.368  0.1907  0.4014  0.0720
   47HTM   C23211607   1.740   7.272   8.437  0.0471  0.2750 -0.1278
   47HTM   C23311608   1.803   7.284   8.566 -0.2833  0.0538  0.0572
   47HTM   C23411609   1.845   7.410   8.595 -0.3917  0.0116  0.3985
   47HTM    S2411610   1.807   7.525   8.461 -0.0824  0.2499  0.5133
   48TAL   C23511611   1.794   7.175   8.666 -0.4816 -0.5608  0.2303
   48TAL   C23611612   1.665   7.140   8.735  0.6046 -0.0347  0.1217
   48TAL   C23711613   1.675   7.050   8.859 -0.2007 -0.8834  0.2540
   48TAL   C23811614   1.754   6.919   8.851  0.6791  0.7235 -0.2042
   48TAL   C23911615   1.706   6.840   8.731  0.7391  1.5643  0.1881
   48TAL   C24011616   1.757   6.690   8.730  0.1839 -0.2279  0.3022
    1HTM     C111617   5.393   2.586   5.417  0.7661 -0.0265 -0.1168
    1HTM     C211618   5.338   2.710   5.405  1.5254  0.2698 -0.6928
    1HTM     C311619   5.352   2.792   5.523  1.3380  0.4398 -0.7871
    1HTM     C411620   5.418   2.731   5.625  0.4359  0.2730 -0.2833
    1HTM     S111621   5.468   2.563   5.580 -0.2522 -0.1146  0.3546
    2TAL     C511622   5.295   2.935   5.527 -0.5257  0.3183 -0.5755
    2TAL     C611623   5.210   2.999   5.419  0.5084  0.4725 -0.1932
    2TAL     C711624   5.186   3.149   5.430 -0.7616  0.1889  1.0219
    2TAL     C811625   5.114   3.196   5.300  0.6448 -0.0801 -0.3713
    2TAL     C911626   5.053   3.337   5.296  0.7877 -1.2303  0.1271
    2TAL    C1011627   4.930   3.359   5.382  1.1429  0.0846  0.2452
    3HTM    C1111628   5.467   2.779   5.758  0.2332 -0.2986  0.4321
    3HTM    C1211629   5.452   2.711   5.875 -0.3424 -0.0344  0.5172
    3HTM    C1311630   5.459   2.795   5.992 -0.9571  0.2361  0.3715
    3HTM    C1411631   5.480   2.926   5.964 -0.8499  0.1781  0.1750
    3HTM     S211632   5.492   2.955   5.787  0.0425 -0.2258  0.1586
    4TAL    C1511633   5.449   2.728   6.126  0.1195 -1.0438  0.1637
    4TAL    C1611634   5.341   2.767   6.220  0.2580 -0.3120  1.0653
    4TAL    C1711635   5.351   2.685   6.338 -0.5874 -0.2956 -0.2339
    4TAL    C1811636   5.221   2.676   6.410  0.0219 -1.3184 -0.3359
    4TAL    C1911637   5.209   2.568   6.508  0.4110  0.7792  0.0297
    4TAL    C2011638   5.067   2.525   6.551  0.4927 -0.5724 -0.4939
    5HTM    C2111639   5.485   3.048   6.039 -0.0800  0.1171 -0.0355
    5HTM    C2211640   5.475   3.171   5.980  0.0037  0.0865 -0.1141
    5HTM    C2311641   5.489   3.280   6.073 -0.0238  0.1354 -0.1676
    5HTM    C2411642   5.510   3.241   6.202 -0.1289  0.2033 -0.1303
    5HTM     S311643   5.513   3.062   6.217 -0.2013  0.2108 -0.0236
    6TAL    C2511644   5.463   3.425   6.022  0.4459 -0.0196  0.9277
    6TAL    C2611645   5.368   3.473   5.902 -0.1376  1.5686  0.1487
    6TAL    C2711646   5.448   3.511   5.775 -0.0991 -0.0235 -0.9196
    6TAL    C2811647   5.481   3.660   5.751  0.3202  0.6399  0.1524
    6TAL    C2911648   5.577   3.664   5.644 -0.1954  0.1507  0.4592
    6TAL    C3011649   5.603   3.814   5.614  0.1593  0.4728  1.1265
    7HTM    C3111650   5.560   3.308   6.317 -0.4079 -0.0117 -0.0273
    7HTM    C3211651   5.651   3.408   6.318 -0.4083 -0.0084 -0.2321
    7HTM    C3311652   5.710   3.432   6.448 -0.1441  0.0153 -0.3550
    7HTM    C3411653   5.663   3.350   6.545  0.0577  0.0302 -0.2439
    7HTM     S411654   5.540   3.235   6.481 -0.0712  0.0153  0.0270
    8TAL    C3511655   5.833   3.533   6.471  0.0477  0.5903  0.7276
    8TAL    C3611656   5.939   3.552   6.355 -0.0324  0.7568  0.1876
    8TAL    C3711657   6.046   3.650   6.381 -0.2803 -0.7193 -0.7258
    8TAL    C3811658   6.153   3.677   6.275 -0.7967  1.3110  0.6074
    8TAL    C3911659   6.113   3.718   6.135  0.4414 -0.2361  0.1630
    8TAL    C4011660   6.170   3.633   6.015  0.4049  0.7239 -0.2997
    9HTM    C4111661   5.703   3.340   6.691 -0.2479  0.2509  0.4589
    9HTM    C4211662   5.718   3.434   6.789  0.0284  0.0184  0.6428
    9HTM    C4311663   5.746   3.378   6.919  0.2165 -0.3005  0.4669
    9HTM    C4411664   5.753   3.242   6.920  0.0834 -0.3110  0.1491
    9HTM     S511665   5.724   3.173   6.756 -0.2927  0.0840  0.0464
   10TAL    C4511666   5.769   3.468   7.038  0.0538  0.6702  0.1050
   10TAL    C4611667   5.740   3.615   7.034 -0.1966 -0.3657  0.7329
   10TAL    C4711668   5.785   3.718   7.150  1.2788  0.0897 -0.5905
   10TAL    C4811669   5.929   3.696   7.209  0.8885  0.1588  0.1404
   10TAL    C4911670   5.963   3.750   7.355  0.1598  1.0366 -0.1909
   10TAL    C5011671   6.098   3.807   7.366 -0.2930  0.5340  0.0330
   11HTM    C5111672   5.793   3.148   7.027  0.4317 -0.2203  0.1535
   11HTM    C5211673   5.861   3.031   7.014  1.3577  0.2701  0.4346
   11HTM    C5311674   5.891   2.967   7.139  1.5014  0.5901  0.5680
   11HTM    C5411675   5.844   3.035   7.248  0.6849  0.3437  0.3887
   11HTM     S611676   5.760   3.187   7.200 -0.3368 -0.3167  0.0346
   12TAL    C5511677   5.949   2.828   7.144  1.1667 -0.4007 -0.0726
   12TAL    C5611678   5.954   2.745   7.013  0.4333 -1.1542  0.9463
   12TAL    C5711679   5.950   2.590   7.031  0.6576 -0.8387 -0.6428
   12TAL    C5811680   6.017   2.542   7.170 -0.1552 -0.1056 -0.3340
   12TAL    C5911681   5.980   2.395   7.207 -0.1902  0.0239  0.2116
   12TAL    C6011682   6.048   2.323   7.319 -0.1414  0.5068  0.1496
   13HTM    C6111683   5.864   3.025   7.393  0.0302 -0.2231 -0.6453
   13HTM    C6211684   5.846   3.122   7.486 -0.7267 -0.3351 -0.6633
   13HTM    C6311685   5.889   3.084   7.618 -1.0139 -0.1952 -0.5274
   13HTM    C6411686   5.940   2.958   7.625 -0.4760  0.0233 -0.4060
   13HTM     S711687   5.937   2.877   7.464  0.4422  0.0700 -0.4542
   14TAL    C6511688   5.892   3.183   7.741  0.9917  0.4982  0.4241
   14TAL    C6611689   5.873   3.338   7.714  0.2053 -0.4546 -0.3475
   14TAL    C6711690   5.996   3.406   7.670  0.5985  0.0185  0.4033
   14TAL    C6811691   6.000   3.554   7.657  0.1331 -0.2940  0.4562
   14TAL    C6911692   5.961   3.634   7.784 -0.6580  0.0279 -0.2315
   14TAL    C7011693   6.047   3.759   7.802 -0.2423  0.5964  0.3268
   15HTM    C7111694   6.004   2.888   7.739 -0.0988  0.9267 -0.3129
   15HTM    C7211695   6.107   2.799   7.750 -0.0713  0.8845 -0.8502
   15HTM    C7311696   6.122   2.743   7.882  0.0952  0.2667 -1.1206
   15HTM    C7411697   6.030   2.790   7.972  0.1944 -0.1621 -0.7893
   15HTM     S811698   5.917   2.908   7.896  0.0846  0.1836 -0.1050
   16TAL    C7511699   6.227   2.647   7.919 -0.9999 -0.2920 -0.5391
   16TAL    C7611700   6.268   2.543   7.822 -0.0546  0.5505 -0.1503
   16TAL    C7711701   6.360   2.457   7.904  0.1722 -0.2503 -0.8468
   16TAL    C7811702   6.488   2.512   7.972 -0.5988  0.2504 -0.9538
   16TAL    C7911703   6.586   2.604   7.895  0.4442 -0.7971 -0.7096
   16TAL    C8011704   6.713   2.631   7.982 -0.2019 -0.0165  0.7095
   17HTM    C8111705   6.017   2.755   8.121 -0.5233  0.3587 -0.3487
   17HTM    C8211706   6.115   2.766   8.215 -0.3961  0.9531 -0.5357
   17HTM    C8311707   6.068   2.746   8.350 -0.0516  0.8398 -0.4306
   17HTM    C8411708   5.935   2.721   8.359  0.0839  0.1590 -0.1632
   17HTM     S911709   5.857   2.720   8.196 -0.2153 -0.3962 -0.0221
   18TAL    C8511710   6.169   2.748   8.463 -0.3152  0.4476  1.0465
   18TAL    C8611711   6.190   2.884   8.524 -0.2521 -0.3821  0.1504
   18TAL    C8711712   6.294   2.913   8.631  0.5783 -0.1440  0.0235
   18TAL    C8811713   6.266   3.023   8.729 -0.2726  0.0480 -0.5640
   18TAL    C8911714   6.367   3.032   8.852  0.1257 -0.4448 -0.3540
   18TAL    C9011715   6.507   3.066   8.816  0.0331  0.3847  0.0034
   19HTM    C9111716   5.839   2.706   8.474  0.9123 -0.4485  0.1724
   19HTM    C9211717   5.741   2.611   8.484  1.3790 -0.9426  0.1190
   19HTM    C9311718   5.672   2.613   8.611  0.9608 -0.9531 -0.1061
   19HTM    C9411719   5.717   2.710   8.696  0.1749 -0.4667 -0.2241
   19HTM    S1011720   5.851   2.806   8.623 -0.0997  0.0460 -0.0593
   20TAL    C9511721   5.564   2.509   8.637 -0.6416  0.3021  0.5746
   20TAL    C9611722   5.417   2.528   8.576 -0.8612 -0.2985 -0.5283
   20TAL    C9711723   5.397   2.547   8.428 -0.1894  0.1047  0.5698
   20TAL    C9811724   5.407   2.420   8.350 -0.6452  0.7039 -0.1393
   20TAL    C9911725   5.334   2.297   8.380 -0.2393 -0.1255 -0.1011
   20TAL   C10011726   5.331   2.191   8.272 -0.0125  0.5249  0.1188
   21HTM   C10111727   5.677   2.743   8.834 -0.4247 -0.0751 -0.1983
   21HTM   C10211728   5.645   2.651   8.930 -0.6431 -0.2679 -0.4542
   21HTM   C10311729   5.571   2.705   9.041 -0.5603 -0.4119 -0.3276
   21HTM   C10411730   5.547   2.839   9.030 -0.2789 -0.3288  0.0248
   21HTM    S1111731   5.615   2.907   8.878 -0.0951 -0.0603  0.2256
   22TAL   C10511732   5.545   2.609   9.145 -0.6601  1.3800 -0.9131
   22TAL   C10611733   5.646   2.576   9.258 -0.3157 -0.2360 -0.0372
   22TAL   C10711734   5.789   2.541   9.204  0.3066  0.1336 -0.0165
   22TAL   C10811735   5.900   2.497   9.304  0.3754  0.6279 -0.9981
   22TAL   C10911736   5.886   2.361   9.373  0.0326 -0.9972 -0.2214
   22TAL   C11011737   5.913   2.260   9.258 -0.1293 -0.2045 -0.6086
   23HTM   C11111738   5.495   2.934   9.134 -0.1661  0.0083  0.0656
   23HTM   C11211739   5.502   3.070   9.144 -0.3716  0.0300 -0.0737
   23HTM   C11311740   5.451   3.121   9.268 -0.3546  0.0721 -0.0837
   23HTM   C11411741   5.405   3.025   9.353 -0.1359  0.0824  0.0477
   23HTM    S1211742   5.423   2.860   9.282  0.0669  0.0394  0.1956
   24TAL   C11511743   5.438   3.279   9.286 -0.3633  0.3532  0.2550
   24TAL   C11611744   5.566   3.338   9.236 -0.2209 -1.7534  0.3819
   24TAL   C11711745   5.647   3.436   9.334  0.7201  0.2266  0.3116
   24TAL   C11811746   5.770   3.495   9.274 -0.3334 -0.1940  0.9097
   24TAL   C11911747   5.758   3.550   9.135 -0.1252 -0.5939  0.7110
   24TAL   C12011748   5.879   3.635   9.088  0.0339 -0.4619  0.8427
   25HTM   C12111749   5.347   3.032   9.483 -0.0636 -0.1842 -0.1790
   25HTM   C12211750   5.300   2.928   9.558  0.1031 -0.0322  0.1380
   25HTM   C12311751   5.278   2.963   9.696  0.2990  0.2805  0.0937
   25HTM   C12411752   5.308   3.092   9.726  0.2817  0.3670 -0.2567
   25HTM    S1311753   5.367   3.182   9.581  0.0147  0.0577 -0.5604
   26TAL   C12511754   5.239   2.861   9.806  1.0437 -0.6532  0.4689
   26TAL   C12611755   5.364   2.788   9.863  1.1993  0.4028 -0.4164
   26TAL   C12711756   5.453   2.718   9.754 -0.0578 -0.8234 -0.6512
   26TAL   C12811757   5.596   2.692   9.803 -0.7411 -0.5755  0.3829
   26TAL   C12911758   5.664   2.595   9.698  0.2865  0.1570  0.2096
   26TAL   C13011759   5.803   2.539   9.725  0.7331 -0.3959 -0.4910
   27HTM   C13111760   5.288   3.164   9.847 -0.6792  0.1728 -0.0558
   27HTM   C13211761   5.388   3.178   9.938 -0.7151 -0.4634  0.0877
   27HTM   C13311762   5.359   3.273  10.042 -0.4305 -0.5914  0.2866
   27HTM   C13411763   5.237   3.332  10.030 -0.1774 -0.0528  0.2949
   27HTM    S1411764   5.148   3.271   9.885 -0.2797  0.6634  0.0501
   28TAL   C13511765   5.458   3.313  10.155  1.4368 -0.5116 -0.5488
   28TAL   C13611766   5.566   3.411  10.106 -0.7139  0.4257 -0.7061
   28TAL   C13711767   5.632   3.485  10.229  0.3597 -0.1279  0.1497
   28TAL   C13811768   5.715   3.611  10.202 -0.0700  0.1168 -0.5473
   28TAL   C13911769   5.774   3.673  10.330 -0.0434 -0.0813  0.1379
   28TAL   C14011770   5.869   3.793  10.320 -0.2393  0.0334  0.0515
   29HTM   C14111771   5.167   3.450  10.099 -0.3661  0.4236 -0.3505
   29HTM   C14211772   5.097   3.553  10.044 -0.6604  0.2546 -0.2949
   29HTM   C14311773   5.058   3.654  10.138 -0.6677  0.2521 -0.2954
   29HTM   C14411774   5.098   3.628  10.266 -0.3790  0.4194 -0.3512
   29HTM    S1511775   5.189   3.473  10.277 -0.0729  0.5941 -0.4080
   30TAL   C14511776   4.965   3.762  10.087  0.4689  0.9367  0.3320
   30TAL   C14611777   5.026   3.862   9.985 -0.2899  0.0984  0.7294
   30TAL   C14711778   4.935   3.960   9.911 -0.0714 -0.4499 -0.3271
   30TAL   C14811779   4.844   3.880   9.816  0.0904  0.3932  0.2498
   30TAL   C14911780   4.747   3.948   9.721  0.9166 -0.0152  0.3518
   30TAL   C15011781   4.656   3.847   9.631 -0.8282 -0.4767  0.0472
   31HTM   C15111782   5.100   3.701  10.391  0.2236 -0.3365  0.2622
   31HTM   C15211783   5.170   3.679  10.506 -0.1662 -0.4168  0.4878
   31HTM   C15311784   5.148   3.779  10.607 -0.3260 -0.3563  0.3934
   31HTM   C15411785   5.061   3.877  10.569 -0.0578 -0.2300  0.0954
   31HTM    S1611786   5.000   3.850  10.401  0.4207 -0.1773 -0.0901
   32TAL   C15511787   5.212   3.767  10.749  0.1658  0.0929  0.2928
   32TAL   C15611788   5.363   3.760  10.754 -0.3961 -0.7407  0.2746
   32TAL   C15711789   5.420   3.735  10.898  0.1012 -0.4669  0.4267
   32TAL   C15811790   5.510   3.847  10.945 -0.5595 -0.5452  0.1413
   32TAL   C15911791   5.444   3.985  10.972 -0.8106 -1.2048 -0.0033
   32TAL   C16011792   5.539   4.111  10.941  0.3023  0.0473 -0.0082
   33HTM   C16111793   4.999   3.977  10.660 -0.4877  0.3670 -0.4786
   33HTM   C16211794   5.065   4.077  10.724 -0.2986  0.4526 -0.8051
   33HTM   C16311795   4.984   4.151  10.818  0.0503  0.3759 -0.4356
   33HTM   C16411796   4.855   4.107  10.825  0.1273  0.2316  0.1725
   33HTM    S1711797   4.826   3.968  10.713 -0.2379  0.1813  0.3272
   34TAL   C16511798   5.037   4.266  10.894 -0.7851 -0.7824  0.1954
   34TAL   C16611799   5.188   4.297  10.875  0.8539 -0.6398  0.4191
   34TAL   C16711800   5.192   4.442  10.829 -0.5765  1.1080 -0.1305
   34TAL   C16811801   5.345   4.461  10.820 -0.0083 -0.5559  0.6846
   34TAL   C16911802   5.400   4.608  10.817  0.1553  0.4445  0.8268
   34TAL   C17011803   5.323   4.733  10.769  0.7633  0.6923  0.1883
   35HTM   C17111804   4.752   4.148  10.921  0.0463 -0.1019  0.1166
   35HTM   C17211805   4.693   4.084  11.026  0.1323  0.1338  0.3085
   35HTM   C17311806   4.600   4.168  11.099  0.3430  0.3586  0.3207
   35HTM   C17411807   4.590   4.294  11.050  0.4177  0.2944  0.1382
   35HTM    S1811808   4.696   4.318  10.906  0.2260 -0.0576 -0.0650
   36TAL   C17511809   4.521   4.097  11.213 -0.7759  0.1402  0.9918
   36TAL   C17611810   4.595   4.067  11.332  0.1579  0.1777  0.8012
   36TAL   C17711811   4.516   4.008  11.446 -0.8345  0.3827 -0.4154
   36TAL   C17811812   4.389   4.088  11.505 -0.3608  0.6632  0.2623
   36TAL   C17911813   4.405   4.233  11.547  0.5729 -1.1457  0.4415
   36TAL   C18011814   4.497   4.252  11.661 -0.2478 -0.2789 -0.8916
   37HTM   C18111815   4.495   4.405  11.083 -0.0706  0.2906 -0.4084
   37HTM   C18211816   4.448   4.500  10.998 -0.0398  0.6380 -0.0401
   37HTM   C18311817   4.361   4.597  11.062 -0.0823  0.3690  0.3173
   37HTM   C18411818   4.343   4.575  11.195 -0.1454 -0.1835  0.2214
   37HTM    S1911819   4.434   4.429  11.251 -0.1562 -0.4085 -0.3323
   38TAL   C18511820   4.280   4.691  10.980  0.5555  0.2150 -0.1740
   38TAL   C18611821   4.369   4.801  10.923 -0.0528  0.9197 -0.2168
   38TAL   C18711822   4.302   4.928  10.877 -0.4725  0.6812  0.3619
   38TAL   C18811823   4.382   5.044  10.817  0.0131 -0.4265 -0.8519
   38TAL   C18911824   4.288   5.141  10.757 -0.1253 -0.7380  0.0850
   38TAL   C19011825   4.343   5.257  10.664  0.0748 -0.0112  0.3486
   39HTM   C19111826   4.252   4.627  11.290 -0.5549 -0.3967  0.0426
   39HTM   C19211827   4.190   4.551  11.385 -0.6231 -0.1320  0.2122
   39HTM   C19311828   4.089   4.622  11.459 -0.4095  0.1837  0.2043
   39HTM   C19411829   4.074   4.752  11.421 -0.1787  0.1598  0.0286
   39HTM    S2011830   4.188   4.796  11.287 -0.2130 -0.2668 -0.1416
   40TAL   C19511831   3.979   4.549  11.537 -0.6232  0.4744 -0.2935
   40TAL   C19611832   3.989   4.401  11.571 -1.0782  1.0125  0.3949
   40TAL   C19711833   3.900   4.366  11.692  0.4701  0.1457 -0.3209
   40TAL   C19811834   3.756   4.422  11.700 -0.3262  0.3137 -0.7872
   40TAL   C19911835   3.762   4.470  11.847  0.2867 -0.4976  0.8379
   40TAL   C20011836   3.639   4.500  11.925  0.0263  0.4820 -1.0283
   41HTM   C20111837   4.012   4.866  11.485  0.4350  0.2424  0.1492
   41HTM   C20211838   3.891   4.862  11.548  0.2314  0.0083 -0.2465
   41HTM   C20311839   3.839   4.992  11.581 -0.2339 -0.0817 -0.6070
   41HTM   C20411840   3.920   5.095  11.543 -0.3851  0.0840 -0.4861
   41HTM    S2111841   4.070   5.035  11.462  0.0520  0.3685  0.0975
   42TAL   C20511842   3.706   5.021  11.639 -0.0465  0.2267 -0.9222
   42TAL   C20611843   3.660   4.912  11.735  0.2113 -0.2382  0.3106
   42TAL   C20711844   3.709   4.915  11.884  0.2647  0.9741  0.0009
   42TAL   C20811845   3.698   5.040  11.973 -1.1009 -0.0698  0.8721
   42TAL   C20911846   3.564   5.088  12.011  0.6350 -0.7403 -0.0911
   42TAL   C21011847   3.443   5.113  11.919  0.3941 -0.9564 -0.3749
   43HTM   C21111848   3.922   5.235  11.583 -0.0860 -0.5142  0.1510
   43HTM   C21211849   4.031   5.317  11.578  0.1377 -0.8079  0.1562
   43HTM   C21311850   4.000   5.455  11.604  0.5804 -0.7895  0.6044
   43HTM   C21411851   3.868   5.479  11.629  0.6944 -0.4817  0.9407
   43HTM    S2211852   3.771   5.327  11.621  0.2479 -0.1889  0.7162
   44TAL   C21511853   4.116   5.542  11.554  0.2870 -0.4599  0.1528
   44TAL   C21611854   4.149   5.644  11.664 -0.6828 -0.9605  0.3058
   44TAL   C21711855   4.163   5.798  11.636  0.7313  0.8788  0.4961
   44TAL   C21811856   4.191   5.873  11.754 -0.3045 -0.5237 -0.5086
   44TAL   C21911857   4.229   6.018  11.717  0.0823  0.2479  0.3311
   44TAL   C22011858   4.373   6.048  11.765 -0.9125  0.0679  0.7781
   45HTM   C22111859   3.802   5.614  11.625 -0.2149  0.4348  0.2269
   45HTM   C22211860   3.742   5.688  11.527 -0.1156  0.6498  0.3281
   45HTM   C22311861   3.707   5.821  11.569  0.2410  0.7073  0.4520
   45HTM   C22411862   3.740   5.849  11.699  0.4136  0.5364  0.4447
   45HTM    S2311863   3.818   5.707  11.778  0.1369  0.2875  0.2802
   46TAL   C22511864   3.634   5.910  11.472  0.2131 -0.4690 -0.6811
   46TAL   C22611865   3.479   5.918  11.471  0.3171 -0.6893  0.1331
   46TAL   C22711866   3.413   5.818  11.382  0.0251  0.6090 -0.0912
   46TAL   C22811867   3.269   5.834  11.358  0.2047 -0.2546 -0.0441
   46TAL   C22911868   3.176   5.954  11.385  0.3869 -0.1285 -0.3458
   46TAL   C23011869   3.202   6.076  11.298 -0.1314 -0.5096  0.1593
   47HTM   C23111870   3.721   5.963  11.786  0.3185  0.0202  0.3932
   47HTM   C23211871   3.616   6.051  11.789  0.2933 -0.0002  0.1233
   47HTM   C23311872   3.623   6.145  11.897 -0.0269 -0.0255  0.1657
   47HTM   C23411873   3.732   6.130  11.977 -0.2459 -0.0245  0.4687
   47HTM    S2411874   3.836   5.994  11.922 -0.0632  0.0090  0.7251
   48TAL   C23511875   3.538   6.274  11.907 -0.0344  0.6145 -0.1992
   48TAL   C23611876   3.608   6.405  11.874 -0.3669 -0.3651 -0.5076
   48TAL   C23711877   3.639   6.415  11.722 -0.6759  0.7349  0.7155
   48TAL   C23811878   3.523   6.392  11.620  0.1736 -0.0623  0.6936
   48TAL   C23911879   3.556   6.392  11.473  0.4497  0.5822  0.3810
   48TAL   C24011880   3.588   6.528  11.403  1.0451  0.3666  0.3023
    1HTM     C111881   5.229   6.162  11.991  0.1911  0.0915 -0.1607
    1HTM     C211882   5.281   6.279  11.944  0.3650  0.0997  0.0489
    1HTM     C311883   5.314   6.373  12.047  0.1504  0.0132  0.1986
    1HTM     C411884   5.288   6.328  12.173 -0.1871 -0.0609  0.1033
    1HTM     S111885   5.218   6.162  12.171 -0.2604 -0.0268 -0.1854
    2TAL     C511886   5.365   6.518  12.012  0.4670  0.9909 -0.7762
    2TAL     C611887   5.514   6.545  11.974  0.1346  0.0040 -0.4806
    2TAL     C711888   5.550   6.696  11.966  1.0310 -0.1500 -0.3153
    2TAL     C811889   5.691   6.734  11.958  0.2144  0.3203 -0.2436
    2TAL     C911890   5.704   6.888  11.967 -0.2169 -0.3222 -0.2324
    2TAL    C1011891   5.837   6.925  11.913 -0.1145 -0.1491  0.3516
    3HTM    C1111892   5.305   6.397  12.303  0.5180  0.2915 -0.1804
    3HTM    C1211893   5.265   6.343  12.421  0.7901 -0.0709 -0.2480
    3HTM    C1311894   5.289   6.428  12.535  0.9487 -0.3695 -0.0553
    3HTM    C1411895   5.348   6.547  12.503  0.7973 -0.2347  0.1588
    3HTM     S211896   5.378   6.560  12.325  0.4400  0.2836  0.1339
    4TAL    C1511897   5.244   6.396  12.671  0.2614 -0.0100 -0.1300
    4TAL    C1611898   5.210   6.260  12.710 -0.0410  0.2440  0.6169
    4TAL    C1711899   5.107   6.238  12.822 -0.4301  0.3871  1.2119
    4TAL    C1811900   5.081   6.088  12.847 -0.8292 -0.3828 -0.1240
    4TAL    C1911901   4.940   6.040  12.892  0.3018  0.1988 -0.6825
    4TAL    C2011902   4.817   6.097  12.823 -0.2479  0.4252  0.5508
    5HTM    C2111903   5.389   6.656  12.582  0.2057  0.1496  0.0102
    5HTM    C2211904   5.382   6.789  12.551  0.1538  0.1248 -0.0818
    5HTM    C2311905   5.458   6.874  12.639  0.0581  0.2234 -0.0942
    5HTM    C2411906   5.523   6.806  12.737  0.0371  0.3233 -0.0113
    5HTM     S311907   5.494   6.628  12.727  0.1372  0.3006  0.0891
    6TAL    C2511908   5.444   7.024  12.618 -0.7029  0.3271 -0.3522
    6TAL    C2611909   5.491   7.069  12.478  0.1078 -0.2324  0.5414
    6TAL    C2711910   5.550   7.210  12.460 -0.0980 -1.0740 -0.2170
    6TAL    C2811911   5.571   7.252  12.320  0.8398  0.5210 -0.0747
    6TAL    C2911912   5.657   7.158  12.231  0.0094  0.4467 -0.5293
    6TAL    C3011913   5.801   7.114  12.265 -0.2621  0.0753 -0.4508
    7HTM    C3111914   5.595   6.856  12.854  0.2152  0.1333 -0.4211
    7HTM    C3211915   5.633   6.776  12.957  0.1024  0.1961 -0.3297
    7HTM    C3311916   5.698   6.847  13.065 -0.2040  0.2921 -0.2067
    7HTM    C3411917   5.709   6.981  13.044 -0.3249  0.3024 -0.2043
    7HTM     S411918   5.638   7.029  12.885 -0.0591  0.1909 -0.3584
    8TAL    C3511919   5.755   6.762  13.183  0.4632 -0.5074 -0.0839
    8TAL    C3611920   5.899   6.793  13.223 -0.4642 -0.5338 -0.2697
    8TAL    C3711921   6.010   6.756  13.128  0.4985 -0.3601 -0.7154
    8TAL    C3811922   6.159   6.769  13.167 -0.1052 -0.1032 -0.9133
    8TAL    C3911923   6.237   6.833  13.049 -0.1504  0.0193 -0.2388
    8TAL    C4011924   6.388   6.827  13.095  0.3280  0.3731  0.3636
    9HTM    C4111925   5.777   7.087  13.114 -0.8520 -0.2316  0.1377
    9HTM    C4211926   5.899   7.143  13.089 -0.7054 -0.7527 -0.3443
    9HTM    C4311927   5.940   7.240  13.187  0.0609 -0.8544 -0.5510
    9HTM    C4411928   5.849   7.258  13.287  0.4985 -0.4111 -0.2274
    9HTM     S511929   5.704   7.153  13.265 -0.0271  0.1739  0.3691
   10TAL    C4511930   6.062   7.332  13.175  0.8076  0.8861  0.8011
   10TAL    C4611931   6.204   7.270  13.154  0.3332  0.5905 -0.5810
   10TAL    C4711932   6.230   7.183  13.027 -0.3805 -0.6868 -0.2370
   10TAL    C4811933   6.233   7.265  12.892  1.0017 -0.8787 -0.0569
   10TAL    C4911934   6.202   7.192  12.756  0.6168 -0.0207  0.5040
   10TAL    C5011935   6.131   7.047  12.780 -0.5792 -0.5012  0.5372
   11HTM    C5111936   5.849   7.338  13.409 -0.1134  0.6189 -0.5480
   11HTM    C5211937   5.870   7.279  13.530 -0.0749  0.1928 -0.7575
   11HTM    C5311938   5.856   7.370  13.641 -0.1303 -0.2165 -0.4287
   11HTM    C5411939   5.823   7.497  13.605 -0.2111 -0.1024  0.0322
   11HTM     S611940   5.808   7.513  13.426 -0.2237  0.5358  0.0860
   12TAL    C5511941   5.888   7.301  13.771 -0.6125  0.5760 -0.0124
   12TAL    C5611942   5.789   7.308  13.872  0.1375  0.3770 -0.4197
   12TAL    C5711943   5.843   7.276  14.012 -0.7963 -0.1556 -0.1245
   12TAL    C5811944   5.743   7.310  14.118 -0.4588  0.0134 -0.3669
   12TAL    C5911945   5.687   7.452  14.130 -0.0358 -0.3115 -0.3998
   12TAL    C6011946   5.562   7.445  14.218  0.0348  0.3869 -0.0413
   13HTM    C6111947   5.805   7.613  13.683  0.6505  0.0608 -0.0916
   13HTM    C6211948   5.887   7.662  13.780  0.8123  0.0947 -0.2446
   13HTM    C6311949   5.851   7.794  13.825  0.7124 -0.0072 -0.0253
   13HTM    C6411950   5.741   7.845  13.762  0.4742 -0.1187  0.2950
   13HTM     S711951   5.675   7.730  13.640  0.3568 -0.1037  0.3448
   14TAL    C6511952   5.949   7.867  13.918  0.5960  0.5699 -0.1535
   14TAL    C6611953   5.975   7.820  14.063  0.0765  0.4254 -1.4764
   14TAL    C6711954   5.862   7.835  14.171  0.7017 -0.7992  0.3664
   14TAL    C6811955   5.822   7.982  14.194 -1.1508 -0.8694 -0.4657
   14TAL    C6911956   5.724   8.019  14.309 -0.0569 -0.3924 -0.1444
   14TAL    C7011957   5.654   8.150  14.296  0.7239 -0.3441  0.9084
   15HTM    C7111958   5.671   7.975  13.787  0.5624 -0.1620  0.4499
   15HTM    C7211959   5.536   7.990  13.800  0.5250 -0.4786  0.4466
   15HTM    C7311960   5.495   8.127  13.821  0.1689 -0.5126 -0.0093
   15HTM    C7411961   5.598   8.216  13.824 -0.0653 -0.2220 -0.3537
   15HTM     S811962   5.757   8.133  13.801  0.1476  0.1198 -0.1272
   16TAL    C7511963   5.345   8.159  13.830 -0.7305  0.0125 -0.0806
   16TAL    C7611964   5.248   8.079  13.913  0.1436 -0.2180  0.1191
   16TAL    C7711965   5.266   8.053  14.060 -0.0827 -0.7787 -0.5494
   16TAL    C7811966   5.254   8.182  14.158 -0.1297  0.4460  0.2099
   16TAL    C7911967   5.221   8.147  14.302 -0.0487  0.8923  0.3337
   16TAL    C8011968   5.091   8.068  14.333  0.2197 -0.0137 -0.1995
   17HTM    C8111969   5.599   8.357  13.860 -0.7124 -0.5082  0.2309
   17HTM    C8211970   5.698   8.411  13.937 -0.6510 -1.0446  0.5336
   17HTM    C8311971   5.675   8.548  13.974 -0.0390 -0.9273  0.4976
   17HTM    C8411972   5.559   8.599  13.924  0.3662 -0.3015  0.1664
   17HTM     S911973   5.469   8.477  13.827  0.0034  0.1921 -0.1269
   18TAL    C8511974   5.769   8.628  14.054 -0.3350 -1.0489  1.0174
   18TAL    C8611975   5.810   8.610  14.196 -0.1818 -0.0090  0.3726
   18TAL    C8711976   5.721   8.627  14.308  0.8867 -0.3127  0.0829
   18TAL    C8811977   5.611   8.523  14.328 -0.1915  0.5088 -0.5849
   18TAL    C8911978   5.509   8.551  14.439  0.8070 -0.1967 -0.6083
   18TAL    C9011979   5.404   8.445  14.480  0.0143  0.2229  0.6147
   19HTM    C9111980   5.494   8.719  13.951 -0.2854  0.1095 -0.0369
   19HTM    C9211981   5.531   8.850  13.953 -0.0190  0.0316  0.5238
   19HTM    C9311982   5.424   8.941  13.985  0.0978  0.1322  0.6318
   19HTM    C9411983   5.304   8.878  14.008 -0.0798  0.2867  0.1532
   19HTM    S1011984   5.319   8.699  13.990 -0.4108  0.3174 -0.4757
   20TAL    C9511985   5.434   9.090  13.993 -0.1908 -0.0608  0.0451
   20TAL    C9611986   5.479   9.168  13.875 -0.4821 -0.4879  0.6128
   20TAL    C9711987   5.418   9.309  13.846 -0.0350  0.9385 -0.2696
   20TAL    C9811988   5.276   9.328  13.802 -0.3219  0.2775  0.2891
   20TAL    C9911989   5.227   9.288  13.659  0.0364  0.0672 -0.5393
   20TAL   C10011990   5.288   9.354  13.532 -0.6964  0.0098  0.3938
   21HTM   C10111991   5.172   8.932  14.022 -0.3204 -0.0315 -0.0761
   21HTM   C10211992   5.082   8.929  14.124 -0.4815 -0.7740 -0.2289
   21HTM   C10311993   4.949   8.970  14.085 -0.5442 -0.9973 -0.2534
   21HTM   C10411994   4.938   9.004  13.954 -0.4311 -0.4251 -0.1190
   21HTM    S1111995   5.096   8.987  13.868 -0.2351  0.4469  0.0499
   22TAL   C10511996   4.834   8.972  14.190 -0.5306 -0.6840 -0.3601
   22TAL   C10611997   4.872   8.885  14.315 -0.3619 -0.1694  1.1688
   22TAL   C10711998   4.770   8.885  14.425 -0.2337  0.3958 -0.6627
   22TAL   C10811999   4.807   8.799  14.549  0.1791 -0.5164  0.3331
   22TAL   C10912000   4.931   8.858  14.620  0.4741  0.0425  0.7479
   22TAL   C11012001   4.998   8.807  14.742 -0.0746  0.1095 -0.0653
   23HTM   C11112002   4.833   9.072  13.881 -0.0633 -0.0060  0.0491
   23HTM   C11212003   4.754   9.179  13.909 -0.3278 -0.1987  0.0455
   23HTM   C11312004   4.670   9.220  13.800 -0.3018 -0.3000 -0.0124
   23HTM   C11412005   4.685   9.144  13.688 -0.0175 -0.1846 -0.0535
   23HTM    S1212006   4.807   9.014  13.712  0.2415  0.0629 -0.0217
   24TAL   C11512007   4.585   9.346  13.821  0.0669  0.1741  0.1400
   24TAL   C11612008   4.598   9.473  13.920  0.0369  0.3672 -0.6024
   24TAL   C11712009   4.474   9.558  13.922  0.3178  1.1413  0.2682
   24TAL   C11812010   4.524   9.695  13.960  0.3950 -0.8411 -0.2258
   24TAL   C11912011   4.417   9.804  13.958  0.0828 -0.9098 -0.0789
   24TAL   C12012012   4.356   9.830  13.824 -0.4487  0.6290  0.4257
   25HTM   C12112013   4.627   9.150  13.556  0.9227  0.1528  0.2610
   25HTM   C12212014   4.514   9.219  13.522  1.2650  0.9437  0.6690
   25HTM   C12312015   4.488   9.221  13.381  0.8129  1.1888  0.7524
   25HTM   C12412016   4.581   9.154  13.307  0.1258  0.5849  0.4077
   25HTM    S1312017   4.710   9.083  13.411 -0.0045 -0.3475 -0.0518
   26TAL   C12512018   4.380   9.314  13.325  0.6881 -0.0579  0.0255
   26TAL   C12612019   4.261   9.366  13.408  0.6316 -0.5880 -0.3109
   26TAL   C12712020   4.199   9.496  13.357 -0.0147  0.5611  0.7106
   26TAL   C12812021   4.133   9.571  13.472 -0.9369  0.4373 -0.0802
   26TAL   C12912022   4.045   9.697  13.439 -0.2810 -0.5027 -0.3516
   26TAL   C13012023   3.951   9.716  13.560 -0.0044  0.8623 -0.5217
   27HTM   C13112024   4.561   9.103  13.173 -0.3854 -0.2359  0.0142
   27HTM   C13212025   4.663   9.057  13.096 -0.3630 -0.3885  0.1347
   27HTM   C13312026   4.623   9.024  12.961 -0.3268 -0.6630  0.1891
   27HTM   C13412027   4.491   9.046  12.936 -0.3214 -0.7197  0.1100
   27HTM    S1412028   4.406   9.110  13.082 -0.3620 -0.4285 -0.0403
   28TAL   C13512029   4.710   8.952  12.872 -0.3385 -1.0239  0.8918
   28TAL   C13612030   4.805   9.029  12.774 -0.1388 -0.1103 -0.0575
   28TAL   C13712031   4.913   9.112  12.841 -0.6799  0.3866 -0.4807
   28TAL   C13812032   4.992   9.198  12.755 -0.8503 -0.6492 -0.0283
   28TAL   C13912033   5.115   9.128  12.685  0.1580 -0.4705  0.3052
   28TAL   C14012034   5.084   9.033  12.566 -0.6954 -0.0336  0.3489
   29HTM   C14112035   4.410   9.031  12.811  0.1696 -0.5628 -0.8954
   29HTM   C14212036   4.287   8.973  12.802  0.3676 -0.9852 -0.9353
   29HTM   C14312037   4.227   8.984  12.671  0.1141 -0.6540 -0.7927
   29HTM   C14412038   4.305   9.051  12.581 -0.2771  0.0210 -0.6443
   29HTM    S1512039   4.461   9.105  12.654 -0.3565  0.2927 -0.6730
   30TAL   C14512040   4.089   8.933  12.645  0.3855  0.1680  0.8107
   30TAL   C14612041   4.009   8.838  12.730  0.3045  0.0965 -1.0968
   30TAL   C14712042   3.863   8.802  12.676  0.4427 -0.3634  1.0536
   30TAL   C14812043   3.779   8.707  12.748  0.7785  0.8601 -0.9847
   30TAL   C14912044   3.674   8.618  12.678 -0.1584 -0.0872 -0.0573
   30TAL   C15012045   3.729   8.489  12.626  0.1950  0.3121 -0.2288
   31HTM   C15112046   4.299   9.095  12.444 -0.1462  0.7753  0.3903
   31HTM   C15212047   4.391   9.182  12.394 -0.3139  0.9486  0.3800
   31HTM   C15312048   4.382   9.200  12.251 -0.2341  0.7749  0.3524
   31HTM   C15412049   4.282   9.127  12.193 -0.0059  0.4693  0.3412
   31HTM    S1612050   4.192   9.029  12.315  0.1273  0.3763  0.3653
   32TAL   C15512051   4.471   9.310  12.181 -0.2820 -0.3611  0.0658
   32TAL   C15612052   4.432   9.465  12.195  0.2231  0.3442 -0.7357
   32TAL   C15712053   4.302   9.512  12.138 -0.1596  0.0201  0.1144
   32TAL   C15812054   4.270   9.629  12.230  0.0377 -0.1313 -0.1169
   32TAL   C15912055   4.162   9.731  12.226  0.3597 -0.5284  0.1855
   32TAL   C16012056   4.015   9.679  12.251 -0.9625 -0.4138  0.2116
   33HTM   C16112057   4.250   9.102  12.056  0.2187 -0.0976  0.1593
   33HTM   C16212058   4.125   9.095  12.003  0.1103 -0.3783  0.4439
   33HTM   C16312059   4.124   9.087  11.859 -0.1999 -0.3199  0.4423
   33HTM   C16412060   4.248   9.088  11.803 -0.3279  0.0053  0.1564
   33HTM    S1712061   4.377   9.099  11.928 -0.0648  0.2650 -0.1351
   34TAL   C16512062   3.990   9.074  11.785  0.3730 -0.1515  0.6545
   34TAL   C16612063   3.950   9.206  11.721  0.2634 -0.8709  0.0148
   34TAL   C16712064   3.890   9.179  11.579  0.3413  0.2247  0.8526
   34TAL   C16812065   3.971   9.090  11.479 -0.8291 -1.2735 -0.0024
   34TAL   C16912066   3.936   9.085  11.330  0.2137 -0.1663  0.4139
   34TAL   C17012067   4.010   8.984  11.243 -0.1643 -0.1347  0.4417
   35HTM   C17112068   4.302   9.087  11.668  0.0912  0.0609  0.0001
   35HTM   C17212069   4.329   8.973  11.598 -0.0151  0.0441 -0.0153
   35HTM   C17312070   4.389   8.997  11.469 -0.3219  0.0172 -0.1621
   35HTM   C17412071   4.406   9.130  11.441 -0.4496  0.0134 -0.2590
   35HTM    S1812072   4.349   9.235  11.576 -0.1902  0.0438 -0.1715
   36TAL   C17512073   4.440   8.886  11.380 -0.0366  0.6075 -0.2737
   36TAL   C17612074   4.580   8.815  11.403  0.5815 -0.2077  0.5485
   36TAL   C17712075   4.570   8.716  11.518  0.5391  0.4578 -0.3744
   36TAL   C17812076   4.706   8.650  11.548 -0.6602 -0.0399  0.4898
   36TAL   C17912077   4.737   8.561  11.672 -0.0032 -0.9436  0.4336
   36TAL   C18012078   4.667   8.605  11.803 -0.2458 -0.1845  0.4911
   37HTM   C18112079   4.461   9.198  11.325 -0.1805  0.5255  0.1529
   37HTM   C18212080   4.440   9.325  11.280  0.4923  0.6665  0.2098
   37HTM   C18312081   4.507   9.354  11.156  0.6627  0.3715  0.2296
   37HTM   C18412082   4.579   9.250  11.106  0.1197  0.0056  0.1872
   37HTM    S1912083   4.568   9.105  11.213 -0.6551  0.0051  0.1194
   38TAL   C18512084   4.518   9.494  11.093  0.4509 -0.4563  0.5911
   38TAL   C18612085   4.415   9.609  11.117 -0.7614 -0.1441 -0.6675
   38TAL   C18712086   4.487   9.717  11.220  0.0937  0.4193  1.7586
   38TAL   C18812087   4.397   9.827  11.266 -0.1046  0.0268  0.5233
   38TAL   C18912088   4.434   9.916  11.387 -0.0626 -0.1435 -1.3503
   38TAL   C19012089   4.559   9.998  11.394  0.0556 -0.1296 -0.3211
   39HTM   C19112090   4.676   9.252  10.998  0.0961 -1.6510  0.1900
   39HTM   C19212091   4.809   9.279  11.009  0.1096 -1.8381  0.4957
   39HTM   C19312092   4.879   9.281  10.884  0.1820 -0.8575  0.5372
   39HTM   C19412093   4.800   9.255  10.776  0.2241  0.0772  0.2632
   39HTM    S2012094   4.629   9.226  10.825  0.1748 -0.2107 -0.0713
   40TAL   C19512095   5.019   9.317  10.894  0.1827  0.4251 -1.2516
   40TAL   C19612096   5.125   9.233  10.981  0.3300 -0.5782  0.0800
   40TAL   C19712097   5.139   9.095  10.925  0.4667  0.0291 -0.6662
   40TAL   C19812098   5.191   9.005  11.039 -0.3056  0.3411 -0.1750
   40TAL   C19912099   5.163   8.854  11.045  0.7320 -0.4143  0.8897
   40TAL   C20012100   5.199   8.806  11.177  0.2467  0.0047 -0.2050
   41HTM   C20112101   4.851   9.206  10.650 -0.0672 -0.5245  0.3346
   41HTM   C20212102   4.873   9.073  10.629  0.1036 -0.4676  0.1547
   41HTM   C20312103   4.966   9.047  10.522  0.2093 -0.2020  0.1791
   41HTM   C20412104   5.014   9.159  10.462  0.1192 -0.0564  0.3773
   41HTM    S2112105   4.946   9.309  10.536 -0.1081 -0.2449  0.5501
   42TAL   C20512106   4.996   8.900  10.484 -0.2657 -0.5346 -0.8619
   42TAL   C20612107   5.048   8.811  10.598  0.6928  0.8227  1.0873
   42TAL   C20712108   5.072   8.663  10.559  0.0017  0.7445 -1.5578
   42TAL   C20812109   4.949   8.575  10.541 -0.0741  0.6146  0.5985
   42TAL   C20912110   4.988   8.426  10.525  0.4237  1.0276  0.6894
   42TAL   C21012111   4.861   8.350  10.551  0.5726  0.6535 -0.1797
   43HTM   C21112112   5.109   9.178  10.348  0.6227  0.9652 -0.2873
   43HTM   C21212113   5.086   9.257  10.239  0.9210  0.6399 -0.5918
   43HTM   C21312114   5.181   9.238  10.133  0.6561 -0.3703 -0.6645
   43HTM   C21412115   5.276   9.144  10.160  0.1563 -0.8152 -0.4155
   43HTM    S2212116   5.253   9.072  10.324 -0.0203  0.0136 -0.0670
   44TAL   C21512117   5.159   9.303   9.996  0.8945  0.2624  0.3761
   44TAL   C21612118   5.270   9.363   9.896  0.0223  0.3590  0.3955
   44TAL   C21712119   5.366   9.458   9.958 -0.0008 -0.3143  0.3428
   44TAL   C21812120   5.483   9.501   9.867 -0.3031  0.1926  0.4548
   44TAL   C21912121   5.582   9.397   9.822 -0.5046  0.1775 -0.1968
   44TAL   C22012122   5.668   9.457   9.718 -0.4927  0.1211  0.4976
   45HTM   C22112123   5.388   9.095  10.071 -0.1357  0.0582  0.0353
   45HTM   C22212124   5.519   9.108  10.107 -0.1376  0.5737 -0.1307
   45HTM   C22312125   5.611   9.054  10.010 -0.0620  0.6198 -0.0846
   45HTM   C22412126   5.550   8.999   9.901 -0.0023  0.1393  0.1163
   45HTM    S2312127   5.371   9.013   9.912 -0.0377 -0.4127  0.2642
   46TAL   C22512128   5.764   9.074  10.021 -1.0223  0.4181  0.8722
   46TAL   C22612129   5.814   9.214  10.024  0.2628 -0.0835  0.1422
   46TAL   C22712130   5.962   9.229  10.043 -0.2305  0.0576 -0.1164
   46TAL   C22812131   6.039   9.243   9.912 -0.5789  0.3885  1.1201
   46TAL   C22912132   6.109   9.123   9.845 -0.7579  0.1173 -0.0676
   46TAL   C23012133   6.204   9.036   9.937  0.7809 -0.3223 -0.3631
   47HTM   C23112134   5.608   8.918   9.786  0.1467  0.4481 -0.3794
   47HTM   C23212135   5.701   8.819   9.785  0.2826  0.5703 -0.0134
   47HTM   C23312136   5.720   8.758   9.656  0.4475  0.1987  0.1833
   47HTM   C23412137   5.642   8.811   9.558  0.4372 -0.2068 -0.0330
   47HTM    S2412138   5.537   8.943   9.622  0.2169 -0.1503 -0.5056
   48TAL   C23512139   5.808   8.639   9.633  0.1217  0.1410 -0.4085
   48TAL   C23612140   5.904   8.588   9.752  1.3234 -0.6146  0.3589
   48TAL   C23712141   6.049   8.622   9.744 -0.3350 -0.2952  0.0220
   48TAL   C23812142   6.124   8.559   9.858 -0.8485 -0.1275  0.0507
   48TAL   C23912143   6.273   8.580   9.858  0.4858 -0.3740 -0.3976
   48TAL   C24012144   6.348   8.486   9.946  0.3712  0.3273 -0.4243
    1HTM     C112145   2.495   0.947  18.063  0.2391 -0.1074 -0.1707
    1HTM     C212146   2.426   0.961  17.946  0.3304 -0.1974 -0.2365
    1HTM     C312147   2.325   0.861  17.925  0.1407 -0.0402 -0.0916
    1HTM     C412148   2.317   0.769  18.026 -0.0954  0.1697  0.0839
    1HTM     S112149   2.437   0.803  18.156 -0.0964  0.1852  0.0809
    2TAL     C512150   2.239   0.866  17.799  1.0682 -0.9668 -0.5418
    2TAL     C612151   2.316   0.831  17.680 -0.0209 -0.5123  0.6696
    2TAL     C712152   2.281   0.906  17.551 -0.0753  0.0859 -1.1955
    2TAL     C812153   2.290   0.842  17.419 -0.2559  1.2306  0.8957
    2TAL     C912154   2.144   0.782  17.371 -0.2400 -0.0868 -0.5709
    2TAL    C1012155   2.142   0.665  17.273 -0.2902 -0.1786 -0.7912
    3HTM    C1112156   2.229   0.655  18.036 -0.3866  0.2304  0.5099
    3HTM    C1212157   2.221   0.579  18.148 -0.7573  0.0120  0.3366
    3HTM    C1312158   2.149   0.456  18.130 -0.6089 -0.0026 -0.1678
    3HTM    C1412159   2.101   0.439  18.003 -0.1251  0.2047 -0.3805
    3HTM     S212160   2.145   0.578  17.896  0.1830  0.4362  0.0443
    4TAL    C1512161   2.129   0.358  18.247  0.2772 -0.7785  0.3600
    4TAL    C1612162   2.136   0.374  18.405 -0.6846 -0.0421  0.7176
    4TAL    C1712163   2.152   0.246  18.491 -0.8115 -0.5846  0.2663
    4TAL    C1812164   2.047   0.141  18.462 -0.3720 -0.6725  0.0774
    4TAL    C1912165   2.082   0.000  18.515 -0.4513  0.1149  0.2723
    4TAL    C2012166   1.980  -0.106  18.452  0.2820  0.5647 -0.8836
    5HTM    C2112167   2.011   0.332  17.944 -0.3113 -0.3541 -0.4154
    5HTM    C2212168   1.974   0.334  17.812 -0.5715 -0.1910 -0.3419
    5HTM    C2312169   1.879   0.231  17.777 -0.7625 -0.0477 -0.2480
    5HTM    C2412170   1.844   0.151  17.882 -0.6479 -0.1015 -0.2495
    5HTM     S312171   1.928   0.200  18.034 -0.2869 -0.3392 -0.3709
    6TAL    C2512172   1.832   0.216  17.631  0.0784  0.0706  0.5441
    6TAL    C2612173   1.773   0.354  17.589  0.4535  0.5078 -0.2046
    6TAL    C2712174   1.760   0.381  17.441 -0.2152 -0.4926  0.7052
    6TAL    C2812175   1.890   0.395  17.371 -0.0793 -0.4725 -0.4358
    6TAL    C2912176   1.931   0.314  17.254 -1.2672 -0.2383  0.7721
    6TAL    C3012177   1.902   0.165  17.252 -0.2248 -1.0034  0.4252
    7HTM    C3112178   1.758   0.040  17.880  0.8571 -0.2564  0.3200
    7HTM    C3212179   1.636   0.048  17.939  1.1736  0.2342  0.9384
    7HTM    C3312180   1.558  -0.072  17.926  0.5690  0.5907  1.1959
    7HTM    C3412181   1.621  -0.172  17.858 -0.2085  0.3719  0.7733
    7HTM     S412182   1.785  -0.121  17.803 -0.2377 -0.3067  0.0118
    8TAL    C3512183   1.417  -0.076  17.983  0.2617 -0.6083 -0.2197
    8TAL    C3612184   1.331   0.042  17.943  0.8478  0.8441 -0.0215
    8TAL    C3712185   1.185   0.027  18.001 -0.5995 -0.5501 -0.0558
    8TAL    C3812186   1.082   0.133  17.992  0.2640  0.7887 -0.2883
    8TAL    C3912187   1.062   0.196  17.854  0.9771 -0.6008 -0.1058
    8TAL    C4012188   0.981   0.104  17.767  0.3119  0.3661  0.3542
    9HTM    C4112189   1.578  -0.295  17.802 -0.3120  0.1267  0.6651
    9HTM    C4212190   1.480  -0.312  17.709 -0.6472  0.0850  1.0195
    9HTM    C4312191   1.483  -0.440  17.644 -0.5762  0.2350  0.7234
    9HTM    C4412192   1.583  -0.521  17.687 -0.1869  0.3907  0.1439
    9HTM     S512193   1.683  -0.442  17.815  0.1226  0.3602 -0.0750
   10TAL    C4512194   1.376  -0.453  17.541  0.5673 -0.0845 -0.4649
   10TAL    C4612195   1.354  -0.589  17.477 -0.8781  0.6476 -0.7518
   10TAL    C4712196   1.234  -0.587  17.382 -0.9392 -0.3673  0.5603
   10TAL    C4812197   1.263  -0.547  17.239 -0.2497  0.0062  0.4362
   10TAL    C4912198   1.142  -0.588  17.169 -0.4993  0.1243  0.6441
   10TAL    C5012199   1.127  -0.738  17.117  0.4307 -0.6663  0.2306
   11HTM    C5112200   1.633  -0.656  17.639  0.4436 -0.0808 -0.4281
   11HTM    C5212201   1.759  -0.662  17.588  0.3794 -0.3809 -0.5527
   11HTM    C5312202   1.810  -0.797  17.576  0.2433 -0.4767 -0.1140
   11HTM    C5412203   1.722  -0.892  17.616  0.2037 -0.2498  0.3439
   11HTM     S612204   1.567  -0.820  17.675  0.3363  0.1058  0.2575
   12TAL    C5512205   1.945  -0.810  17.528 -0.1146 -0.4315 -0.0340
   12TAL    C5612206   2.032  -0.694  17.481 -0.6882 -1.0506  0.5440
   12TAL    C5712207   2.174  -0.731  17.447 -0.2603  0.8560 -0.4963
   12TAL    C5812208   2.237  -0.634  17.361 -0.6770 -0.1655 -0.1439
   12TAL    C5912209   2.355  -0.659  17.277  0.3776  0.1499 -0.5693
   12TAL    C6012210   2.480  -0.643  17.370 -0.2037 -0.1055  0.0162
   13HTM    C6112211   1.730  -1.036  17.635  0.5686  0.0118  0.1152
   13HTM    C6212212   1.628  -1.127  17.630  0.5598  0.0290 -0.0181
   13HTM    C6312213   1.673  -1.264  17.623  0.5467  0.0340 -0.2213
   13HTM    C6412214   1.808  -1.277  17.623  0.5455  0.0206 -0.2429
   13HTM     S712215   1.891  -1.117  17.632  0.5608  0.0006 -0.0066
   14TAL    C6512216   1.573  -1.379  17.615  0.2964  0.2910  0.0323
   14TAL    C6612217   1.476  -1.379  17.497 -1.2640 -0.8133  1.1975
   14TAL    C6712218   1.386  -1.499  17.476  0.5829  0.3198 -0.3363
   14TAL    C6812219   1.312  -1.548  17.599 -0.5864  0.3899 -0.3131
   14TAL    C6912220   1.258  -1.689  17.574  0.2331  0.2587 -0.1868
   14TAL    C7012221   1.146  -1.712  17.473  0.3111 -0.0173  0.3286
   15HTM    C7112222   1.899  -1.393  17.608 -0.0958 -0.4477  0.2999
   15HTM    C7212223   1.892  -1.525  17.640 -0.1636 -0.5465 -0.1183
   15HTM    C7312224   1.997  -1.605  17.581 -0.3312 -0.4544 -0.5498
   15HTM    C7412225   2.084  -1.533  17.505 -0.3912 -0.2854 -0.4597
   15HTM     S812226   2.040  -1.358  17.501 -0.2394 -0.2291  0.1810
   16TAL    C7512227   2.008  -1.748  17.614 -0.5638 -0.5592 -1.1186
   16TAL    C7612228   1.895  -1.847  17.635  0.6798  0.1836 -0.2933
   16TAL    C7712229   1.938  -1.991  17.612  0.8160 -0.4691  1.0516
   16TAL    C7812230   1.822  -2.099  17.601  0.6769 -0.2296 -0.0212
   16TAL    C7912231   1.864  -2.206  17.505 -0.3526  0.0852  0.4012
   16TAL    C8012232   1.769  -2.318  17.496 -1.1966  1.6911 -0.5691
   17HTM    C8112233   2.200  -1.576  17.421  0.5981 -0.2320  0.2973
   17HTM    C8212234   2.240  -1.704  17.396  0.5979 -0.1941  0.0973
   17HTM    C8312235   2.350  -1.713  17.304  0.2744 -0.0790 -0.3047
   17HTM    C8412236   2.393  -1.593  17.258  0.0279 -0.0292 -0.4117
   17HTM     S912237   2.298  -1.457  17.329  0.1867 -0.1244 -0.0093
   18TAL    C8512238   2.390  -1.850  17.259  0.3538  0.5040  1.6627
   18TAL    C8612239   2.539  -1.885  17.221  0.2277  0.0736 -0.2005
   18TAL    C8712240   2.622  -1.886  17.358  0.1564 -0.3925  0.7986
   18TAL    C8812241   2.769  -1.942  17.337 -0.1370  0.1490 -0.8531
   18TAL    C8912242   2.854  -1.868  17.237  0.3217 -0.1823 -0.4906
   18TAL    C9012243   2.991  -1.928  17.223 -1.0856  0.4203 -0.4273
   19HTM    C9112244   2.512  -1.560  17.186  0.0539  0.5426  0.6603
   19HTM    C9212245   2.517  -1.532  17.053 -0.5699  0.6999  0.6652
   19HTM    C9312246   2.648  -1.493  17.006 -0.7059  0.4405  0.0396
   19HTM    C9412247   2.742  -1.490  17.104 -0.1858  0.0854 -0.4404
   19HTM    S1012248   2.673  -1.538  17.264  0.5216  0.0508 -0.1393
   20TAL    C9512249   2.680  -1.455  16.864  0.4287  0.2170 -0.1165
   20TAL    C9612250   2.590  -1.473  16.746  0.4051  0.5493  0.7697
   20TAL    C9712251   2.443  -1.419  16.754  0.1677  0.0567 -0.3404
   20TAL    C9812252   2.355  -1.466  16.648 -1.5380  0.5897 -0.5208
   20TAL    C9912253   2.225  -1.395  16.632 -0.1004  0.9009 -1.1137
   20TAL   C10012254   2.126  -1.432  16.743  0.7987 -0.3441  1.3949
   21HTM   C10112255   2.877  -1.443  17.101 -0.4166  0.3182  0.5465
   21HTM   C10212256   2.984  -1.492  17.032 -0.5222  0.1302  0.5164
   21HTM   C10312257   3.107  -1.421  17.056 -0.4535  0.1045  0.2489
   21HTM   C10412258   3.093  -1.317  17.144 -0.2955  0.2728  0.0745
   21HTM    S1112259   2.924  -1.301  17.203 -0.2207  0.4785  0.2365
   22TAL   C10512260   3.234  -1.474  16.979  0.3322 -0.3496 -0.5175
   22TAL   C10612261   3.232  -1.621  16.935 -0.2042 -0.1982 -1.5462
   22TAL   C10712262   3.358  -1.683  16.876 -0.5724  0.4205  0.5949
   22TAL   C10812263   3.327  -1.834  16.866 -0.0421 -0.5732 -1.5922
   22TAL   C10912264   3.422  -1.913  16.779 -0.6560 -0.8954 -1.1326
   22TAL   C11012265   3.406  -2.060  16.800  0.8681 -0.3951  0.3065
   23HTM   C11112266   3.191  -1.228  17.194  0.2595 -0.1158 -0.4285
   23HTM   C11212267   3.185  -1.093  17.217 -0.0408 -0.1699 -0.1922
   23HTM   C11312268   3.299  -1.041  17.288 -0.4463 -0.1447  0.4625
   23HTM   C11412269   3.393  -1.136  17.318 -0.4553 -0.0714  0.7260
   23HTM    S1212270   3.343  -1.299  17.259  0.0517 -0.0282  0.1626
   24TAL   C11512271   3.314  -0.888  17.313 -0.5876 -0.1558 -0.1358
   24TAL   C11612272   3.309  -0.783  17.200  0.1009 -0.4463  0.7119
   24TAL   C11712273   3.409  -0.787  17.092 -0.7676  0.1456  1.1695
   24TAL   C11812274   3.561  -0.794  17.137 -0.0279 -0.3540  0.4560
   24TAL   C11912275   3.617  -0.694  17.227 -0.1797 -0.5597 -0.4211
   24TAL   C12012276   3.738  -0.759  17.297 -0.0122 -0.2934  0.4429
   25HTM   C12112277   3.518  -1.134  17.403 -0.2797  0.6496 -0.2939
   25HTM   C12212278   3.527  -1.168  17.534 -0.6765  0.4048 -0.3276
   25HTM   C12312279   3.661  -1.166  17.586 -0.7780 -0.1144 -0.0286
   25HTM   C12412280   3.755  -1.130  17.494 -0.4585 -0.2657  0.2332
   25HTM    S1312281   3.680  -1.096  17.333 -0.0012  0.2400  0.1214
   26TAL   C12512282   3.683  -1.196  17.729  1.1825  0.1126  0.1231
   26TAL   C12612283   3.657  -1.067  17.809  0.1330 -0.3540 -0.3398
   26TAL   C12712284   3.691  -1.080  17.962 -0.1760 -0.5537  0.5005
   26TAL   C12812285   3.683  -0.941  18.039  0.5828  0.8524 -0.9123
   26TAL   C12912286   3.555  -0.861  18.039 -0.1206 -0.4051 -0.2135
   26TAL   C13012287   3.565  -0.735  18.117 -0.5753 -0.5319  0.3266
   27HTM   C13112288   3.901  -1.117  17.508 -0.3771 -0.1741 -0.1138
   27HTM   C13212289   3.987  -1.199  17.441 -0.3420 -0.1658 -0.0787
   27HTM   C13312290   4.123  -1.192  17.488 -0.3774 -0.2155  0.0324
   27HTM   C13412291   4.141  -1.104  17.591 -0.4401 -0.2620  0.0821
   27HTM    S1412292   3.986  -1.024  17.637 -0.4588 -0.2461 -0.0079
   28TAL   C13512293   4.234  -1.277  17.421 -0.0553 -0.7914  0.2087
   28TAL   C13612294   4.198  -1.417  17.365 -0.3179 -0.2635 -0.9488
   28TAL   C13712295   4.156  -1.515  17.480  0.2500 -0.1917  0.0783
   28TAL   C13812296   4.142  -1.643  17.421 -0.8254  1.7675  0.0524
   28TAL   C13912297   4.105  -1.751  17.529 -0.9890  0.3924 -0.0177
   28TAL   C14012298   3.999  -1.854  17.492  0.8374 -0.5332  0.3184
   29HTM   C14112299   4.273  -1.052  17.636 -0.1891  0.2541  0.7745
   29HTM   C14212300   4.304  -0.921  17.660  0.2553  0.0339  1.4472
   29HTM   C14312301   4.444  -0.899  17.685  0.3989 -0.5140  1.1616
   29HTM   C14412302   4.520  -1.012  17.679  0.0639 -0.7117  0.2710
   29HTM    S1512303   4.419  -1.157  17.642 -0.4627 -0.2172 -0.2803
   30TAL   C14512304   4.494  -0.752  17.702  0.1145 -0.1098  0.8703
   30TAL   C14612305   4.478  -0.681  17.840 -0.8236  0.3730 -0.4228
   30TAL   C14712306   4.513  -0.773  17.965  0.8598 -0.1611  0.0173
   30TAL   C14812307   4.579  -0.675  18.058  0.3124 -0.3082 -0.6897
   30TAL   C14912308   4.601  -0.734  18.205 -0.1533 -0.0152  1.1161
   30TAL   C15012309   4.679  -0.866  18.229 -0.2390 -0.3414  0.4778
   31HTM   C15112310   4.660  -1.024  17.686  0.0284  0.3451 -0.1696
   31HTM   C15212311   4.735  -0.987  17.794  0.0354  0.1079 -0.0935
   31HTM   C15312312   4.875  -1.014  17.780 -0.0272 -0.3005  0.0343
   31HTM   C15412313   4.908  -1.072  17.660 -0.0818 -0.3744  0.0546
   31HTM    S1612314   4.762  -1.096  17.556 -0.0583  0.0692 -0.0859
   32TAL   C15512315   4.974  -1.007  17.890 -1.3267 -0.4238  0.2169
   32TAL   C15612316   4.960  -0.891  17.985  0.0496  0.4632 -0.0053
   32TAL   C15712317   5.002  -0.766  17.916 -1.6470 -0.0934  0.6065
   32TAL   C15812318   4.925  -0.631  17.952  0.0040  0.5262  1.1355
   32TAL   C15912319   4.935  -0.532  17.830 -0.6951  0.6110 -0.6266
   32TAL   C16012320   4.821  -0.443  17.818  0.3064 -0.5485  0.2921
   33HTM   C16112321   5.034  -1.123  17.612 -0.0430 -0.6881 -0.3054
   33HTM   C16212322   5.049  -1.250  17.564  0.2651 -0.4802 -0.7749
   33HTM   C16312323   5.186  -1.284  17.533  0.3481 -0.0309 -0.9289
   33HTM   C16412324   5.275  -1.184  17.558  0.1033  0.1036 -0.5774
   33HTM    S1712325   5.192  -1.037  17.622 -0.2537 -0.3301 -0.0197
   34TAL   C16512326   5.208  -1.430  17.530  0.2047 -0.1794  0.6195
   34TAL   C16612327   5.239  -1.501  17.663  0.2647  0.1368  0.1829
   34TAL   C16712328   5.230  -1.660  17.644 -1.1002 -0.8541  0.2475
   34TAL   C16812329   5.103  -1.738  17.658 -0.5003  0.1984 -0.1878
   34TAL   C16912330   5.045  -1.787  17.522 -0.0660  0.1950 -0.8579
   34TAL   C17012331   4.960  -1.893  17.588 -0.4013 -0.6999 -0.5310
   35HTM   C17112332   5.409  -1.189  17.526 -0.3052  0.2821  0.0342
   35HTM   C17212333   5.460  -1.182  17.399 -0.0108  0.9149  0.1788
   35HTM   C17312334   5.603  -1.168  17.395 -0.0076  1.0320  0.5794
   35HTM   C17412335   5.661  -1.165  17.518 -0.2997  0.4883  0.7410
   35HTM    S1812336   5.539  -1.179  17.650 -0.6036 -0.2192  0.3964
   36TAL   C17512337   5.686  -1.171  17.261 -1.2390 -0.5859 -0.7974
   36TAL   C17612338   5.711  -1.305  17.186 -0.0488  0.2516  0.1344
   36TAL   C17712339   5.825  -1.379  17.245  0.0297  0.0012 -0.6980
   36TAL   C17812340   5.884  -1.490  17.167 -0.0677 -0.7367  0.4588
   36TAL   C17912341   6.002  -1.557  17.241 -0.1050 -1.2856  0.6274
   36TAL   C18012342   6.097  -1.657  17.170  0.0348 -0.1186  0.0542
   37HTM   C18112343   5.804  -1.157  17.556  0.2050 -0.1266 -0.3583
   37HTM   C18212344   5.873  -1.257  17.619  0.1801 -0.2488 -0.5250
   37HTM   C18312345   6.016  -1.241  17.612  0.1789 -0.1020 -0.2227
   37HTM   C18412346   6.057  -1.130  17.545  0.2030  0.1318  0.1739
   37HTM    S1912347   5.916  -1.035  17.484  0.2289  0.1855  0.1978
   38TAL   C18512348   6.107  -1.351  17.679  0.7010 -0.7784  0.8477
   38TAL   C18612349   6.170  -1.333  17.819  0.2066 -0.2801  0.0454
   38TAL   C18712350   6.174  -1.193  17.886  0.0613 -0.1184 -0.0864
   38TAL   C18812351   6.283  -1.192  17.986 -0.3728  0.6022 -0.8305
   38TAL   C18912352   6.388  -1.077  17.980 -0.6853 -0.8928  0.3926
   38TAL   C19012353   6.528  -1.111  18.030 -1.0537  0.2702 -0.0291
   39HTM   C19112354   6.193  -1.079  17.509 -0.4481 -0.5270 -0.2344
   39HTM   C19212355   6.243  -0.953  17.494 -0.7057 -0.3632  0.2637
   39HTM   C19312356   6.385  -0.949  17.471 -0.6474  0.0447  0.6590
   39HTM   C19412357   6.444  -1.072  17.467 -0.3453  0.1919  0.4621
   39HTM    S2012358   6.323  -1.203  17.493 -0.1090 -0.1760 -0.2439
   40TAL   C19512359   6.443  -0.809  17.475 -0.4812 -0.1517 -0.5097
   40TAL   C19612360   6.426  -0.721  17.347  0.1261 -0.5695  0.2927
   40TAL   C19712361   6.304  -0.641  17.316 -0.1752 -0.6170 -1.2794
   40TAL   C19812362   6.289  -0.519  17.414 -1.3334 -0.5798  0.8574
   40TAL   C19912363   6.203  -0.410  17.362  0.0271  0.7325  0.6064
   40TAL   C20012364   6.176  -0.294  17.457 -0.0052 -0.2407 -0.5344
   41HTM   C20112365   6.578  -1.116  17.420  0.2674 -0.4584 -0.4472
   41HTM   C20212366   6.605  -1.238  17.366  0.6330 -0.3194 -0.5803
   41HTM   C20312367   6.746  -1.265  17.354  0.7173 -0.0155 -0.3142
   41HTM   C20412368   6.826  -1.164  17.399  0.4161  0.0772  0.0220
   41HTM    S2112369   6.729  -1.025  17.460 -0.0006 -0.2145  0.0281
   42TAL   C20512370   6.788  -1.394  17.295  0.3449  1.1454  0.2925
   42TAL   C20612371   6.705  -1.473  17.206 -0.4767  0.1635  0.3141
   42TAL   C20712372   6.568  -1.538  17.253  0.1562  0.4933  0.9456
   42TAL   C20812373   6.571  -1.636  17.373  0.2369  0.6608  1.0594
   42TAL   C20912374   6.431  -1.677  17.403 -0.2474  0.0386 -1.3604
   42TAL   C21012375   6.417  -1.726  17.554  0.4014 -0.0595  0.7828
   43HTM   C21112376   6.968  -1.150  17.404  0.0382  0.4535 -0.4807
   43HTM   C21212377   7.031  -1.030  17.395  0.3734  0.2536 -0.8416
   43HTM   C21312378   7.175  -1.040  17.387  0.3660 -0.1566 -0.5093
   43HTM   C21412379   7.221  -1.168  17.391  0.0253 -0.2696  0.1042
   43HTM    S2212380   7.086  -1.287  17.404 -0.3155  0.1366  0.3122
   44TAL   C21512381   7.266  -0.918  17.374  0.1682  0.0655  0.2089
   44TAL   C21612382   7.216  -0.787  17.434  0.2055  1.4459  1.4436
   44TAL   C21712383   7.296  -0.653  17.421 -0.5916 -0.6351 -0.5371
   44TAL   C21812384   7.385  -0.609  17.299 -0.0204 -0.1731  1.3323
   44TAL   C21912385   7.301  -0.574  17.170 -0.0168 -0.9768 -0.4510
   44TAL   C22012386   7.391  -0.604  17.054  0.7378 -0.3893 -0.2881
   45HTM   C22112387   7.351  -1.217  17.385  0.1233  0.0184  0.3853
   45HTM   C22212388   7.438  -1.256  17.482  0.2054 -0.3251  0.1740
   45HTM   C22312389   7.568  -1.293  17.431  0.1420 -0.2095 -0.0739
   45HTM   C22412390   7.579  -1.282  17.295  0.0116  0.2222 -0.0517
   45HTM    S2312391   7.425  -1.223  17.221 -0.0416  0.5185  0.2865
   46TAL   C22512392   7.691  -1.327  17.504  0.2167 -0.1939  0.7613
   46TAL   C22612393   7.692  -1.329  17.658 -1.5094  0.2066  1.0497
   46TAL   C22712394   7.846  -1.340  17.700  0.3531 -0.4372  1.8500
   46TAL   C22812395   7.885  -1.489  17.699  0.3783 -0.3159 -0.8476
   46TAL   C22912396   8.022  -1.509  17.636  0.2557 -0.6615  0.7761
   46TAL   C23012397   8.085  -1.630  17.686 -0.2708  0.8224 -0.1219
   47HTM   C23112398   7.685  -1.316  17.201  0.3955 -0.3995 -0.6716
   47HTM   C23212399   7.662  -1.348  17.071  0.8696 -0.1211 -0.8287
   47HTM   C23312400   7.782  -1.370  16.994  1.1533  0.1023 -0.4549
   47HTM   C23412401   7.897  -1.354  17.066  0.8954 -0.0057 -0.0129
   47HTM    S2412402   7.862  -1.311  17.237  0.2695 -0.4011 -0.0338
   48TAL   C23512403   7.779  -1.416  16.850 -0.2793 -0.2543  0.2610
   48TAL   C23612404   7.913  -1.432  16.775 -0.1584  1.0857  0.0585
   48TAL   C23712405   7.909  -1.500  16.636  0.3082  0.8311  0.4049
   48TAL   C23812406   8.037  -1.590  16.606 -0.6782 -0.5700 -0.4394
   48TAL   C23912407   8.176  -1.523  16.627 -0.6575 -0.1301  0.0247
   48TAL   C24012408   8.293  -1.621  16.602  0.1119  0.6877  0.4644
    1HTM     C112409   0.487   4.760   7.747  0.2088 -0.6692 -0.0865
    1HTM     C212410   0.592   4.697   7.806 -0.0547 -1.1779 -0.1516
    1HTM     C312411   0.557   4.571   7.868 -0.6126 -1.0313 -0.1600
    1HTM     C412412   0.425   4.539   7.856 -0.7744 -0.4109 -0.1012
    1HTM     S112413   0.334   4.666   7.766 -0.2306  0.0399 -0.0303
    2TAL     C512414   0.660   4.489   7.940  0.0564 -0.4955 -0.9620
    2TAL     C612415   0.774   4.403   7.888  0.5935  0.5970 -0.2724
    2TAL     C712416   0.841   4.454   7.758 -0.1734  0.5540 -0.6108
    2TAL     C812417   0.931   4.568   7.780  0.8345 -0.0485  0.3598
    2TAL     C912418   1.028   4.592   7.661 -0.3556 -0.0760 -0.4352
    2TAL    C1012419   1.078   4.731   7.658 -0.2501  0.1723 -0.7414
    3HTM    C1112420   0.352   4.431   7.902 -0.0191 -0.3729 -0.6280
    3HTM    C1212421   0.393   4.347   8.002  0.0283 -0.6831 -0.9074
    3HTM    C1312422   0.297   4.245   8.034 -0.1129 -0.5568 -0.9248
    3HTM    C1412423   0.183   4.251   7.960 -0.2679 -0.1504 -0.6586
    3HTM     S212424   0.187   4.387   7.842 -0.2475  0.1064 -0.3633
    4TAL    C1512425   0.311   4.139   8.156  0.2846 -0.0268 -0.2876
    4TAL    C1612426   0.424   4.047   8.136  0.8028  0.3028 -0.1080
    4TAL    C1712427   0.473   3.950   8.240 -0.0742 -0.3381  0.3761
    4TAL    C1812428   0.614   3.890   8.224  1.0750 -0.5174  0.0524
    4TAL    C1912429   0.638   3.819   8.088  0.8093 -0.5892 -0.2237
    4TAL    C2012430   0.781   3.818   8.043 -0.4311 -0.4919 -0.8343
    5HTM    C2112431   0.054   4.174   7.957 -0.0517  0.0412  0.1303
    5HTM    C2212432   0.028   4.045   7.996  0.2215 -0.1352 -0.2592
    5HTM    C2312433  -0.108   4.004   7.969  0.2843 -0.3135 -0.3016
    5HTM    C2412434  -0.185   4.100   7.911  0.0590 -0.2728  0.0557
    5HTM     S312435  -0.091   4.252   7.884 -0.2523 -0.0043  0.4765
    6TAL    C2512436  -0.154   3.874   8.031 -0.5332  0.4332  1.1960
    6TAL    C2612437  -0.273   3.800   7.966  0.1197  0.4075 -0.6750
    6TAL    C2712438  -0.316   3.683   8.068 -1.0343 -1.4880  0.1528
    6TAL    C2812439  -0.455   3.649   8.037  0.3993  0.0950 -0.3559
    6TAL    C2912440  -0.525   3.586   8.150  1.0925 -0.6000 -0.1198
    6TAL    C3012441  -0.664   3.544   8.097  0.1086  1.0132 -0.0318
    7HTM    C3112442  -0.322   4.119   7.863 -0.3049  0.5194 -0.2218
    7HTM    C3212443  -0.356   4.111   7.731 -0.4836  0.5770 -0.1801
    7HTM    C3312444  -0.495   4.083   7.708 -0.4481  0.2412 -0.0002
    7HTM    C3412445  -0.568   4.069   7.823 -0.2421 -0.0725  0.0951
    7HTM     S412446  -0.465   4.091   7.970 -0.0757  0.0328 -0.0357
    8TAL    C3512447  -0.539   4.062   7.562  0.4169  0.5395  0.7310
    8TAL    C3612448  -0.525   3.929   7.503 -0.6141  0.6318  0.1260
    8TAL    C3712449  -0.407   3.902   7.413 -0.7622  0.1643  0.5287
    8TAL    C3812450  -0.279   3.842   7.480  0.1879  0.5577  0.7619
    8TAL    C3912451  -0.179   3.769   7.393  0.1685  0.0659 -0.0516
    8TAL    C4012452  -0.072   3.864   7.330 -0.8154 -0.1989  0.4248
    9HTM    C4112453  -0.707   4.021   7.836 -0.1044  0.5926  0.2654
    9HTM    C4212454  -0.819   4.079   7.784 -0.1267  0.2359 -0.0924
    9HTM    C4312455  -0.942   4.032   7.841 -0.1686 -0.1891 -0.5175
    9HTM    C4412456  -0.924   3.937   7.938 -0.1782 -0.1563 -0.4837
    9HTM     S512457  -0.749   3.900   7.964 -0.1347  0.4181  0.0920
   10TAL    C4512458  -1.079   4.084   7.791 -0.6685  0.8198  0.0438
   10TAL    C4612459  -1.099   4.203   7.698  1.2247  0.9294  0.4172
   10TAL    C4712460  -1.241   4.241   7.661  0.0533 -0.0266  0.1530
   10TAL    C4812461  -1.300   4.155   7.553  0.8646  0.2984 -0.0719
   10TAL    C4912462  -1.266   4.200   7.412  0.6023  0.4609 -0.4283
   10TAL    C5012463  -1.363   4.304   7.355  0.0064  0.4530 -0.0973
   11HTM    C5112464  -1.014   3.853   8.015 -0.3332 -0.5464  0.3022
   11HTM    C5212465  -1.002   3.719   8.040 -0.7583 -0.6326  0.0584
   11HTM    C5312466  -1.113   3.664   8.112 -0.8433 -0.3681  0.1333
   11HTM    C5412467  -1.210   3.755   8.143 -0.4827 -0.0803  0.4341
   11HTM     S612468  -1.168   3.919   8.082 -0.0045 -0.1212  0.6477
   12TAL    C5512469  -1.120   3.520   8.144 -0.5052  0.9863 -0.3986
   12TAL    C5612470  -1.022   3.416   8.075  0.8449 -0.6909 -0.3444
   12TAL    C5712471  -1.092   3.353   7.961 -0.9560  0.5087  0.7620
   12TAL    C5812472  -1.004   3.269   7.866 -0.2017 -0.5064 -0.5868
   12TAL    C5912473  -1.098   3.197   7.767 -0.4445 -0.2769 -0.0004
   12TAL    C6012474  -1.036   3.099   7.677 -0.4702  0.2503  0.5123
   13HTM    C6112475  -1.340   3.752   8.207  0.0557  0.2714  0.2973
   13HTM    C6212476  -1.427   3.856   8.220  0.1562  0.2867  0.8965
   13HTM    C6312477  -1.513   3.845   8.335  0.3399 -0.1453  0.9983
   13HTM    C6412478  -1.492   3.733   8.409  0.3794 -0.4900  0.4763
   13HTM     S712479  -1.360   3.631   8.340  0.1865 -0.2941 -0.1890
   14TAL    C6512480  -1.585   3.973   8.374  0.4417 -0.0453 -0.1578
   14TAL    C6612481  -1.504   4.076   8.460  1.0796  0.3969  0.9393
   14TAL    C6712482  -1.598   4.156   8.550 -0.6170  0.0241  0.9427
   14TAL    C6812483  -1.521   4.270   8.621 -0.3540  0.5209  0.5645
   14TAL    C6912484  -1.602   4.401   8.652  0.2510  0.6183 -0.6660
   14TAL    C7012485  -1.683   4.387   8.779  0.1697  0.3789  0.0716
   15HTM    C7112486  -1.581   3.680   8.504  0.1734  0.4109 -0.0414
   15HTM    C7212487  -1.665   3.574   8.491  0.4290  0.2269 -0.2074
   15HTM    C7312488  -1.755   3.558   8.601  0.5143 -0.2074 -0.1967
   15HTM    C7412489  -1.741   3.652   8.699  0.3237 -0.3545 -0.0233
   15HTM     S812490  -1.610   3.769   8.658  0.0193  0.0472  0.1417
   16TAL    C7512491  -1.851   3.445   8.607 -0.2916  1.4388  0.2068
   16TAL    C7612492  -1.909   3.375   8.488 -0.3247 -0.8895 -0.3043
   16TAL    C7712493  -1.998   3.259   8.528 -0.1408 -0.0245 -0.5341
   16TAL    C7812494  -2.041   3.155   8.430 -0.4212 -0.2592 -0.6651
   16TAL    C7912495  -2.100   3.052   8.523  0.6383 -0.5482  0.2187
   16TAL    C8012496  -2.139   2.930   8.450 -0.3154  0.0220 -0.3815
   17HTM    C8112497  -1.822   3.680   8.818  0.2698 -0.0780  0.4009
   17HTM    C8212498  -1.918   3.601   8.873  0.1482 -0.0483  0.2344
   17HTM    C8312499  -1.979   3.656   8.992  0.0708 -0.1006  0.2198
   17HTM    C8412500  -1.929   3.779   9.026  0.1337 -0.1701  0.3752
   17HTM     S912501  -1.801   3.833   8.912  0.2965 -0.1750  0.5534
   18TAL    C8512502  -2.096   3.575   9.047 -0.0806 -0.1474  0.4421
   18TAL    C8612503  -2.152   3.600   9.190  0.0132 -0.6505 -0.0993
   18TAL    C8712504  -2.268   3.510   9.248 -0.8216  1.3473  1.1295
   18TAL    C8812505  -2.314   3.542   9.378  0.0155  0.3713  0.0019
   18TAL    C8912506  -2.431   3.443   9.424  0.2196 -0.3548  0.1488
   18TAL    C9012507  -2.555   3.435   9.348  0.2729  0.2117 -0.6134
   19HTM    C9112508  -1.959   3.870   9.131  0.2591  0.4223 -0.3903
   19HTM    C9212509  -1.881   3.897   9.240  0.3644  0.6728 -0.5245
   19HTM    C9312510  -1.942   3.986   9.335  0.2227  0.4497 -0.4025
   19HTM    C9412511  -2.066   4.028   9.299  0.0094  0.0292 -0.1758
   19HTM    S1012512  -2.117   3.958   9.141 -0.0297 -0.1190 -0.0979
   20TAL    C9512513  -1.864   4.030   9.464  0.4465 -0.4834  1.1909
   20TAL    C9612514  -1.832   3.931   9.576 -0.4781  0.0192 -0.4582
   20TAL    C9712515  -1.962   3.861   9.628 -0.2689  0.0979 -0.6311
   20TAL    C9812516  -1.915   3.749   9.726 -0.4095  0.7238  0.9837
   20TAL    C9912517  -2.010   3.629   9.761  0.4721 -0.2888  0.4000
   20TAL   C10012518  -2.078   3.548   9.652  0.0437  0.2473 -0.5207
   21HTM   C10112519  -2.173   4.109   9.350 -0.0536 -0.8638 -0.1851
   21HTM   C10212520  -2.250   4.205   9.291 -0.0864 -0.9238 -0.2401
   21HTM   C10312521  -2.332   4.278   9.384  0.2519 -0.5666 -0.2184
   21HTM   C10412522  -2.317   4.238   9.514  0.5424 -0.2342 -0.1471
   21HTM    S1112523  -2.198   4.104   9.529  0.4106 -0.3475 -0.1015
   22TAL   C10512524  -2.430   4.394   9.347 -0.1637 -0.4131  0.2514
   22TAL   C10612525  -2.513   4.399   9.213 -0.7801  0.6453  0.0260
   22TAL   C10712526  -2.566   4.261   9.171 -0.3766 -0.0184  1.0346
   22TAL   C10812527  -2.635   4.183   9.268 -0.0837  1.4130  0.3517
   22TAL   C10912528  -2.685   4.031   9.243  0.0208 -0.6762  0.6905
   22TAL   C11012529  -2.594   3.916   9.288  0.0668  0.1087  0.1558
   23HTM   C11112530  -2.365   4.298   9.636 -0.2446  0.7322  0.0649
   23HTM   C11212531  -2.285   4.331   9.742 -0.3256  1.2382 -0.0277
   23HTM   C11312532  -2.357   4.356   9.864 -0.3513  0.8472  0.0398
   23HTM   C11412533  -2.492   4.342   9.852 -0.2903  0.0431  0.1843
   23HTM    S1212534  -2.539   4.296   9.684 -0.1946 -0.2853  0.2466
   24TAL   C11512535  -2.287   4.398   9.991 -0.1694 -0.0889 -0.6919
   24TAL   C11612536  -2.293   4.278  10.084  0.3765 -0.1716  0.7142
   24TAL   C11712537  -2.318   4.335  10.226 -0.7904 -0.0081  0.6600
   24TAL   C11812538  -2.364   4.250  10.334  0.8069  0.8839 -0.6694
   24TAL   C11912539  -2.393   4.305  10.472 -0.4156  0.2055  0.0880
   24TAL   C12012540  -2.480   4.435  10.482 -0.7320  0.5114  0.5798
   25HTM   C12112541  -2.601   4.340   9.950  0.2416 -0.3423  0.2603
   25HTM   C12212542  -2.714   4.263   9.942  0.1594 -0.1910 -0.0787
   25HTM   C12312543  -2.817   4.303  10.034 -0.1768  0.1259 -0.5863
   25HTM   C12412544  -2.784   4.410  10.112 -0.3510  0.2162 -0.6344
   25HTM    S1312545  -2.617   4.469  10.075 -0.1019 -0.0941 -0.0381
   26TAL   C12512546  -2.951   4.212  10.033 -0.3350 -0.0542  0.3296
   26TAL   C12612547  -2.959   4.068  10.091  0.0583 -0.6713  0.0411
   26TAL   C12712548  -2.853   3.962  10.089  0.0296 -0.4741  0.0070
   26TAL   C12812549  -2.904   3.815  10.119 -0.5855 -0.6654  0.2479
   26TAL   C12912550  -2.784   3.720  10.116 -0.1569 -0.8400 -0.0254
   26TAL   C13012551  -2.824   3.584  10.164  0.0233  0.2690  0.5459
   27HTM   C13112552  -2.854   4.478  10.219 -0.1664 -0.4015 -0.1780
   27HTM   C13212553  -2.801   4.521  10.337 -0.3587 -0.9236  0.1044
   27HTM   C13312554  -2.890   4.604  10.414 -0.3234 -0.8953  0.1149
   27HTM   C13412555  -3.011   4.624  10.354 -0.1043 -0.3515 -0.1594
   27HTM    S1412556  -3.022   4.539  10.195  0.0759  0.1710 -0.4546
   28TAL   C13512557  -2.851   4.659  10.559 -0.1124 -0.4934  0.5779
   28TAL   C13612558  -2.706   4.664  10.608  0.3909  0.0492 -0.0701
   28TAL   C13712559  -2.698   4.705  10.756  0.1693 -0.2737  0.1631
   28TAL   C13812560  -2.564   4.677  10.825 -0.4612  0.4511  0.2400
   28TAL   C13912561  -2.563   4.691  10.974  0.2414  0.6749 -0.6844
   28TAL   C14012562  -2.430   4.667  11.039  0.1096  0.0648  0.6158
   29HTM   C14112563  -3.124   4.702  10.400 -0.2619 -0.6009  0.1825
   29HTM   C14212564  -3.175   4.812  10.337 -0.6400 -1.2304 -0.6468
   29HTM   C14312565  -3.296   4.861  10.397 -0.7479 -1.1307 -0.9484
   29HTM   C14412566  -3.338   4.790  10.505 -0.4520 -0.4251 -0.3487
   29HTM    S1512567  -3.226   4.653  10.541 -0.0108  0.1728  0.6505
   30TAL   C14512568  -3.358   4.975  10.322  0.6380  0.2534 -0.6390
   30TAL   C14612569  -3.308   5.119  10.351  0.0463  0.1341 -0.2263
   30TAL   C14712570  -3.289   5.188  10.213  0.6964 -0.7001 -0.7383
   30TAL   C14812571  -3.282   5.339  10.211  1.4131 -1.7377 -0.0283
   30TAL   C14912572  -3.277   5.430  10.090  0.0850  0.7003  0.4864
   30TAL   C15012573  -3.410   5.448  10.018  0.5576  0.6229  0.7844
   31HTM   C15112574  -3.452   4.806  10.600 -0.3944 -0.5311  0.7591
   31HTM   C15212575  -3.444   4.812  10.736 -1.1609 -0.0732  0.7944
   31HTM   C15312576  -3.573   4.815  10.801 -1.5402  0.4278  0.0579
   31HTM   C15412577  -3.678   4.811  10.715 -1.0630  0.3517 -0.5390
   31HTM    S1612578  -3.624   4.803  10.544 -0.0898 -0.3638 -0.2147
   32TAL   C15512579  -3.562   4.821  10.955  0.3160  0.3457 -0.6274
   32TAL   C15612580  -3.653   4.917  11.042 -0.6976  1.1169  0.2066
   32TAL   C15712581  -3.609   5.051  11.075  0.7344 -0.2830 -0.2848
   32TAL   C15812582  -3.709   5.130  11.153  0.2484  0.5331 -0.8890
   32TAL   C15912583  -3.667   5.271  11.200  0.9892  0.1376 -1.2865
   32TAL   C16012584  -3.791   5.333  11.279 -0.8852  0.1197  0.1445
   33HTM   C16112585  -3.814   4.811  10.749 -0.2053  0.2572  0.2603
   33HTM   C16212586  -3.910   4.905  10.724 -0.4234  0.0370  0.2594
   33HTM   C16312587  -4.042   4.865  10.765 -0.3226 -0.2439  0.3159
   33HTM   C16412588  -4.047   4.741  10.821 -0.0275 -0.2378  0.3596
   33HTM    S1712589  -3.884   4.664  10.826  0.1473  0.1262  0.3327
   34TAL   C16512590  -4.167   4.932  10.715  0.2063 -0.5201 -0.0163
   34TAL   C16612591  -4.158   5.016  10.594  0.5060  0.3601  0.4605
   34TAL   C16712592  -4.196   5.166  10.595  0.3529 -0.3486  0.6767
   34TAL   C16812593  -4.121   5.252  10.704  1.2134 -0.3274  0.7251
   34TAL   C16912594  -4.192   5.393  10.734  0.5391  0.6308  0.0469
   34TAL   C17012595  -4.201   5.502  10.627 -0.2816 -0.0181 -0.5474
   35HTM   C17112596  -4.159   4.678  10.892 -0.8515  0.3456  0.6983
   35HTM   C17212597  -4.251   4.732  10.977 -1.2596 -0.3191  0.6893
   35HTM   C17312598  -4.326   4.633  11.051 -1.0386 -0.8833  0.1776
   35HTM   C17412599  -4.291   4.505  11.022 -0.4621 -0.6488 -0.2037
   35HTM    S1812600  -4.160   4.498  10.898 -0.1510  0.3101  0.0558
   36TAL   C17512601  -4.411   4.673  11.171  0.7143 -0.2337 -0.8094
   36TAL   C17612602  -4.329   4.732  11.285  0.4529  0.2660 -0.4753
   36TAL   C17712603  -4.296   4.885  11.278  0.2400  0.6088 -0.2667
   36TAL   C17812604  -4.233   4.944  11.397 -0.3794 -1.1017  0.6723
   36TAL   C17912605  -4.198   5.098  11.368  0.4859  0.8173  0.1255
   36TAL   C18012606  -4.097   5.141  11.476 -0.5036  0.1399  0.9665
   37HTM   C18112607  -4.343   4.375  11.071  0.2612 -0.5022 -0.9890
   37HTM   C18212608  -4.469   4.332  11.100  0.2688 -0.0443 -0.2320
   37HTM   C18312609  -4.476   4.193  11.135  0.0822  0.1822  0.6747
   37HTM   C18412610  -4.356   4.129  11.133 -0.0677 -0.1033  0.6092
   37HTM    S1912611  -4.223   4.242  11.086  0.0159 -0.6847 -0.6123
   38TAL   C18512612  -4.600   4.124  11.172  0.4772 -0.0374  0.2988
   38TAL   C18612613  -4.711   4.106  11.061 -0.4716 -0.2611 -0.8371
   38TAL   C18712614  -4.696   3.985  10.978 -0.3167  0.3203 -0.4280
   38TAL   C18812615  -4.827   3.976  10.923 -0.1427 -0.5023  0.2269
   38TAL   C18912616  -4.851   3.878  10.812  0.0042 -0.2188 -0.5053
   38TAL   C19012617  -4.777   3.745  10.814  0.0461  0.7108 -0.9550
   39HTM   C19112618  -4.323   3.987  11.145  0.3803  0.2336  0.2004
   39HTM   C19212619  -4.282   3.917  11.255  0.4142  0.2769  0.2155
   39HTM   C19312620  -4.263   3.776  11.230  0.0733  0.2040  0.3490
   39HTM   C19412621  -4.289   3.739  11.101 -0.2205  0.1054  0.4357
   39HTM    S2012622  -4.341   3.880  11.001 -0.0884  0.0968  0.3549
   40TAL   C19512623  -4.210   3.677  11.338 -0.3172 -0.4735  0.6430
   40TAL   C19612624  -4.092   3.728  11.420 -0.1733 -0.0955  0.7325
   40TAL   C19712625  -4.042   3.620  11.499  0.7747  0.5375 -0.3274
   40TAL   C19812626  -3.971   3.647  11.625  0.3397 -0.0015 -0.8635
   40TAL   C19912627  -3.941   3.506  11.701  0.6598  0.1166 -0.2363
   40TAL   C20012628  -3.792   3.461  11.695  0.2520 -0.7337 -0.0274
   41HTM   C20112629  -4.257   3.613  11.029 -0.0723  0.1491 -0.9749
   41HTM   C20212630  -4.134   3.586  10.977 -0.2267  0.0361 -1.2891
   41HTM   C20312631  -4.113   3.447  10.945 -0.2493 -0.0724 -0.8440
   41HTM   C20412632  -4.220   3.368  10.973 -0.1121 -0.0421 -0.1907
   41HTM    S2112633  -4.357   3.463  11.042  0.0576  0.1271 -0.0858
   42TAL   C20512634  -3.984   3.405  10.878 -0.8908  0.2309 -0.5043
   42TAL   C20612635  -3.845   3.422  10.955  0.1683  0.0545 -0.2640
   42TAL   C20712636  -3.843   3.487  11.093 -0.6398  0.7564  0.2336
   42TAL   C20812637  -3.710   3.486  11.165 -1.3795 -0.0865  0.0604
   42TAL   C20912638  -3.608   3.590  11.105 -0.5003  0.4601  0.4885
   42TAL   C21012639  -3.472   3.545  11.150  0.8964  0.8710 -0.2472
   43HTM   C21112640  -4.233   3.222  10.972  0.1571  0.2072  0.7580
   43HTM   C21212641  -4.140   3.123  10.985 -0.0849 -0.0010  0.9215
   43HTM   C21312642  -4.195   2.990  10.974 -0.3169  0.1252  0.4973
   43HTM   C21412643  -4.330   2.988  10.954 -0.2518  0.4294  0.0098
   43HTM    S2212644  -4.398   3.155  10.946  0.1103  0.5813  0.0494
   44TAL   C21512645  -4.116   2.855  10.960  0.2282  0.3820 -0.5439
   44TAL   C21612646  -3.998   2.839  11.054  0.1788 -0.5369 -0.1252
   44TAL   C21712647  -3.910   2.716  11.033  0.5358 -0.5833  0.3031
   44TAL   C21812648  -3.960   2.574  11.059  0.8625 -0.9564 -0.7848
   44TAL   C21912649  -3.885   2.459  11.004 -0.3366  0.3177  0.2856
   44TAL   C22012650  -3.963   2.341  10.939  0.5548 -0.5224  0.3386
   45HTM   C22112651  -4.433   2.883  10.943  0.0070  0.3352  0.3027
   45HTM   C22212652  -4.421   2.755  10.988  0.1459  0.4656  0.6397
   45HTM   C22312653  -4.538   2.674  10.963  0.2863  0.2350  0.7272
   45HTM   C22412654  -4.638   2.741  10.899  0.2548 -0.0712  0.4564
   45HTM    S2312655  -4.593   2.912  10.864  0.0434 -0.0922  0.0669
   46TAL   C22512656  -4.557   2.538  11.031 -0.2162 -0.3811  0.0361
   46TAL   C22612657  -4.433   2.459  11.084  0.5943 -0.0844 -0.3247
   46TAL   C22712658  -4.491   2.316  11.113  0.1844 -0.4467  0.1051
   46TAL   C22812659  -4.382   2.220  11.092 -0.5319  0.2352  1.1439
   46TAL   C22912660  -4.426   2.078  11.092  0.5475  0.3081  0.7555
   46TAL   C23012661  -4.313   1.977  11.062 -0.1143  0.2320  0.4802
   47HTM   C23112662  -4.771   2.709  10.851 -0.2499  0.0741  0.1076
   47HTM   C23212663  -4.790   2.659  10.726 -0.0399  0.2158  0.0172
   47HTM   C23312664  -4.924   2.677  10.675  0.1451  0.6055 -0.3395
   47HTM   C23412665  -5.007   2.742  10.762  0.0760  0.7608 -0.5213
   47HTM    S2412666  -4.922   2.785  10.915 -0.2303  0.4245 -0.2539
   48TAL   C23512667  -4.978   2.648  10.532 -0.1059 -0.1243 -0.2230
   48TAL   C23612668  -5.114   2.690  10.474  0.7889  1.0450 -0.9524
   48TAL   C23712669  -5.146   2.837  10.486 -0.6603  0.0995 -1.1622
   48TAL   C23812670  -5.293   2.869  10.430 -0.7387  0.7858 -0.2798
   48TAL   C23912671  -5.291   2.881  10.282 -0.7678 -0.7150 -0.3252
   48TAL   C24012672  -5.399   2.800  10.209  0.1314  0.2591 -0.0221
    1HTM     C112673   3.326   4.244   9.701  0.7156 -0.4452 -1.0091
    1HTM     C212674   3.358   4.297   9.822  0.7518 -0.9345 -0.7982
    1HTM     C312675   3.329   4.438   9.833  0.1267 -1.1081  0.0072
    1HTM     C412676   3.275   4.492   9.719 -0.3861 -0.7511  0.4101
    1HTM     S112677   3.257   4.368   9.590 -0.1171 -0.1632 -0.2012
    2TAL     C512678   3.352   4.524   9.958  0.0318 -0.2012  0.0956
    2TAL     C612679   3.384   4.461  10.090 -0.2281  0.1117  1.4887
    2TAL     C712680   3.416   4.569  10.196  0.1202  0.5825 -0.1974
    2TAL     C812681   3.536   4.655  10.170  0.0374 -0.0954 -1.0344
    2TAL     C912682   3.542   4.767  10.265 -0.2136 -0.4012 -0.4261
    2TAL    C1012683   3.434   4.856  10.286 -0.2655  0.3868 -1.0233
    3HTM    C1112684   3.238   4.628   9.683  0.1653 -0.1805 -0.0182
    3HTM    C1212685   3.135   4.699   9.738 -0.0180 -0.4663  0.0103
    3HTM    C1312686   3.106   4.822   9.669 -0.2695 -0.4622  0.1192
    3HTM    C1412687   3.188   4.845   9.562 -0.2778 -0.1733  0.1743
    3HTM     S212688   3.308   4.712   9.540  0.0336  0.1182  0.0914
    4TAL    C1512689   2.993   4.908   9.727  0.6317 -0.4504  0.8877
    4TAL    C1612690   2.853   4.871   9.667  0.5326  0.1579 -0.3426
    4TAL    C1712691   2.743   4.978   9.693 -0.1064 -0.1439 -0.5599
    4TAL    C1812692   2.596   4.930   9.686 -0.4424  0.0620 -0.5331
    4TAL    C1912693   2.517   4.869   9.565  1.1145 -0.2035  0.1660
    4TAL    C2012694   2.528   4.958   9.442  0.6377 -0.3635 -0.0585
    5HTM    C2112695   3.196   4.963   9.461  0.2912  0.3393  0.1584
    5HTM    C2212696   3.310   4.991   9.393  0.3228  0.2893  0.1912
    5HTM    C2312697   3.301   5.108   9.310  0.3278  0.1692  0.0198
    5HTM    C2412698   3.179   5.169   9.315  0.2998  0.1275 -0.1436
    5HTM     S312699   3.066   5.083   9.426  0.2647  0.2376 -0.0934
    6TAL    C2512700   3.420   5.162   9.227 -1.0069 -0.4996 -0.1676
    6TAL    C2612701   3.564   5.165   9.289 -0.4385  0.6205 -0.3270
    6TAL    C2712702   3.650   5.267   9.229 -1.3166  0.5064  0.1064
    6TAL    C2812703   3.792   5.283   9.281 -0.4786  0.2732 -0.6120
    6TAL    C2912704   3.796   5.421   9.362 -0.9189  0.5374  0.0666
    6TAL    C3012705   3.896   5.430   9.480  0.2214 -0.4387 -1.0356
    7HTM    C3112706   3.117   5.280   9.234  0.0143  0.0009 -0.0178
    7HTM    C3212707   2.983   5.307   9.227  0.0122  0.0714  0.2849
    7HTM    C3312708   2.952   5.428   9.157 -0.0772  0.1595  0.4737
    7HTM    C3412709   3.061   5.494   9.109 -0.1435  0.1560  0.3151
    7HTM     S412710   3.214   5.407   9.150 -0.0975  0.0404 -0.0884
    8TAL    C3512711   2.806   5.448   9.124  0.9019 -0.1548 -0.5155
    8TAL    C3612712   2.727   5.576   9.092  0.4412 -0.1428  0.0855
    8TAL    C3712713   2.738   5.629   8.953 -0.2828  0.7893 -0.4322
    8TAL    C3812714   2.728   5.776   8.932 -0.6135 -0.8010 -0.5829
    8TAL    C3912715   2.747   5.826   8.789 -0.1734 -0.6317  0.6585
    8TAL    C4012716   2.644   5.796   8.673 -0.4681  1.1375  0.0369
    9HTM    C4112717   3.074   5.603   9.018 -0.3158 -0.2920 -0.1377
    9HTM    C4212718   3.090   5.600   8.882 -0.7361 -0.2158 -0.1919
    9HTM    C4312719   3.103   5.730   8.823 -0.9928 -0.1788 -0.1693
    9HTM    C4412720   3.097   5.833   8.912 -0.7682 -0.2269 -0.0972
    9HTM     S512721   3.074   5.772   9.081 -0.2108 -0.3234 -0.0527
   10TAL    C4512722   3.125   5.753   8.666 -0.1793  0.5399 -1.0994
   10TAL    C4612723   3.081   5.645   8.575 -0.2143 -0.4087  0.8320
   10TAL    C4712724   3.096   5.686   8.429  0.7798 -0.2962  0.4679
   10TAL    C4812725   3.034   5.578   8.336  0.1242  0.8115 -0.5716
   10TAL    C4912726   3.102   5.442   8.348 -0.0338 -0.2584 -0.2926
   10TAL    C5012727   3.196   5.427   8.223  0.5309  1.2238 -1.1690
   11HTM    C5112728   3.088   5.980   8.901 -0.0893 -0.4457  0.6458
   11HTM    C5212729   3.165   6.067   8.829  0.0461 -0.8695  0.2728
   11HTM    C5312730   3.122   6.204   8.838  0.2542 -0.7598 -0.3164
   11HTM    C5412731   3.012   6.222   8.917  0.2776 -0.2522 -0.3931
   11HTM     S612732   2.955   6.066   8.987  0.0367  0.1295  0.2782
   12TAL    C5512733   3.195   6.309   8.767 -0.9771  0.4687  1.3780
   12TAL    C5612734   3.310   6.354   8.848  0.1498  0.3074  0.1575
   12TAL    C5712735   3.427   6.433   8.795 -0.3025 -0.0339  0.0596
   12TAL    C5812736   3.455   6.452   8.645  0.2932  0.2839 -0.1198
   12TAL    C5912737   3.579   6.534   8.612 -0.0932  0.4730 -0.2385
   12TAL    C6012738   3.601   6.544   8.469  0.4514  0.3814 -0.3894
   13HTM    C6112739   2.937   6.337   8.965  0.7232  0.0634  0.2575
   13HTM    C6212740   2.858   6.339   9.076  1.1904 -0.3307  0.6020
   13HTM    C6312741   2.819   6.471   9.117  0.8104 -0.5136  0.8399
   13HTM    C6412742   2.868   6.571   9.038  0.0536 -0.2593  0.6767
   13HTM     S712743   2.968   6.504   8.903 -0.2401  0.2351  0.2062
   14TAL    C6512744   2.726   6.489   9.239  0.5345  0.0807  0.8528
   14TAL    C6612745   2.620   6.389   9.267 -0.0733  0.3934 -0.8253
   14TAL    C6712746   2.509   6.371   9.170 -0.7598 -0.8883 -0.6446
   14TAL    C6812747   2.379   6.344   9.242  0.2167  0.0776 -0.6774
   14TAL    C6912748   2.263   6.324   9.148  1.3862 -0.3061  0.3599
   14TAL    C7012749   2.263   6.226   9.032  0.1060  0.7030  0.0806
   15HTM    C7112750   2.846   6.723   9.059 -0.3182  0.4087 -0.4004
   15HTM    C7212751   2.946   6.811   9.031 -0.4299  0.6522 -0.0532
   15HTM    C7312752   2.918   6.946   9.072 -0.5030  0.4158  0.7005
   15HTM    C7412753   2.797   6.961   9.132 -0.4470 -0.0083  0.9279
   15HTM     S812754   2.708   6.804   9.141 -0.2964 -0.1427  0.2022
   16TAL    C7512755   3.019   7.059   9.042  0.1163  0.8367  0.1003
   16TAL    C7612756   3.125   7.023   8.935  0.2350 -0.2704  1.0239
   16TAL    C7712757   3.230   7.124   8.904  0.3511  0.4863 -0.0797
   16TAL    C7812758   3.341   7.088   8.808 -0.5653  0.7525 -0.5927
   16TAL    C7912759   3.428   7.207   8.808 -1.1473 -0.5580  0.3374
   16TAL    C8012760   3.528   7.201   8.693  0.0300 -0.2856 -0.0973
   17HTM    C8112761   2.740   7.084   9.177  0.4629  0.5803  0.7145
   17HTM    C8212762   2.724   7.125   9.306  0.4341  1.3846  0.4714
   17HTM    C8312763   2.637   7.238   9.321  0.0166  1.1655 -0.2065
   17HTM    C8412764   2.586   7.284   9.204 -0.2729  0.1938 -0.4798
   17HTM     S912765   2.644   7.187   9.063 -0.0389 -0.5253  0.1023
   18TAL    C8512766   2.599   7.297   9.457 -0.0402  0.2213  0.2046
   18TAL    C8612767   2.468   7.256   9.522  0.5530  0.4252 -0.5724
   18TAL    C8712768   2.335   7.239   9.428  0.7965  1.1434 -0.8574
   18TAL    C8812769   2.214   7.186   9.509 -0.3666 -0.4539 -0.8242
   18TAL    C8912770   2.169   7.282   9.614  1.2446  0.2765 -0.3161
   18TAL    C9012771   2.051   7.229   9.704  0.0078 -0.4899 -0.1339
   19HTM    C9112772   2.504   7.404   9.177  0.4319  0.3054 -1.0633
   19HTM    C9212773   2.488   7.522   9.243  1.4636  0.5435 -1.2064
   19HTM    C9312774   2.391   7.609   9.183  1.2535  0.7510 -0.5796
   19HTM    C9412775   2.333   7.558   9.071  0.0616  0.6712  0.0413
   19HTM    S1012776   2.396   7.394   9.032 -0.8954  0.3250 -0.1183
   20TAL    C9512777   2.364   7.751   9.231  0.6019 -0.1779 -0.5554
   20TAL    C9612778   2.458   7.855   9.278  0.5251 -0.0325 -0.1291
   20TAL    C9712779   2.559   7.894   9.176 -0.3458 -0.3758  0.0995
   20TAL    C9812780   2.504   7.960   9.050 -0.4719  1.0706 -1.0422
   20TAL    C9912781   2.609   7.999   8.944  0.1697  0.0473  0.0376
   20TAL   C10012782   2.700   8.120   8.980 -0.1011 -0.1738  0.0768
   21HTM   C10112783   2.244   7.622   8.973  0.0237  0.4502  0.2498
   21HTM   C10212784   2.242   7.594   8.840  0.2851  0.4088  0.2544
   21HTM   C10312785   2.122   7.637   8.773  0.2421  0.0316  0.0827
   21HTM   C10412786   2.032   7.698   8.856 -0.0522 -0.2147 -0.0529
   21HTM    S1112787   2.092   7.705   9.025 -0.2998  0.0125  0.0263
   22TAL   C10512788   2.110   7.634   8.619 -0.1470  0.8049 -0.1142
   22TAL   C10612789   2.240   7.605   8.540 -0.2337  0.0050 -0.2028
   22TAL   C10712790   2.235   7.593   8.390  1.1094 -0.4963 -0.8676
   22TAL   C10812791   2.223   7.443   8.361  0.7789 -0.6291 -0.2100
   22TAL   C10912792   2.205   7.412   8.218  0.2559  0.4612  0.1578
   22TAL   C11012793   2.242   7.271   8.165  0.6714 -0.3105  0.3772
   23HTM   C11112794   1.903   7.753   8.823  0.3168  0.1251 -0.5450
   23HTM   C11212795   1.828   7.770   8.711  0.4918  0.3407 -0.6320
   23HTM   C11312796   1.723   7.867   8.725  0.4008  0.2342 -0.5732
   23HTM   C11412797   1.718   7.925   8.849  0.1564 -0.0626 -0.4414
   23HTM    S1212798   1.846   7.860   8.957  0.0213 -0.2319 -0.3807
   24TAL   C11512799   1.618   7.881   8.613  0.0191  0.5080 -0.7970
   24TAL   C11612800   1.543   7.750   8.580 -0.2737  0.0022  0.8429
   24TAL   C11712801   1.462   7.722   8.453 -0.7102 -0.2556  0.2729
   24TAL   C11812802   1.389   7.592   8.449 -1.0138  0.1822 -0.5572
   24TAL   C11912803   1.295   7.560   8.326 -0.6125 -0.2206  0.8199
   24TAL   C12012804   1.208   7.435   8.357  0.2743 -0.1097  0.7033
   25HTM   C12112805   1.638   8.034   8.900  0.8380  0.0862 -0.7242
   25HTM   C12212806   1.569   8.026   9.018  1.2793 -0.8567 -0.5047
   25HTM   C12312807   1.468   8.128   9.032  1.0272 -1.2264  0.5097
   25HTM   C12412808   1.460   8.213   8.926  0.3937 -0.5655  1.0633
   25HTM    S1312809   1.580   8.171   8.798  0.0638  0.5841  0.3408
   26TAL   C12512810   1.371   8.155   9.156  0.7265  0.3197  1.0944
   26TAL   C12612811   1.449   8.130   9.277  0.1087  0.1583 -0.4437
   26TAL   C12712812   1.391   8.178   9.420  0.3954 -0.2887  0.9113
   26TAL   C12812813   1.506   8.195   9.506  0.3449 -1.0765 -0.3438
   26TAL   C12912814   1.470   8.191   9.652 -0.3966  0.4805  0.0131
   26TAL   C13012815   1.586   8.164   9.749 -1.1238  0.2479  0.4796
   27HTM   C13112816   1.376   8.325   8.887 -0.5645  0.1563  0.1102
   27HTM   C13212817   1.342   8.437   8.956 -0.8102  0.1094  0.0687
   27HTM   C13312818   1.286   8.542   8.875 -0.7331  0.0796 -0.0229
   27HTM   C13412819   1.277   8.510   8.743 -0.4284  0.1037 -0.0517
   27HTM    S1412820   1.339   8.343   8.711 -0.2137  0.1665  0.0357
   28TAL   C13512821   1.238   8.662   8.951 -0.9897  0.7140  0.4871
   28TAL   C13612822   1.339   8.731   9.040 -0.4090  0.0624 -0.6771
   28TAL   C13712823   1.309   8.875   9.072  0.2909 -0.7115  0.1291
   28TAL   C13812824   1.292   8.968   8.953  0.2696  0.1642  0.2748
   28TAL   C13912825   1.413   9.022   8.877  0.0841  0.5979 -0.5629
   28TAL   C14012826   1.529   9.069   8.963  0.0462  0.2735 -1.1360
   29HTM   C14112827   1.223   8.584   8.627  0.3300  0.0279  0.3684
   29HTM   C14212828   1.212   8.720   8.616  0.9848  0.0633  0.0248
   29HTM   C14312829   1.160   8.764   8.490  1.0990 -0.0115 -0.0486
   29HTM   C14412830   1.132   8.663   8.403  0.5315 -0.1039  0.2389
   29HTM    S1512831   1.168   8.502   8.476 -0.1970 -0.1036  0.6277
   30TAL   C14512832   1.174   8.919   8.467  0.1657 -0.2731  0.5280
   30TAL   C14612833   1.325   8.964   8.496  0.5531  0.6252  0.6345
   30TAL   C14712834   1.350   9.120   8.489 -1.0966  0.1970  0.2292
   30TAL   C14812835   1.490   9.173   8.527 -0.4821  0.0482 -0.2634
   30TAL   C14912836   1.616   9.134   8.455 -0.3913 -0.3784  0.7520
   30TAL   C15012837   1.741   9.212   8.499  0.2958 -0.0634  0.6999
   31HTM   C15112838   1.091   8.649   8.266  0.2826  0.4983 -0.2395
   31HTM   C15212839   0.999   8.733   8.210  0.0029  0.2978 -0.0865
   31HTM   C15312840   0.949   8.688   8.083 -0.0680  0.2156 -0.0293
   31HTM   C15412841   1.002   8.569   8.042  0.1576  0.3534 -0.1383
   31HTM    S1612842   1.121   8.505   8.161  0.4796  0.5995 -0.3236
   32TAL   C15512843   0.857   8.774   7.998 -0.1490 -1.2348  1.5890
   32TAL   C15612844   0.751   8.723   7.894  0.6031  0.6965 -0.5667
   32TAL   C15712845   0.626   8.814   7.867 -0.2975 -0.0732 -0.0767
   32TAL   C15812846   0.632   8.963   7.842 -0.1404 -0.1006 -0.5712
   32TAL   C15912847   0.688   9.030   7.727 -0.0324 -0.1090  0.5641
   32TAL   C16012848   0.642   8.969   7.591 -0.0245  0.8025 -0.5795
   33HTM   C16112849   0.980   8.486   7.927 -0.6783  0.0224 -0.1424
   33HTM   C16212850   0.989   8.521   7.795 -0.4346  0.1154 -0.1011
   33HTM   C16312851   0.972   8.411   7.704  0.4825  0.0418 -0.2006
   33HTM   C16412852   0.950   8.292   7.766  0.9382 -0.1073 -0.3181
   33HTM    S1712853   0.949   8.309   7.945  0.2388 -0.1668 -0.3117
   34TAL   C16512854   0.972   8.422   7.552  1.1479 -0.1917  0.1373
   34TAL   C16612855   0.847   8.489   7.494 -0.5132 -0.0506 -0.9204
   34TAL   C16712856   0.814   8.436   7.352  1.1348 -0.0695  1.2089
   34TAL   C16812857   0.761   8.295   7.325 -0.2367 -0.1952 -0.5861
   34TAL   C16912858   0.664   8.308   7.204 -0.7289 -0.0396  0.2819
   34TAL   C17012859   0.589   8.178   7.221 -0.6210  0.0703  0.5456
   35HTM   C17112860   0.933   8.159   7.717  0.0086  0.0953  0.0473
   35HTM   C17212861   1.016   8.054   7.688 -0.0216  0.1562 -0.2583
   35HTM   C17312862   0.949   7.943   7.626 -0.1002  0.2531 -0.3492
   35HTM   C17412863   0.815   7.962   7.609 -0.1299  0.2661 -0.1131
   35HTM    S1812864   0.762   8.123   7.669 -0.0604  0.1561  0.2454
   36TAL   C17512865   1.015   7.814   7.579  0.4635  0.1330 -0.2680
   36TAL   C17612866   1.138   7.826   7.488  0.2114  0.2735 -1.0005
   36TAL   C17712867   1.146   7.908   7.357  0.6282 -0.3801  0.7666
   36TAL   C17812868   1.122   7.825   7.237  0.2555  0.2791  0.2061
   36TAL   C17912869   1.153   7.675   7.225  0.3253  0.5123  1.2957
   36TAL   C18012870   1.103   7.615   7.097 -0.1102 -0.6524  0.1010
   37HTM   C18112871   0.706   7.872   7.554 -0.1604 -0.1353 -0.3253
   37HTM   C18212872   0.606   7.899   7.466 -0.2818 -0.2524 -0.2239
   37HTM   C18312873   0.530   7.783   7.427 -0.2448 -0.3270 -0.0763
   37HTM   C18412874   0.573   7.667   7.485 -0.0952 -0.2668 -0.0653
   37HTM    S1912875   0.713   7.696   7.595  0.0114 -0.1101 -0.2416
   38TAL   C18512876   0.425   7.791   7.337  1.3061 -0.8291  0.5976
   38TAL   C18612877   0.465   7.822   7.186  1.2266  0.3397  0.2028
   38TAL   C18712878   0.573   7.735   7.113 -0.0096 -0.7122  0.5759
   38TAL   C18812879   0.637   7.801   6.995 -0.0405 -0.4565 -0.1046
   38TAL   C18912880   0.753   7.907   7.017  0.5714 -0.9423  0.5758
   38TAL   C19012881   0.823   7.983   6.899  0.0299 -0.4312  0.1004
   39HTM   C19112882   0.549   7.527   7.465  0.4617 -0.4475  0.3840
   39HTM   C19212883   0.425   7.470   7.456  0.5074 -0.6208  0.8090
   39HTM   C19312884   0.429   7.328   7.430  0.6146 -0.6353  0.8986
   39HTM   C19412885   0.555   7.278   7.418  0.6507 -0.4730  0.5420
   39HTM    S2012886   0.680   7.406   7.441  0.5513 -0.2878  0.0617
   40TAL   C19512887   0.293   7.274   7.376  0.2117  0.3468 -0.6782
   40TAL   C19612888   0.250   7.294   7.235  0.3992 -0.7211 -0.6400
   40TAL   C19712889   0.204   7.435   7.188 -0.5902  1.2160 -0.0338
   40TAL   C19812890   0.155   7.427   7.047 -0.1711 -0.2969  0.1328
   40TAL   C19912891   0.156   7.566   6.981 -1.2102  0.6429 -0.3638
   40TAL   C20012892   0.154   7.565   6.827  0.2927 -0.5523 -0.3344
   41HTM   C20112893   0.597   7.141   7.400  0.1317  0.0225 -0.2747
   41HTM   C20212894   0.696   7.086   7.325  0.0451 -0.1531 -0.2607
   41HTM   C20312895   0.711   6.944   7.344 -0.0039 -0.1276 -0.0265
   41HTM   C20412896   0.623   6.891   7.433  0.0454  0.0675  0.1384
   41HTM    S2112897   0.514   7.018   7.501  0.1583  0.2354  0.0095
   42TAL   C20512898   0.825   6.886   7.256  0.1752  0.9350  0.1822
   42TAL   C20612899   0.941   6.824   7.335  0.4593 -0.0182 -0.8326
   42TAL   C20712900   1.079   6.798   7.271  0.7517  0.2769  0.0526
   42TAL   C20812901   1.186   6.741   7.366  0.8876 -0.1033 -0.2479
   42TAL   C20912902   1.326   6.794   7.343  0.5805 -0.5127  0.5068
   42TAL   C21012903   1.430   6.762   7.439 -0.2862  0.0464  0.3555
   43HTM   C21112904   0.598   6.757   7.468 -0.1600  0.2488 -0.2131
   43HTM   C21212905   0.615   6.700   7.591  0.8574  0.4421 -0.2404
   43HTM   C21312906   0.607   6.556   7.589  1.4042  0.4065 -0.0234
   43HTM   C21412907   0.585   6.504   7.465  0.8037  0.1856  0.1695
   43HTM    S2212908   0.572   6.633   7.340 -0.5091  0.0043  0.0912
   44TAL   C21512909   0.597   6.479   7.729  0.3866 -0.1550 -0.8543
   44TAL   C21612910   0.461   6.492   7.799 -0.5257 -0.6569  0.1941
   44TAL   C21712911   0.463   6.460   7.945 -0.6908  0.2850 -0.0355
   44TAL   C21812912   0.327   6.411   7.993 -0.4797 -0.1233  0.2246
   44TAL   C21912913   0.259   6.287   7.939  0.6505 -0.3074  0.5280
   44TAL   C22012914   0.111   6.258   7.987  0.6025 -0.4588  0.5114
   45HTM   C22112915   0.549   6.373   7.421 -0.0068  0.0754  0.7833
   45HTM   C22212916   0.631   6.293   7.348 -0.1572  0.4669  0.1743
   45HTM   C22312917   0.578   6.161   7.324 -0.2225  0.6028 -0.4678
   45HTM   C22412918   0.456   6.141   7.379 -0.1218  0.3148 -0.3484
   45HTM    S2312919   0.396   6.287   7.466  0.0647 -0.1540  0.5917
   46TAL   C22512920   0.659   6.054   7.260  0.0761 -0.1173  0.1669
   46TAL   C22612921   0.773   6.075   7.169 -0.2456 -0.9203 -0.3177
   46TAL   C22712922   0.753   6.103   7.014 -0.1481 -1.0172  0.5464
   46TAL   C22812923   0.624   6.061   6.927 -1.2615 -0.0068 -1.0452
   46TAL   C22912924   0.586   5.906   6.934  0.0275 -0.2508 -0.0671
   46TAL   C23012925   0.462   5.859   6.852  0.1609  0.8149  0.6476
   47HTM   C23112926   0.350   6.038   7.360 -0.1501 -0.2972  0.2400
   47HTM   C23212927   0.370   5.908   7.323 -0.2890 -0.2301 -0.0756
   47HTM   C23312928   0.252   5.826   7.331 -0.3981 -0.1043 -0.3626
   47HTM   C23412929   0.142   5.894   7.375 -0.3425 -0.0756 -0.2659
   47HTM    S2412930   0.179   6.067   7.409 -0.1463 -0.2063  0.1989
   48TAL   C23512931   0.259   5.682   7.287 -0.7077 -0.7473 -1.1244
   48TAL   C23612932   0.366   5.590   7.349 -0.1419  0.4264 -0.0041
   48TAL   C23712933   0.411   5.620   7.481  0.0573  0.0350 -0.4389
   48TAL   C23812934   0.529   5.533   7.527  0.4476  1.0319  0.2486
   48TAL   C23912935   0.482   5.401   7.588 -0.1244  0.2835  0.2011
   48TAL   C24012936   0.406   5.401   7.722 -0.1646  0.9072  0.0927
    1HTM     C112937   2.538   3.663   4.719 -0.2673  0.7901 -0.5329
    1HTM     C212938   2.598   3.758   4.797 -0.3083  0.9131 -0.6500
    1HTM     C312939   2.741   3.765   4.779 -0.2668  0.7149 -0.4064
    1HTM     C412940   2.790   3.676   4.688 -0.1942  0.4409 -0.1036
    1HTM     S112941   2.658   3.575   4.617 -0.1724  0.4115 -0.1028
    2TAL     C512942   2.815   3.870   4.858  0.2029  0.2935 -0.5981
    2TAL     C612943   2.793   4.002   4.806  0.2036 -0.5345  0.2223
    2TAL     C712944   2.882   4.121   4.868 -0.1223  0.2240  0.3279
    2TAL     C812945   2.868   4.271   4.842  0.5541 -0.0010  0.1682
    2TAL     C912946   2.883   4.312   4.696  1.0116 -0.2932  0.1330
    2TAL    C1012947   2.798   4.439   4.687  0.0261 -0.7291  0.7090
    3HTM    C1112948   2.922   3.653   4.640  0.6570  0.5928  0.1694
    3HTM    C1212949   3.021   3.619   4.728  1.0974  1.3141 -0.0350
    3HTM    C1312950   3.137   3.561   4.665  1.0046  1.2978 -0.1926
    3HTM    C1412951   3.126   3.551   4.529  0.4935  0.5640 -0.1079
    3HTM     S212952   2.968   3.613   4.470  0.0864 -0.1690  0.1794
    4TAL    C1512953   3.252   3.526   4.758  0.7511 -0.0328  0.0821
    4TAL    C1612954   3.310   3.621   4.868 -0.4048  0.2798  0.3616
    4TAL    C1712955   3.360   3.759   4.829  0.4957 -0.1351  0.7145
    4TAL    C1812956   3.477   3.759   4.727 -0.4519 -0.3000  0.2091
    4TAL    C1912957   3.452   3.835   4.608 -0.4554  0.6373  1.0741
    4TAL    C2012958   3.548   3.789   4.494  0.6274 -0.0321 -0.3305
    5HTM    C2112959   3.212   3.474   4.429 -0.0784 -0.1620 -0.4150
    5HTM    C2212960   3.179   3.419   4.309  0.0194  0.5248 -0.7620
    5HTM    C2312961   3.291   3.362   4.238  0.0420  0.7422 -0.9035
    5HTM    C2412962   3.409   3.373   4.305 -0.0384  0.2212 -0.6641
    5HTM     S312963   3.388   3.457   4.463 -0.1499 -0.5908 -0.2384
    6TAL    C2512964   3.249   3.282   4.115  0.7370  0.7043 -0.1339
    6TAL    C2612965   3.209   3.131   4.128 -0.0912  0.2634  0.4996
    6TAL    C2712966   3.091   3.111   4.217  0.6659  1.0442  0.5462
    6TAL    C2812967   3.046   2.959   4.245  0.4178 -0.2231 -0.3134
    6TAL    C2912968   3.006   2.877   4.124  0.4947  0.5933 -0.3963
    6TAL    C3012969   2.904   2.756   4.129 -0.2724  0.2123 -1.5032
    7HTM    C3112970   3.539   3.357   4.240  0.4592  0.5583 -0.3165
    7HTM    C3212971   3.650   3.431   4.265  0.4172  0.7480 -0.6834
    7HTM    C3312972   3.760   3.402   4.177  0.3645  0.5241 -0.6769
    7HTM    C3412973   3.733   3.306   4.085  0.3663  0.1634 -0.3048
    7HTM     S412974   3.564   3.243   4.102  0.4352  0.0782  0.0689
    8TAL    C3512975   3.899   3.478   4.194  0.2265 -0.1413 -0.3518
    8TAL    C3612976   3.901   3.598   4.296 -0.1141  0.1464  0.5013
    8TAL    C3712977   4.055   3.639   4.325  0.6003 -1.2036  0.4439
    8TAL    C3812978   4.129   3.556   4.431  0.1775  0.1976  0.0223
    8TAL    C3912979   4.273   3.588   4.415 -1.7958  0.0711  0.8088
    8TAL    C4012980   4.348   3.562   4.541  0.2367  0.4919  0.0172
    9HTM    C4112981   3.809   3.240   3.974 -0.2821 -0.3681  0.1442
    9HTM    C4212982   3.747   3.175   3.871  0.0989 -0.9547  0.2768
    9HTM    C4312983   3.831   3.159   3.755  0.1776 -0.6400  0.2876
    9HTM    C4412984   3.956   3.212   3.769 -0.1436  0.1867  0.1632
    9HTM     S512985   3.978   3.286   3.932 -0.5735  0.6351  0.0217
   10TAL    C4512986   3.772   3.084   3.640  0.7406 -0.1300  0.1977
   10TAL    C4612987   3.790   2.939   3.630 -0.2731  1.5926  0.4472
   10TAL    C4712988   3.734   2.852   3.742  0.5030 -0.3579  0.1959
   10TAL    C4812989   3.752   2.704   3.714  0.1273 -0.8850 -0.4886
   10TAL    C4912990   3.621   2.623   3.722  0.2209 -0.2642 -0.5636
   10TAL    C5012991   3.634   2.487   3.661 -0.6958  0.2602 -0.4649
   11HTM    C5112992   4.068   3.221   3.686 -0.1595 -0.2646  0.2850
   11HTM    C5212993   4.182   3.293   3.709 -0.1565 -0.2309  0.1620
   11HTM    C5312994   4.277   3.286   3.601 -0.2755 -0.1939  0.0533
   11HTM    C5412995   4.237   3.208   3.497 -0.3691 -0.1992  0.0934
   11HTM     S612996   4.074   3.137   3.527 -0.3139 -0.2519  0.2731
   12TAL    C5512997   4.399   3.378   3.601 -0.6188  1.0154  0.2584
   12TAL    C5612998   4.472   3.426   3.725  0.0750 -0.3561 -0.2413
   12TAL    C5712999   4.614   3.459   3.693  0.0488 -0.0361  0.8049
   12TAL    C5813000   4.701   3.471   3.815 -0.5399  0.2613  0.1178
   12TAL    C5913001   4.765   3.604   3.840  0.5302  0.5947  0.1590
   12TAL    C6013002   4.836   3.678   3.732  0.0250  0.6203 -0.8261
   13HTM    C6113003   4.288   3.195   3.359  0.0819  0.0243  0.4934
   13HTM    C6213004   4.217   3.139   3.257 -0.1916  0.2213  0.5721
   13HTM    C6313005   4.288   3.137   3.131 -0.4280  0.2319  0.4368
   13HTM    C6413006   4.413   3.191   3.138 -0.3347  0.0430  0.2549
   13HTM     S713007   4.451   3.250   3.304  0.0620 -0.1646  0.2403
   14TAL    C6513008   4.237   3.078   3.002 -0.7593 -0.2774  0.5552
   14TAL    C6613009   4.112   2.986   2.984 -0.3217  0.6986  0.0217
   14TAL    C6713010   3.990   3.066   2.956 -0.2460  0.1954  1.0766
   14TAL    C6813011   3.855   2.986   2.929 -0.5252  0.5617  1.1120
   14TAL    C6913012   3.865   2.887   2.809  0.3255  1.0223  0.2230
   14TAL    C7013013   3.733   2.816   2.774 -0.0828 -0.1033 -0.7599
   15HTM    C7113014   4.516   3.198   3.043  0.5522 -0.1613  0.1383
   15HTM    C7213015   4.584   3.102   2.974  0.3881  0.1445 -0.4726
   15HTM    C7313016   4.698   3.152   2.902  0.0623  0.5141 -0.7361
   15HTM    C7413017   4.717   3.286   2.914 -0.0222  0.4901 -0.3262
   15HTM     S813018   4.591   3.361   3.020  0.3059 -0.0051  0.4304
   16TAL    C7513019   4.793   3.045   2.855 -0.0115 -1.2535  0.3501
   16TAL    C7613020   4.747   2.938   2.759  0.3056  0.3405  0.8943
   16TAL    C7713021   4.865   2.862   2.698  0.3788 -1.3293  0.1037
   16TAL    C7813022   4.931   2.940   2.592 -0.9571 -0.4157  0.6709
   16TAL    C7913023   5.030   2.864   2.507  0.0261  0.9566 -0.2518
   16TAL    C8013024   5.161   2.802   2.566 -0.0899 -1.5337  0.7094
   17HTM    C8113025   4.825   3.371   2.879 -0.7347 -0.0551 -0.7433
   17HTM    C8213026   4.882   3.468   2.957 -0.9772 -0.0941 -0.5161
   17HTM    C8313027   4.989   3.539   2.892 -0.7355 -0.0973 -0.1267
   17HTM    C8413028   5.014   3.496   2.765 -0.3090 -0.0610 -0.0571
   17HTM     S913029   4.904   3.362   2.717 -0.1783 -0.0194 -0.4812
   18TAL    C8513030   5.070   3.641   2.972  0.2883  0.4563  0.8370
   18TAL    C8613031   5.165   3.595   3.078  0.0755 -0.1743 -0.0368
   18TAL    C8713032   5.298   3.522   3.045  0.1772  0.5837 -0.3734
   18TAL    C8813033   5.359   3.429   3.158 -0.0983  0.1195 -0.1778
   18TAL    C8913034   5.479   3.330   3.128 -1.0047 -1.1833  0.0555
   18TAL    C9013035   5.573   3.379   3.009  0.7749  0.8467 -0.4715
   19HTM    C9113036   5.101   3.541   2.656 -0.2412  0.6413 -0.2002
   19HTM    C9213037   5.219   3.609   2.669 -0.6911  1.4761 -0.3643
   19HTM    C9313038   5.279   3.645   2.543 -0.7885  1.3158 -0.4566
   19HTM    C9413039   5.207   3.604   2.434 -0.4128  0.3588 -0.3629
   19HTM    S1013040   5.057   3.517   2.483  0.0971 -0.4203 -0.1492
   20TAL    C9513041   5.419   3.704   2.540 -0.1783 -0.3009 -0.0051
   20TAL    C9613042   5.502   3.746   2.668  0.5970  0.3325  0.8335
   20TAL    C9713043   5.614   3.838   2.628 -0.6038  1.3205 -0.2958
   20TAL    C9813044   5.598   3.985   2.627  0.7672 -0.6925  0.5505
   20TAL    C9913045   5.614   4.048   2.762 -0.1998 -0.9146 -0.4523
   20TAL   C10013046   5.525   4.172   2.788  0.1836 -0.4028 -0.9434
   21HTM   C10113047   5.232   3.603   2.294 -0.0219  0.1680  0.1105
   21HTM   C10213048   5.175   3.515   2.206 -0.1618  0.1007  0.2669
   21HTM   C10313049   5.223   3.530   2.071 -0.1966 -0.1640  0.2252
   21HTM   C10413050   5.315   3.628   2.056 -0.0831 -0.2986  0.0371
   21HTM    S1113051   5.350   3.711   2.212  0.0776 -0.1000 -0.1032
   22TAL   C10513052   5.161   3.450   1.951  0.0076  0.4837  0.3390
   22TAL   C10613053   5.030   3.497   1.913 -0.2387  0.2161  0.2710
   22TAL   C10713054   4.943   3.389   1.834  0.2972 -1.0277 -0.6312
   22TAL   C10813055   4.791   3.408   1.823  0.4264  0.4201 -1.0508
   22TAL   C10913056   4.728   3.291   1.750 -0.6519 -0.5606  0.7335
   22TAL   C11013057   4.775   3.253   1.606 -0.2242  0.1169  0.0275
   23HTM   C11113058   5.389   3.680   1.934  0.2897 -0.4452 -0.0717
   23HTM   C11213059   5.448   3.605   1.836  0.2937 -0.4038 -0.1012
   23HTM   C11313060   5.539   3.679   1.753 -0.0310 -0.2690 -0.3405
   23HTM   C11413061   5.550   3.811   1.787 -0.2825 -0.2076 -0.4936
   23HTM    S1213062   5.445   3.851   1.928 -0.1274 -0.3161 -0.3461
   24TAL   C11513063   5.608   3.614   1.636  0.2564 -0.3729 -0.1371
   24TAL   C11613064   5.578   3.476   1.576  0.5056  0.2708  0.1603
   24TAL   C11713065   5.644   3.462   1.436  0.1224 -0.3627 -0.2733
   24TAL   C11813066   5.644   3.322   1.381  0.5885  0.0302 -0.6868
   24TAL   C11913067   5.771   3.291   1.289  0.8250  0.4399 -0.7471
   24TAL   C12013068   5.751   3.302   1.141  0.5489  0.2345  0.1804
   25HTM   C12113069   5.637   3.910   1.733 -0.5403 -0.2911 -0.1776
   25HTM   C12213070   5.746   3.969   1.791 -0.5496 -0.8502  0.4323
   25HTM   C12313071   5.824   4.048   1.700 -0.1209 -0.5322  1.0619
   25HTM   C12413072   5.775   4.050   1.572  0.2153  0.2692  0.9319
   25HTM    S1313073   5.625   3.951   1.558  0.0150  0.6879 -0.0029
   26TAL   C12513074   5.956   4.122   1.737 -0.2897  0.0659  0.8247
   26TAL   C12613075   6.086   4.034   1.759  1.1303  0.1266 -0.4075
   26TAL   C12713076   6.222   4.100   1.753  0.5918 -0.1286  0.3346
   26TAL   C12813077   6.245   4.217   1.859 -0.1453  0.0305  0.3265
   26TAL   C12913078   6.388   4.270   1.844 -0.5073  0.5005  0.1644
   26TAL   C13013079   6.398   4.402   1.925  0.7904 -0.3700  0.1849
   27HTM   C13113080   5.831   4.121   1.451  0.0467  0.1236 -0.3726
   27HTM   C13213081   5.943   4.082   1.383 -0.0309  0.0619 -0.4653
   27HTM   C13313082   5.986   4.178   1.285 -0.1696 -0.0480 -0.6343
   27HTM   C13413083   5.908   4.289   1.278 -0.1979 -0.0700 -0.6704
   27HTM    S1413084   5.772   4.282   1.396 -0.0501  0.0473 -0.4923
   28TAL   C13513085   6.112   4.134   1.209 -0.3140  0.6364  0.1854
   28TAL   C13613086   6.098   4.028   1.094 -0.7731  0.0221 -0.3472
   28TAL   C13713087   6.003   4.054   0.986 -0.1647  0.2183 -0.1843
   28TAL   C13813088   6.059   4.132   0.865 -0.3998 -0.2773  0.0090
   28TAL   C13913089   5.953   4.138   0.754  0.0572 -0.1532 -0.4134
   28TAL   C14013090   6.001   4.256   0.669  0.7817 -1.0723 -0.0921
   29HTM   C14113091   5.912   4.404   1.198  0.0180  0.0077 -0.6661
   29HTM   C14213092   5.848   4.431   1.081  0.3924  0.3221 -0.8024
   29HTM   C14313093   5.878   4.562   1.027  0.6051  0.4478 -0.3858
   29HTM   C14413094   5.964   4.634   1.104  0.3929  0.2294  0.0681
   29HTM    S1513095   6.016   4.542   1.250 -0.0960 -0.1551  0.0040
   30TAL   C14513096   5.817   4.636   0.905  0.1008  0.4453 -0.4465
   30TAL   C14613097   5.743   4.568   0.788 -0.1785  0.3079  0.0509
   30TAL   C14713098   5.600   4.522   0.830 -0.4296 -0.5422  0.5506
   30TAL   C14813099   5.501   4.462   0.725  0.3338 -0.8101 -0.0580
   30TAL   C14913100   5.512   4.322   0.676  0.6365 -0.0299 -0.0111
   30TAL   C15013101   5.388   4.258   0.623 -0.8030 -0.6303 -0.2442
   31HTM   C15113102   6.032   4.756   1.081  0.2361 -0.2935 -0.2857
   31HTM   C15213103   6.163   4.794   1.065  0.0702  0.0253 -0.9581
   31HTM   C15313104   6.180   4.934   1.040 -0.3997  0.0741 -1.0204
   31HTM   C15413105   6.062   5.004   1.037 -0.5922 -0.2071 -0.3956
   31HTM    S1613106   5.920   4.897   1.065 -0.1918 -0.5584  0.3256
   32TAL   C15513107   6.321   4.992   1.028  0.6813  1.1083  1.5486
   32TAL   C15613108   6.392   5.026   1.154  0.0215  0.0001  0.5063
   32TAL   C15713109   6.542   5.053   1.121  0.0654  0.4298  0.2479
   32TAL   C15813110   6.657   5.075   1.213  1.3167 -0.2450 -0.1600
   32TAL   C15913111   6.658   4.991   1.335  0.6138  0.3319  0.7209
   32TAL   C16013112   6.783   5.001   1.418  1.8045 -0.2952  0.6025
   33HTM   C16113113   6.047   5.146   1.002  0.3047 -0.2841 -1.0797
   33HTM   C16213114   5.934   5.209   0.960  0.4317 -0.4487 -1.6782
   33HTM   C16313115   5.946   5.353   0.956  0.0511 -0.3916 -1.0064
   33HTM   C16413116   6.068   5.399   0.996 -0.3659 -0.1835  0.1043
   33HTM    S1713117   6.178   5.264   1.041 -0.3100 -0.0425  0.3900
   34TAL   C16513118   5.820   5.443   0.943 -0.3298 -0.3872  0.4886
   34TAL   C16613119   5.744   5.447   1.074  0.7655  0.5213  0.1911
   34TAL   C16713120   5.597   5.481   1.058 -0.9356 -0.1707 -0.4076
   34TAL   C16813121   5.535   5.546   1.181  0.2802  0.2566 -0.0745
   34TAL   C16913122   5.407   5.610   1.151 -0.8121 -0.2103  0.8988
   34TAL   C17013123   5.286   5.597   1.239 -0.0395 -0.7709  0.0456
   35HTM   C17113124   6.143   5.525   0.992  0.0489 -0.2706 -0.5933
   35HTM   C17213125   6.276   5.549   0.974 -0.0377 -0.3102 -1.3541
   35HTM   C17313126   6.313   5.688   0.991  0.1546 -0.3810 -1.1821
   35HTM   C17413127   6.208   5.769   1.022  0.3880 -0.3957 -0.2901
   35HTM    S1813128   6.053   5.677   1.032  0.3829 -0.3204  0.4072
   36TAL   C17513129   6.455   5.744   0.979 -0.3122 -0.1046 -0.1944
   36TAL   C17613130   6.554   5.707   1.077 -0.2682  1.0927 -0.5316
   36TAL   C17713131   6.682   5.696   1.002  0.2574  0.6392 -0.6175
   36TAL   C17813132   6.794   5.656   1.091  0.5379  0.9987  0.3391
   36TAL   C17913133   6.808   5.721   1.227  0.3215 -0.7286 -0.1887
   36TAL   C18013134   6.946   5.704   1.286 -0.0066  0.2230  0.7213
   37HTM   C18113135   6.194   5.909   1.033  0.0631 -0.2489 -0.6071
   37HTM   C18213136   6.080   5.976   1.001  0.3856 -0.2280 -1.8126
   37HTM   C18313137   6.092   6.119   1.011  0.4218 -0.2109 -2.0971
   37HTM   C18413138   6.215   6.161   1.050  0.1266 -0.2187 -1.1085
   37HTM    S1913139   6.327   6.023   1.079 -0.2225 -0.2485  0.2691
   38TAL   C18513140   5.972   6.207   1.000  0.7630 -0.8062  0.4302
   38TAL   C18613141   5.846   6.193   1.094  0.2919 -0.6370 -0.3925
   38TAL   C18713142   5.758   6.311   1.066  0.7677  0.1450  0.3711
   38TAL   C18813143   5.778   6.444   1.131 -0.7419 -0.6061 -0.2471
   38TAL   C18913144   5.668   6.543   1.102 -0.1878  0.0283 -0.1598
   38TAL   C19013145   5.742   6.673   1.068  0.8814 -0.5216  0.0347
   39HTM   C19113146   6.273   6.293   1.063 -0.4106  0.6061  0.3149
   39HTM   C19213147   6.403   6.322   1.094 -0.3701  0.6641  0.0921
   39HTM   C19313148   6.432   6.463   1.094 -0.3403  0.6622 -0.3189
   39HTM   C19413149   6.324   6.541   1.064 -0.3582  0.6029 -0.4093
   39HTM    S2013150   6.177   6.442   1.032 -0.4143  0.5442  0.0208
   40TAL   C19513151   6.569   6.511   1.137 -0.2273 -1.4626 -0.8825
   40TAL   C19613152   6.609   6.451   1.272  0.0172 -0.0265 -1.5227
   40TAL   C19713153   6.736   6.488   1.344 -0.0024 -0.3465 -0.7614
   40TAL   C19813154   6.747   6.635   1.394 -0.0686  0.6005  0.6099
   40TAL   C19913155   6.870   6.648   1.471 -0.8965 -0.6901  0.4871
   40TAL   C20013156   7.002   6.631   1.391 -0.7126 -0.0861 -0.3468
   41HTM   C20113157   6.322   6.682   1.040 -0.1692  0.0876 -1.1587
   41HTM   C20213158   6.419   6.776   1.024 -0.1384  0.0902 -0.9560
   41HTM   C20313159   6.369   6.911   1.025 -0.0184  0.1434 -0.0072
   41HTM   C20413160   6.234   6.920   1.041  0.0420  0.1813  0.5135
   41HTM    S2113161   6.159   6.757   1.056 -0.0486  0.1527 -0.1593
   42TAL   C20513162   6.469   7.023   0.997  0.3826 -0.7185 -0.6312
   42TAL   C20613163   6.576   7.028   1.109  0.0967 -1.0992  0.7669
   42TAL   C20713164   6.552   7.100   1.244 -0.2491 -1.3082  0.4841
   42TAL   C20813165   6.681   7.116   1.318  0.6360  0.3297  0.0189
   42TAL   C20913166   6.658   7.184   1.443 -0.2873 -0.5537 -0.0945
   42TAL   C21013167   6.780   7.228   1.513  0.3220  0.4585 -0.0628
   43HTM   C21113168   6.142   7.035   1.022 -0.2938  0.1603  0.7027
   43HTM   C21213169   6.006   7.022   1.025 -0.3122  0.3644  0.9043
   43HTM   C21313170   5.935   7.140   0.982 -0.1868  0.3109  0.5400
   43HTM   C21413171   6.017   7.243   0.947 -0.0727  0.0659  0.0607
   43HTM    S2213172   6.191   7.199   0.966 -0.1155 -0.1175  0.0320
   44TAL   C21513173   5.784   7.156   0.987 -0.9314  0.7974 -0.2645
   44TAL   C21613174   5.700   7.054   0.913 -1.0300 -0.6989 -0.8098
   44TAL   C21713175   5.667   7.088   0.779  0.3767  0.1006  0.8348
   44TAL   C21813176   5.756   7.053   0.653  0.2430  0.7239  0.7765
   44TAL   C21913177   5.888   7.122   0.621 -0.3392  0.1307 -0.2628
   44TAL   C22013178   5.892   7.263   0.559  0.1281  0.1852 -0.8584
   45HTM   C22113179   5.990   7.383   0.909  0.1310  0.0049  0.1502
   45HTM   C22213180   5.897   7.467   0.962  0.4832  0.1384  0.5611
   45HTM   C22313181   5.908   7.603   0.914  0.7185  0.2146  0.8235
   45HTM   C22413182   6.009   7.621   0.824  0.5460  0.1391  0.6125
   45HTM    S2313183   6.098   7.468   0.793  0.0691 -0.0355  0.0619
   46TAL   C22513184   5.820   7.710   0.970 -0.1781 -0.8035 -0.4076
   46TAL   C22613185   5.701   7.757   0.894  0.0760  0.5047  0.4815
   46TAL   C22713186   5.630   7.874   0.962  0.1436 -0.1998  0.2845
   46TAL   C22813187   5.499   7.919   0.899  1.0566  0.5814 -0.5191
   46TAL   C22913188   5.488   8.012   0.778 -0.3488 -0.4068  0.3524
   46TAL   C23013189   5.502   8.166   0.800  0.1419  0.2174 -0.8406
   47HTM   C23113190   6.048   7.740   0.752  0.0464  0.2628 -0.0301
   47HTM   C23213191   6.143   7.832   0.784  0.5640 -0.0573 -0.6043
   47HTM   C23313192   6.149   7.943   0.693  0.8690 -0.4206 -1.0331
   47HTM   C23413193   6.059   7.936   0.591  0.5841 -0.3775 -0.7859
   47HTM    S2413194   5.958   7.787   0.603 -0.0969  0.1292  0.0139
   48TAL   C23513195   6.247   8.058   0.726  0.2748 -0.3272 -0.5889
   48TAL   C23613196   6.187   8.184   0.789 -0.2503  0.6003 -0.0813
   48TAL   C23713197   6.062   8.248   0.728 -0.0736  0.6147  0.3523
   48TAL   C23813198   5.987   8.364   0.803  0.5161  1.2088  0.9363
   48TAL   C23913199   6.068   8.488   0.821  0.6672  0.7836  0.7814
   48TAL   C24013200   6.052   8.584   0.712  0.0272 -0.7021  1.0573
    1HTM     C113201   5.027   6.183   4.801  0.2513 -0.8186  0.7021
    1HTM     C213202   5.006   6.249   4.919  0.0383 -0.7589  0.6306
    1HTM     C313203   4.867   6.262   4.953 -0.0542 -0.2577  0.0966
    1HTM     C413204   4.782   6.206   4.862  0.0881  0.0645 -0.2392
    1HTM     S113205   4.872   6.132   4.724  0.3523 -0.2422  0.0959
    2TAL     C513206   4.833   6.336   5.078 -0.0463 -0.6128  0.5843
    2TAL     C613207   4.876   6.272   5.210  0.1436  1.6110  0.7469
    2TAL     C713208   5.028   6.242   5.230  0.3619 -0.3529  0.3384
    2TAL     C813209   5.054   6.191   5.372 -0.2882  0.1050  0.3088
    2TAL     C913210   5.205   6.181   5.401  0.3551 -0.1861 -0.5324
    2TAL    C1013211   5.252   6.055   5.337 -0.5497  0.7065  0.0517
    3HTM    C1113212   4.635   6.176   4.858 -0.3158 -0.6089 -0.5508
    3HTM    C1213213   4.584   6.055   4.824 -0.5168 -0.6399 -0.1519
    3HTM    C1313214   4.451   6.031   4.875 -0.3530 -0.4659  0.3613
    3HTM    C1413215   4.402   6.135   4.949 -0.0271 -0.3020  0.3536
    3HTM     S213216   4.519   6.271   4.959  0.0992 -0.3552 -0.3075
    4TAL    C1513217   4.378   5.905   4.830  0.4668  0.0619  0.1615
    4TAL    C1613218   4.432   5.768   4.867 -0.3581  0.4552  1.1634
    4TAL    C1713219   4.443   5.725   5.011  1.0164 -0.1087 -0.1533
    4TAL    C1813220   4.559   5.756   5.097  1.1375  0.5416 -1.0348
    4TAL    C1913221   4.535   5.732   5.255  0.1318 -0.5188 -0.1155
    4TAL    C2013222   4.436   5.815   5.335  1.5278 -0.3483  0.3305
    5HTM    C2113223   4.266   6.147   4.990  0.3266 -0.7932 -0.2737
    5HTM    C2213224   4.155   6.201   4.934  0.4866 -1.2652 -1.0810
    5HTM    C2313225   4.039   6.195   5.019  0.0870 -1.0489 -1.6012
    5HTM    C2413226   4.062   6.137   5.140 -0.3777 -0.4126 -1.1908
    5HTM     S313227   4.234   6.084   5.156 -0.3464 -0.0337 -0.1070
    6TAL    C2513228   3.911   6.257   4.954  0.4583 -0.3009 -0.4408
    6TAL    C2613229   3.880   6.276   4.807  0.3006  0.1660 -0.1528
    6TAL    C2713230   3.862   6.148   4.736 -1.0526 -0.0182 -0.2291
    6TAL    C2813231   3.912   6.174   4.596 -0.1779  0.5507 -0.0101
    6TAL    C2913232   3.984   6.051   4.529  0.0180 -0.2260 -0.6661
    6TAL    C3013233   3.968   6.085   4.378  0.4129  0.2353  0.1259
    7HTM    C3113234   3.969   6.111   5.251  0.2185  0.1454  0.5335
    7HTM    C3213235   4.004   6.064   5.374  0.1454 -0.5099  0.3119
    7HTM    C3313236   3.892   6.033   5.458  0.0941 -1.0077  0.0722
    7HTM    C3413237   3.771   6.057   5.400  0.1284 -0.7321  0.1113
    7HTM     S413238   3.790   6.120   5.232  0.2286  0.1848  0.4562
    8TAL    C3513239   3.914   5.986   5.602 -0.3396  0.8894 -1.0628
    8TAL    C3613240   3.995   5.864   5.640  0.3807 -0.5948 -0.7128
    8TAL    C3713241   4.142   5.884   5.653 -0.2303 -0.0337  0.6109
    8TAL    C3813242   4.217   5.760   5.710 -0.1469 -0.7677  0.2190
    8TAL    C3913243   4.366   5.780   5.725  0.5193 -0.3523 -0.4694
    8TAL    C4013244   4.426   5.641   5.730 -0.0280  0.5019 -1.2227
    9HTM    C4113245   3.638   6.063   5.461  0.0573 -0.2773 -0.1009
    9HTM    C4213246   3.561   6.174   5.479  0.3855 -0.0725  0.0545
    9HTM    C4313247   3.437   6.149   5.548  0.4522  0.2545  0.2986
    9HTM    C4413248   3.419   6.018   5.583  0.1749  0.2991  0.3294
    9HTM     S513249   3.559   5.916   5.531 -0.1948 -0.0714  0.0501
   10TAL    C4513250   3.334   6.261   5.564 -0.1462 -0.0435  0.3340
   10TAL    C4613251   3.262   6.307   5.428  0.3398 -0.1174  0.3698
   10TAL    C4713252   3.176   6.196   5.368  0.4206 -1.0303  0.0092
   10TAL    C4813253   3.023   6.189   5.386 -0.3749  1.2202 -1.1000
   10TAL    C4913254   2.953   6.325   5.381 -0.1228 -0.2937  0.1825
   10TAL    C5013255   2.802   6.329   5.406 -0.6837 -0.2932 -0.6926
   11HTM    C5113256   3.321   5.963   5.668 -0.1557 -0.0374 -0.3374
   11HTM    C5213257   3.197   6.001   5.709 -0.3229 -0.2328 -0.6554
   11HTM    C5313258   3.136   5.910   5.802 -0.1870 -0.0509 -0.3861
   11HTM    C5413259   3.214   5.802   5.832  0.0837  0.2833  0.1371
   11HTM     S613260   3.372   5.807   5.745  0.1890  0.3949  0.3318
   12TAL    C5513261   2.991   5.928   5.856 -1.0088 -0.5004  0.7529
   12TAL    C5613262   2.923   6.066   5.854  0.5064 -0.4331 -0.3430
   12TAL    C5713263   2.989   6.181   5.910 -0.7163 -1.1371  0.1127
   12TAL    C5813264   2.912   6.304   5.878  0.2774  0.1186 -0.0235
   12TAL    C5913265   2.799   6.349   5.966 -0.0205 -0.2565  1.0100
   12TAL    C6013266   2.823   6.478   6.030  0.6796 -0.7914  0.3456
   13HTM    C6113267   3.203   5.686   5.926  0.0578 -0.4285  0.1283
   13HTM    C6213268   3.142   5.564   5.915 -0.1459 -0.3530  0.3883
   13HTM    C6313269   3.137   5.490   6.038 -0.2028 -0.1142  0.5308
   13HTM    C6413270   3.194   5.555   6.143 -0.0426 -0.0078  0.3796
   13HTM     S713271   3.259   5.716   6.095  0.1944 -0.2022  0.0427
   14TAL    C6513272   3.062   5.362   6.046 -0.1271  0.5392  0.1981
   14TAL    C6613273   2.908   5.386   6.082 -0.3316 -0.3930  0.2919
   14TAL    C6713274   2.816   5.257   6.069  0.2906 -0.6959 -0.4550
   14TAL    C6813275   2.795   5.211   5.927 -1.1505  1.0989  0.7667
   14TAL    C6913276   2.758   5.057   5.935 -0.8391 -0.3605 -0.8263
   14TAL    C7013277   2.748   4.989   5.799  0.2092  0.9464  0.6666
   15HTM    C7113278   3.202   5.521   6.291  0.3372 -0.3546 -0.3274
   15HTM    C7213279   3.115   5.561   6.388  0.2157  0.1429 -0.6337
   15HTM    C7313280   3.141   5.502   6.517 -0.1154  0.5789 -0.3618
   15HTM    C7413281   3.247   5.417   6.518 -0.2463  0.4137  0.1518
   15HTM     S813282   3.324   5.404   6.355  0.0405 -0.3106  0.3331
   16TAL    C7513283   3.062   5.544   6.640 -0.1189  0.6067  0.4173
   16TAL    C7613284   2.917   5.500   6.663  0.4059 -0.9311 -0.7733
   16TAL    C7713285   2.865   5.365   6.649 -0.0310 -0.3474  0.3881
   16TAL    C7813286   2.825   5.307   6.511 -1.0329  0.0518 -0.1046
   16TAL    C7913287   2.725   5.378   6.424 -1.3866  0.3189  0.2707
   16TAL    C8013288   2.584   5.393   6.460  0.3582 -0.5999 -0.6290
   17HTM    C8113289   3.323   5.352   6.620  0.0464  1.0455 -0.6274
   17HTM    C8213290   3.278   5.317   6.744 -0.5065  1.2442 -0.7641
   17HTM    C8313291   3.382   5.265   6.830 -1.0745  0.3953 -0.5699
   17HTM    C8413292   3.505   5.261   6.772 -0.9547 -0.4505 -0.2852
   17HTM     S913293   3.500   5.323   6.602 -0.1086 -0.2390 -0.2400
   18TAL    C8513294   3.358   5.234   6.980  0.7968 -0.6932  0.1174
   18TAL    C8613295   3.260   5.311   7.053  0.4235 -0.8125 -1.6686
   18TAL    C8713296   3.245   5.270   7.202  0.1487  0.8738 -0.6449
   18TAL    C8813297   3.381   5.239   7.274  0.4049  0.5599 -0.5380
   18TAL    C8913298   3.371   5.226   7.430 -0.2874 -0.6099 -0.3347
   18TAL    C9013299   3.274   5.128   7.479  0.3506  0.5875 -0.0077
   19HTM    C9113300   3.641   5.220   6.818 -0.0563  0.4304  0.0020
   19HTM    C9213301   3.764   5.236   6.760  0.0658  1.2654  0.4528
   19HTM    C9313302   3.868   5.161   6.824  0.2066  1.4453  0.4334
   19HTM    C9413303   3.826   5.088   6.931  0.1921  0.7472 -0.0323
   19HTM    S1013304   3.649   5.109   6.960 -0.0025 -0.1987 -0.4859
   20TAL    C9513305   4.016   5.159   6.771  1.0910 -0.8285 -0.4967
   20TAL    C9613306   4.093   5.292   6.798 -0.6534  0.7618  0.6372
   20TAL    C9713307   4.240   5.290   6.738 -0.4273 -0.3324  0.3074
   20TAL    C9813308   4.318   5.410   6.804 -0.0274  1.1337 -0.1468
   20TAL    C9913309   4.275   5.549   6.743 -0.1190  0.5336  0.5058
   20TAL   C10013310   4.352   5.669   6.802  0.6026  1.7201  0.1720
   21HTM   C10113311   3.884   4.984   7.019  0.3578  0.1914  0.5517
   21HTM   C10213312   4.015   4.978   7.055  0.2300  0.1899  1.0455
   21HTM   C10313313   4.046   4.869   7.145 -0.1197  0.2314  1.2166
   21HTM   C10413314   3.937   4.794   7.178 -0.2583  0.2646  0.8533
   21HTM    S1113315   3.787   4.854   7.098  0.0442  0.2456  0.2623
   22TAL   C10513316   4.174   4.859   7.218  0.1017  0.7209 -0.4458
   22TAL   C10613317   4.211   4.960   7.328 -1.0302 -0.1698  0.2950
   22TAL   C10713318   4.281   4.894   7.455  0.8425  0.3448  0.5419
   22TAL   C10813319   4.417   4.837   7.443 -0.5547  1.0946 -0.7981
   22TAL   C10913320   4.435   4.699   7.526 -0.1978 -0.1842  0.9792
   22TAL   C11013321   4.569   4.645   7.475  0.5779 -0.3784  0.1195
   23HTM   C11113322   3.917   4.667   7.263  0.2449  0.0137 -0.0509
   23HTM   C11213323   3.814   4.672   7.353  0.4780  0.4482  0.1999
   23HTM   C11313324   3.828   4.579   7.462  0.4711  0.5610  0.2971
   23HTM   C11413325   3.941   4.504   7.456  0.2329  0.2126  0.1201
   23HTM    S1213326   4.040   4.544   7.310 -0.0031 -0.2888 -0.1854
   24TAL   C11513327   3.722   4.559   7.571  0.8170  0.4505 -0.1494
   24TAL   C11613328   3.574   4.564   7.506 -1.0216  0.6368 -0.7821
   24TAL   C11713329   3.478   4.575   7.611 -0.0348 -0.6003  0.8486
   24TAL   C11813330   3.336   4.608   7.550 -0.1703 -0.5792  0.7957
   24TAL   C11913331   3.324   4.732   7.462 -0.7455 -0.4996 -0.1783
   24TAL   C12013332   3.185   4.755   7.396  1.2997 -0.0094 -0.3436
   25HTM   C12113333   4.009   4.421   7.552  0.0481  0.1461  0.5077
   25HTM   C12213334   4.143   4.408   7.571 -0.0041  0.6690  1.3313
   25HTM   C12313335   4.179   4.302   7.662 -0.1377  0.6145  1.3211
   25HTM   C12413336   4.072   4.234   7.712 -0.1873  0.0503  0.4897
   25HTM    S1313337   3.916   4.299   7.648 -0.0683 -0.4601 -0.3513
   26TAL   C12513338   4.335   4.271   7.670  0.3299  0.1075 -0.5183
   26TAL   C12613339   4.421   4.367   7.754 -0.4926  0.0271  0.4086
   26TAL   C12713340   4.394   4.352   7.900  0.0859 -0.6459 -0.3235
   26TAL   C12813341   4.441   4.230   7.982 -0.5362  0.3385 -1.0995
   26TAL   C12913342   4.586   4.184   7.970  0.2692  0.3208  0.2013
   26TAL   C13013343   4.618   4.092   7.859 -0.4562  0.2048  0.6607
   27HTM   C13113344   4.043   4.123   7.803  0.1028 -0.1479  0.2221
   27HTM   C13213345   3.953   4.125   7.905  0.1215 -0.3145  0.2435
   27HTM   C13313346   3.965   4.015   7.997  0.3939 -0.2539  0.2803
   27HTM   C13413347   4.065   3.928   7.964  0.5831 -0.0413  0.2870
   27HTM    S1413348   4.152   3.979   7.814  0.4304  0.1001  0.2469
   28TAL   C13513349   3.869   4.003   8.114 -0.4703 -0.1321 -0.4102
   28TAL   C13613350   3.711   4.016   8.094 -0.0680 -0.5474  0.7905
   28TAL   C13713351   3.627   3.938   8.194 -0.7000 -0.8873 -0.3527
   28TAL   C13813352   3.472   3.951   8.186  0.2054  1.1425  1.1522
   28TAL   C13913353   3.407   3.854   8.286 -0.1688 -0.0770  0.0583
   28TAL   C14013354   3.419   3.896   8.431  0.0457 -0.4535 -0.2134
   29HTM   C14113355   4.102   3.794   8.001 -0.0091 -0.4364  0.2350
   29HTM   C14213356   4.107   3.677   7.931  0.4951 -0.3734  0.1539
   29HTM   C14313357   4.144   3.563   8.010  1.0297 -0.2668  0.0648
   29HTM   C14413358   4.168   3.593   8.141  0.9331 -0.2486  0.0783
   29HTM    S1513359   4.145   3.768   8.175  0.1534 -0.3655  0.2056
   30TAL   C14513360   4.166   3.419   7.950 -0.2881 -0.9060  0.0082
   30TAL   C14613361   4.162   3.390   7.800 -0.7988 -0.8022 -0.3822
   30TAL   C14713362   4.289   3.433   7.726  0.8357 -0.1815  0.6088
   30TAL   C14813363   4.301   3.357   7.590  0.0715 -0.3627 -0.3170
   30TAL   C14913364   4.400   3.420   7.487  0.3223  0.7486 -0.7240
   30TAL   C15013365   4.562   3.431   7.524  0.8261  0.3934  0.7327
   31HTM   C15113366   4.204   3.504   8.247 -0.4105  0.5243  0.0360
   31HTM   C15213367   4.330   3.457   8.266 -0.1624  1.4329  0.7710
   31HTM   C15313368   4.341   3.357   8.369  0.0515  1.8390  1.1501
   31HTM   C15413369   4.222   3.327   8.429 -0.0336  1.2403  0.7039
   31HTM    S1613370   4.087   3.424   8.359 -0.3934  0.1081 -0.2367
   32TAL   C15513371   4.477   3.285   8.408 -1.1363 -1.5214  0.0174
   32TAL   C15613372   4.553   3.196   8.312  0.4101 -1.0424  0.3213
   32TAL   C15713373   4.631   3.265   8.196 -0.3080 -0.4612  0.0876
   32TAL   C15813374   4.652   3.169   8.085 -0.9647  0.0348  0.7169
   32TAL   C15913375   4.722   3.244   7.965 -0.3584 -0.5062 -0.9177
   32TAL   C16013376   4.727   3.177   7.844  1.0767  0.0580 -0.1461
   33HTM   C16113377   4.182   3.234   8.534  0.3004 -0.1858 -0.8237
   33HTM   C16213378   4.086   3.257   8.629  0.0608 -0.1118 -1.0812
   33HTM   C16313379   4.066   3.146   8.719  0.1366  0.1159 -0.7811
   33HTM   C16413380   4.146   3.039   8.693  0.4341  0.2155 -0.2944
   33HTM    S1713381   4.254   3.070   8.552  0.6430  0.0279 -0.1767
   34TAL   C16513382   3.948   3.157   8.818  0.8757 -0.6631  1.2532
   34TAL   C16613383   3.950   3.265   8.917  0.9487 -0.3451 -0.5040
   34TAL   C16713384   3.810   3.303   8.968  0.0621 -0.8846  0.1356
   34TAL   C16813385   3.786   3.435   9.032 -0.0447  0.1557 -0.2232
   34TAL   C16913386   3.871   3.475   9.147 -0.3850 -0.3958  0.7259
   34TAL   C17013387   3.777   3.543   9.255 -0.0283  0.6732  0.5251
   35HTM   C17113388   4.168   2.905   8.752  0.7018 -0.1805  0.1443
   35HTM   C17213389   4.219   2.789   8.702  0.9069 -0.1616  0.3073
   35HTM   C17313390   4.197   2.674   8.786  0.5188 -0.2027  0.1552
   35HTM   C17413391   4.129   2.703   8.901  0.0172 -0.2531 -0.1235
   35HTM    S1813392   4.087   2.878   8.911 -0.0037 -0.2524 -0.2168
   36TAL   C17513393   4.238   2.529   8.752  0.1333  0.0750  0.8785
   36TAL   C17613394   4.379   2.504   8.768  0.1032  0.5813  0.7619
   36TAL   C17713395   4.413   2.353   8.746 -0.2964 -0.5903  0.5286
   36TAL   C17813396   4.563   2.332   8.737 -0.3875 -0.1527 -0.4836
   36TAL   C17913397   4.610   2.186   8.722  0.0806 -0.5248 -0.4934
   36TAL   C18013398   4.613   2.116   8.856  0.2354  0.0474  0.7920
   37HTM   C18113399   4.092   2.618   9.022 -0.2604 -0.0836 -0.0182
   37HTM   C18213400   4.034   2.671   9.133 -0.0126 -0.0648  0.1032
   37HTM   C18313401   3.999   2.572   9.233  0.2910 -0.0383  0.2375
   37HTM   C18413402   4.031   2.445   9.197  0.2747 -0.0370  0.2188
   37HTM    S1913403   4.108   2.439   9.034 -0.1287 -0.0693  0.0283
   38TAL   C18513404   3.949   2.622   9.367  0.9650  0.1474  0.4731
   38TAL   C18613405   4.047   2.683   9.457 -1.0878 -0.5515 -0.0554
   38TAL   C18713406   4.009   2.801   9.545 -0.5627 -0.8714  0.0005
   38TAL   C18813407   3.898   2.790   9.643  0.0518  0.1053 -0.1604
   38TAL   C18913408   3.919   2.886   9.766 -0.2560  0.9261 -0.0379
   38TAL   C19013409   4.048   2.857   9.843 -0.4327 -0.0359 -0.2909
   39HTM   C19113410   4.038   2.311   9.257 -0.8394 -0.1697  0.1188
   39HTM   C19213411   4.018   2.192   9.194 -0.3109 -0.2444  0.0792
   39HTM   C19313412   4.050   2.078   9.275  0.5506 -0.1326 -0.0870
   39HTM   C19413413   4.095   2.110   9.400  0.6792  0.0273 -0.1742
   39HTM    S2013414   4.100   2.288   9.425 -0.2856  0.0492 -0.0523
   40TAL   C19513415   4.044   1.938   9.218 -0.0101  0.7119  0.4080
   40TAL   C19613416   3.913   1.864   9.254 -0.1212  0.9009  0.0516
   40TAL   C19713417   3.787   1.888   9.163 -0.5372 -0.0986 -1.1383
   40TAL   C19813418   3.674   1.792   9.177  0.4616  0.2063  0.0759
   40TAL   C19913419   3.544   1.830   9.106  1.6435 -0.1100 -0.3805
   40TAL   C20013420   3.534   1.762   8.972 -0.2078  0.6216 -0.0450
   41HTM   C20113421   4.146   2.037   9.511 -0.2325 -0.4438 -0.2269
   41HTM   C20213422   4.273   1.999   9.544 -0.2213 -0.4054 -0.2253
   41HTM   C20313423   4.284   1.940   9.675 -0.1327 -0.0131 -0.0517
   41HTM   C20413424   4.165   1.933   9.742 -0.0763  0.2478  0.0794
   41HTM    S2113425   4.030   2.001   9.644 -0.1311  0.0162 -0.0070
   42TAL   C20513426   4.419   1.882   9.729  0.8649 -0.2940 -0.2630
   42TAL   C20613427   4.549   1.923   9.660  1.2430  0.2496  0.1387
   42TAL   C20713428   4.570   2.069   9.634 -0.2389 -1.2559 -0.6869
   42TAL   C20813429   4.711   2.109   9.588  0.2868  0.5247  0.0321
   42TAL   C20913430   4.818   2.079   9.695 -0.1815 -0.9303 -0.4871
   42TAL   C21013431   4.967   2.097   9.649  0.0214 -0.8852  1.8689
   43HTM   C21113432   4.139   1.898   9.878 -0.3300 -0.0119  0.0082
   43HTM   C21213433   4.031   1.825   9.917 -0.4774  0.5949  0.7720
   43HTM   C21313434   4.011   1.823  10.060  0.1310  1.2407  0.8783
   43HTM   C21413435   4.105   1.893  10.129  0.7424  1.1262  0.1958
   43HTM    S2213436   4.226   1.969  10.019  0.5960  0.1866 -0.6409
   44TAL   C21513437   3.881   1.783  10.108 -0.1315  0.5737  0.0249
   44TAL   C21613438   3.757   1.836  10.042  0.8030 -0.7123  0.9002
   44TAL   C21713439   3.637   1.762  10.088 -0.1711 -0.4516 -0.6272
   44TAL   C21813440   3.499   1.820  10.071 -0.0986 -0.4207 -0.2008
   44TAL   C21913441   3.419   1.737   9.978  0.5799  0.8511  0.3092
   44TAL   C22013442   3.279   1.793   9.944  0.4455 -0.4008 -0.0757
   45HTM   C22113443   4.135   1.899  10.266  0.0276  0.1237  0.0011
   45HTM   C22213444   4.210   1.997  10.323 -0.0097  0.0147  0.2403
   45HTM   C22313445   4.213   1.992  10.467 -0.0346 -0.3150  0.2303
   45HTM   C22413446   4.139   1.890  10.519 -0.0163 -0.4574 -0.0161
   45HTM    S2313447   4.060   1.792  10.390  0.0343 -0.1839 -0.2572
   46TAL   C22513448   4.326   2.064  10.544 -0.4940 -0.2282  0.2560
   46TAL   C22613449   4.467   2.064  10.475  0.3603  0.2657 -0.7880
   46TAL   C22713450   4.522   1.924  10.434 -0.1131 -0.1078 -0.2764
   46TAL   C22813451   4.648   1.925  10.336 -0.9145 -0.1559  0.1705
   46TAL   C22913452   4.599   1.932  10.187  0.1313 -1.0334  0.5194
   46TAL   C23013453   4.583   1.799  10.119 -0.5630 -0.0941 -0.0185
   47HTM   C23113454   4.134   1.830  10.646 -0.3477 -0.1124  0.2259
   47HTM   C23213455   4.214   1.724  10.674 -0.6180 -0.2753  0.3912
   47HTM   C23313456   4.231   1.699  10.815 -0.3806  0.1345  0.4387
   47HTM   C23413457   4.163   1.787  10.894  0.0704  0.6099  0.3095
   47HTM    S2413458   4.072   1.908  10.797  0.2317  0.5765  0.1165
   48TAL   C23513459   4.311   1.572  10.840  0.3025  0.2413 -0.6062
   48TAL   C23613460   4.325   1.501  10.987  1.6235 -0.4118 -0.1162
   48TAL   C23713461   4.406   1.379  10.966 -0.4596  1.0410  0.6103
   48TAL   C23813462   4.549   1.381  10.901 -0.0930 -0.5193  0.3209
   48TAL   C23913463   4.654   1.280  10.937  0.2081 -0.1438 -0.6399
   48TAL   C24013464   4.706   1.290  11.077  0.1554 -0.2889  0.4596
    1HTM     C113465   5.371   5.919  13.031  0.4409  0.1003  1.2289
    1HTM     C213466   5.403   5.844  12.922  0.4438  0.9046  0.6585
    1HTM     C313467   5.408   5.703  12.948  0.3475  0.6863 -0.4177
    1HTM     C413468   5.378   5.670  13.077  0.2713 -0.2847 -0.6679
    1HTM     S113469   5.342   5.816  13.176  0.3154 -1.0042  0.4447
    2TAL     C513470   5.432   5.588  12.846 -0.3592 -0.4588  0.4209
    2TAL     C613471   5.384   5.570  12.707 -0.1408  0.1306  0.0390
    2TAL     C713472   5.231   5.575  12.699 -0.7361  0.1015 -0.9163
    2TAL     C813473   5.150   5.570  12.571  0.2645  0.6662 -0.6301
    2TAL     C913474   5.129   5.689  12.483 -0.8356 -0.3470  0.4071
    2TAL    C1013475   5.060   5.798  12.569  0.3623  0.1326 -0.0286
    3HTM    C1113476   5.374   5.545  13.145  0.6312 -0.2997  0.1243
    3HTM    C1213477   5.449   5.520  13.256  0.2886 -0.6589  0.2832
    3HTM    C1313478   5.454   5.382  13.294 -0.3002 -0.7071  0.1907
    3HTM    C1413479   5.381   5.300  13.211 -0.4065 -0.3851 -0.0389
    3HTM     S213480   5.302   5.393  13.079  0.2338  0.0073 -0.1569
    4TAL    C1513481   5.543   5.345  13.414 -0.4339  0.5868  0.3135
    4TAL    C1613482   5.655   5.243  13.395 -0.1099  0.2345 -0.1982
    4TAL    C1713483   5.779   5.309  13.339  0.4871 -0.1626 -0.5285
    4TAL    C1813484   5.870   5.208  13.265 -0.3193 -0.2329  0.3172
    4TAL    C1913485   5.961   5.131  13.356 -0.7531 -0.0721  0.4474
    4TAL    C2013486   6.064   5.060  13.264  0.0016  0.0256 -0.3486
    5HTM    C2113487   5.360   5.157  13.220  0.6631  0.0334  0.3438
    5HTM    C2213488   5.274   5.090  13.302  0.6480  0.0720  0.3593
    5HTM    C2313489   5.240   4.958  13.255  0.1389  0.2968  0.0732
    5HTM    C2413490   5.301   4.925  13.138 -0.2343  0.4293 -0.1602
    5HTM     S313491   5.406   5.058  13.077  0.0305  0.2798 -0.0360
    6TAL    C2513492   5.150   4.871  13.335 -0.3523 -0.5457 -0.7012
    6TAL    C2613493   5.217   4.791  13.444 -0.8090  0.8209  0.1956
    6TAL    C2713494   5.253   4.872  13.569 -0.3915 -0.5454  0.2672
    6TAL    C2813495   5.144   4.935  13.659  0.0411 -0.4605  0.7083
    6TAL    C2913496   5.210   4.996  13.783 -0.8748 -1.0912 -0.5018
    6TAL    C3013497   5.252   4.913  13.900  0.4214  0.8574 -0.2308
    7HTM    C3113498   5.281   4.800  13.057  0.1133 -0.5020 -0.1348
    7HTM    C3213499   5.168   4.747  13.003  0.2648  0.1026 -1.0850
    7HTM    C3313500   5.192   4.645  12.904  0.5380  0.5418 -1.4825
    7HTM    C3413501   5.324   4.620  12.884  0.5947  0.2719 -0.8355
    7HTM     S413502   5.429   4.724  12.988  0.3055 -0.5643  0.3355
    8TAL    C3513503   5.076   4.593  12.818  0.0904 -1.3709  0.1671
    8TAL    C3613504   5.015   4.696  12.718 -0.5958 -0.2625  0.0062
    8TAL    C3713505   4.874   4.672  12.656 -0.2907 -0.6866  0.6471
    8TAL    C3813506   4.857   4.731  12.509  0.1047  0.6094 -0.6956
    8TAL    C3913507   4.967   4.723  12.397  0.2321 -0.1939  0.2340
    8TAL    C4013508   4.936   4.604  12.313  0.1583  1.1664 -0.2785
    9HTM    C4113509   5.387   4.520  12.806 -0.4595 -0.7681  0.1371
    9HTM    C4213510   5.339   4.402  12.757 -0.2840 -0.6092 -0.4311
    9HTM    C4313511   5.438   4.324  12.687 -0.1082 -0.2360 -0.6070
    9HTM    C4413512   5.561   4.382  12.683 -0.1497 -0.1105 -0.1727
    9HTM     S513513   5.562   4.541  12.768 -0.4161 -0.4563  0.4971
   10TAL    C4513514   5.398   4.191  12.618 -0.1009  0.4758  0.9316
   10TAL    C4613515   5.258   4.150  12.563 -0.3704  0.2558 -0.2239
   10TAL    C4713516   5.187   4.251  12.474  1.0935  0.1942  0.2580
   10TAL    C4813517   5.057   4.184  12.430  0.4734  0.5773  0.7136
   10TAL    C4913518   4.927   4.214  12.511 -0.3449 -0.1356  0.9997
   10TAL    C5013519   4.917   4.187  12.657  0.9181 -0.1989 -0.0619
   11HTM    C5113520   5.693   4.333  12.637 -0.4991  0.2463  0.6590
   11HTM    C5213521   5.727   4.224  12.562 -1.1165  0.1612  0.4933
   11HTM    C5313522   5.866   4.218  12.528 -1.2754 -0.2137 -0.1166
   11HTM    C5413523   5.939   4.323  12.576 -0.7794 -0.4145 -0.4163
   11HTM     S613524   5.836   4.438  12.669 -0.0675 -0.1433  0.0523
   12TAL    C5513525   5.941   4.099  12.461  0.5456 -0.0159  0.3450
   12TAL    C5613526   5.955   3.965  12.532  0.0989  0.8886  0.9670
   12TAL    C5713527   6.041   3.970  12.654 -0.0685  0.4710  0.0753
   12TAL    C5813528   6.084   3.849  12.745  0.6930 -0.3410 -0.0468
   12TAL    C5913529   5.975   3.740  12.765  0.8105  0.7549  0.0131
   12TAL    C6013530   5.995   3.693  12.903 -0.9549 -1.0598 -0.5438
   13HTM    C6113531   6.082   4.358  12.556 -0.3217  0.2003  0.6414
   13HTM    C6213532   6.122   4.485  12.526 -0.4776  0.2220  0.5193
   13HTM    C6313533   6.261   4.494  12.488 -0.6473  0.2612 -0.1173
   13HTM    C6413534   6.326   4.375  12.489 -0.6208  0.2695 -0.4807
   13HTM     S713535   6.217   4.240  12.539 -0.3774  0.2282 -0.0439
   14TAL    C6513536   6.325   4.624  12.430  0.2460  0.5706 -0.4805
   14TAL    C6613537   6.320   4.739  12.534 -0.7172 -0.4394 -0.1702
   14TAL    C6713538   6.393   4.863  12.478  0.3699 -0.3046  1.3003
   14TAL    C6813539   6.538   4.845  12.458 -0.3977  0.3577 -0.0916
   14TAL    C6913540   6.622   4.808  12.583  0.8208 -0.3038 -0.6869
   14TAL    C7013541   6.639   4.927  12.681  0.7420  0.2571 -0.0839
   15HTM    C7113542   6.475   4.357  12.504  0.2472  0.4985  0.0008
   15HTM    C7213543   6.546   4.294  12.602 -0.0961 -0.4698 -0.3550
   15HTM    C7313544   6.688   4.299  12.582 -0.0659 -1.3331 -0.4239
   15HTM    C7413545   6.726   4.366  12.470  0.3004 -1.0229 -0.1203
   15HTM     S813546   6.584   4.429  12.379  0.6383  0.3943  0.2786
   16TAL    C7513547   6.774   4.249  12.701 -0.1250 -0.0188 -0.3294
   16TAL    C7613548   6.834   4.348  12.795  0.0460  0.3406 -0.0782
   16TAL    C7713549   6.749   4.449  12.866 -0.9767  0.6926  1.1318
   16TAL    C7813550   6.811   4.523  12.975 -0.0296 -0.1649 -0.8032
   16TAL    C7913551   6.953   4.575  12.987 -0.2316 -0.4261 -1.1936
   16TAL    C8013552   6.985   4.682  12.886 -0.1691 -0.8228  0.5517
   17HTM    C8113553   6.856   4.375  12.406 -0.2358 -0.0108 -0.4838
   17HTM    C8213554   6.882   4.414  12.278 -0.0750  0.1949 -0.3898
   17HTM    C8313555   7.019   4.395  12.239  0.0265  0.4677 -0.1771
   17HTM    C8413556   7.098   4.341  12.337 -0.0567  0.4700 -0.1088
   17HTM     S913557   7.004   4.311  12.487 -0.2713  0.1255 -0.3094
   18TAL    C8513558   7.077   4.419  12.098  1.0120  1.0397 -0.7755
   18TAL    C8613559   6.983   4.475  11.987  0.0345  0.8147 -0.1811
   18TAL    C8713560   7.025   4.385  11.868  0.1266 -0.2685  0.2283
   18TAL    C8813561   6.911   4.367  11.767 -1.2371 -0.0287  0.3161
   18TAL    C8913562   6.953   4.277  11.646  0.4405 -0.7627  0.2947
   18TAL    C9013563   6.870   4.317  11.517 -0.1247  0.6868 -0.9146
   19HTM    C9113564   7.242   4.310  12.356 -0.1450  0.0850  0.0844
   19HTM    C9213565   7.346   4.300  12.268 -0.1178  0.4377  0.0708
   19HTM    C9313566   7.470   4.261  12.329 -0.0249  0.6551  0.0226
   19HTM    C9413567   7.461   4.242  12.464  0.0186  0.4681 -0.0003
   19HTM    S1013568   7.294   4.272  12.524 -0.0549 -0.0004  0.0370
   20TAL    C9513569   7.596   4.243  12.242  0.0294  0.3906 -0.0606
   20TAL    C9613570   7.605   4.334  12.122 -0.1708 -0.0660  0.5499
   20TAL    C9713571   7.725   4.305  12.033 -0.0190 -0.5362  0.0148
   20TAL    C9813572   7.762   4.403  11.929  0.2685 -0.4762  0.2108
   20TAL    C9913573   7.829   4.351  11.804 -0.0539  0.0324  0.7036
   20TAL   C10013574   7.822   4.452  11.684 -0.5068  0.8324 -0.7544
   21HTM   C10113575   7.561   4.191  12.558  0.3554 -0.0798 -0.3498
   21HTM   C10213576   7.586   4.062  12.595  0.6207 -0.1651 -0.8132
   21HTM   C10313577   7.699   4.048  12.683  0.5719 -0.2344 -0.7617
   21HTM   C10413578   7.760   4.167  12.713  0.2695 -0.2018 -0.2585
   21HTM    S1113579   7.679   4.306  12.632  0.0209 -0.0803  0.1921
   22TAL   C10513580   7.738   3.908  12.728  0.1104 -0.3762  0.7455
   22TAL   C10613581   7.694   3.890  12.874  0.2220 -0.1134 -0.4552
   22TAL   C10713582   7.697   3.752  12.946 -1.2915 -0.3982 -0.3725
   22TAL   C10813583   7.589   3.650  12.911 -1.3487 -1.0633 -0.2922
   22TAL   C10913584   7.575   3.513  12.961 -1.0255  0.0980  0.2219
   22TAL   C11013585   7.477   3.441  12.883  0.6126 -0.2629  0.4448
   23HTM   C11113586   7.860   4.202  12.806 -0.1613 -0.2838 -0.7599
   23HTM   C11213587   7.886   4.160  12.932 -0.5944 -0.1302 -0.6146
   23HTM   C11313588   8.002   4.222  12.992 -0.9946  0.1982 -0.1600
   23HTM   C11413589   8.064   4.312  12.910 -0.8667  0.2949  0.0416
   23HTM    S1213590   7.980   4.325  12.751 -0.2259 -0.0238 -0.3301
   24TAL   C11513591   8.030   4.186  13.140 -0.3299  0.4275 -0.2563
   24TAL   C11613592   7.940   4.076  13.217  0.2031 -0.4627  0.6614
   24TAL   C11713593   7.994   4.090  13.357  0.5444 -0.6253  0.4866
   24TAL   C11813594   7.964   3.972  13.447  0.3188 -0.3996 -0.0650
   24TAL   C11913595   7.818   3.954  13.502 -1.0679 -0.2763  0.0551
   24TAL   C12013596   7.772   3.820  13.553  0.0942 -0.0719  0.6471
   25HTM   C12113597   8.187   4.386  12.927 -0.1433 -0.2098 -0.0543
   25HTM   C12213598   8.308   4.328  12.949 -0.0165 -0.2778 -0.8540
   25HTM   C12313599   8.418   4.420  12.946 -0.0521 -0.2402 -1.0078
   25HTM   C12413600   8.381   4.549  12.921 -0.2060 -0.1437 -0.3255
   25HTM    S1313601   8.203   4.564  12.900 -0.3187 -0.0924  0.5713
   26TAL   C12513602   8.558   4.373  12.990  0.9637  0.4421  0.2638
   26TAL   C12613603   8.576   4.281  13.108 -1.0435  0.3709 -0.0996
   26TAL   C12713604   8.534   4.322  13.247 -0.0688 -0.2947 -1.0651
   26TAL   C12813605   8.557   4.467  13.308 -1.0223  0.1236 -0.4658
   26TAL   C12913606   8.508   4.477  13.449 -0.4279 -0.4545 -0.4878
   26TAL   C13013607   8.592   4.419  13.562 -0.3455  0.0840  0.8678
   27HTM   C13113608   8.462   4.664  12.943 -0.4225  0.2091 -0.7216
   27HTM   C13213609   8.433   4.761  13.035 -0.7475  0.0628 -0.6676
   27HTM   C13313610   8.540   4.856  13.055 -0.6351 -0.2252  0.1934
   27HTM   C13413611   8.650   4.831  12.978 -0.2243 -0.2984  0.7954
   27HTM    S1413612   8.628   4.685  12.874  0.0546 -0.0072  0.3183
   28TAL   C13513613   8.518   4.978  13.137  0.3240  0.3355  0.2892
   28TAL   C13613614   8.569   4.961  13.278  0.7509  0.2647 -1.4386
   28TAL   C13713615   8.474   4.873  13.375  0.9666 -0.1723  0.3498
   28TAL   C13813616   8.415   4.928  13.508 -0.1346  0.1123 -0.2359
   28TAL   C13913617   8.507   4.894  13.631 -0.3514  0.2951 -0.0831
   28TAL   C14013618   8.506   4.744  13.676 -0.1356 -0.7246  0.0425
   29HTM   C14113619   8.780   4.892  12.955  0.1247  0.2273 -0.0604
   29HTM   C14213620   8.902   4.833  12.939 -0.0349 -0.1194 -0.0122
   29HTM   C14313621   9.010   4.927  12.922  0.1856 -0.4321 -0.3550
   29HTM   C14413622   8.971   5.057  12.924  0.5133 -0.3235 -0.6648
   29HTM    S1513623   8.793   5.072  12.949  0.5692  0.1859 -0.5460
   30TAL   C14513624   9.147   4.868  12.921 -0.4611  0.5825 -0.9605
   30TAL   C14613625   9.226   4.863  13.051 -1.3793  0.1810 -0.7772
   30TAL   C14713626   9.175   4.788  13.175  0.5454 -1.3929 -0.6789
   30TAL   C14813627   9.075   4.873  13.260  0.2991  1.2630 -0.7005
   30TAL   C14913628   9.008   4.770  13.362  0.3809 -0.3360 -1.3807
   30TAL   C15013629   8.939   4.854  13.466  0.5155 -0.3156 -1.0265
   31HTM   C15113630   9.052   5.178  12.903 -0.2664  0.4971  0.4950
   31HTM   C15213631   9.161   5.227  12.969 -0.3506  0.8634  0.3712
   31HTM   C15313632   9.209   5.352  12.918 -0.5083  0.7654 -0.0255
   31HTM   C15413633   9.137   5.400  12.812 -0.5443  0.3245 -0.2042
   31HTM    S1613634   9.001   5.289  12.769 -0.3805 -0.0040  0.1172
   32TAL   C15513635   9.347   5.416  12.942 -1.3123 -0.0536 -0.7915
   32TAL   C15613636   9.428   5.361  13.060 -0.9200 -0.6452  0.8371
   32TAL   C15713637   9.580   5.407  13.070  0.7036 -0.4690 -0.0111
   32TAL   C15813638   9.603   5.565  13.081  0.6029 -0.3304 -0.5545
   32TAL   C15913639   9.564   5.602  13.227 -0.5299 -0.8913 -0.7559
   32TAL   C16013640   9.555   5.757  13.266 -0.2445 -0.2913 -0.2993
   33HTM   C16113641   9.170   5.518  12.729  0.1492  0.8412  0.5050
   33HTM   C16213642   9.102   5.634  12.751  0.6860  1.1351  0.6697
   33HTM   C16313643   9.143   5.743  12.667  0.8681  0.9285  0.4897
   33HTM   C16413644   9.244   5.711  12.580  0.4702  0.4773  0.1877
   33HTM    S1713645   9.294   5.538  12.599 -0.1704  0.2763  0.1063
   34TAL   C16513646   9.062   5.871  12.670 -0.9393  0.0439 -0.5264
   34TAL   C16613647   9.082   5.962  12.801  0.0206  0.8309 -0.1406
   34TAL   C16713648   9.130   6.102  12.775 -1.2229 -0.2478  0.2989
   34TAL   C16813649   9.136   6.185  12.908  0.2373 -0.2255 -0.5221
   34TAL   C16913650   9.059   6.321  12.904 -1.3194  0.8379  0.3889
   34TAL   C17013651   9.136   6.443  12.846  0.0019  0.3075 -0.3663
   35HTM   C17113652   9.317   5.796  12.492  1.1808 -0.4849  0.4767
   35HTM   C17213653   9.374   5.918  12.513  1.8281 -0.8793  1.0815
   35HTM   C17313654   9.441   5.971  12.396  1.6271 -0.4113  1.1775
   35HTM   C17413655   9.434   5.890  12.287  0.8265  0.3400  0.6463
   35HTM    S1813656   9.342   5.739  12.323  0.2599  0.5159 -0.0217
   36TAL   C17513657   9.542   6.079  12.410 -0.0699  0.0051 -0.7533
   36TAL   C17613658   9.599   6.184  12.313  0.2365 -0.2771 -0.2058
   36TAL   C17713659   9.499   6.298  12.276 -0.8291 -0.3089  0.2662
   36TAL   C17813660   9.559   6.373  12.159  0.4781  0.4556  0.5758
   36TAL   C17913661   9.481   6.382  12.030  0.3852 -0.0574 -0.2038
   36TAL   C18013662   9.549   6.446  11.906 -1.0372  0.0622  0.1753
   37HTM   C18113663   9.475   5.894  12.151 -0.1803 -0.0144 -0.4248
   37HTM   C18213664   9.566   5.815  12.087 -0.2918 -0.0008 -0.6042
   37HTM   C18313665   9.571   5.835  11.945 -0.4150  0.1613 -0.5867
   37HTM   C18413666   9.484   5.929  11.899 -0.3974  0.2715 -0.3940
   37HTM    S1913667   9.388   6.001  12.034 -0.2226  0.1783 -0.2184
   38TAL   C18513668   9.688   5.763  11.869  0.6621 -0.7426 -0.2611
   38TAL   C18613669   9.671   5.619  11.831 -0.3795  0.1543  0.0485
   38TAL   C18713670   9.802   5.551  11.788  0.1342 -0.7480  0.0382
   38TAL   C18813671   9.787   5.419  11.708  0.6220  0.2225  0.1385
   38TAL   C18913672   9.914   5.373  11.639  0.7593  0.6337 -0.6504
   38TAL   C19013673   9.937   5.443  11.504  0.1272 -0.4176  0.0692
   39HTM   C19113674   9.444   5.977  11.769  0.1507  0.7273  0.3316
   39HTM   C19213675   9.376   6.092  11.743  0.4036  0.7824 -0.0911
   39HTM   C19313676   9.347   6.112  11.603  0.6071  0.4239 -0.1853
   39HTM   C19413677   9.393   6.011  11.523  0.5094  0.0954  0.1650
   39HTM    S2013678   9.477   5.883  11.619  0.1500  0.2144  0.6454
   40TAL   C19513679   9.284   6.243  11.566 -0.8683  0.0491 -0.3961
   40TAL   C19613680   9.394   6.341  11.520  0.0074 -1.3345  0.4569
   40TAL   C19713681   9.325   6.452  11.436 -0.5806 -0.9702  0.0085
   40TAL   C19813682   9.222   6.544  11.512 -0.3350  0.1345  0.7906
   40TAL   C19913683   9.160   6.646  11.416 -0.4605 -0.4204 -0.5749
   40TAL   C20013684   9.105   6.771  11.483 -0.4750 -0.3875  0.2224
   41HTM   C20113685   9.384   5.997  11.378 -0.3823 -0.3513  0.2988
   41HTM   C20213686   9.447   6.088  11.298 -0.0249 -0.2353  0.7012
   41HTM   C20313687   9.439   6.056  11.158  0.3558  0.1097  0.5972
   41HTM   C20413688   9.370   5.941  11.131  0.2886  0.2571  0.1157
   41HTM    S2113689   9.309   5.864  11.283 -0.2648 -0.0312 -0.2466
   42TAL   C20513690   9.499   6.136  11.045 -1.1900 -0.5248  0.1327
   42TAL   C20613691   9.643   6.088  11.015 -0.6773  0.2577 -0.2130
   42TAL   C20713692   9.732   6.061  11.140  0.1084  0.0459  0.8439
   42TAL   C20813693   9.858   5.989  11.115 -0.0387  0.5597  0.1227
   42TAL   C20913694   9.880   5.851  11.059  0.5213 -0.2076 -0.8377
   42TAL   C21013695   9.832   5.742  11.152 -0.1131 -0.3429 -0.3821
   43HTM   C21113696   9.319   5.890  11.001  0.4777 -0.0934 -0.2076
   43HTM   C21213697   9.355   5.777  10.934 -0.3710 -0.5131  0.0117
   43HTM   C21313698   9.294   5.765  10.804 -0.8960 -0.6006  0.2594
   43HTM   C21413699   9.212   5.869  10.772 -0.4477 -0.2473  0.2287
   43HTM    S2213700   9.205   5.990  10.905  0.6811  0.2268 -0.1177
   44TAL   C21513701   9.317   5.645  10.715 -0.2720  0.0552  0.7236
   44TAL   C21613702   9.439   5.659  10.626  0.3792 -0.6137 -0.4288
   44TAL   C21713703   9.543   5.558  10.672 -0.8196 -0.3420  0.3198
   44TAL   C21813704   9.690   5.613  10.694  0.1759 -0.4493  0.2876
   44TAL   C21913705   9.783   5.636  10.574 -0.2150  0.7638  0.3119
   44TAL   C22013706   9.904   5.735  10.585  0.7235  0.2221 -0.0004
   45HTM   C22113707   9.123   5.888  10.659 -0.2454  0.2961 -0.7178
   45HTM   C22213708   9.120   5.987  10.566 -0.5777  0.2379 -0.7737
   45HTM   C22313709   9.017   5.971  10.467 -0.6881 -0.0277 -0.6173
   45HTM   C22413710   8.940   5.860  10.486 -0.4401 -0.1722 -0.4415
   45HTM    S2313711   8.993   5.766  10.630 -0.0447  0.0176 -0.4610
   46TAL   C22513712   9.001   6.079  10.365  0.6007 -0.1732 -0.3750
   46TAL   C22613713   9.053   6.219  10.384  0.0540  0.0006  0.1747
   46TAL   C22713714   8.974   6.332  10.326 -0.2897  0.4476  0.0680
   46TAL   C22813715   9.029   6.375  10.192 -0.5010  0.6355 -0.0314
   46TAL   C22913716   8.929   6.471  10.152  0.8653  0.2469 -0.5568
   46TAL   C23013717   8.934   6.557  10.030  0.0953  0.7970  0.1593
   47HTM   C23113718   8.826   5.803  10.415 -0.0484  0.6750 -0.1003
   47HTM   C23213719   8.720   5.725  10.453  0.0057  0.7485  0.2027
   47HTM   C23313720   8.620   5.709  10.351 -0.0444  0.3829  0.3057
   47HTM   C23413721   8.649   5.775  10.235 -0.1367  0.0306  0.0813
   47HTM    S2413722   8.806   5.862  10.246 -0.1678  0.1341 -0.2804
   48TAL   C23513723   8.499   5.630  10.393  0.9813 -0.0839 -0.6951
   48TAL   C23613724   8.369   5.638  10.304  0.3932  0.5400 -0.2876
   48TAL   C23713725   8.253   5.542  10.314 -0.1149  0.8753 -0.4985
   48TAL   C23813726   8.235   5.471  10.455 -0.6152  0.3264 -0.0023
   48TAL   C23913727   8.110   5.373  10.441 -0.1470 -0.3525  0.0958
   48TAL   C24013728   8.082   5.276  10.559  0.3602 -0.9356  0.5586
    1HTM     C113729   6.041   1.734   8.936 -0.0325 -0.6596 -0.7356
    1HTM     C213730   6.011   1.855   8.881  0.1644 -0.4633 -0.4148
    1HTM     C313731   5.872   1.869   8.845  0.1227 -0.0292 -0.1004
    1HTM     C413732   5.797   1.759   8.872 -0.1063  0.1056 -0.1810
    1HTM     S113733   5.896   1.627   8.946 -0.2881 -0.3085 -0.6642
    2TAL     C513734   5.827   1.995   8.782  0.2328 -0.5310  0.4386
    2TAL     C613735   5.908   2.125   8.812  0.2005  0.4608  0.0870
    2TAL     C713736   5.874   2.234   8.716 -1.0910  0.3873 -0.1807
    2TAL     C813737   5.950   2.372   8.696 -0.6084  0.5553 -0.2044
    2TAL     C913738   6.042   2.410   8.807 -1.6823  0.0024 -1.8200
    2TAL    C1013739   6.078   2.558   8.803  0.3708 -1.0006  0.8740
    3HTM    C1113740   5.655   1.729   8.851 -0.2197  0.0556  0.2106
    3HTM    C1213741   5.574   1.674   8.946 -0.2469  0.1872  0.2654
    3HTM    C1313742   5.437   1.658   8.902 -0.2816  0.3237  0.3245
    3HTM    C1413743   5.414   1.701   8.775 -0.2810  0.2962  0.3149
    3HTM     S213744   5.565   1.766   8.700 -0.2360  0.0942  0.2293
    4TAL    C1513745   5.340   1.601   9.003  0.5792 -0.3862 -0.4885
    4TAL    C1613746   5.261   1.485   8.972  0.2350  0.2098  0.6401
    4TAL    C1713747   5.325   1.351   8.953  0.1859 -0.0245  1.3559
    4TAL    C1813748   5.401   1.277   9.057  0.4411  0.0840 -0.3150
    4TAL    C1913749   5.321   1.274   9.188 -0.5250  0.6540 -0.2659
    4TAL    C2013750   5.391   1.228   9.320 -0.7955 -0.1059 -0.0673
    5HTM    C2113751   5.292   1.689   8.699  0.1659  0.2801  0.0671
    5HTM    C2213752   5.283   1.660   8.566  0.2185  0.3056  0.0579
    5HTM    C2313753   5.148   1.661   8.516  0.1869 -0.2165  0.1230
    5HTM    C2413754   5.054   1.690   8.611  0.1101 -0.6400  0.1820
    5HTM     S313755   5.130   1.719   8.772  0.0713 -0.4106  0.1596
    6TAL    C2513756   5.121   1.632   8.367 -0.7865 -0.7085 -0.1885
    6TAL    C2613757   5.072   1.723   8.249  0.0156  0.3551  1.0046
    6TAL    C2713758   5.059   1.874   8.280  1.6457 -0.9159  0.2731
    6TAL    C2813759   5.047   1.954   8.144  0.7583 -0.1278  0.3626
    6TAL    C2913760   4.914   1.925   8.063  0.1438 -0.0298 -0.0465
    6TAL    C3013761   4.927   1.992   7.932  0.6810 -0.3282 -0.1277
    7HTM    C3113762   4.907   1.697   8.612  0.1010 -0.2739 -0.5325
    7HTM    C3213763   4.808   1.701   8.518 -0.1692 -0.5401 -0.2625
    7HTM    C3313764   4.675   1.705   8.574 -0.0088 -0.3043  0.1097
    7HTM    C3413765   4.673   1.704   8.710  0.3836  0.1417  0.1238
    7HTM     S413766   4.840   1.698   8.779  0.5827  0.2996 -0.3357
    8TAL    C3513767   4.558   1.717   8.472  0.0376  0.2840  0.2091
    8TAL    C3613768   4.559   1.820   8.354 -0.7065  0.1522  0.3559
    8TAL    C3713769   4.581   1.968   8.356  0.0187  1.2258  0.5406
    8TAL    C3813770   4.564   2.014   8.216 -0.7635  0.7106  0.3900
    8TAL    C3913771   4.563   2.163   8.184 -1.0502  0.9804  0.1077
    8TAL    C4013772   4.616   2.201   8.045 -0.2423  0.3050  0.4393
    9HTM    C4113773   4.555   1.686   8.789  0.1658  0.5659  0.4485
    9HTM    C4213774   4.422   1.710   8.769  0.1373  0.5376  0.6058
    9HTM    C4313775   4.341   1.681   8.885  0.2558  0.3385  0.6416
    9HTM    C4413776   4.412   1.636   8.992  0.3744  0.2149  0.5119
    9HTM     S513777   4.588   1.625   8.955  0.3458  0.3414  0.3331
   10TAL    C4513778   4.196   1.678   8.854  0.2596  0.7148 -0.2422
   10TAL    C4613779   4.120   1.809   8.876 -0.5835  0.8973  0.0857
   10TAL    C4713780   3.975   1.815   8.849 -0.1972 -0.0639 -0.8386
   10TAL    C4813781   3.923   1.819   8.703  0.1026  0.8042 -0.4005
   10TAL    C4913782   3.936   1.678   8.644 -0.4735 -0.5886  0.4146
   10TAL    C5013783   3.855   1.685   8.510 -0.4477  0.4597 -0.2864
   11HTM    C5113784   4.383   1.596   9.128  0.1288 -0.4956  0.0014
   11HTM    C5213785   4.470   1.543   9.218 -0.0967 -1.5322 -0.3514
   11HTM    C5313786   4.411   1.515   9.346 -0.0830 -1.5432 -0.3476
   11HTM    C5413787   4.278   1.545   9.353  0.1531 -0.5149  0.0085
   11HTM     S613788   4.217   1.613   9.198  0.3780  0.5554  0.3690
   12TAL    C5513789   4.493   1.441   9.457  0.7043 -0.0093 -0.5342
   12TAL    C5613790   4.593   1.524   9.526 -0.1454  0.1365  0.1631
   12TAL    C5713791   4.677   1.454   9.626  0.6062 -0.1956 -1.0684
   12TAL    C5813792   4.804   1.526   9.685  0.1937 -0.6749 -0.0636
   12TAL    C5913793   4.847   1.454   9.812 -1.0392 -0.4701  0.5157
   12TAL    C6013794   4.799   1.509   9.942 -0.0891  0.1894 -0.8813
   13HTM    C6113795   4.180   1.531   9.453 -0.1235  0.3210 -0.0037
   13HTM    C6213796   4.046   1.539   9.430 -0.1378  0.5993  0.1650
   13HTM    C6313797   3.965   1.516   9.547 -0.0378  0.8098  0.2751
   13HTM    C6413798   4.038   1.491   9.660  0.0530  0.6920  0.1905
   13HTM     S713799   4.216   1.495   9.626  0.0189  0.3031 -0.0365
   14TAL    C6513800   3.813   1.508   9.545 -0.1986 -0.0021  0.5777
   14TAL    C6613801   3.750   1.399   9.462  0.0693 -0.9692 -0.2517
   14TAL    C6713802   3.598   1.402   9.480  0.6083 -0.1270 -0.4629
   14TAL    C6813803   3.524   1.321   9.381  0.7819  0.5218 -0.8562
   14TAL    C6913804   3.501   1.388   9.253  1.2603 -0.6511  0.7125
   14TAL    C7013805   3.593   1.371   9.140 -0.1918 -0.1091  0.9207
   15HTM    C7113806   4.014   1.453   9.797 -0.1345  0.1640 -0.1355
   15HTM    C7213807   4.106   1.447   9.898 -0.0684 -0.2326 -0.2136
   15HTM    C7313808   4.050   1.410  10.025  0.0474 -0.9191 -0.3557
   15HTM    C7413809   3.916   1.387  10.022  0.0698 -1.0460 -0.3856
   15HTM     S813810   3.849   1.411   9.856 -0.0548 -0.3024 -0.2362
   16TAL    C7513811   4.148   1.425  10.150  0.1298  0.1803  0.5131
   16TAL    C7613812   4.160   1.293  10.236  0.9007 -0.6740 -0.6467
   16TAL    C7713813   4.221   1.311  10.382  0.0380 -0.0043 -0.5289
   16TAL    C7813814   4.342   1.410  10.369 -0.0613 -0.9682 -0.6741
   16TAL    C7913815   4.414   1.463  10.500  0.0153  0.0633 -1.1001
   16TAL    C8013816   4.533   1.538  10.459 -0.3081 -0.2593  0.3875
   17HTM    C8113817   3.817   1.342  10.126  0.2173 -0.0110  0.1407
   17HTM    C8213818   3.720   1.246  10.117  0.2998 -0.1062  0.2587
   17HTM    C8313819   3.654   1.218  10.242  0.4583 -0.1501  0.3333
   17HTM    C8413820   3.700   1.292  10.346  0.4968 -0.0884  0.2726
   17HTM     S913821   3.832   1.405  10.295  0.3345  0.0309  0.1152
   18TAL    C8513822   3.545   1.119  10.242  0.6514  0.0454 -0.8263
   18TAL    C8613823   3.397   1.174  10.239 -0.7656  0.4119  0.3967
   18TAL    C8713824   3.303   1.059  10.204  0.0611 -0.5545  0.4570
   18TAL    C8813825   3.152   1.072  10.185 -0.7796  0.3926 -0.5140
   18TAL    C8913826   3.112   1.191  10.101 -0.2571 -0.6287  0.0487
   18TAL    C9013827   2.961   1.190  10.087 -0.5555  1.1278 -0.1332
   19HTM    C9113828   3.666   1.288  10.483  0.6041  0.0588 -0.0869
   19HTM    C9213829   3.717   1.374  10.576  1.2594 -0.3218 -0.0844
   19HTM    C9313830   3.679   1.342  10.711  1.2000 -0.1677 -0.0641
   19HTM    C9413831   3.599   1.232  10.721  0.4994  0.3304 -0.0511
   19HTM    S1013832   3.566   1.160  10.559 -0.1447  0.6459 -0.0636
   20TAL    C9513833   3.723   1.412  10.840  0.0884  0.0370 -0.2076
   20TAL    C9613834   3.860   1.367  10.900 -0.0693 -0.5616  0.6261
   20TAL    C9713835   3.986   1.366  10.807  0.8747  1.1277  0.1310
   20TAL    C9813836   4.096   1.255  10.816  0.1042 -0.4112  0.2341
   20TAL    C9913837   4.045   1.109  10.834 -0.2976 -0.6241  0.3669
   20TAL   C10013838   3.968   1.040  10.717 -0.2512  0.0591  0.6277
   21HTM   C10113839   3.529   1.176  10.837 -0.1684  0.2751 -0.3836
   21HTM   C10213840   3.565   1.072  10.918 -0.2359 -0.0343 -0.7460
   21HTM   C10313841   3.469   1.043  11.021 -0.1786 -0.2276 -0.7463
   21HTM   C10413842   3.360   1.125  11.019 -0.0674 -0.0657 -0.3838
   21HTM    S1113843   3.370   1.246  10.885 -0.0260  0.3467 -0.0115
   22TAL   C10513844   3.487   0.934  11.126 -0.0026  0.7523 -0.4353
   22TAL   C10613845   3.547   0.801  11.067 -0.0643  0.0723 -0.0965
   22TAL   C10713846   3.700   0.800  11.033  0.6650 -1.5103 -0.0808
   22TAL   C10813847   3.802   0.812  11.148 -0.2820  0.5149 -0.7740
   22TAL   C10913848   3.953   0.810  11.122  0.0743 -1.0135  0.2360
   22TAL   C11013849   4.041   0.779  11.246  0.3537  0.4157  0.6807
   23HTM   C11113850   3.241   1.124  11.094 -0.3196  0.2651 -0.0831
   23HTM   C11213851   3.115   1.117  11.040 -0.3701 -0.5174  0.1152
   23HTM   C11313852   3.010   1.129  11.138 -0.2965 -1.1473  0.2787
   23HTM   C11413853   3.055   1.145  11.266 -0.1901 -0.8450  0.2049
   23HTM    S1213854   3.236   1.146  11.272 -0.1742  0.2672 -0.0788
   24TAL   C11513855   2.875   1.094  11.096  1.0703 -0.2871  0.2535
   24TAL   C11613856   2.860   0.944  11.068 -0.6107 -0.2273 -0.2692
   24TAL   C11713857   2.732   0.885  11.012  0.3413  0.0292 -0.3527
   24TAL   C11813858   2.637   0.892  11.127  0.2972  0.7887  0.9886
   24TAL   C11913859   2.551   1.008  11.138  0.3144 -0.8096 -0.1066
   24TAL   C12013860   2.426   0.990  11.226  0.1226 -0.1468  0.1510
   25HTM   C12113861   2.992   1.172  11.395  0.6152 -0.2451  0.1020
   25HTM   C12213862   3.049   1.243  11.496  0.2482  0.1857  0.0181
   25HTM   C12313863   2.956   1.286  11.597 -0.1073  0.5494 -0.4544
   25HTM   C12413864   2.827   1.248  11.573 -0.0114  0.3959 -0.7306
   25HTM    S1313865   2.814   1.155  11.419  0.5395 -0.2247 -0.4133
   26TAL   C12513866   3.008   1.361  11.717 -0.1471 -0.3601 -0.0105
   26TAL   C12613867   3.030   1.516  11.708 -0.5919  0.8582  0.0931
   26TAL   C12713868   2.966   1.587  11.816 -0.0776 -0.0316 -0.2941
   26TAL   C12813869   2.998   1.541  11.958 -0.0605  0.4704  1.1881
   26TAL   C12913870   2.908   1.591  12.067 -0.7483  0.4009  0.4244
   26TAL   C13013871   2.959   1.518  12.193 -0.5617 -0.2020 -0.2523
   27HTM   C13113872   2.701   1.250  11.658  0.6336 -0.0583  0.2077
   27HTM   C13213873   2.574   1.219  11.617  0.7485 -0.0897 -0.1311
   27HTM   C13313874   2.473   1.249  11.715  0.4441  0.1721 -0.5183
   27HTM   C13413875   2.522   1.302  11.831  0.0970  0.4030 -0.4749
   27HTM    S1413876   2.701   1.320  11.824  0.1281  0.3072  0.0623
   28TAL   C13513877   2.339   1.212  11.683 -0.0533  0.6319  0.1175
   28TAL   C13613878   2.262   1.251  11.556 -0.7196  0.3663 -0.2881
   28TAL   C13713879   2.174   1.371  11.581  0.2226  0.0770 -0.1274
   28TAL   C13813880   2.228   1.499  11.527 -0.0777 -0.5255 -0.2444
   28TAL   C13913881   2.163   1.614  11.594 -0.2396 -0.1821  0.0522
   28TAL   C14013882   2.026   1.671  11.557 -0.4472 -0.0895 -0.3002
   29HTM   C14113883   2.469   1.370  11.946  0.2442  0.6278 -0.2151
   29HTM   C14213884   2.530   1.377  12.068 -0.1705 -0.0497  0.0420
   29HTM   C14313885   2.447   1.434  12.171 -0.6473 -0.9508  0.1757
   29HTM   C14413886   2.322   1.470  12.128 -0.5964 -0.9605  0.0206
   29HTM    S1513887   2.301   1.435  11.952  0.0631  0.1766 -0.3091
   30TAL   C14513888   2.503   1.467  12.311 -0.4301 -0.3346  0.3078
   30TAL   C14613889   2.598   1.371  12.389  0.6914  0.7884  0.6262
   30TAL   C14713890   2.637   1.424  12.525  0.6978  0.9508  0.1073
   30TAL   C14813891   2.723   1.334  12.601 -0.6121 -0.2252 -0.2373
   30TAL   C14913892   2.633   1.237  12.693 -0.3767 -0.7796 -0.0365
   30TAL   C15013893   2.725   1.108  12.705  0.1007 -0.1185  0.1836
   31HTM   C15113894   2.200   1.523  12.183  0.2430  0.0498 -0.3641
   31HTM   C15213895   2.181   1.640  12.250  0.2197  0.7671 -1.5681
   31HTM   C15313896   2.045   1.663  12.290  0.2149  1.1524 -1.8051
   31HTM   C15413897   1.959   1.564  12.253  0.2345  0.7288 -0.7821
   31HTM    S1613898   2.045   1.432  12.165  0.2607 -0.1968  0.5706
   32TAL   C15513899   2.008   1.763  12.402 -0.5145  0.6624  0.1837
   32TAL   C15613900   2.124   1.803  12.492  0.8067  0.5467 -0.1239
   32TAL   C15713901   2.140   1.960  12.511  0.1213 -0.3163 -0.3178
   32TAL   C15813902   2.017   2.006  12.583  0.0717  0.0625 -0.8063
   32TAL   C15913903   2.018   2.157  12.595  1.1318  1.4023  0.5678
   32TAL   C16013904   1.875   2.209  12.622 -0.8894  0.4154 -0.9049
   33HTM   C16113905   1.812   1.570  12.257  0.1473  0.2141  0.0609
   33HTM   C16213906   1.732   1.467  12.218  0.1788  0.2076  0.0131
   33HTM   C16313907   1.591   1.492  12.238  0.1717  0.1507  0.0353
   33HTM   C16413908   1.565   1.614  12.293  0.1350  0.1138  0.1003
   33HTM    S1713909   1.716   1.707  12.323  0.1061  0.1482  0.1384
   34TAL   C16513910   1.486   1.395  12.189  0.3578 -0.4017  0.0599
   34TAL   C16613911   1.503   1.248  12.248 -0.4185 -0.2515 -0.6704
   34TAL   C16713912   1.405   1.188  12.342 -0.4356 -0.7814  0.1743
   34TAL   C16813913   1.414   1.255  12.487  0.3881 -0.0540 -0.1394
   34TAL   C16913914   1.265   1.266  12.548 -0.1574 -0.8526  0.8917
   34TAL   C17013915   1.257   1.332  12.682 -0.8717 -0.3094 -0.3054
   35HTM   C17113916   1.440   1.685  12.329  0.1709  0.0208  0.7210
   35HTM   C17213917   1.420   1.819  12.344  0.3446 -0.0159  1.3456
   35HTM   C17313918   1.283   1.854  12.370  0.3605  0.0512  1.3397
   35HTM   C17413919   1.199   1.746  12.375  0.1989  0.1391  0.7102
   35HTM    S1813920   1.287   1.592  12.347  0.0128  0.1440  0.0717
   36TAL   C17513921   1.242   2.000  12.400 -0.7558 -0.3965 -1.4315
   36TAL   C17613922   1.248   2.028  12.553  0.5113 -0.1662  0.1784
   36TAL   C17713923   1.241   2.167  12.588 -0.3982 -1.0437 -0.6424
   36TAL   C17813924   1.188   2.208  12.727 -0.2344 -0.1053  0.3912
   36TAL   C17913925   1.038   2.196  12.732 -0.2879  0.3318  0.1341
   36TAL   C18013926   0.999   2.251  12.873 -0.0486 -0.3766  0.2461
   37HTM   C18113927   1.058   1.732  12.407  0.4434 -0.0009 -0.0703
   37HTM   C18213928   0.976   1.816  12.478  0.8803  0.0956  0.3307
   37HTM   C18313929   0.840   1.768  12.489  0.7630  0.4812  0.5887
   37HTM   C18413930   0.819   1.649  12.426  0.2367  0.6786  0.3839
   37HTM    S1913931   0.969   1.587  12.348 -0.1547  0.3907 -0.1542
   38TAL   C18513932   0.745   1.838  12.580  0.0879  0.4921 -0.8224
   38TAL   C18613933   0.784   1.881  12.715 -0.7314 -0.7765 -0.6180
   38TAL   C18713934   0.798   1.789  12.835  0.0614  0.0787  0.2583
   38TAL   C18813935   0.905   1.685  12.821 -0.6258  0.6811  0.5281
   38TAL   C18913936   0.979   1.670  12.951  0.1452  0.2728 -0.5279
   38TAL   C19013937   1.075   1.547  12.942  0.8065 -0.5879  0.5590
   39HTM   C19113938   0.712   1.550  12.430 -0.1998  0.6036  0.4554
   39HTM   C19213939   0.635   1.502  12.328  0.2133  0.3167  0.2737
   39HTM   C19313940   0.543   1.399  12.368  0.6738 -0.2114  0.0050
   39HTM   C19413941   0.550   1.368  12.501  0.6119 -0.3272 -0.0183
   39HTM    S2013942   0.674   1.468  12.586 -0.0380  0.2260  0.2998
   40TAL   C19513943   0.450   1.337  12.264 -0.3288 -0.3757  0.8346
   40TAL   C19613944   0.445   1.397  12.118  0.1915  0.0749 -0.0332
   40TAL   C19713945   0.343   1.335  12.015  0.2052  0.3122 -0.1399
   40TAL   C19813946   0.335   1.184  12.017  0.7595  0.8304 -0.2811
   40TAL   C19913947   0.257   1.130  11.895  0.3659 -0.0346 -0.1322
   40TAL   C20013948   0.275   0.988  11.831  0.2798  0.0998 -0.1342
   41HTM   C20113949   0.467   1.277  12.576  0.1778  0.3663 -0.0930
   41HTM   C20213950   0.412   1.163  12.524  0.3659  0.4121 -0.3929
   41HTM   C20313951   0.341   1.083  12.620  0.1570  0.2417 -0.6850
   41HTM   C20413952   0.342   1.136  12.746 -0.1903  0.0661 -0.6079
   41HTM    S2113953   0.433   1.291  12.753 -0.2813  0.1025 -0.1571
   42TAL   C20513954   0.307   0.944  12.586  1.1291 -0.1019 -0.0381
   42TAL   C20613955   0.165   0.913  12.557  1.0571  0.3455 -0.7470
   42TAL   C20713956   0.123   0.757  12.576 -0.7342 -0.7562  0.3003
   42TAL   C20813957  -0.015   0.721  12.541  0.3327 -0.1039  0.4364
   42TAL   C20913958  -0.058   0.590  12.587  0.4098  0.0954 -0.9084
   42TAL   C21013959  -0.171   0.540  12.486  0.2893 -0.6960  0.1360
   43HTM   C21113960   0.275   1.071  12.859 -0.3929  0.3223  0.1147
   43HTM   C21213961   0.155   1.007  12.872 -0.9322  1.3589  0.4370
   43HTM   C21313962   0.130   0.959  13.005 -0.8686  1.3465  0.4451
   43HTM   C21413963   0.230   0.985  13.093 -0.2809  0.3005  0.1287
   43HTM    S2213964   0.366   1.074  13.015  0.2419 -0.7583 -0.2066
   44TAL   C21513965  -0.012   0.893  13.040 -0.8705 -0.8264  0.0610
   44TAL   C21613966  -0.078   0.779  12.962 -1.1021 -0.4900 -0.2600
   44TAL   C21713967  -0.028   0.638  12.960 -0.5843  1.2743  0.5712
   44TAL   C21813968  -0.049   0.561  13.085  0.7468 -0.0323 -0.1845
   44TAL   C21913969   0.030   0.439  13.089  0.0078  0.5569  0.1116
   44TAL   C22013970   0.042   0.382  13.228  0.4037 -0.2718  0.6745
   45HTM   C22113971   0.253   0.942  13.235  0.3269 -0.3685 -0.3603
   45HTM   C22213972   0.208   0.831  13.300  0.2069 -0.2636 -0.2630
   45HTM   C22313973   0.268   0.812  13.430 -0.2042  0.0726 -0.0193
   45HTM   C22413974   0.358   0.909  13.463 -0.3975  0.2240  0.0699
   45HTM    S2313975   0.375   1.032  13.333 -0.0730 -0.0484 -0.1493
   46TAL   C22513976   0.226   0.701  13.525  0.3493  0.5111  0.0819
   46TAL   C22613977   0.084   0.685  13.570  0.7157  0.2960 -0.2747
   46TAL   C22713978   0.046   0.649  13.718  0.0544 -1.0829  0.7945
   46TAL   C22813979   0.068   0.755  13.824 -1.2586  1.4271 -0.9450
   46TAL   C22913980   0.009   0.726  13.974 -0.3476  0.5748  0.4319
   46TAL   C23013981  -0.132   0.777  13.980  0.5739 -0.0585 -0.6318
   47HTM   C23113982   0.446   0.928  13.580 -0.2557 -0.1020 -0.0442
   47HTM   C23213983   0.520   1.040  13.603 -0.3911 -0.0901  0.3448
   47HTM   C23313984   0.608   1.029  13.717 -0.6208 -0.2571  0.5076
   47HTM   C23413985   0.600   0.909  13.781 -0.6605 -0.3963  0.2426
   47HTM    S2413986   0.482   0.799  13.701 -0.4090 -0.3268 -0.2364
   48TAL   C23513987   0.691   1.145  13.765 -0.6134  0.0818  0.0090
   48TAL   C23613988   0.770   1.152  13.907  0.7659  0.0302  0.4190
   48TAL   C23713989   0.909   1.097  13.916 -0.6506 -0.2173  0.1330
   48TAL   C23813990   1.003   1.154  13.807  0.3731  0.2930  0.0606
   48TAL   C23913991   1.122   1.076  13.766  0.7042  0.7237  0.1469
   48TAL   C24013992   1.199   1.142  13.662  0.0803  0.0576 -0.0298
    1HTM     C113993   5.885   7.217   7.308 -0.2532 -0.2255 -0.0768
    1HTM     C213994   5.754   7.188   7.332 -0.3104 -0.2196 -0.3723
    1HTM     C313995   5.732   7.055   7.383 -0.4256 -0.2012 -0.3732
    1HTM     C413996   5.847   6.983   7.397 -0.4562 -0.1936 -0.0783
    1HTM     S113997   5.992   7.077   7.347 -0.3410 -0.2088  0.2258
    2TAL     C513998   5.600   7.009   7.420  0.7474  0.3396 -0.1001
    2TAL     C613999   5.510   7.078   7.515  0.8070 -1.0896 -0.9969
    2TAL     C714000   5.365   7.053   7.452 -0.1673 -0.2645 -0.3382
    2TAL     C814001   5.253   7.132   7.522 -0.1785  0.0674 -0.2381
    2TAL     C914002   5.219   7.096   7.670 -1.1346  0.3969  0.0830
    2TAL    C1014003   5.162   7.209   7.743  0.2410 -0.2014 -0.2374
    3HTM    C1114004   5.870   6.843   7.419  0.6515 -0.4442 -0.7590
    3HTM    C1214005   5.919   6.757   7.325  0.4134 -0.9350 -0.4442
    3HTM    C1314006   5.919   6.619   7.367 -0.0823 -0.8001  0.0242
    3HTM    C1414007   5.869   6.600   7.493 -0.2222 -0.2062  0.0667
    3HTM     S214008   5.819   6.756   7.569  0.2649  0.2319 -0.4860
    4TAL    C1514009   5.968   6.528   7.269 -0.1879 -0.4237  0.0798
    4TAL    C1614010   6.121   6.548   7.259 -0.5581  0.2410 -0.1011
    4TAL    C1714011   6.177   6.446   7.155  0.2030 -0.3196  0.4669
    4TAL    C1814012   6.321   6.479   7.097  0.5319  0.6043  0.4574
    4TAL    C1914013   6.359   6.374   6.994 -0.2420  0.1075  0.0301
    4TAL    C2014014   6.495   6.400   6.928  0.0145 -0.2821  0.5129
    5HTM    C2114015   5.833   6.479   7.556  0.1367  0.2639 -0.5536
    5HTM    C2214016   5.803   6.475   7.689 -0.0114  0.4084 -0.5820
    5HTM    C2314017   5.804   6.342   7.744  0.1124  0.4865 -0.3946
    5HTM    C2414018   5.835   6.245   7.653  0.3548  0.4018 -0.2234
    5HTM     S314019   5.865   6.314   7.490  0.4464  0.2153 -0.2861
    6TAL    C2514020   5.801   6.308   7.888 -0.1599 -0.1771 -0.9484
    6TAL    C2614021   5.885   6.415   7.970 -0.6551  0.5894  0.1151
    6TAL    C2714022   5.883   6.384   8.118 -1.3030 -0.4422 -0.2731
    6TAL    C2814023   5.771   6.421   8.219 -0.0759  0.5116  0.0257
    6TAL    C2914024   5.729   6.566   8.202 -0.0159  0.0725  0.1408
    6TAL    C3014025   5.667   6.632   8.325 -0.1139  0.5587 -0.2676
    7HTM    C3114026   5.858   6.099   7.675  0.0200  0.0345  0.0744
    7HTM    C3214027   5.963   6.018   7.644 -0.2018 -0.1895 -0.1005
    7HTM    C3314028   5.942   5.880   7.678 -0.4592 -0.1539 -0.1124
    7HTM    C3414029   5.821   5.855   7.735 -0.4335  0.0974  0.0533
    7HTM     S414030   5.723   6.006   7.751 -0.0793  0.3100  0.2386
    8TAL    C3514031   6.050   5.776   7.650 -0.9295  0.1736 -0.1688
    8TAL    C3614032   6.188   5.804   7.712  0.4518 -0.0722  0.2285
    8TAL    C3714033   6.284   5.689   7.685 -0.6601 -0.5145 -0.7812
    8TAL    C3814034   6.237   5.557   7.736 -0.9566  0.1540 -0.1677
    8TAL    C3914035   6.312   5.527   7.870  0.8963 -0.6764  0.0176
    8TAL    C4014036   6.259   5.611   7.986 -0.0687  0.1302  0.6964
    9HTM    C4114037   5.761   5.727   7.787  0.0825  0.0593  0.3862
    9HTM    C4214038   5.687   5.636   7.717 -0.0583  0.2844  0.2403
    9HTM    C4314039   5.647   5.521   7.795 -0.2124  0.2067  0.0499
    9HTM    C4414040   5.692   5.525   7.924 -0.1892 -0.0772  0.0510
    9HTM     S514041   5.787   5.674   7.957  0.0309 -0.2705  0.2941
   10TAL    C4514042   5.570   5.400   7.744  0.3142 -0.0949  0.2526
   10TAL    C4614043   5.426   5.432   7.703 -0.4801 -1.1752  0.0054
   10TAL    C4714044   5.365   5.314   7.629  0.4281  1.0764 -0.9070
   10TAL    C4814045   5.226   5.324   7.553  0.4421 -1.1302  0.6118
   10TAL    C4914046   5.258   5.358   7.399  0.0585 -0.3187 -0.4883
   10TAL    C5014047   5.142   5.335   7.308 -0.0456 -0.1930 -0.3548
   11HTM    C5114048   5.687   5.420   8.033  0.5521 -0.3028 -0.3081
   11HTM    C5214049   5.599   5.317   8.045  0.8806 -0.6685 -0.8953
   11HTM    C5314050   5.630   5.227   8.153  0.7254 -0.7209 -0.8938
   11HTM    C5414051   5.743   5.260   8.222  0.2787 -0.3950 -0.3052
   11HTM     S614052   5.818   5.410   8.156  0.0173  0.0066  0.2968
   12TAL    C5514053   5.536   5.115   8.186  0.6220  0.6867 -0.3195
   12TAL    C5614054   5.395   5.161   8.239 -0.1741  0.6418  0.0900
   12TAL    C5714055   5.300   5.043   8.252 -0.1608  0.5204 -0.5317
   12TAL    C5814056   5.332   4.952   8.372 -0.2146  1.1548  0.1245
   12TAL    C5914057   5.226   4.847   8.395 -0.0675 -1.2035 -0.8577
   12TAL    C6014058   5.281   4.729   8.485 -0.4577  0.2187  0.6114
   13HTM    C6114059   5.807   5.197   8.340  0.2914  0.0515 -0.6309
   13HTM    C6214060   5.768   5.115   8.442  0.1090 -0.5621 -1.1871
   13HTM    C6314061   5.870   5.091   8.540 -0.1550 -0.9183 -0.9947
   13HTM    C6414062   5.988   5.155   8.514 -0.1738 -0.5760 -0.2925
   13HTM     S714063   5.978   5.251   8.362  0.1430  0.2289  0.1847
   14TAL    C6514064   5.841   5.010   8.667  0.1477 -0.5534 -0.4360
   14TAL    C6614065   5.749   5.086   8.761  0.2743 -0.0619 -0.4678
   14TAL    C6714066   5.695   4.982   8.859  0.1607  0.4814 -0.0510
   14TAL    C6814067   5.723   5.024   9.007  0.1143  0.1418 -0.3255
   14TAL    C6914068   5.618   4.946   9.087  0.6942  0.5473  0.4049
   14TAL    C7014069   5.664   4.946   9.230  0.2564 -0.0904 -0.1876
   15HTM    C7114070   6.114   5.155   8.590 -0.2882  0.1987 -0.2712
   15HTM    C7214071   6.237   5.148   8.532 -0.4843 -0.0845 -0.6604
   15HTM    C7314072   6.342   5.112   8.623 -0.2193  0.0446 -0.9124
   15HTM    C7414073   6.300   5.093   8.751  0.1785  0.4262 -0.7160
   15HTM     S814074   6.122   5.117   8.766  0.2505  0.6536 -0.1929
   16TAL    C7514075   6.486   5.119   8.587 -0.4538  0.4601  0.6306
   16TAL    C7614076   6.545   5.242   8.506  0.0851 -0.9380  0.0730
   16TAL    C7714077   6.533   5.375   8.582 -0.9141 -0.1651  0.1770
   16TAL    C7814078   6.579   5.489   8.501 -0.1087 -1.1113 -0.0578
   16TAL    C7914079   6.454   5.561   8.443  0.1066 -0.0531 -0.6304
   16TAL    C8014080   6.479   5.685   8.363 -1.1753  0.1164 -0.7667
   17HTM    C8114081   6.367   5.055   8.870 -0.2667 -0.1323  0.0665
   17HTM    C8214082   6.398   5.129   8.980 -0.1467  0.0618 -0.0963
   17HTM    C8314083   6.488   5.063   9.071 -0.1141  0.1874 -0.0365
   17HTM    C8414084   6.526   4.938   9.030 -0.2091  0.0892  0.1715
   17HTM     S914085   6.450   4.894   8.873 -0.3484 -0.1719  0.3096
   18TAL    C8514086   6.546   5.151   9.178 -0.4616  0.5883  0.0845
   18TAL    C8614087   6.464   5.167   9.302 -0.1904 -0.6406  0.3856
   18TAL    C8714088   6.511   5.281   9.390 -0.1203  0.4578  0.1775
   18TAL    C8814089   6.432   5.269   9.518  0.2856  0.1179 -0.0378
   18TAL    C8914090   6.410   5.406   9.583 -0.2914 -0.6079 -0.0604
   18TAL    C9014091   6.316   5.412   9.701 -0.0376 -0.6345  0.7955
   19HTM    C9114092   6.604   4.840   9.089 -0.3712  0.0915 -0.1056
   19HTM    C9214093   6.703   4.855   9.182 -0.3704  0.0385 -0.0975
   19HTM    C9314094   6.765   4.732   9.222 -0.2459  0.0333 -0.3035
   19HTM    C9414095   6.713   4.622   9.160 -0.1519  0.0822 -0.4688
   19HTM    S1014096   6.582   4.666   9.045 -0.2136  0.1392 -0.3764
   20TAL    C9514097   6.866   4.723   9.336 -0.7639  0.4794  0.0745
   20TAL    C9614098   6.997   4.810   9.359 -0.2804 -1.1347  0.3529
   20TAL    C9714099   7.125   4.787   9.272  0.7987  0.9781 -1.2085
   20TAL    C9814100   7.123   4.818   9.129 -0.9151 -0.2218 -1.0718
   20TAL    C9914101   7.262   4.789   9.072  0.0007 -0.1248 -1.1830
   20TAL   C10014102   7.292   4.877   8.947  0.8934 -0.4183  0.0887
   21HTM   C10114103   6.730   4.478   9.184 -0.3525  0.1606 -0.5005
   21HTM   C10214104   6.617   4.401   9.186 -0.4356  0.2894 -0.0405
   21HTM   C10314105   6.637   4.271   9.244 -0.4554  0.4209  0.2701
   21HTM   C10414106   6.765   4.248   9.285 -0.3874  0.3922  0.0469
   21HTM    S1114107   6.871   4.392   9.255 -0.2921  0.1957 -0.5780
   22TAL   C10514108   6.520   4.177   9.280  0.0753  0.5426  0.3637
   22TAL   C10614109   6.373   4.223   9.261  0.3646  0.1629  0.8224
   22TAL   C10714110   6.322   4.361   9.316 -0.0171 -0.3122  0.2337
   22TAL   C10814111   6.285   4.375   9.461  0.2044  0.4247  0.8143
   22TAL   C10914112   6.197   4.498   9.494 -0.3893 -0.8467 -0.2712
   22TAL   C11014113   6.102   4.484   9.612 -0.9869 -0.4392 -0.8819
   23HTM   C11114114   6.825   4.123   9.334 -0.0581 -0.0495  0.4846
   23HTM   C11214115   6.925   4.121   9.427 -0.1667 -0.3746  0.5968
   23HTM   C11314116   6.991   3.994   9.438 -0.1906 -0.4197  0.2377
   23HTM   C11414117   6.942   3.899   9.353 -0.1005 -0.1289 -0.1483
   23HTM    S1214118   6.807   3.963   9.253  0.0227  0.2272 -0.0877
   24TAL   C11514119   7.116   3.993   9.514  0.6402 -0.2531  0.1233
   24TAL   C11614120   7.112   3.933   9.655  0.0422  0.1958  0.1580
   24TAL   C11714121   7.242   3.927   9.735 -0.5925 -0.1211  0.2767
   24TAL   C11814122   7.379   3.944   9.658  0.2331 -1.4116  0.2754
   24TAL   C11914123   7.422   3.843   9.556 -0.0761 -0.5395  0.7284
   24TAL   C12014124   7.484   3.713   9.609  0.3854 -0.2862 -0.4802
   25HTM   C12114125   6.962   3.759   9.390  0.1731 -0.1433 -0.5606
   25HTM   C12214126   7.061   3.672   9.354  0.0453 -0.3456 -0.4349
   25HTM   C12314127   7.037   3.536   9.392 -0.0116 -0.2036  0.0422
   25HTM   C12414128   6.919   3.518   9.459  0.0731  0.1069  0.2799
   25HTM    S1314129   6.829   3.673   9.478  0.2322  0.2451 -0.0831
   26TAL   C12514130   7.141   3.418   9.369 -0.4995  0.0368 -0.2981
   26TAL   C12614131   7.285   3.445   9.322 -0.7878  0.5318 -0.7708
   26TAL   C12714132   7.326   3.378   9.188 -0.0558 -0.0844 -0.0607
   26TAL   C12814133   7.296   3.226   9.182  0.0019  0.7773  1.4326
   26TAL   C12914134   7.302   3.170   9.034  0.5703 -0.0926 -1.1407
   26TAL   C13014135   7.271   3.023   9.012 -0.1574  0.6004  0.1180
   27HTM   C13114136   6.854   3.389   9.492  0.5210 -0.1161 -0.0565
   27HTM   C13214137   6.721   3.374   9.514  0.4170  0.0314 -0.5672
   27HTM   C13314138   6.686   3.250   9.577  0.0215  0.0046 -0.8330
   27HTM   C13414139   6.793   3.169   9.603 -0.1761 -0.1631 -0.5251
   27HTM    S1414140   6.947   3.246   9.550  0.1244 -0.3015  0.1296
   28TAL   C13514141   6.542   3.236   9.640  0.2752  0.6403 -0.1914
   28TAL   C13614142   6.421   3.340   9.638 -0.4981  0.7015  0.2482
   28TAL   C13714143   6.466   3.484   9.687  0.2200  0.4701 -0.3565
   28TAL   C13814144   6.372   3.523   9.801 -0.4062 -0.1398  0.2406
   28TAL   C13914145   6.410   3.471   9.941  0.7303 -0.5112  0.3960
   28TAL   C14014146   6.432   3.335   9.972 -0.1456  0.3884  0.0205
   29HTM   C14114147   6.802   3.032   9.658  0.2960  0.0837  0.4036
   29HTM   C14214148   6.910   2.982   9.726  0.4489 -0.1131  0.0217
   29HTM   C14314149   6.899   2.842   9.757  0.4202 -0.1531 -0.1664
   29HTM   C14414150   6.784   2.785   9.713  0.2455  0.0130  0.0724
   29HTM    S1514151   6.678   2.904   9.629  0.1025  0.2348  0.5571
   30TAL   C14514152   7.003   2.770   9.839 -0.5825  0.3648 -0.5982
   30TAL   C14614153   7.076   2.852   9.934 -0.4793  0.5049 -0.7810
   30TAL   C14714154   7.163   2.799  10.046 -0.9468 -0.1475 -0.5229
   30TAL   C14814155   7.107   2.713  10.150  0.3681 -0.2259 -0.2691
   30TAL   C14914156   7.221   2.668  10.244  0.8531  0.4118 -0.8979
   30TAL   C15014157   7.170   2.575  10.356  0.9404  0.8136  1.0791
   31HTM   C15114158   6.730   2.651   9.707  0.2349 -0.1309 -0.5110
   31HTM   C15214159   6.637   2.606   9.619  0.1588 -0.3048 -0.3421
   31HTM   C15314160   6.614   2.464   9.626  0.0771 -0.2747  0.0396
   31HTM   C15414161   6.691   2.401   9.720  0.0909 -0.0777  0.1619
   31HTM    S1614162   6.798   2.517   9.807  0.2093  0.0861 -0.1984
   32TAL   C15514163   6.507   2.397   9.534  0.8664  0.2431  0.0287
   32TAL   C15614164   6.571   2.335   9.403  1.0766 -0.5937  0.8056
   32TAL   C15714165   6.506   2.380   9.267  0.4922 -0.5291 -0.2437
   32TAL   C15814166   6.599   2.368   9.144  0.9286 -1.0051 -0.7329
   32TAL   C15914167   6.736   2.433   9.149 -0.7466  0.3685 -0.0198
   32TAL   C16014168   6.789   2.459   9.002  0.0860  1.0738 -0.4632
   33HTM   C16114169   6.715   2.266   9.762  0.4423  0.4503  0.0927
   33HTM   C16214170   6.687   2.156   9.686  0.4460  0.6161 -0.1497
   33HTM   C16314171   6.739   2.033   9.740  0.2056  0.4581 -0.2737
   33HTM   C16414172   6.806   2.049   9.858  0.0187  0.1720 -0.1259
   33HTM    S1714173   6.809   2.222   9.910  0.1326  0.0791  0.1835
   34TAL   C16514174   6.725   1.898   9.662 -0.0779 -0.5711  0.0519
   34TAL   C16614175   6.588   1.836   9.636  0.2000 -0.6457  0.2899
   34TAL   C16714176   6.511   1.920   9.530 -0.0996  0.5244  0.7972
   34TAL   C16814177   6.389   1.869   9.455  0.6662  0.8578 -0.4607
   34TAL   C16914178   6.327   1.948   9.340  0.3927  0.0953 -0.0802
   34TAL   C17014179   6.295   2.087   9.383  0.3214  0.0750  1.0087
   35HTM   C17114180   6.867   1.948   9.945  0.3485 -0.0526 -0.1964
   35HTM   C17214181   6.960   1.981  10.040  0.9115 -0.2508 -0.6621
   35HTM   C17314182   6.992   1.873  10.129  0.8942 -0.2294 -0.6297
   35HTM   C17414183   6.924   1.758  10.103  0.3181 -0.0149 -0.1401
   35HTM    S1814184   6.814   1.777   9.962 -0.2517  0.1782  0.3225
   36TAL   C17514185   7.086   1.896  10.248 -0.1575  0.3254  0.3176
   36TAL   C17614186   7.230   1.954  10.209  0.4601 -0.0762 -0.6565
   36TAL   C17714187   7.327   1.963  10.331 -0.1933 -0.3646 -0.1852
   36TAL   C17814188   7.398   2.100  10.358 -0.0815  0.1964  0.1433
   36TAL   C17914189   7.339   2.187  10.465 -0.1182 -0.3822 -1.2554
   36TAL   C18014190   7.442   2.288  10.516  0.0791 -0.0366 -0.1564
   37HTM   C18114191   6.918   1.628  10.174 -0.8267  0.1621 -0.0975
   37HTM   C18214192   6.804   1.555  10.192 -0.4624 -0.4438 -0.1996
   37HTM   C18314193   6.824   1.436  10.271  0.1812 -0.5729 -0.5417
   37HTM   C18414194   6.952   1.418  10.313  0.3076 -0.0655 -0.7009
   37HTM    S1914195   7.059   1.552  10.256 -0.3818  0.6202 -0.4284
   38TAL   C18514196   6.709   1.327  10.288 -0.7119 -1.0839 -0.2488
   38TAL   C18614197   6.593   1.312  10.186  0.2168 -0.1182  0.2606
   38TAL   C18714198   6.465   1.404  10.186 -1.4312  0.4608  0.0245
   38TAL   C18814199   6.386   1.432  10.311  0.3486 -0.4972 -0.4333
   38TAL   C18914200   6.342   1.303  10.389  1.1883 -0.3298  0.7655
   38TAL   C19014201   6.293   1.170  10.325 -0.4280 -0.0669 -0.1988
   39HTM   C19114202   7.014   1.321  10.405  0.4411 -0.0390  0.5588
   39HTM   C19214203   7.148   1.299  10.416  0.3393 -0.5032  0.9451
   39HTM   C19314204   7.182   1.193  10.508 -0.3023 -0.8286  0.8233
   39HTM   C19414205   7.074   1.135  10.567 -0.6894 -0.6126  0.3440
   39HTM    S2014206   6.920   1.209  10.511 -0.2708  0.0236  0.0068
   40TAL   C19514207   7.331   1.150  10.527  0.4019  0.0202 -1.0673
   40TAL   C19614208   7.455   1.240  10.516  0.8731 -1.0587  1.0233
   40TAL   C19714209   7.569   1.165  10.587  0.0503 -0.1002 -0.8415
   40TAL   C19814210   7.711   1.211  10.567  0.9810 -0.4398  0.2665
   40TAL   C19914211   7.753   1.196  10.414  0.2567 -0.5748  0.3176
   40TAL   C20014212   7.882   1.257  10.359  0.3372 -0.3820  0.4689
   41HTM   C20114213   7.055   1.034  10.673  0.0154 -0.4195  1.2477
   41HTM   C20214214   7.092   1.034  10.805 -0.4047 -0.8514  1.3709
   41HTM   C20314215   7.053   0.915  10.876 -0.3190 -1.2503  0.7670
   41HTM   C20414216   6.987   0.824  10.799  0.1664 -1.1225  0.1826
   41HTM    S2114217   6.968   0.882  10.629  0.5560 -0.4835  0.3517
   42TAL   C20514218   7.079   0.898  11.023 -0.3930 -0.2539  0.2300
   42TAL   C20614219   7.052   1.013  11.118 -0.3648  0.0309  0.2756
   42TAL   C20714220   6.911   1.058  11.138  1.4593  0.1769 -0.4841
   42TAL   C20814221   6.890   1.182  11.227 -0.0946  0.2015 -0.1301
   42TAL   C20914222   6.924   1.176  11.379 -0.5419 -0.2036  0.2798
   42TAL   C21014223   6.918   1.310  11.443  0.4113 -0.0231 -0.2356
   43HTM   C21114224   6.941   0.693  10.824  0.3276 -0.8152  0.0568
   43HTM   C21214225   7.005   0.574  10.807 -0.1682 -1.1169  0.2520
   43HTM   C21314226   6.935   0.461  10.863 -0.6360 -0.7329  0.4487
   43HTM   C21414227   6.817   0.495  10.923 -0.4966 -0.1384  0.4037
   43HTM    S2214228   6.785   0.672  10.913  0.2418 -0.0165  0.1072
   44TAL   C21514229   6.977   0.330  10.846 -0.2137  0.9807  0.4244
   44TAL   C21614230   7.113   0.280  10.887  0.1706  0.3175  0.5697
   44TAL   C21714231   7.111   0.129  10.845  0.6496  0.1638 -0.2294
   44TAL   C21814232   7.240   0.065  10.810 -0.5058  0.1254 -0.1378
   44TAL   C21914233   7.223  -0.086  10.807 -0.5928 -0.6272  0.4245
   44TAL   C22014234   7.357  -0.163  10.779  0.0102  0.3468 -0.0381
   45HTM   C22114235   6.715   0.430  10.999 -0.0585 -0.0745  0.0761
   45HTM   C22214236   6.662   0.305  10.983 -0.5306  0.1257  0.0534
   45HTM   C22314237   6.561   0.273  11.081 -0.5916  0.4555  0.1018
   45HTM   C22414238   6.537   0.373  11.170 -0.1659  0.5068  0.1617
   45HTM    S2314239   6.641   0.517  11.138  0.3490  0.1397  0.1614
   46TAL   C22514240   6.496   0.136  11.061 -0.3828  0.1129 -0.3082
   46TAL   C22614241   6.565  -0.003  11.021 -0.0677 -0.7535  0.5659
   46TAL   C22714242   6.473  -0.115  10.986 -0.8187  0.3347  0.5699
   46TAL   C22814243   6.440  -0.207  11.107 -0.1325 -1.0417 -0.2904
   46TAL   C22914244   6.319  -0.307  11.089 -0.6700 -0.3881  0.7864
   46TAL   C23014245   6.191  -0.248  11.045  0.9347  0.7926 -0.2785
   47HTM   C23114246   6.460   0.376  11.281  0.8118 -0.5748 -0.2639
   47HTM   C23214247   6.326   0.390  11.298  0.8099 -0.0856 -0.6344
   47HTM   C23314248   6.284   0.385  11.436  0.4430  0.3805 -0.7248
   47HTM   C23414249   6.386   0.367  11.524  0.1652  0.2466 -0.4230
   47HTM    S2414250   6.545   0.355  11.439  0.3469 -0.4841  0.0016
   48TAL   C23514251   6.131   0.392  11.470 -0.8192  0.0965 -0.0203
   48TAL   C23614252   6.102   0.508  11.572  0.3083  0.4630  0.2927
   48TAL   C23714253   5.958   0.531  11.621  0.2751  0.1479  0.3104
   48TAL   C23814254   5.909   0.414  11.701 -0.7238  0.3690 -0.7287
   48TAL   C23914255   5.767   0.391  11.743  0.4498  0.0518  0.5446
   48TAL   C24014256   5.686   0.520  11.787 -0.6490 -0.7332  0.1962
    1HTM     C114257   4.110   3.045  25.793  0.4334  0.1697 -0.8771
    1HTM     C214258   3.975   3.059  25.788  0.4476  0.1386 -1.6603
    1HTM     C314259   3.929   3.191  25.825  0.1755 -0.0390 -1.3590
    1HTM     C414260   4.030   3.276  25.858 -0.0465 -0.1432 -0.3449
    1HTM     S114261   4.191   3.198  25.845  0.0721 -0.0244  0.3114
    2TAL     C514262   3.780   3.210  25.833 -0.6114 -0.1215  0.9624
    2TAL     C614263   3.694   3.182  25.953  0.6031 -0.0377  0.0961
    2TAL     C714264   3.668   3.038  26.009  0.0534  0.5200  0.2711
    2TAL     C814265   3.609   2.941  25.917 -0.3349 -0.2288  0.7247
    2TAL     C914266   3.539   2.826  25.974  0.6554  1.3994  0.2458
    2TAL    C1014267   3.525   2.721  25.867  0.0581 -0.2494 -0.1533
    3HTM    C1114268   4.023   3.411  25.899 -0.3273 -0.5046  0.4753
    3HTM    C1214269   4.082   3.518  25.838  0.0631 -0.8388  0.2494
    3HTM    C1314270   4.071   3.641  25.914  0.3157 -0.5940 -0.1054
    3HTM    C1414271   4.004   3.627  26.032  0.1179 -0.0730 -0.1495
    3HTM     S214272   3.950   3.456  26.058 -0.4068  0.1505  0.2565
    4TAL    C1514273   4.141   3.769  25.881  0.5388  0.1926  0.5276
    4TAL    C1614274   4.290   3.768  25.845  0.6985 -0.9892  0.4386
    4TAL    C1714275   4.320   3.814  25.692 -0.1273 -0.3504 -0.7845
    4TAL    C1814276   4.308   3.969  25.675  0.0061  0.0990  0.4408
    4TAL    C1914277   4.437   4.040  25.715 -0.7222 -0.0881 -0.4391
    4TAL    C2014278   4.430   4.181  25.666  0.6115 -0.0010  0.0087
    5HTM    C2114279   3.964   3.733  26.121 -0.2994 -0.2537 -0.1039
    5HTM    C2214280   3.896   3.845  26.085 -0.6448 -0.4985 -0.2251
    5HTM    C2314281   3.838   3.916  26.197 -0.6689 -0.4334 -0.2789
    5HTM    C2414282   3.863   3.857  26.318 -0.3419 -0.1388 -0.1980
    5HTM     S314283   3.961   3.707  26.299  0.0248  0.0808 -0.0468
    6TAL    C2514284   3.746   4.036  26.174  0.5942  0.7962 -0.7172
    6TAL    C2614285   3.807   4.172  26.161 -0.0588  0.7157 -0.0726
    6TAL    C2714286   3.711   4.281  26.111  0.3191 -0.8585 -0.1302
    6TAL    C2814287   3.641   4.351  26.229  0.0272  0.3709  0.0459
    6TAL    C2914288   3.512   4.423  26.185  0.6607  0.0025  0.3573
    6TAL    C3014289   3.422   4.495  26.282  0.4419  0.8665 -0.4846
    7HTM    C3114290   3.838   3.899  26.452 -0.2881  0.1782  0.3776
    7HTM    C3214291   3.858   3.823  26.564 -0.1417  0.4082  0.5102
    7HTM    C3314292   3.837   3.894  26.687  0.0005  0.6575  0.3910
    7HTM    C3414293   3.801   4.025  26.669 -0.0374  0.6179  0.1683
    7HTM     S414294   3.791   4.067  26.494 -0.2574  0.2594  0.0905
    8TAL    C3514295   3.837   3.819  26.820  0.5153 -0.6249 -0.5719
    8TAL    C3614296   3.974   3.814  26.909  0.4596  0.1076  0.5526
    8TAL    C3714297   3.980   3.802  27.061 -0.3161 -0.7158  0.0426
    8TAL    C3814298   3.888   3.700  27.117  0.2226  0.6041 -0.1213
    8TAL    C3914299   3.930   3.696  27.263 -1.4918  0.2043  0.6764
    8TAL    C4014300   3.813   3.685  27.364  0.0048  0.3130 -0.7568
    9HTM    C4114301   3.776   4.132  26.765 -0.4222 -0.2472  0.0492
    9HTM    C4214302   3.801   4.143  26.899 -0.4814 -0.5008  0.0839
    9HTM    C4314303   3.757   4.268  26.955 -0.1032 -0.4212  0.2069
    9HTM    C4414304   3.698   4.352  26.865  0.2445 -0.1068  0.2662
    9HTM     S514305   3.694   4.279  26.700  0.1202  0.1149  0.1707
   10TAL    C4514306   3.766   4.301  27.104  0.8256 -0.4047 -0.7411
   10TAL    C4614307   3.866   4.210  27.184 -0.5839  0.5410 -0.3607
   10TAL    C4714308   3.890   4.257  27.323  0.9343  0.5917 -0.3022
   10TAL    C4814309   3.899   4.130  27.407 -0.7366 -0.1173 -0.0327
   10TAL    C4914310   4.041   4.066  27.403  0.7125 -0.5508 -0.4368
   10TAL    C5014311   4.051   3.946  27.501  0.8210 -0.6945  0.3447
   11HTM    C5114312   3.653   4.491  26.872 -0.1413 -0.1264 -0.7681
   11HTM    C5214313   3.636   4.571  26.981 -0.2525 -0.5331 -0.4807
   11HTM    C5314314   3.598   4.706  26.948 -0.3567 -0.4443 -0.0067
   11HTM    C5414315   3.585   4.728  26.814 -0.3250  0.0299  0.0664
   11HTM     S614316   3.621   4.580  26.719 -0.1598  0.4041 -0.4603
   12TAL    C5514317   3.579   4.809  27.060 -0.2769 -0.1928  0.2833
   12TAL    C5614318   3.710   4.878  27.097 -0.8711  0.0846 -0.0583
   12TAL    C5714319   3.812   4.793  27.174  0.4458  0.6007 -0.5247
   12TAL    C5814320   3.907   4.880  27.256  0.8357 -0.3307  0.2116
   12TAL    C5914321   3.842   4.937  27.381 -0.2401  0.2346 -0.2266
   12TAL    C6014322   3.948   4.972  27.481 -0.1899 -0.3634  0.0496
   13HTM    C6114323   3.535   4.852  26.747 -0.4738 -0.6457  0.0345
   13HTM    C6214324   3.501   4.975  26.796 -0.9333 -0.9189  0.4239
   13HTM    C6314325   3.462   5.069  26.694 -0.6300 -0.5438  0.6480
   13HTM    C6414326   3.466   5.018  26.568  0.0606  0.0154  0.4299
   13HTM     S714327   3.519   4.846  26.567  0.3841  0.1124 -0.0807
   14TAL    C6514328   3.414   5.210  26.723 -0.0250  0.0322  0.7399
   14TAL    C6614329   3.371   5.265  26.861  0.1219  0.6987  0.4076
   14TAL    C6714330   3.321   5.403  26.830  0.8935 -0.3608 -1.0119
   14TAL    C6814331   3.162   5.415  26.826 -0.5594  0.1242 -0.2613
   14TAL    C6914332   3.131   5.549  26.763  0.5330 -1.0382  0.5051
   14TAL    C7014333   2.994   5.601  26.803 -0.0048  0.7499 -0.3155
   15HTM    C7114334   3.437   5.069  26.433 -0.1465 -0.2127  0.2440
   15HTM    C7214335   3.350   5.011  26.345  0.4910 -0.3829 -0.2918
   15HTM    C7314336   3.311   5.097  26.237  0.9726 -0.4576 -0.5317
   15HTM    C7414337   3.368   5.221  26.242  0.7022 -0.3445 -0.1792
   15HTM     S814338   3.476   5.238  26.385 -0.1886 -0.1331  0.4886
   16TAL    C7514339   3.225   5.037  26.122  0.5290 -0.3369  0.3633
   16TAL    C7614340   3.264   4.906  26.058  0.0776 -0.4483 -0.2702
   16TAL    C7714341   3.407   4.875  25.992  0.0774 -0.4520 -0.7132
   16TAL    C7814342   3.466   4.976  25.892 -0.8462 -0.0654 -0.6221
   16TAL    C7914343   3.479   4.930  25.753  0.3479  0.3089  1.7935
   16TAL    C8014344   3.573   5.009  25.656 -0.7585 -0.4894 -0.0281
   17HTM    C8114345   3.341   5.336  26.158  0.3526  0.0719  0.8707
   17HTM    C8214346   3.339   5.350  26.023  0.4488 -0.3527  0.8230
   17HTM    C8314347   3.293   5.479  25.978  0.3114 -0.5503  0.3805
   17HTM    C8414348   3.259   5.564  26.080  0.1104 -0.2761  0.0905
   17HTM     S914349   3.283   5.486  26.241  0.0790  0.2570  0.3562
   18TAL    C8514350   3.295   5.517  25.827  0.1394  0.0616 -0.3464
   18TAL    C8614351   3.276   5.412  25.715 -0.1723 -0.0702 -0.1393
   18TAL    C8714352   3.133   5.365  25.685  0.3249  0.4635 -0.1066
   18TAL    C8814353   3.127   5.247  25.592 -0.0674  0.1043  0.3006
   18TAL    C8914354   3.164   5.112  25.655 -0.1498  0.0061 -0.7435
   18TAL    C9014355   3.121   4.987  25.583 -0.1048 -0.6441  0.5951
   19HTM    C9114356   3.189   5.690  26.085 -0.0454 -0.0137  0.0726
   19HTM    C9214357   3.208   5.791  25.996  0.0827 -0.1113 -0.0105
   19HTM    C9314358   3.163   5.920  26.043  0.3272  0.0020 -0.0806
   19HTM    C9414359   3.109   5.916  26.169  0.3853  0.1858 -0.0500
   19HTM    S1014360   3.112   5.749  26.237  0.1340  0.2304  0.0702
   20TAL    C9514361   3.139   6.038  25.946 -0.0895 -0.1760  0.1386
   20TAL    C9614362   3.270   6.107  25.899  0.7492  0.1143  0.5811
   20TAL    C9714363   3.271   6.220  25.799 -0.0045 -0.6900  0.7907
   20TAL    C9814364   3.199   6.199  25.654 -0.2165  0.2709 -0.8833
   20TAL    C9914365   3.260   6.095  25.547  0.9073  0.0981 -0.4216
   20TAL   C10014366   3.410   6.125  25.532  0.6163  0.1065  1.0363
   21HTM   C10114367   3.036   6.030  26.240 -0.9780 -0.3465 -0.0522
   21HTM   C10214368   2.963   6.139  26.204 -0.5449  0.0601  0.2732
   21HTM   C10314369   2.914   6.215  26.316  0.2839  0.2837  0.4954
   21HTM   C10414370   2.950   6.165  26.437  0.4827  0.0472  0.3397
   21HTM    S1114371   3.049   6.015  26.420 -0.3680 -0.4800 -0.1030
   22TAL   C10514372   2.849   6.340  26.299 -0.6550 -0.3031  1.0148
   22TAL   C10614373   2.831   6.412  26.165  0.7540 -0.7659  0.9844
   22TAL   C10714374   2.948   6.455  26.072 -0.2079  1.2792 -1.1328
   22TAL   C10814375   2.918   6.507  25.937 -0.2140 -0.4267  0.9134
   22TAL   C10914376   2.819   6.438  25.848  0.5560  0.4839  0.2050
   22TAL   C11014377   2.804   6.289  25.848 -0.4012 -0.5865  0.6079
   23HTM   C11114378   2.919   6.206  26.572 -0.0884 -0.3029  0.1204
   23HTM   C11214379   2.949   6.326  26.628 -0.5071 -0.0182 -0.2508
   23HTM   C11314380   2.921   6.332  26.770 -0.7193  0.3941 -0.3061
   23HTM   C11414381   2.871   6.216  26.821 -0.4624  0.4239  0.0229
   23HTM    S1214382   2.854   6.090  26.693  0.0716 -0.0704  0.4302
   24TAL   C11514383   2.956   6.461  26.842  0.5251 -0.9795 -0.2195
   24TAL   C11614384   3.085   6.460  26.932  0.5275 -0.0579  0.2591
   24TAL   C11714385   3.216   6.475  26.862  0.0312 -0.7259 -0.7495
   24TAL   C11814386   3.348   6.470  26.928  1.0182  0.0245  0.2991
   24TAL   C11914387   3.392   6.326  26.961 -0.5067  0.4227  1.0075
   24TAL   C12014388   3.374   6.276  27.102  1.1921  0.1984  0.5150
   25HTM   C12114389   2.817   6.179  26.949  0.3472 -0.0936 -0.2080
   25HTM   C12214390   2.810   6.257  27.061  0.3146 -0.0112 -0.2680
   25HTM   C12314391   2.766   6.185  27.178  0.2343  0.0858 -0.2384
   25HTM   C12414392   2.740   6.053  27.155  0.2058  0.0773 -0.1564
   25HTM    S1314393   2.769   6.009  26.982  0.2786 -0.0549 -0.1095
   26TAL   C12514394   2.730   6.268  27.307 -0.6397  0.2404  0.1561
   26TAL   C12614395   2.865   6.287  27.388 -0.1874  0.5699 -0.3659
   26TAL   C12714396   2.937   6.407  27.343  0.8507 -0.7964  0.1058
   26TAL   C12814397   2.874   6.553  27.381 -0.4777  0.4764 -0.2876
   26TAL   C12914398   2.930   6.674  27.306  0.4192  0.2700  0.1530
   26TAL   C13014399   3.079   6.683  27.301 -1.0832 -0.7350  0.9975
   27HTM   C13114400   2.702   5.941  27.239 -0.1390  0.4474  0.0327
   27HTM   C13214401   2.732   5.809  27.221 -0.4444  0.4315 -0.3915
   27HTM   C13314402   2.673   5.723  27.320 -0.4963  0.2694 -0.5636
   27HTM   C13414403   2.598   5.789  27.413 -0.2303  0.1616 -0.2702
   27HTM    S1414404   2.597   5.967  27.383  0.1088  0.2572  0.2501
   28TAL   C13514405   2.686   5.562  27.311  0.4853 -0.8056 -0.5783
   28TAL   C13614406   2.628   5.489  27.197  0.5484  0.4740 -0.2266
   28TAL   C13714407   2.496   5.418  27.211 -0.1543 -0.3860  0.6341
   28TAL   C13814408   2.374   5.477  27.284  0.1229 -0.3311 -0.5356
   28TAL   C13914409   2.246   5.392  27.293 -0.0827  0.0717  0.6302
   28TAL   C14014410   2.153   5.461  27.382  0.6047  0.3981 -0.2082
   29HTM   C14114411   2.528   5.735  27.526  0.0794  0.3424  0.2078
   29HTM   C14214412   2.404   5.771  27.571  0.2394  0.7280  0.3505
   29HTM   C14314413   2.357   5.690  27.680  0.0685  0.8066  0.3347
   29HTM   C14414414   2.444   5.593  27.718 -0.2220  0.4807  0.1803
   29HTM    S1514415   2.594   5.595  27.619 -0.3026  0.0461  0.0418
   30TAL   C14514416   2.238   5.737  27.745  0.2475  1.2551 -0.2283
   30TAL   C14614417   2.102   5.725  27.677 -1.3232 -0.4867 -1.1633
   30TAL   C14714418   2.002   5.815  27.736  0.0932  0.2905 -0.1031
   30TAL   C14814419   2.034   5.964  27.706 -0.6355  0.1860 -0.3380
   30TAL   C14914420   1.951   6.058  27.782  0.0343  0.1884  0.2461
   30TAL   C15014421   2.003   6.198  27.786 -0.1681 -0.4414  0.1071
   31HTM   C15114422   2.430   5.483  27.805 -0.2099  0.3036 -0.3632
   31HTM   C15214423   2.460   5.478  27.938 -0.5103  0.8700 -0.2661
   31HTM   C15314424   2.454   5.345  27.994 -0.6628  1.1071  0.2961
   31HTM   C15414425   2.419   5.249  27.903 -0.4787  0.7217  0.6282
   31HTM    S1614426   2.391   5.320  27.740 -0.0956  0.0238  0.2534
   32TAL   C15514427   2.478   5.322  28.140  0.3145 -1.1409  0.0018
   32TAL   C15614428   2.618   5.336  28.173 -0.4395 -0.9590 -0.3072
   32TAL   C15714429   2.643   5.333  28.320 -0.4045 -0.5909  0.4641
   32TAL   C15814430   2.716   5.449  28.381  0.3053 -0.3882  0.3897
   32TAL   C15914431   2.762   5.457  28.525 -0.2627 -0.4367 -0.2345
   32TAL   C16014432   2.871   5.547  28.560 -0.4466 -0.3417  0.7188
   33HTM   C16114433   2.429   5.107  27.926 -0.0710 -0.2599 -0.0750
   33HTM   C16214434   2.511   5.016  27.867 -0.3368 -0.1229 -0.6824
   33HTM   C16314435   2.489   4.881  27.912 -0.2781 -0.2629 -1.0695
   33HTM   C16414436   2.389   4.869  28.004  0.0327 -0.5066 -0.7587
   33HTM    S1714437   2.316   5.029  28.042  0.2770 -0.5789  0.0544
   34TAL   C16514438   2.571   4.766  27.850  0.3483 -0.4407  0.1501
   34TAL   C16614439   2.723   4.785  27.820  0.0096  0.0190 -0.2764
   34TAL   C16714440   2.808   4.673  27.870 -0.6277  0.9767 -0.8494
   34TAL   C16814441   2.967   4.691  27.883  0.5873 -0.5941  0.6035
   34TAL   C16914442   3.026   4.558  27.885 -0.3099  1.0961  1.0922
   34TAL   C17014443   3.171   4.552  27.881  0.3990 -0.9194 -0.9507
   35HTM   C17114444   2.327   4.756  28.064  0.1617 -0.1870 -0.0325
   35HTM   C17214445   2.257   4.753  28.181  0.7017 -0.0846  0.3004
   35HTM   C17314446   2.207   4.622  28.215  0.8684 -0.0582  0.6557
   35HTM   C17414447   2.239   4.526  28.124  0.4555 -0.1404  0.5934
   35HTM    S1814448   2.335   4.593  27.987 -0.1808 -0.2586  0.0780
   36TAL   C17514449   2.124   4.608  28.349  0.9910 -0.0221  0.0324
   36TAL   C17614450   2.186   4.608  28.495 -0.2651 -0.0698  0.3032
   36TAL   C17714451   2.271   4.484  28.522  0.2306 -0.1810 -0.7679
   36TAL   C17814452   2.319   4.480  28.668 -0.8773 -1.0362 -0.3552
   36TAL   C17914453   2.408   4.365  28.724  0.2304 -0.1110  0.1471
   36TAL   C18014454   2.533   4.308  28.651 -0.1682 -0.2345 -0.0361
   37HTM   C18114455   2.198   4.385  28.114 -0.5065  0.2704 -0.0293
   37HTM   C18214456   2.264   4.301  28.030 -0.5444  0.2756 -0.0644
   37HTM   C18314457   2.226   4.163  28.043 -0.3306  0.2357  0.1445
   37HTM   C18414458   2.131   4.142  28.138 -0.1298  0.1996  0.3378
   37HTM    S1914459   2.082   4.296  28.219 -0.1956  0.2137  0.2722
   38TAL   C18514460   2.271   4.068  27.928  0.5863 -0.7193 -0.0775
   38TAL   C18614461   2.418   4.056  27.914  0.0029  0.7262  0.5336
   38TAL   C18714462   2.441   3.977  27.799  0.7097 -0.2421 -0.5440
   38TAL   C18814463   2.585   3.986  27.747  0.1050  0.9391  0.2748
   38TAL   C18914464   2.582   3.886  27.626  0.5340 -0.4536  0.1644
   38TAL   C19014465   2.516   3.948  27.497 -0.2465 -0.5162  0.7073
   39HTM   C19114466   2.067   4.010  28.164  0.2879 -0.1825  0.4420
   39HTM   C19214467   1.950   4.005  28.233  0.2575  0.0554  0.4086
   39HTM   C19314468   1.878   3.881  28.216 -0.1041  0.2895  0.1993
   39HTM   C19414469   1.941   3.792  28.135 -0.3495  0.2301  0.0716
   39HTM    S2014470   2.097   3.858  28.072 -0.1413 -0.1288  0.2085
   40TAL   C19514471   1.753   3.832  28.278  0.1571  0.2092  0.9564
   40TAL   C19614472   1.642   3.930  28.319 -0.1753  0.1516 -0.2053
   40TAL   C19714473   1.508   3.863  28.351 -0.6586  0.1305 -0.2713
   40TAL   C19814474   1.454   3.915  28.481  1.0982  0.6573  0.2296
   40TAL   C19914475   1.332   3.837  28.531  0.1545  0.6876 -0.6364
   40TAL   C20014476   1.361   3.706  28.590 -0.8854  0.2616  1.4806
   41HTM   C20114477   1.914   3.649  28.105 -0.1635 -0.2798 -0.1261
   41HTM   C20214478   1.891   3.542  28.186 -0.0343 -0.4386 -0.2975
   41HTM   C20314479   1.858   3.421  28.115  0.0161 -0.3408 -0.4873
   41HTM   C20414480   1.857   3.436  27.979 -0.0747 -0.1076 -0.4620
   41HTM    S2114481   1.897   3.605  27.931 -0.2321  0.0077 -0.1936
   42TAL   C20514482   1.831   3.292  28.190  0.4533 -0.5403  0.2499
   42TAL   C20614483   1.817   3.309  28.345 -0.0457  0.6997 -0.2957
   42TAL   C20714484   1.899   3.220  28.442  0.3777 -0.6536 -0.0652
   42TAL   C20814485   2.047   3.229  28.410  0.1369 -0.1435  0.4819
   42TAL   C20914486   2.165   3.172  28.482 -0.3781  0.1356 -0.6900
   42TAL   C21014487   2.197   3.230  28.626 -0.7063 -0.1040  0.4943
   43HTM   C21114488   1.867   3.340  27.870  0.5665  0.0213 -0.0671
   43HTM   C21214489   1.951   3.352  27.763  1.4934 -0.5072  0.5817
   43HTM   C21314490   1.962   3.231  27.685  1.6961 -0.7091  0.9141
   43HTM   C21414491   1.886   3.128  27.731  0.9237 -0.3347  0.5187
   43HTM    S2214492   1.794   3.175  27.879 -0.1278  0.3071 -0.3107
   44TAL   C21514493   2.072   3.211  27.581 -0.3755 -1.5500  0.0762
   44TAL   C21614494   2.040   3.255  27.438  0.0345 -0.5855 -0.3520
   44TAL   C21714495   2.121   3.369  27.375  0.5086 -0.1159 -0.2323
   44TAL   C21814496   2.108   3.501  27.451  0.0155  0.5505  0.0388
   44TAL   C21914497   1.973   3.575  27.432 -0.5287  0.0679  0.5449
   44TAL   C22014498   1.984   3.704  27.363 -0.5356 -0.0687  0.5543
   45HTM   C22114499   1.868   2.993  27.691  0.2822 -0.0441  0.8361
   45HTM   C22214500   1.968   2.911  27.647  0.3738  0.0004  0.9603
   45HTM   C22314501   1.923   2.777  27.615  0.3324  0.1874  0.2012
   45HTM   C22414502   1.789   2.758  27.635  0.2094  0.2853 -0.5002
   45HTM    S2314503   1.709   2.908  27.695  0.1356  0.1480 -0.2561
   46TAL   C22514504   2.027   2.681  27.550 -0.1095 -0.7289 -0.6498
   46TAL   C22614505   2.143   2.647  27.639 -0.2659  0.3456 -0.2861
   46TAL   C22714506   2.245   2.536  27.596  0.1200  0.8475  0.0209
   46TAL   C22814507   2.335   2.490  27.704 -0.5867 -0.0600  0.5710
   46TAL   C22914508   2.412   2.383  27.640 -0.5177  0.2725  1.4707
   46TAL   C23014509   2.508   2.299  27.724  0.5047 -1.0551  0.0767
   47HTM   C23114510   1.704   2.636  27.627  0.0805  0.0628  0.5589
   47HTM   C23214511   1.573   2.624  27.663  0.0705 -0.2026  0.4330
   47HTM   C23314512   1.517   2.494  27.633  0.2593 -0.2005  0.0515
   47HTM   C23414513   1.606   2.408  27.575  0.4131  0.0665 -0.1131
   47HTM    S2414514   1.767   2.485  27.552  0.3309  0.3382  0.2033
   48TAL   C23514515   1.375   2.466  27.669 -0.2986 -0.2248 -0.1496
   48TAL   C23614516   1.331   2.323  27.685  0.5661  0.1112 -0.8174
   48TAL   C23714517   1.293   2.237  27.566 -0.2312  0.4003  0.3912
   48TAL   C23814518   1.262   2.094  27.594  0.2012 -0.1301 -0.1938
   48TAL   C23914519   1.139   2.046  27.672 -0.0159  0.3047  0.0517
   48TAL   C24014520   1.135   1.893  27.698  0.3326 -0.0647 -0.3934
    1HTM     C114521   0.729   7.054   6.141  0.4601 -0.1216 -0.4214
    1HTM     C214522   0.685   7.010   6.263  0.9970 -0.7359 -0.4394
    1HTM     C314523   0.556   6.946   6.258  0.8976 -0.5577 -0.1695
    1HTM     C414524   0.501   6.942   6.133  0.2849  0.1924  0.0545
    1HTM     S114525   0.609   7.018   6.011 -0.2179  0.7361 -0.0592
    2TAL     C514526   0.483   6.889   6.381  0.5026  0.2931 -0.9867
    2TAL     C614527   0.560   6.827   6.497 -0.1831  0.5186  0.4571
    2TAL     C714528   0.468   6.734   6.577  0.8845  0.0983 -0.2090
    2TAL     C814529   0.525   6.603   6.633  0.1574 -0.7343  0.6241
    2TAL     C914530   0.637   6.631   6.726 -0.7039  0.3462  1.1033
    2TAL    C1014531   0.625   6.508   6.814 -0.2773  0.6667 -0.0851
    3HTM    C1114532   0.372   6.888   6.091 -0.0225 -0.0170 -0.0509
    3HTM    C1214533   0.333   6.891   5.961  0.0708  0.0767 -0.0769
    3HTM    C1314534   0.196   6.851   5.940  0.0046  0.3476 -0.1742
    3HTM    C1414535   0.131   6.817   6.055 -0.1392  0.4603 -0.2223
    3HTM     S214536   0.237   6.834   6.199 -0.2027  0.2314 -0.1480
    4TAL    C1514537   0.139   6.862   5.797 -0.6261 -0.0773  0.4012
    4TAL    C1614538   0.193   6.773   5.679 -0.2944  0.5172 -0.7802
    4TAL    C1714539   0.188   6.618   5.693 -0.4534  0.2940  0.1729
    4TAL    C1814540   0.232   6.533   5.571 -0.2197 -0.2979 -1.4010
    4TAL    C1914541   0.377   6.545   5.535  0.9589 -0.4227  0.0959
    4TAL    C2014542   0.417   6.484   5.400  0.1814 -0.4165  0.8891
    5HTM    C2114543  -0.002   6.769   6.080 -0.3110  0.0276  0.2633
    5HTM    C2214544  -0.113   6.805   6.009 -0.3710 -0.1173  0.2836
    5HTM    C2314545  -0.235   6.745   6.058 -0.2760 -0.3248  0.2682
    5HTM    C2414546  -0.217   6.664   6.166 -0.1435 -0.3381  0.2363
    5HTM     S314547  -0.043   6.656   6.215 -0.1283 -0.0878  0.2228
    6TAL    C2514548  -0.375   6.789   6.017 -1.0126  0.3669  0.1506
    6TAL    C2614549  -0.399   6.795   5.871  0.1334  0.1705  0.5044
    6TAL    C2714550  -0.448   6.680   5.795 -1.0548  0.2450 -0.0638
    6TAL    C2814551  -0.345   6.578   5.730 -0.0956  0.4792 -0.1321
    6TAL    C2914552  -0.219   6.617   5.651  1.0185 -0.6012  0.7238
    6TAL    C3014553  -0.158   6.501   5.575 -0.5121  0.4808 -0.0924
    7HTM    C3114554  -0.308   6.578   6.250  0.2552 -1.2230 -0.2022
    7HTM    C3214555  -0.308   6.554   6.384  0.6208 -1.8742 -0.3064
    7HTM    C3314556  -0.428   6.493   6.433  0.5171 -1.5892 -0.1973
    7HTM    C3414557  -0.521   6.469   6.336  0.0724 -0.7210 -0.0100
    7HTM     S414558  -0.462   6.523   6.174 -0.2525 -0.1915  0.0437
    8TAL    C3514559  -0.439   6.451   6.586  1.7557  0.6996 -0.0873
    8TAL    C3614560  -0.370   6.538   6.696  0.9900 -0.1426  0.2168
    8TAL    C3714561  -0.383   6.483   6.839 -0.1190  0.7290  0.4540
    8TAL    C3814562  -0.322   6.573   6.950 -0.8650  0.3843  0.2348
    8TAL    C3914563  -0.364   6.576   7.093 -0.0892  0.7735 -0.1856
    8TAL    C4014564  -0.457   6.459   7.136 -0.3888  0.1085 -0.3339
    9HTM    C4114565  -0.659   6.409   6.333  0.0847 -0.5273 -0.3955
    9HTM    C4214566  -0.698   6.295   6.397  0.1339 -0.6372 -0.5602
    9HTM    C4314567  -0.838   6.263   6.379  0.0786 -0.5108 -0.3659
    9HTM    C4414568  -0.905   6.353   6.301 -0.0126 -0.3047 -0.0530
    9HTM     S514569  -0.796   6.486   6.244 -0.0361 -0.2540  0.0209
   10TAL    C4514570  -0.903   6.148   6.449  0.4829  0.3487  1.1266
   10TAL    C4614571  -0.865   6.003   6.409  0.0154 -0.2710 -0.8459
   10TAL    C4714572  -0.906   5.899   6.510 -0.3480 -0.0578 -0.9444
   10TAL    C4814573  -0.862   5.911   6.656 -1.1260 -0.5779 -1.4338
   10TAL    C4914574  -0.713   5.919   6.692  0.4482  0.1749  0.3750
   10TAL    C5014575  -0.697   5.966   6.834 -0.0803  0.1201 -0.5167
   11HTM    C5114576  -1.045   6.373   6.267 -0.1874 -0.1940 -0.5620
   11HTM    C5214577  -1.121   6.301   6.179 -0.5217  0.1258 -0.5437
   11HTM    C5314578  -1.258   6.344   6.171 -0.4741  0.3690 -0.1110
   11HTM    C5414579  -1.287   6.449   6.253 -0.1035  0.2344  0.2007
   11HTM     S614580  -1.143   6.502   6.348  0.2165 -0.2131 -0.0301
   12TAL    C5514581  -1.333   6.273   6.065  0.5301 -1.0734 -0.4255
   12TAL    C5614582  -1.484   6.248   6.077 -0.2173  0.9588  0.0225
   12TAL    C5714583  -1.549   6.160   6.184 -0.2765  0.0620  0.7090
   12TAL    C5814584  -1.674   6.213   6.257 -0.5077  0.4590 -0.5159
   12TAL    C5914585  -1.703   6.098   6.363  0.1104  0.3488  0.5763
   12TAL    C6014586  -1.815   6.132   6.461  0.6857  0.6920  0.2798
   13HTM    C6114587  -1.403   6.533   6.258  0.4241 -0.1504  0.2293
   13HTM    C6214588  -1.533   6.510   6.290  0.4678 -0.3769  0.2506
   13HTM    C6314589  -1.619   6.623   6.267  0.2695 -0.5215  0.2768
   13HTM    C6414590  -1.555   6.732   6.216  0.0746 -0.4051  0.2755
   13HTM     S714591  -1.378   6.700   6.194  0.1265 -0.1015  0.2410
   14TAL    C6514592  -1.764   6.609   6.294  0.1124  0.2293  0.4563
   14TAL    C6614593  -1.816   6.664   6.436  0.0772 -0.3954  0.0311
   14TAL    C6714594  -1.967   6.665   6.441  0.9012  0.7370  1.1890
   14TAL    C6814595  -2.035   6.555   6.534 -0.1238 -0.2014 -0.4550
   14TAL    C6914596  -2.010   6.577   6.679  0.4768  0.0730 -0.2995
   14TAL    C7014597  -2.076   6.473   6.771 -0.0184 -0.1851  0.4376
   15HTM    C7114598  -1.615   6.865   6.186  0.4948 -0.5650 -0.3025
   15HTM    C7214599  -1.734   6.919   6.222  0.1730 -1.1210 -0.5008
   15HTM    C7314600  -1.760   7.048   6.162 -0.3172 -1.2288 -0.5263
   15HTM    C7414601  -1.661   7.091   6.080 -0.3691 -0.7551 -0.3473
   15HTM     S814602  -1.525   6.972   6.072  0.2015 -0.1310 -0.1309
   16TAL    C7514603  -1.881   7.127   6.220  0.1257 -0.7832  0.2404
   16TAL    C7614604  -2.013   7.061   6.177 -0.3532  0.0073  0.7082
   16TAL    C7714605  -2.122   7.151   6.147  0.5019  1.0627  0.0263
   16TAL    C7814606  -2.250   7.100   6.206 -0.7039  0.1221 -0.8344
   16TAL    C7914607  -2.354   7.209   6.180 -0.5840 -0.6186 -0.6534
   16TAL    C8014608  -2.491   7.189   6.236 -1.1029  0.1405  0.4766
   17HTM    C8114609  -1.630   7.208   6.010 -0.2951  0.2825  0.2941
   17HTM    C8214610  -1.513   7.231   5.944  0.1036  0.3432  1.0102
   17HTM    C8314611  -1.503   7.361   5.884  0.3633  0.3145  0.9850
   17HTM    C8414612  -1.614   7.439   5.904  0.1627  0.2316  0.2495
   17HTM     S914613  -1.739   7.352   6.001 -0.3743  0.1833 -0.4737
   18TAL    C8514614  -1.377   7.405   5.805  0.5570  0.2728 -0.1669
   18TAL    C8614615  -1.337   7.314   5.693 -0.5241  0.4589  0.1368
   18TAL    C8714616  -1.253   7.381   5.583  1.2920  0.0392  0.3794
   18TAL    C8814617  -1.305   7.473   5.478 -1.1806 -0.6550 -0.5185
   18TAL    C8914618  -1.274   7.417   5.334 -0.6420 -0.3588 -0.4416
   18TAL    C9014619  -1.258   7.507   5.223  0.5213  0.2026 -0.6837
   19HTM    C9114620  -1.658   7.575   5.856 -0.1509 -0.0555  0.0644
   19HTM    C9214621  -1.769   7.607   5.784 -0.4400 -0.0306  0.5115
   19HTM    C9314622  -1.784   7.749   5.761 -0.5475 -0.0202  0.6447
   19HTM    C9414623  -1.684   7.824   5.816 -0.3407 -0.0372  0.2991
   19HTM    S1014624  -1.563   7.721   5.902  0.0091 -0.0679 -0.2254
   20TAL    C9514625  -1.898   7.811   5.670 -0.5910  0.1048 -0.1621
   20TAL    C9614626  -1.989   7.718   5.584  0.6047  0.0716 -1.3478
   20TAL    C9714627  -1.942   7.683   5.450  0.1837  0.6326 -0.4239
   20TAL    C9814628  -2.030   7.579   5.390  0.5679 -0.7573  0.0501
   20TAL    C9914629  -1.991   7.434   5.419 -0.8287 -0.2195  0.3260
   20TAL   C10014630  -2.074   7.335   5.352  0.1487  0.8313  0.0934
   21HTM   C10114631  -1.683   7.974   5.836  0.1776  0.3860  0.3746
   21HTM   C10214632  -1.694   8.070   5.740  0.4996  0.1163  0.0612
   21HTM   C10314633  -1.668   8.203   5.788  0.7262  0.2119 -0.3191
   21HTM   C10414634  -1.636   8.209   5.920  0.5772  0.5545 -0.2958
   21HTM    S1114635  -1.638   8.045   5.996  0.1354  0.7848  0.2122
   22TAL   C10514636  -1.690   8.328   5.698 -0.4920  0.3513 -0.2803
   22TAL   C10614637  -1.575   8.378   5.614 -0.4818  1.1677 -0.6012
   22TAL   C10714638  -1.622   8.435   5.489 -0.6580 -0.5818  0.3046
   22TAL   C10814639  -1.492   8.485   5.424 -0.4079 -0.1205  0.1816
   22TAL   C10914640  -1.462   8.425   5.290  0.4795 -0.7264  0.1348
   22TAL   C11014641  -1.322   8.465   5.248  0.0420  0.1324 -0.0681
   23HTM   C11114642  -1.632   8.308   6.017 -0.9339 -0.2097  0.1326
   23HTM   C11214643  -1.567   8.305   6.136 -0.5426 -0.4442 -0.0842
   23HTM   C11314644  -1.552   8.434   6.198  0.4615 -0.4345 -0.3005
   23HTM   C11414645  -1.607   8.536   6.126  0.8357 -0.1926 -0.2487
   23HTM    S1214646  -1.681   8.476   5.973 -0.0579  0.0436  0.0799
   24TAL   C11514647  -1.486   8.459   6.330  0.1859  0.7563 -0.1797
   24TAL   C11614648  -1.438   8.339   6.418  0.3550 -0.9940 -0.2439
   24TAL   C11714649  -1.339   8.364   6.534  0.4500  0.6345 -0.3655
   24TAL   C11814650  -1.307   8.223   6.613  0.1776 -0.5724  0.0001
   24TAL   C11914651  -1.249   8.104   6.536 -0.4862  0.0947 -0.0860
   24TAL   C12014652  -1.219   7.993   6.635  0.1020  0.2304  0.7588
   25HTM   C12114653  -1.613   8.679   6.164  0.1776 -0.1066  0.0414
   25HTM   C12214654  -1.533   8.760   6.239  0.1110 -0.2689  0.2912
   25HTM   C12314655  -1.582   8.895   6.251  0.0912 -0.2992  0.5569
   25HTM   C12414656  -1.699   8.917   6.186  0.1426 -0.1599  0.5100
   25HTM    S1314657  -1.758   8.768   6.103  0.2208  0.0216  0.1236
   26TAL   C12514658  -1.502   8.998   6.324  1.1868  0.2769  0.1985
   26TAL   C12614659  -1.433   8.944   6.455  0.4894  0.5906  0.3556
   26TAL   C12714660  -1.532   8.892   6.566 -0.4599 -0.1001  0.7880
   26TAL   C12814661  -1.436   8.824   6.660  0.8614 -0.4419  0.5073
   26TAL   C12914662  -1.502   8.756   6.779 -0.1535  0.1576 -0.2082
   26TAL   C13014663  -1.394   8.679   6.861  0.5094  0.4054  0.4896
   27HTM   C13114664  -1.792   9.029   6.186 -0.0359  0.4366  0.5554
   27HTM   C13214665  -1.920   9.019   6.232  0.0600  0.7797  0.9038
   27HTM   C13314666  -1.986   9.147   6.245  0.2149  0.9109  0.4429
   27HTM   C13414667  -1.909   9.253   6.209  0.2374  0.6680 -0.2567
   27HTM    S1414668  -1.745   9.200   6.156  0.0633  0.2513 -0.3889
   28TAL   C13514669  -2.141   9.158   6.292 -1.0769  0.4314  0.6628
   28TAL   C13614670  -2.249   9.074   6.218  0.3257  0.7339  0.2899
   28TAL   C13714671  -2.268   9.067   6.065 -0.7224 -0.7094  0.0162
   28TAL   C13814672  -2.384   9.001   6.007  0.4646  0.5450 -0.3431
   28TAL   C13914673  -2.386   8.846   6.010 -0.4937 -0.2394  0.4859
   28TAL   C14014674  -2.501   8.769   5.947 -0.2373 -0.0565  0.5702
   29HTM   C14114675  -1.943   9.394   6.217  0.3765  0.1250  0.0505
   29HTM   C14214676  -1.871   9.501   6.262  0.5993  0.3564 -0.8235
   29HTM   C14314677  -1.937   9.627   6.243  0.5307  0.2705 -1.1766
   29HTM   C14414678  -2.060   9.617   6.184  0.2555 -0.0264 -0.5717
   29HTM    S1514679  -2.101   9.446   6.148  0.0601 -0.2220  0.4991
   30TAL   C14514680  -1.872   9.749   6.312 -0.3793  0.2302  0.0943
   30TAL   C14614681  -1.748   9.815   6.249 -1.1149  1.0132  0.2894
   30TAL   C14714682  -1.681   9.909   6.346  0.2515  0.2461  1.1579
   30TAL   C14814683  -1.630  10.017   6.263  0.3027  0.4154  0.3196
   30TAL   C14914684  -1.522  10.102   6.327  0.6469 -0.4901  1.7119
   30TAL   C15014685  -1.482  10.239   6.264 -0.1645  0.3957 -1.0643
   31HTM   C15114686  -2.160   9.712   6.151  0.0460  0.0678 -0.8720
   31HTM   C15214687  -2.157   9.820   6.067 -0.2894  0.1090 -0.8327
   31HTM   C15314688  -2.287   9.878   6.043 -0.3805  0.1692 -0.2263
   31HTM   C15414689  -2.388   9.815   6.109 -0.1143  0.1741  0.1968
   31HTM    S1614690  -2.327   9.676   6.207  0.2751  0.1023 -0.1405
   32TAL   C15514691  -2.264   9.997   5.964  0.0765  0.3545  0.4030
   32TAL   C15614692  -2.384  10.079   5.916 -0.4983 -0.5851 -0.1825
   32TAL   C15714693  -2.348  10.223   5.881  0.3684 -0.3570 -0.1615
   32TAL   C15814694  -2.464  10.327   5.897 -0.4212 -0.3192  0.9320
   32TAL   C15914695  -2.540  10.328   5.771  0.4594 -0.2140  0.3067
   32TAL   C16014696  -2.662  10.417   5.765 -0.1115 -0.4957 -0.0913
   33HTM   C16114697  -2.522   9.851   6.125 -0.3082  1.1064  0.2897
   33HTM   C16214698  -2.568   9.902   6.243 -0.7999  1.1700  0.0740
   33HTM   C16314699  -2.709   9.933   6.242 -0.9301  0.5892 -0.3291
   33HTM   C16414700  -2.770   9.905   6.123 -0.5375  0.0827 -0.4210
   33HTM    S1714701  -2.654   9.838   6.003  0.0311  0.3018 -0.0022
   34TAL   C16514702  -2.768  10.004   6.355 -0.1719 -1.4550 -0.1113
   34TAL   C16614703  -2.704  10.144   6.399 -0.4145  0.7624  0.8960
   34TAL   C16714704  -2.748  10.179   6.532  0.4968  0.4796 -0.8084
   34TAL   C16814705  -2.739  10.328   6.548 -0.3102  0.4841  0.1727
   34TAL   C16914706  -2.718  10.371   6.688 -0.2478 -0.7842 -0.6026
   34TAL   C17014707  -2.691  10.523   6.687 -0.6594 -0.1674 -0.1076
   35HTM   C17114708  -2.905   9.933   6.093 -0.0032 -0.4271  0.7467
   35HTM   C17214709  -2.959  10.018   6.000  0.8090 -1.2679 -0.5726
   35HTM   C17314710  -3.099   9.995   5.975  1.0558 -1.5811 -1.7411
   35HTM   C17414711  -3.151   9.892   6.047  0.4321 -0.9792 -1.3129
   35HTM    S1814712  -3.028   9.816   6.154 -0.5233  0.0378  0.6145
   36TAL   C17514713  -3.181  10.067   5.879  0.4374  0.4756 -0.2831
   36TAL   C17614714  -3.178  10.214   5.873 -0.1350 -0.4061 -0.8314
   36TAL   C17714715  -3.297  10.300   5.833 -0.0317  0.0348 -0.3629
   36TAL   C17814716  -3.431  10.288   5.907 -0.1445 -0.0848 -0.6841
   36TAL   C17914717  -3.540  10.382   5.858 -0.1835  0.0059 -0.3315
   36TAL   C18014718  -3.593  10.346   5.717 -0.1634  0.5942  0.0344
   37HTM   C18114719  -3.280   9.831   6.066  0.2154  0.2501 -0.5762
   37HTM   C18214720  -3.297   9.699   6.038  0.2679  0.3142 -0.9218
   37HTM   C18314721  -3.433   9.662   6.011  0.2457  0.2898 -0.7820
   37HTM   C18414722  -3.521   9.767   6.017  0.1762  0.2073 -0.3298
   37HTM    S1914723  -3.437   9.921   6.059  0.1331  0.1534 -0.0432
   38TAL   C18514724  -3.460   9.511   5.984 -0.8308  0.2611  0.8370
   38TAL   C18614725  -3.495   9.422   6.105 -0.5609  0.0438  0.3712
   38TAL   C18714726  -3.506   9.269   6.084 -0.6355 -0.2779 -0.5949
   38TAL   C18814727  -3.490   9.208   6.222 -0.6331 -0.2776 -0.2375
   38TAL   C18914728  -3.458   9.066   6.218  0.4707 -0.5540  0.0334
   38TAL   C19014729  -3.484   9.005   6.350  0.5818 -0.8257 -0.6457
   39HTM   C19114730  -3.662   9.776   5.994  0.1647  0.4137 -0.7700
   39HTM   C19214731  -3.733   9.886   6.030  0.2319  0.5374 -1.0097
   39HTM   C19314732  -3.876   9.868   6.025  0.2195  0.4087 -0.3685
   39HTM   C19414733  -3.913   9.743   5.985  0.1430  0.1870  0.3600
   39HTM    S2014734  -3.770   9.639   5.950  0.0799  0.1228  0.2923
   40TAL   C19514735  -3.966   9.989   6.069 -0.7991 -0.0253 -0.3455
   40TAL   C19614736  -3.949  10.042   6.219 -0.3652  0.5794 -0.5400
   40TAL   C19714737  -3.952  10.188   6.250 -0.8976  0.7983 -0.1578
   40TAL   C19814738  -3.820  10.268   6.234  0.2339 -0.2946  0.0982
   40TAL   C19914739  -3.687  10.216   6.288  0.2795 -0.1957  0.2074
   40TAL   C20014740  -3.682  10.194   6.449 -0.2175  0.5126  1.1075
   41HTM   C20114741  -4.041   9.687   5.964  0.3669 -0.2641 -0.1984
   41HTM   C20214742  -4.093   9.584   6.037  0.3959 -0.5385 -0.5584
   41HTM   C20314743  -4.215   9.530   5.982  0.4889 -0.4789 -0.8270
   41HTM   C20414744  -4.256   9.592   5.867  0.5309 -0.1589 -0.6718
   41HTM    S2114745  -4.142   9.724   5.819  0.4556  0.0937 -0.1705
   42TAL   C20514746  -4.310   9.442   6.060  1.1247 -0.4084 -1.0947
   42TAL   C20614747  -4.316   9.301   6.021  0.8623  0.4428  0.8619
   42TAL   C20714748  -4.434   9.233   6.082  0.3935 -0.2259 -0.6032
   42TAL   C20814749  -4.445   9.243   6.237  0.1548 -0.3371  0.4435
   42TAL   C20914750  -4.340   9.140   6.290 -0.3475 -0.6134  0.2691
   42TAL   C21014751  -4.340   9.125   6.446 -0.2706  0.6119  0.1871
   43HTM   C21114752  -4.368   9.578   5.770 -0.2148  0.6576  0.4373
   43HTM   C21214753  -4.366   9.592   5.634  0.0454  0.9726  0.4711
   43HTM   C21314754  -4.489   9.553   5.570  0.2670  0.8440  0.1190
   43HTM   C21414755  -4.585   9.509   5.656  0.1758  0.4311 -0.1835
   43HTM    S2214756  -4.527   9.514   5.827 -0.2000  0.1706 -0.0458
   44TAL   C21514757  -4.489   9.541   5.418  0.4409  0.1771 -0.9170
   44TAL   C21614758  -4.626   9.526   5.348 -0.3211  0.4789  0.1669
   44TAL   C21714759  -4.608   9.498   5.195 -0.5042 -0.2808 -0.8007
   44TAL   C21814760  -4.744   9.534   5.138 -0.2548 -0.1112  0.8440
   44TAL   C21914761  -4.771   9.455   5.004  0.9974  0.1954  0.4300
   44TAL   C22014762  -4.920   9.456   4.978  0.6654  1.2744 -0.6808
   45HTM   C22114763  -4.723   9.440   5.653 -0.4136  0.0310  0.1367
   45HTM   C22214764  -4.840   9.493   5.607 -0.6362 -0.5218  0.0516
   45HTM   C22314765  -4.952   9.403   5.617 -0.2545 -0.9997  0.1204
   45HTM   C22414766  -4.921   9.282   5.671  0.2589 -0.8115  0.2578
   45HTM    S2314767  -4.746   9.272   5.714  0.3006 -0.0096  0.3116
   46TAL   C22514768  -5.088   9.435   5.553 -0.4467 -0.5646 -0.2493
   46TAL   C22614769  -5.084   9.497   5.411  0.7708 -0.7821  0.1120
   46TAL   C22714770  -5.237   9.510   5.366 -0.5996  0.0277  0.4235
   46TAL   C22814771  -5.333   9.390   5.372 -0.5418  1.1261 -0.1842
   46TAL   C22914772  -5.313   9.285   5.252 -0.6994 -0.1462  1.1473
   46TAL   C23014773  -5.330   9.142   5.278  0.6916 -0.5400  0.4525
   47HTM   C23114774  -5.005   9.167   5.694  0.5061 -0.5737  0.4884
   47HTM   C23214775  -4.993   9.044   5.637  0.7002 -0.8650  1.1444
   47HTM   C23314776  -5.088   8.947   5.687  0.3554 -0.5403  1.1251
   47HTM   C23414777  -5.172   8.997   5.782 -0.1015 -0.0015  0.4547
   47HTM    S2414778  -5.138   9.171   5.815 -0.1319  0.1388 -0.2096
   48TAL   C23514779  -5.104   8.808   5.639 -0.6544 -0.3735 -0.7745
   48TAL   C23614780  -5.222   8.721   5.655 -0.4247  0.0829 -1.0754
   48TAL   C23714781  -5.321   8.732   5.546  1.1778 -0.8956 -0.2903
   48TAL   C23814782  -5.405   8.872   5.537 -0.0636  0.2516 -0.4728
   48TAL   C23914783  -5.539   8.858   5.469  0.3184  0.3856  0.7528
   48TAL   C24014784  -5.628   8.752   5.525  0.3683 -0.0111  0.7964
    1HTM     C114785   6.318   7.315   2.084 -0.5492 -0.0248 -0.0367
    1HTM     C214786   6.257   7.436   2.100 -0.9223 -0.2500  0.2786
    1HTM     C314787   6.227   7.469   2.237 -0.5825 -0.4834  0.4097
    1HTM     C414788   6.266   7.373   2.326  0.0497 -0.4362  0.1942
    1HTM     S114789   6.343   7.233   2.243  0.2664 -0.0904 -0.1938
    2TAL     C514790   6.151   7.588   2.270 -0.0790 -0.9035 -0.5110
    2TAL     C614791   6.220   7.724   2.286 -0.4237  0.2888  0.4966
    2TAL     C714792   6.128   7.825   2.352 -0.2302 -0.5919  0.1647
    2TAL     C814793   6.061   7.807   2.491 -0.1629 -0.6172 -0.8548
    2TAL     C914794   6.164   7.812   2.610 -0.5763  0.1046 -0.1847
    2TAL    C1014795   6.116   7.841   2.756 -0.5243  0.1988  0.5483
    3HTM    C1114796   6.267   7.369   2.471  0.8551 -0.0453 -0.3238
    3HTM    C1214797   6.171   7.422   2.552  0.7818 -0.0459 -0.4101
    3HTM    C1314798   6.199   7.407   2.693  0.5561 -0.2311 -0.3828
    3HTM    C1414799   6.317   7.344   2.718  0.4574 -0.3716 -0.2755
    3HTM     S214800   6.402   7.297   2.566  0.6432 -0.2805 -0.2001
    4TAL    C1514801   6.100   7.461   2.797  0.4077 -0.0825  0.5077
    4TAL    C1614802   5.953   7.403   2.778 -0.9328 -0.6196 -0.0815
    4TAL    C1714803   5.921   7.278   2.858 -0.0533 -0.2333  1.0647
    4TAL    C1814804   5.953   7.270   3.006  0.9341 -0.0556  0.3473
    4TAL    C1914805   5.958   7.132   3.064  0.7245 -1.2722 -0.5592
    4TAL    C2014806   6.022   7.137   3.205 -0.2989  0.0534  0.2345
    5HTM    C2114807   6.394   7.319   2.849 -0.0531  0.3700 -0.1941
    5HTM    C2214808   6.526   7.287   2.855 -0.1810 -0.2186 -0.3797
    5HTM    C2314809   6.574   7.262   2.988 -0.0901 -0.3669 -0.4394
    5HTM    C2414810   6.478   7.275   3.084  0.1069  0.1090 -0.2995
    5HTM     S314811   6.318   7.320   3.012  0.1937  0.7864 -0.0796
    6TAL    C2514812   6.720   7.212   3.026  0.9219 -0.9181  0.8724
    6TAL    C2614813   6.828   7.224   2.909 -0.4864  0.0823  0.0235
    6TAL    C2714814   6.951   7.136   2.908 -0.4429  0.3439  0.3592
    6TAL    C2814815   6.996   7.050   3.031  0.2542 -0.6264  1.6155
    6TAL    C2914816   7.055   7.129   3.146 -0.7360  0.0665  0.1655
    6TAL    C3014817   7.040   7.063   3.282 -0.4821  0.6291 -0.1608
    7HTM    C3114818   6.488   7.262   3.231  0.1622 -0.5709  0.2281
    7HTM    C3214819   6.557   7.175   3.310 -0.1775 -0.4989  0.6102
    7HTM    C3314820   6.530   7.191   3.450 -0.2530  0.1049  0.5341
    7HTM    C3414821   6.441   7.290   3.478  0.0291  0.4929  0.0940
    7HTM     S414822   6.383   7.372   3.328  0.4148  0.1231 -0.2614
    8TAL    C3514823   6.617   7.108   3.534 -1.1224  0.0332 -0.9322
    8TAL    C3614824   6.741   7.180   3.590 -0.3002 -0.3501  0.7091
    8TAL    C3714825   6.868   7.112   3.591 -0.1706 -0.7389  0.3242
    8TAL    C3814826   6.991   7.202   3.617  0.8328  0.7362  0.0267
    8TAL    C3914827   7.103   7.127   3.679 -0.0724  0.4212 -0.5174
    8TAL    C4014828   7.065   7.016   3.793  0.0084 -0.3349  0.1617
    9HTM    C4114829   6.365   7.330   3.597  0.1770 -0.6333  0.2467
    9HTM    C4214830   6.232   7.308   3.619  0.2823 -1.1631  0.3904
    9HTM    C4314831   6.190   7.337   3.753  0.2613 -1.0600  0.3622
    9HTM    C4414832   6.291   7.380   3.834  0.1404 -0.4518  0.1971
    9HTM     S514833   6.448   7.388   3.746  0.0425  0.0419  0.0634
   10TAL    C4514834   6.044   7.327   3.818 -0.3260  0.3167  0.6711
   10TAL    C4614835   5.908   7.326   3.735 -0.7259 -0.8765  0.5024
   10TAL    C4714836   5.863   7.200   3.654  0.1092 -0.6571  1.5875
   10TAL    C4814837   5.803   7.081   3.715 -0.4851 -0.3036  0.8364
   10TAL    C4914838   5.793   6.974   3.606  0.3864 -0.0314 -0.5720
   10TAL    C5014839   5.697   6.869   3.653 -0.8390 -0.1284 -0.9994
   11HTM    C5114840   6.295   7.392   3.974  0.0687 -0.1301 -0.1522
   11HTM    C5214841   6.271   7.504   4.046  0.0057  0.1088 -0.5399
   11HTM    C5314842   6.324   7.500   4.180 -0.1758  0.5131 -0.4517
   11HTM    C5414843   6.390   7.384   4.209 -0.2512  0.5821  0.0035
   11HTM     S614844   6.389   7.270   4.069 -0.0978  0.1385  0.3585
   12TAL    C5514845   6.290   7.606   4.282 -0.1435 -0.9327 -0.4991
   12TAL    C5614846   6.382   7.736   4.272 -0.0218  0.2191 -1.0299
   12TAL    C5714847   6.321   7.835   4.375  0.1619  0.6778  0.6272
   12TAL    C5814848   6.389   7.963   4.357  0.7573 -1.2113 -0.8900
   12TAL    C5914849   6.349   8.045   4.478 -0.9492 -0.3472  0.4360
   12TAL    C6014850   6.413   8.180   4.486 -0.8310 -1.0922 -0.0935
   13HTM    C6114851   6.453   7.339   4.333  0.0190  0.7065  0.2197
   13HTM    C6214852   6.554   7.397   4.404 -0.0612  0.6223  0.4035
   13HTM    C6314853   6.586   7.327   4.526 -0.1359  0.4227  0.3105
   13HTM    C6414854   6.510   7.216   4.548 -0.1125  0.3549  0.0557
   13HTM     S714855   6.390   7.191   4.415  0.0067  0.5389 -0.0878
   14TAL    C6514856   6.697   7.383   4.615  0.9510  0.1241  0.0584
   14TAL    C6614857   6.840   7.360   4.563  0.4295 -0.1394 -1.2606
   14TAL    C6714858   6.894   7.219   4.585 -0.8880 -0.2498  0.3940
   14TAL    C6814859   6.936   7.161   4.724 -0.2381  0.3376 -0.3489
   14TAL    C6914860   7.059   7.080   4.685  0.4763 -0.0799  0.6247
   14TAL    C7014861   7.115   6.989   4.784  0.1134  0.4084  0.2655
   15HTM    C7114862   6.509   7.126   4.663 -0.6864 -0.3373  0.3828
   15HTM    C7214863   6.459   6.999   4.661 -0.4784 -0.4262  0.7336
   15HTM    C7314864   6.486   6.924   4.781  0.1134 -0.2342  0.7248
   15HTM    C7414865   6.557   6.994   4.875  0.3564  0.0010  0.3676
   15HTM     S814866   6.595   7.161   4.817 -0.1470 -0.0016  0.0116
   16TAL    C7514867   6.431   6.786   4.800  0.2936 -0.8684 -0.0402
   16TAL    C7614868   6.299   6.786   4.882  0.2408 -0.1317 -0.5454
   16TAL    C7714869   6.194   6.674   4.857 -0.7305  0.5166  0.2439
   16TAL    C7814870   6.248   6.530   4.859  0.3363 -0.0003  0.5666
   16TAL    C7914871   6.224   6.457   4.987 -0.6069  0.3661 -0.7245
   16TAL    C8014872   6.238   6.305   4.986  0.1686 -0.3804 -0.0760
   17HTM    C8114873   6.601   6.962   5.008 -0.4487  0.0958  0.3468
   17HTM    C8214874   6.529   6.945   5.123  0.2215 -0.3256  0.7204
   17HTM    C8314875   6.609   6.946   5.242  0.8990 -0.4814  0.2787
   17HTM    C8414876   6.742   6.963   5.219  0.7454 -0.1786 -0.4317
   17HTM     S914877   6.777   6.980   5.043 -0.2748  0.3306 -0.5996
   18TAL    C8514878   6.539   6.944   5.377  1.8020 -0.0324  0.0286
   18TAL    C8614879   6.610   6.859   5.491  0.4689 -1.5557 -0.1759
   18TAL    C8714880   6.625   6.711   5.455 -1.5431  0.5396  0.1012
   18TAL    C8814881   6.503   6.624   5.447 -0.0899  0.7706 -1.1535
   18TAL    C8914882   6.535   6.488   5.401 -0.6055  0.4377 -0.7774
   18TAL    C9014883   6.420   6.403   5.381  0.5955 -0.8172  0.0273
   19HTM    C9114884   6.856   6.975   5.308 -0.2679 -0.2166 -0.1475
   19HTM    C9214885   6.982   6.925   5.288 -0.4017 -0.5398 -0.2027
   19HTM    C9314886   7.072   6.950   5.398 -0.1875 -0.4380 -0.4004
   19HTM    C9414887   7.015   7.018   5.501  0.1095 -0.0370 -0.4964
   19HTM    S1014888   6.842   7.057   5.468  0.1419  0.2452 -0.3433
   20TAL    C9514889   7.220   6.910   5.390 -1.0655  1.2607 -0.3537
   20TAL    C9614890   7.283   6.849   5.264  0.4254 -0.0623 -0.2386
   20TAL    C9714891   7.235   6.714   5.220 -1.0039  0.0578  0.5323
   20TAL    C9814892   7.335   6.668   5.111  0.1903 -0.0313 -0.4455
   20TAL    C9914893   7.290   6.540   5.041  0.6323  0.0450 -0.3741
   20TAL   C10014894   7.313   6.529   4.895 -0.4614 -0.4470 -0.8197
   21HTM   C10114895   7.069   7.064   5.628  0.2868 -0.5926  0.0661
   21HTM   C10214896   6.991   7.117   5.727  0.1965 -0.7871  0.0987
   21HTM   C10314897   7.065   7.179   5.833  0.0802 -0.1553 -0.1787
   21HTM   C10414898   7.200   7.174   5.816  0.0820  0.5212 -0.4228
   21HTM    S1114899   7.244   7.090   5.663  0.2319  0.4116 -0.3203
   22TAL   C10514900   7.011   7.270   5.944 -0.2818 -0.3560 -0.0936
   22TAL   C10614901   6.905   7.219   6.033 -0.2993  0.1464  0.5193
   22TAL   C10714902   6.838   7.323   6.123  0.7712  0.0247  0.3699
   22TAL   C10814903   6.739   7.256   6.228 -0.2620  0.1497 -0.1349
   22TAL   C10914904   6.702   7.356   6.340 -0.2101 -0.2576 -0.2910
   22TAL   C11014905   6.650   7.282   6.457  0.5307 -0.0340  0.4599
   23HTM   C11114906   7.316   7.215   5.897  0.2928  0.3710 -0.3687
   23HTM   C11214907   7.435   7.262   5.848  0.4668  0.1271 -0.1854
   23HTM   C11314908   7.533   7.289   5.950  0.4039 -0.1779 -0.0414
   23HTM   C11414909   7.489   7.263   6.077  0.1820 -0.1667 -0.1148
   23HTM    S1214910   7.319   7.202   6.077  0.0340  0.2331 -0.3735
   24TAL   C11514911   7.665   7.347   5.908  0.0316  0.1126  0.2806
   24TAL   C11614912   7.779   7.263   5.852  0.0416 -0.5100 -0.3988
   24TAL   C11714913   7.802   7.289   5.711 -0.6181 -0.7304 -0.4997
   24TAL   C11814914   7.938   7.268   5.650 -0.2713 -0.0691 -0.2869
   24TAL   C11914915   8.022   7.141   5.668 -0.5577 -0.1884  0.4950
   24TAL   C12014916   7.948   7.010   5.618 -0.3448 -0.7756  0.6935
   25HTM   C12114917   7.549   7.275   6.211  0.1119 -0.8698 -0.0944
   25HTM   C12214918   7.507   7.200   6.317  0.1940 -0.8806 -0.0691
   25HTM   C12314919   7.591   7.213   6.434 -0.0020 -0.4942  0.0316
   25HTM   C12414920   7.696   7.298   6.416 -0.2335 -0.1891  0.0831
   25HTM    S1314921   7.699   7.368   6.250 -0.2218 -0.3671  0.0079
   26TAL   C12514922   7.549   7.155   6.575 -0.3875 -0.2209  0.2276
   26TAL   C12614923   7.458   7.027   6.568  0.0068 -0.2743 -0.0673
   26TAL   C12714924   7.504   6.919   6.655  1.2388  0.4874  0.3555
   26TAL   C12814925   7.423   6.779   6.648  0.5647 -0.6055 -0.0045
   26TAL   C12914926   7.480   6.680   6.750 -0.0150 -0.3660  0.0298
   26TAL   C13014927   7.425   6.535   6.760  0.5445  0.4796 -0.4980
   27HTM   C13114928   7.805   7.334   6.499  0.0949  0.1444 -0.3140
   27HTM   C13214929   7.865   7.456   6.513 -0.4506  0.3841  0.0124
   27HTM   C13314930   7.979   7.453   6.601 -0.5061  0.6887  0.0948
   27HTM   C13414931   8.006   7.330   6.653 -0.0030  0.6811 -0.1688
   27HTM    S1414932   7.888   7.207   6.595  0.5846  0.2861 -0.5443
   28TAL   C13514933   8.059   7.579   6.621 -0.8516  0.1488  0.1288
   28TAL   C13614934   8.198   7.592   6.543  0.2846  0.6604 -0.5618
   28TAL   C13714935   8.267   7.717   6.583 -0.6250 -0.0673  0.1733
   28TAL   C13814936   8.401   7.730   6.512  0.8783 -0.6368  0.3383
   28TAL   C13914937   8.387   7.777   6.371 -0.5345  0.4145  0.1315
   28TAL   C14014938   8.506   7.729   6.279 -0.3057 -0.4400  0.0084
   29HTM   C14114939   8.118   7.274   6.730 -0.0883  0.4721 -0.0571
   29HTM   C14214940   8.181   7.155   6.712 -0.2026  0.4476 -0.3084
   29HTM   C14314941   8.301   7.140   6.791 -0.3335  0.0824 -0.1758
   29HTM   C14414942   8.329   7.248   6.869 -0.3190 -0.1715  0.1768
   29HTM    S1514943   8.206   7.378   6.849 -0.1376  0.0325  0.3703
   30TAL   C14514944   8.370   7.004   6.779 -0.4908  0.3957 -0.4524
   30TAL   C14614945   8.445   6.991   6.652 -1.0289 -0.9441 -0.3107
   30TAL   C14714946   8.470   6.848   6.603  0.5829 -0.9061  0.7749
   30TAL   C14814947   8.599   6.853   6.519 -0.9815 -1.0664 -0.0602
   30TAL   C14914948   8.682   6.717   6.490  0.0727  0.7649 -0.4890
   30TAL   C15014949   8.825   6.712   6.425  0.3986  0.5414  0.2807
   31HTM   C15114950   8.429   7.265   6.973  0.4018  0.1911 -0.1140
   31HTM   C15214951   8.563   7.238   6.975  0.4014  0.2038  0.2252
   31HTM   C15314952   8.618   7.227   7.108  0.0145 -0.0490  0.3695
   31HTM   C15414953   8.527   7.246   7.207 -0.2801 -0.2548  0.1409
   31HTM    S1614954   8.362   7.279   7.140 -0.0904 -0.1442 -0.2786
   32TAL   C15514955   8.762   7.181   7.134 -0.5309  0.3080  0.3504
   32TAL   C15614956   8.840   7.119   7.024 -0.6172  0.5793  0.1287
   32TAL   C15714957   8.985   7.106   7.077 -0.3888 -0.6791  0.0650
   32TAL   C15814958   9.081   7.047   6.977  0.5094  0.2213 -0.4492
   32TAL   C15914959   9.191   6.974   7.044 -0.5386  0.3095 -0.9493
   32TAL   C16014960   9.289   7.075   7.101 -0.1463 -0.0836  0.4182
   33HTM   C16114961   8.537   7.257   7.352 -0.1168  0.1841 -0.3393
   33HTM   C16214962   8.624   7.337   7.420  0.1770 -0.5212  0.1270
   33HTM   C16314963   8.587   7.359   7.558  0.1220 -0.9668  0.1885
   33HTM   C16414964   8.472   7.297   7.594 -0.2137 -0.6012 -0.2306
   33HTM    S1714965   8.400   7.205   7.457 -0.4886  0.3417 -0.7398
   34TAL   C16514966   8.673   7.441   7.649 -0.0888 -0.9010  0.7178
   34TAL   C16614967   8.805   7.365   7.699  1.2856  0.0992 -0.4934
   34TAL   C16714968   8.929   7.414   7.626 -0.1832  0.1345  0.6646
   34TAL   C16814969   9.058   7.345   7.678 -0.3608 -0.2480  1.0073
   34TAL   C16914970   9.185   7.411   7.637 -0.6982 -0.7739 -0.6572
   34TAL   C17014971   9.317   7.364   7.706  0.4577  0.0578  0.7951
   35HTM   C17114972   8.396   7.300   7.725 -0.5308 -0.4339 -0.1587
   35HTM   C17214973   8.403   7.203   7.821 -0.7797 -0.5316 -0.2384
   35HTM   C17314974   8.346   7.243   7.948 -0.7138 -0.5044 -0.2173
   35HTM   C17414975   8.297   7.370   7.948 -0.4147 -0.3860 -0.1217
   35HTM    S1814976   8.317   7.450   7.788 -0.1913 -0.2989 -0.0501
   36TAL   C17514977   8.323   7.156   8.064 -0.5046  0.1262  0.4873
   36TAL   C17614978   8.368   7.015   8.083 -0.3455 -0.2811  0.7365
   36TAL   C17714979   8.315   6.953   8.210  0.4911 -0.1367  0.2136
   36TAL   C17814980   8.382   6.823   8.254  0.0219  0.6959 -0.2746
   36TAL   C17914981   8.390   6.692   8.179  0.4600 -0.3064  0.1696
   36TAL   C18014982   8.265   6.608   8.179 -0.3682  1.3584  0.1215
   37HTM   C18114983   8.238   7.452   8.049 -0.3740  0.0487 -0.4918
   37HTM   C18214984   8.226   7.437   8.184 -0.3081 -0.0758 -0.5000
   37HTM   C18314985   8.164   7.549   8.250 -0.2344 -0.1168 -0.3600
   37HTM   C18414986   8.129   7.650   8.165 -0.2441 -0.0236 -0.2454
   37HTM    S1914987   8.172   7.611   7.994 -0.3478  0.1243 -0.3057
   38TAL   C18514988   8.149   7.554   8.405 -0.4063 -0.8265  0.2192
   38TAL   C18614989   8.277   7.535   8.484 -1.2151  0.8169 -0.0339
   38TAL   C18714990   8.364   7.653   8.516 -0.3364  0.3288  0.4734
   38TAL   C18814991   8.292   7.778   8.570  1.4751  0.4190  0.6894
   38TAL   C18914992   8.402   7.864   8.623 -0.6841  0.2883 -0.2378
   38TAL   C19014993   8.353   7.998   8.670  0.1008 -0.5263 -0.1200
   39HTM   C19114994   8.076   7.783   8.188 -0.2858 -0.0191 -0.7007
   39HTM   C19214995   7.983   7.843   8.108  0.1239  0.4584 -0.8268
   39HTM   C19314996   7.971   7.985   8.130  0.5732  0.4654 -0.6006
   39HTM   C19414997   8.054   8.033   8.227  0.5061 -0.0068 -0.3014
   39HTM    S2014998   8.156   7.902   8.298 -0.1348 -0.5009 -0.2826
   40TAL   C19514999   7.874   8.065   8.049 -0.7461 -0.0579 -0.6128
   40TAL   C19615000   7.818   7.993   7.928 -0.4664 -0.8560  0.1832
   40TAL   C19715001   7.754   8.081   7.817  0.2672  1.0718 -0.3143
   40TAL   C19815002   7.697   8.006   7.692 -0.1098  0.0189 -0.5364
   40TAL   C19915003   7.623   8.103   7.611 -0.6784 -0.2618 -0.4899
   40TAL   C20015004   7.608   8.088   7.455 -0.3152 -0.3455  0.3579
   41HTM   C20115005   8.061   8.166   8.285  0.1495  0.4011 -0.3986
   41HTM   C20215006   8.038   8.291   8.235 -0.2906  0.4759 -0.0210
   41HTM   C20315007   8.070   8.397   8.328 -0.4272  0.3164  0.2096
   41HTM   C20415008   8.117   8.352   8.448 -0.0913  0.1199  0.0084
   41HTM    S2115009   8.125   8.172   8.453  0.4277  0.1211 -0.4922
   42TAL   C20515010   8.047   8.541   8.289  0.3093  0.8308 -0.4500
   42TAL   C20615011   7.920   8.614   8.269  0.2004 -0.4587 -0.4086
   42TAL   C20715012   7.915   8.764   8.211  0.2791 -0.4311 -0.7106
   42TAL   C20815013   8.000   8.886   8.267  0.1217  0.3318 -0.6629
   42TAL   C20915014   8.008   8.897   8.419  0.2510  0.0928  0.5783
   42TAL   C21015015   8.099   9.018   8.443 -0.4699 -1.1195 -0.0557
   43HTM   C21115016   8.143   8.423   8.570  0.0482 -0.4584  0.5631
   43HTM   C21215017   8.173   8.367   8.691  0.1897 -0.3496  0.5798
   43HTM   C21315018   8.200   8.463   8.794  0.8994 -0.2609  0.3188
   43HTM   C21415019   8.192   8.592   8.753  1.2991 -0.3021  0.1030
   43HTM    S2215020   8.149   8.603   8.578  0.8062 -0.4573  0.2137
   44TAL   C21515021   8.221   8.406   8.935 -0.4338  0.2149 -0.1644
   44TAL   C21615022   8.360   8.334   8.965 -0.0136 -0.1576  0.8246
   44TAL   C21715023   8.381   8.296   9.112 -0.0780  0.2784 -0.1950
   44TAL   C21815024   8.378   8.413   9.200  0.3653  0.5984 -1.6884
   44TAL   C21915025   8.346   8.394   9.352  0.9001 -0.8680  0.7867
   44TAL   C22015026   8.396   8.270   9.419 -0.9056  0.4949 -0.5054
   45HTM   C22115027   8.219   8.715   8.833  0.6329  0.4529  0.0369
   45HTM   C22215028   8.238   8.842   8.786  0.4465  0.7278  0.6907
   45HTM   C22315029   8.267   8.938   8.889 -0.5036  0.4044  1.2925
   45HTM   C22415030   8.272   8.884   9.015 -1.0416 -0.1170  1.0975
   45HTM    S2315031   8.239   8.707   9.012 -0.3849 -0.2410  0.1311
   46TAL   C22515032   8.291   9.087   8.862 -0.4570 -0.3618  0.9450
   46TAL   C22615033   8.291   9.141   8.724  0.6951 -0.0177 -0.0534
   46TAL   C22715034   8.303   9.290   8.706 -0.0618 -0.7034 -0.0077
   46TAL   C22815035   8.382   9.333   8.581 -0.0614  0.0759  0.4491
   46TAL   C22915036   8.395   9.491   8.599 -0.1143  0.6123  0.6225
   46TAL   C23015037   8.430   9.565   8.476 -0.6457  0.2523  0.7701
   47HTM   C23115038   8.273   8.952   9.139 -0.1370 -0.1861 -0.0678
   47HTM   C23215039   8.386   9.002   9.197 -0.0311 -0.0818 -0.3595
   47HTM   C23315040   8.364   9.057   9.328  0.2809 -0.2244 -0.2470
   47HTM   C23415041   8.235   9.049   9.370  0.4129 -0.4373  0.1306
   47HTM    S2415042   8.129   8.972   9.246  0.1514 -0.4746  0.3755
   48TAL   C23515043   8.470   9.117   9.420  0.0830 -0.0264  0.2874
   48TAL   C23615044   8.609   9.141   9.359 -0.1895 -0.5909 -0.3349
   48TAL   C23715045   8.717   9.167   9.452 -0.4028 -0.6344 -0.6521
   48TAL   C23815046   8.842   9.187   9.358  0.3020 -0.7168  0.4960
   48TAL   C23915047   8.982   9.230   9.416 -0.3378  0.0106 -0.3022
   48TAL   C24015048   9.072   9.113   9.477  0.0774  0.6237 -0.1419
    1HTM     C115049   5.356   4.961  14.740 -0.5840  0.2625 -0.0759
    1HTM     C215050   5.262   5.057  14.761 -0.8860 -0.0734  0.1490
    1HTM     C315051   5.185   5.039  14.881 -0.5844 -0.3953  0.2956
    1HTM     C415052   5.220   4.928  14.952 -0.0528 -0.3046  0.1824
    1HTM     S115053   5.355   4.838  14.872  0.1097  0.1980 -0.1207
    2TAL     C515054   5.085   5.140  14.920  0.9664 -0.4644 -0.8174
    2TAL     C615055   5.061   5.275  14.861 -0.4762  0.8627  0.5990
    2TAL     C715056   4.950   5.363  14.914 -0.1233  0.2633  0.1368
    2TAL     C815057   4.914   5.483  14.836  0.6468  0.5800 -0.3935
    2TAL     C915058   4.778   5.548  14.876  0.0436 -0.2024 -0.5210
    2TAL    C1015059   4.750   5.647  14.767 -0.4645 -0.5014  1.3470
    3HTM    C1115060   5.171   4.886  15.082 -0.3461  0.4328 -0.3203
    3HTM    C1215061   5.122   4.762  15.109 -0.6618  0.4320 -0.8759
    3HTM    C1315062   5.080   4.745  15.246 -0.8044 -0.0414 -0.9756
    3HTM    C1415063   5.098   4.856  15.323 -0.5973 -0.4014 -0.4960
    3HTM     S215064   5.169   4.991  15.229 -0.2032 -0.1689  0.1237
    4TAL    C1515065   5.033   4.617  15.308 -0.4555 -0.2207 -0.7327
    4TAL    C1615066   4.952   4.519  15.232 -1.0315  0.5187  0.0441
    4TAL    C1715067   4.898   4.400  15.300  0.3747  0.3517 -0.7449
    4TAL    C1815068   4.861   4.395  15.456 -0.9989 -0.6752  0.4243
    4TAL    C1915069   4.739   4.483  15.504 -0.0766  0.3755 -0.1628
    4TAL    C2015070   4.742   4.629  15.548 -0.3339 -0.0656 -0.3324
    5HTM    C2115071   5.055   4.885  15.455 -0.2526  0.1810 -0.5208
    5HTM    C2215072   5.088   4.828  15.574  0.5156  0.7733 -0.4389
    5HTM    C2315073   5.028   4.893  15.688  0.9725  1.1258 -0.3910
    5HTM    C2415074   4.949   4.999  15.656  0.5527  0.8023 -0.4364
    5HTM     S315075   4.944   5.026  15.477 -0.4604  0.0212 -0.5439
    6TAL    C2515076   5.056   4.847  15.833 -0.6076 -0.7995  0.5250
    6TAL    C2615077   5.107   4.705  15.850 -0.4787 -0.6264 -0.3122
    6TAL    C2715078   5.180   4.672  15.977  0.4132  0.5908  0.3475
    6TAL    C2815079   5.326   4.710  15.971 -0.7478  0.2448 -0.7171
    6TAL    C2915080   5.393   4.666  16.101 -0.4333  0.2585 -0.6288
    6TAL    C3015081   5.426   4.521  16.133  0.0260 -1.1178  0.1534
    7HTM    C3115082   4.850   5.078  15.737 -0.0319  0.5790 -0.2512
    7HTM    C3215083   4.865   5.213  15.748 -0.0886  0.5423  0.3312
    7HTM    C3315084   4.787   5.272  15.853  0.1234  0.0165  0.7954
    7HTM    C3415085   4.711   5.182  15.922  0.3418 -0.3477  0.5674
    7HTM     S415086   4.733   5.015  15.859  0.2964 -0.0524 -0.2584
    8TAL    C3515087   4.770   5.422  15.873 -0.5815 -1.1196 -0.3272
    8TAL    C3615088   4.724   5.504  15.751 -0.3783  0.0011 -0.5038
    8TAL    C3715089   4.679   5.639  15.813  0.4682 -0.1661 -0.8867
    8TAL    C3815090   4.581   5.725  15.729 -0.1726  0.6591  0.2996
    8TAL    C3915091   4.624   5.803  15.613  0.6174  0.7818 -0.0022
    8TAL    C4015092   4.763   5.861  15.604  0.4929 -0.1498  1.3946
    9HTM    C4115093   4.601   5.198  16.021 -0.2741 -0.2088 -0.2953
    9HTM    C4215094   4.541   5.103  16.098 -1.3969 -0.2670 -1.1888
    9HTM    C4315095   4.445   5.156  16.191 -1.5591 -0.1479 -1.4205
    9HTM    C4415096   4.432   5.291  16.186 -0.5601  0.0010 -0.7030
    9HTM     S515097   4.541   5.363  16.061  0.6725  0.0024  0.3283
   10TAL    C4515098   4.357   5.059  16.270  0.3046 -0.1306  1.0956
   10TAL    C4615099   4.253   4.980  16.194  0.1866  0.4131  0.5189
   10TAL    C4715100   4.142   4.913  16.280  0.1846 -0.3875 -0.0968
   10TAL    C4815101   4.063   4.807  16.197  0.3091 -0.2272  0.5494
   10TAL    C4915102   4.123   4.691  16.107 -0.3359  0.2422  0.7024
   10TAL    C5015103   4.009   4.619  16.038  0.6996  0.6962  0.0231
   11HTM    C5115104   4.343   5.389  16.244  0.3083  0.2178  0.2221
   11HTM    C5215105   4.254   5.475  16.187  0.8775  0.7025  0.0496
   11HTM    C5315106   4.175   5.548  16.282  0.8293  0.8558 -0.1078
   11HTM    C5415107   4.203   5.518  16.412  0.2236  0.4882 -0.0553
   11HTM     S615108   4.333   5.394  16.424 -0.3378 -0.0848  0.1995
   12TAL    C5515109   4.073   5.658  16.240 -0.2787 -0.5977 -0.3505
   12TAL    C5615110   4.121   5.771  16.150  0.5724 -0.5285  1.3030
   12TAL    C5715111   4.235   5.853  16.215 -0.6106  0.7552  1.3233
   12TAL    C5815112   4.252   5.898  16.359  0.2049  0.4057 -0.8424
   12TAL    C5915113   4.128   5.963  16.414  0.3137 -0.3054 -0.4031
   12TAL    C6015114   4.149   5.978  16.561 -0.0821  0.7288  0.4218
   13HTM    C6115115   4.152   5.566  16.543 -0.1154 -0.4549  0.3413
   13HTM    C6215116   4.232   5.602  16.649 -0.2524  0.1709  0.2413
   13HTM    C6315117   4.158   5.639  16.767 -0.4041  0.7278 -0.0210
   13HTM    C6415118   4.023   5.631  16.752 -0.3829  0.5268 -0.1196
   13HTM     S715119   3.977   5.577  16.586 -0.1678 -0.3885  0.1112
   14TAL    C6515120   4.224   5.673  16.892  0.4561  0.4845 -1.0777
   14TAL    C6615121   4.290   5.809  16.879 -0.6793  1.0324  0.3538
   14TAL    C6715122   4.337   5.884  17.001  0.1806  0.2324  0.5367
   14TAL    C6815123   4.411   5.999  16.926  0.0365 -0.1712 -0.8989
   14TAL    C6915124   4.487   6.086  17.029  0.4599 -0.9570  0.5871
   14TAL    C7015125   4.495   6.231  16.970 -0.5366  0.8726 -0.2918
   15HTM    C7115126   3.921   5.687  16.842 -0.4663  0.9897 -0.3989
   15HTM    C7215127   3.865   5.812  16.838 -1.1985  0.6808 -0.2484
   15HTM    C7315128   3.784   5.843  16.952 -1.0210  0.2273  0.0062
   15HTM    C7415129   3.776   5.742  17.044 -0.1535  0.1902  0.0512
   15HTM     S815130   3.873   5.598  16.992  0.5118  0.7297 -0.2280
   16TAL    C7515131   3.702   5.975  16.957 -0.2172  0.3587 -0.1322
   16TAL    C7615132   3.769   6.099  17.027 -0.0763  0.7739 -0.1917
   16TAL    C7715133   3.920   6.117  17.027 -0.1577  0.3486 -0.4353
   16TAL    C7815134   3.953   6.263  17.036  1.3028 -0.0565 -0.0379
   16TAL    C7915135   4.095   6.300  17.080 -0.1156 -0.1027  0.5228
   16TAL    C8015136   4.111   6.449  17.122 -0.2850  0.5908 -0.1679
   17HTM    C8115137   3.695   5.734  17.164 -0.2576 -0.6823 -0.1403
   17HTM    C8215138   3.569   5.685  17.186 -0.0600 -1.0612  0.1678
   17HTM    C8315139   3.518   5.713  17.317  0.0460 -0.9218  0.1793
   17HTM    C8415140   3.605   5.784  17.396 -0.0709 -0.4367 -0.1210
   17HTM     S915141   3.759   5.820  17.309 -0.3258 -0.1158 -0.4429
   18TAL    C8515142   3.394   5.647  17.361  0.2524 -0.3739  0.3226
   18TAL    C8615143   3.378   5.495  17.409 -0.8955  0.0047  0.8593
   18TAL    C8715144   3.505   5.407  17.424  0.7783  0.3577  0.7602
   18TAL    C8815145   3.612   5.430  17.518 -0.8558  0.9421 -0.4289
   18TAL    C8915146   3.606   5.385  17.669  0.5023  0.1401  1.5351
   18TAL    C9015147   3.749   5.404  17.731  0.5471  0.2729 -0.5824
   19HTM    C9115148   3.596   5.839  17.537  0.0580  0.6869 -0.4483
   19HTM    C9215149   3.702   5.838  17.623  0.3504  1.4055 -0.7830
   19HTM    C9315150   3.664   5.846  17.761  0.7381  1.2599 -0.6657
   19HTM    C9415151   3.529   5.853  17.781  0.7413  0.4304 -0.2431
   19HTM    S1015152   3.439   5.851  17.625  0.2512 -0.2366  0.0427
   20TAL    C9515153   3.764   5.845  17.878  0.5816  0.0453  0.0365
   20TAL    C9615154   3.921   5.856  17.858 -0.0057  0.0342  0.0502
   20TAL    C9715155   3.970   6.000  17.835  0.2507  0.3445  0.3845
   20TAL    C9815156   3.988   6.071  17.963 -0.2856 -0.2903  0.1580
   20TAL    C9915157   4.080   6.201  17.972 -0.6708  0.8039 -0.2648
   20TAL   C10015158   4.239   6.208  17.960  0.4263  0.2909  0.2026
   21HTM   C10115159   3.470   5.876  17.911 -0.5747  0.0381 -0.2837
   21HTM   C10215160   3.464   5.996  17.976 -0.2776 -0.0287 -0.1311
   21HTM   C10315161   3.379   5.994  18.092  0.1361 -0.1080  0.1750
   21HTM   C10415162   3.320   5.873  18.116  0.1544 -0.1016  0.2549
   21HTM    S1115163   3.368   5.751  17.991 -0.3534  0.0060 -0.0511
   22TAL   C10515164   3.378   6.115  18.180  0.9516  0.0268 -0.2385
   22TAL   C10615165   3.285   6.223  18.114  0.5670  0.6899 -0.2169
   22TAL   C10715166   3.280   6.325  18.225  1.0308  0.0169  0.2300
   22TAL   C10815167   3.199   6.449  18.174 -0.1677  0.1159  0.7907
   22TAL   C10915168   3.143   6.527  18.281 -0.2083 -0.6691  0.7046
   22TAL   C11015169   3.075   6.646  18.210  0.4899 -0.2511  0.5471
   23HTM   C11115170   3.211   5.828  18.205 -0.4015 -0.1359 -0.6624
   23HTM   C11215171   3.186   5.698  18.235 -0.6481 -0.1706 -0.9975
   23HTM   C11315172   3.068   5.677  18.314 -0.3440 -0.0811 -0.5112
   23HTM   C11415173   3.002   5.792  18.345  0.1344  0.0219  0.1949
   23HTM    S1215174   3.084   5.937  18.275  0.2390  0.0136  0.3013
   24TAL   C11515175   3.025   5.532  18.357 -0.5422 -0.2635 -0.1699
   24TAL   C11615176   3.001   5.443  18.238  0.2817  0.7961  0.0387
   24TAL   C11715177   2.861   5.432  18.192 -0.3113 -0.0003 -0.1837
   24TAL   C11815178   2.831   5.332  18.079  0.2913 -0.1001  0.0353
   24TAL   C11915179   2.741   5.387  17.974  0.3945  0.9635 -0.1855
   24TAL   C12015180   2.704   5.264  17.900  0.3319 -0.6925  0.3563
   25HTM   C12115181   2.873   5.800  18.406  0.5187 -0.2498  0.1408
   25HTM   C12215182   2.760   5.794  18.330  0.6801 -0.2975 -0.1001
   25HTM   C12315183   2.639   5.808  18.407  0.5221 -0.0232 -0.4005
   25HTM   C12415184   2.660   5.826  18.540  0.2402  0.2336 -0.3886
   25HTM    S1315185   2.835   5.826  18.580  0.1518  0.1483  0.0059
   26TAL   C12515186   2.500   5.807  18.346 -0.0119 -0.0498 -0.6781
   26TAL   C12615187   2.493   5.838  18.191  0.5967  0.3178  0.1232
   26TAL   C12715188   2.532   5.727  18.102 -0.0891  0.9367  0.0770
   26TAL   C12815189   2.525   5.752  17.952 -0.4895 -0.4466  0.2330
   26TAL   C12915190   2.576   5.649  17.846 -0.3672 -0.5286  0.2903
   26TAL   C13015191   2.521   5.673  17.704  0.4315 -0.0308 -1.0119
   27HTM   C13115192   2.577   5.856  18.657  0.6822 -0.3272  0.9732
   27HTM   C13215193   2.533   5.972  18.713  0.8916 -0.3039  1.0891
   27HTM   C13315194   2.438   5.953  18.819  0.2682 -0.2159  0.5579
   27HTM   C13415195   2.409   5.823  18.844 -0.4163 -0.1723  0.0383
   27HTM    S1415196   2.500   5.712  18.734 -0.3262 -0.2392  0.1797
   28TAL   C13515197   2.356   6.068  18.876 -0.1562  0.1620 -0.3123
   28TAL   C13615198   2.314   6.169  18.766 -1.0859 -1.3405  0.5547
   28TAL   C13715199   2.213   6.276  18.811  0.1534  0.3182  1.1827
   28TAL   C13815200   2.077   6.206  18.785  0.9865  0.0288 -0.4200
   28TAL   C13915201   1.958   6.293  18.805 -0.3392 -1.3400 -1.1670
   28TAL   C14015202   1.819   6.225  18.781 -0.9574  0.5010 -0.8503
   29HTM   C14115203   2.326   5.772  18.949 -0.2595  0.2862  0.2790
   29HTM   C14215204   2.292   5.815  19.074 -0.4575  0.1782  0.2637
   29HTM   C14315205   2.197   5.730  19.141 -0.3290 -0.0509  0.1602
   29HTM   C14415206   2.157   5.623  19.067 -0.0331 -0.1175  0.0953
   29HTM    S1515207   2.238   5.620  18.905  0.1073  0.1056  0.1616
   30TAL   C14515208   2.156   5.774  19.282  0.4469  0.6496 -0.4713
   30TAL   C14615209   2.041   5.874  19.282  0.0818  0.0285 -0.4235
   30TAL   C14715210   2.072   6.021  19.245 -0.2323  0.2576  0.2202
   30TAL   C14815211   1.941   6.107  19.235 -0.0942  0.0338  0.1303
   30TAL   C14915212   1.891   6.164  19.373  0.7510  0.6091 -0.7213
   30TAL   C15015213   1.990   6.234  19.464  0.4715 -0.5146  0.6789
   31HTM   C15115214   2.083   5.507  19.104  0.7992  0.6408  0.9708
   31HTM   C15215215   2.108   5.380  19.063  1.0301  0.8601  0.4158
   31HTM   C15315216   2.024   5.281  19.125  0.7841  0.4935 -0.4668
   31HTM   C15415217   1.935   5.333  19.214  0.3656 -0.0054 -0.5851
   31HTM    S1615218   1.950   5.512  19.226  0.2488 -0.0509  0.4168
   32TAL   C15515219   2.016   5.133  19.081 -0.3814  1.0572  0.3855
   32TAL   C15615220   2.138   5.051  19.117 -1.0942  0.6129 -0.3918
   32TAL   C15715221   2.139   5.034  19.270  0.3007 -0.0786  0.5472
   32TAL   C15815222   2.230   4.928  19.303  0.0957  1.7210  0.8463
   32TAL   C15915223   2.178   4.839  19.412  0.2432  0.1046 -0.6348
   32TAL   C16015224   2.272   4.740  19.490  0.6683  1.2592  0.1984
   33HTM   C16115225   1.831   5.273  19.288  1.1684 -0.2037 -0.2787
   33HTM   C16215226   1.707   5.235  19.247  1.2507 -0.0689 -0.6561
   33HTM   C16315227   1.629   5.171  19.349  0.6248  0.6064 -0.6924
   33HTM   C16415228   1.694   5.159  19.468  0.0653  0.9865 -0.3420
   33HTM    S1715229   1.860   5.229  19.461  0.2872  0.5172  0.0641
   34TAL   C16515230   1.492   5.117  19.318  1.1680  0.1228 -0.6730
   34TAL   C16615231   1.408   5.229  19.259  0.1173  0.4138  0.8410
   34TAL   C16715232   1.369   5.347  19.345  0.0279 -0.4125  0.1969
   34TAL   C16815233   1.340   5.335  19.489 -0.4960  0.3113 -0.3827
   34TAL   C16915234   1.273   5.457  19.558  1.5056  0.0850  0.2918
   34TAL   C17015235   1.272   5.593  19.483  0.2595  0.1569  0.3002
   35HTM   C17115236   1.656   5.074  19.587 -0.2707 -0.5294 -0.0071
   35HTM   C17215237   1.535   5.058  19.647 -0.1312 -0.4318  0.3047
   35HTM   C17315238   1.539   4.977  19.765  0.1919 -0.0125  0.5851
   35HTM   C17415239   1.664   4.931  19.796  0.2988  0.2092  0.4874
   35HTM    S1815240   1.787   4.987  19.676 -0.0027 -0.0960  0.0293
   36TAL   C17515241   1.414   4.950  19.851 -0.8875  0.5362  0.1820
   36TAL   C17615242   1.294   4.886  19.777  0.6937 -0.2127 -0.4934
   36TAL   C17715243   1.189   4.816  19.864 -1.4244 -0.0391  0.5670
   36TAL   C17815244   1.088   4.738  19.785 -0.4135  0.5022  0.3842
   36TAL   C17915245   1.028   4.795  19.662  0.0853 -0.6122  0.1677
   36TAL   C18015246   0.907   4.736  19.597 -0.2155  0.0594 -0.2960
   37HTM   C18115247   1.711   4.857  19.916 -0.8805 -0.3534  0.5789
   37HTM   C18215248   1.674   4.732  19.953 -0.5588 -0.3442  0.9518
   37HTM   C18315249   1.740   4.684  20.072  0.0890 -0.0967  0.7014
   37HTM   C18415250   1.827   4.773  20.126  0.2614  0.0829  0.1384
   37HTM    S1915251   1.833   4.926  20.030 -0.3862 -0.0477 -0.1221
   38TAL   C18515252   1.709   4.544  20.122  0.2260  0.4144 -1.5786
   38TAL   C18615253   1.562   4.525  20.166 -0.0041 -0.7991  0.4092
   38TAL   C18715254   1.480   4.426  20.082  1.0584 -0.1549 -0.3158
   38TAL   C18815255   1.439   4.296  20.144  0.2362  0.1035 -0.9178
   38TAL   C18915256   1.306   4.237  20.094 -0.5359  0.1978  0.0275
   38TAL   C19015257   1.254   4.110  20.160  0.1068 -0.1003  0.2047
   39HTM   C19115258   1.901   4.773  20.246  0.3301 -0.0247 -0.0731
   39HTM   C19215259   1.948   4.883  20.312  0.1411 -0.0354  0.0825
   39HTM   C19315260   2.025   4.850  20.430  0.0439 -0.0644  0.1378
   39HTM   C19415261   2.035   4.716  20.453  0.1589 -0.0757  0.0248
   39HTM    S2015262   1.949   4.620  20.328  0.4007 -0.0504 -0.1622
   40TAL   C19515263   2.076   4.954  20.532 -0.3361  0.1105 -0.1074
   40TAL   C19615264   2.177   5.061  20.483 -0.0609  0.7193  0.1408
   40TAL   C19715265   2.148   5.207  20.488 -0.8399 -0.4008 -0.1726
   40TAL   C19815266   2.020   5.257  20.437 -0.9223  0.2635 -0.2736
   40TAL   C19915267   2.024   5.405  20.410  0.2413  0.0664 -0.5183
   40TAL   C20015268   1.876   5.467  20.395 -0.3187 -0.4012  0.0647
   41HTM   C20115269   2.114   4.647  20.554  0.5169  0.4310 -0.3094
   41HTM   C20215270   2.231   4.586  20.518  0.5504  0.3674 -0.0930
   41HTM   C20315271   2.311   4.544  20.630  0.1380 -0.0275  0.0606
   41HTM   C20415272   2.256   4.573  20.751 -0.2102 -0.2654 -0.0376
   41HTM    S2115273   2.097   4.657  20.733 -0.0428 -0.0067 -0.3353
   42TAL   C20515274   2.443   4.469  20.604  0.2418 -0.5752 -0.3015
   42TAL   C20615275   2.509   4.486  20.465  0.2929  0.6836  0.4782
   42TAL   C20715276   2.465   4.388  20.354 -0.4212 -0.3819 -1.2130
   42TAL   C20815277   2.546   4.398  20.224  0.6493 -0.1774  1.1831
   42TAL   C20915278   2.689   4.364  20.229 -0.2122  0.4512 -0.3475
   42TAL   C21015279   2.765   4.340  20.098 -0.7320  1.0724  0.7704
   43HTM   C21115280   2.316   4.556  20.884  0.2387  0.2871 -0.1061
   43HTM   C21215281   2.309   4.450  20.968 -0.1848  0.2756 -0.1526
   43HTM   C21315282   2.399   4.459  21.080 -0.3718  0.0166  0.0205
   43HTM   C21415283   2.474   4.572  21.081 -0.0909 -0.1695  0.1991
   43HTM    S2215284   2.438   4.677  20.939  0.4357 -0.0308  0.1606
   44TAL   C21515285   2.410   4.352  21.197 -0.1103 -0.3012  0.5664
   44TAL   C21615286   2.517   4.238  21.203 -0.4511  0.1290 -0.4324
   44TAL   C21715287   2.556   4.182  21.066 -0.0904 -1.1875  0.4868
   44TAL   C21815288   2.675   4.083  21.051 -0.1573  0.3572 -0.6178
   44TAL   C21915289   2.813   4.131  21.109  0.3488 -0.2367  0.1129
   44TAL   C22015290   2.917   4.022  21.119 -0.5090 -0.2975  0.2238
   45HTM   C22115291   2.572   4.628  21.167  0.0341  0.4992  0.1207
   45HTM   C22215292   2.588   4.761  21.196  0.3215  0.4933  0.0029
   45HTM   C22315293   2.701   4.788  21.281  0.3345  0.3152  0.0439
   45HTM   C22415294   2.771   4.677  21.317  0.0572  0.1855  0.1934
   45HTM    S2315295   2.700   4.528  21.245 -0.2443  0.2786  0.2948
   46TAL   C22515296   2.706   4.932  21.336  1.3247  0.1754 -0.1111
   46TAL   C22615297   2.627   4.970  21.467 -0.4096  0.7738  0.7681
   46TAL   C22715298   2.655   5.099  21.538  0.3425 -0.5308 -0.6591
   46TAL   C22815299   2.800   5.106  21.604  0.9621  0.0073 -0.2943
   46TAL   C22915300   2.814   5.041  21.742  0.6788  0.1322  0.2906
   46TAL   C23015301   2.947   5.040  21.801  0.4871 -0.5776  0.4154
   47HTM   C23115302   2.887   4.678  21.403 -0.2064  0.7021 -0.1201
   47HTM   C23215303   3.016   4.702  21.366 -0.1732  0.4979 -0.1392
   47HTM   C23315304   3.109   4.701  21.476 -0.0976 -0.0402 -0.2017
   47HTM   C23415305   3.051   4.676  21.597 -0.0733 -0.2462 -0.2310
   47HTM    S2415306   2.873   4.652  21.581 -0.1443  0.2270 -0.1815
   48TAL   C23515307   3.251   4.734  21.448  0.2080 -1.2482  0.7668
   48TAL   C23615308   3.321   4.852  21.530 -0.0359  0.4490  1.1086
   48TAL   C23715309   3.266   4.998  21.538  0.0016 -0.9665 -0.0093
   48TAL   C23815310   3.305   5.083  21.419 -0.6059  0.2298  0.1239
   48TAL   C23915311   3.188   5.149  21.356  0.0215 -0.2617 -0.8174
   48TAL   C24015312   3.141   5.059  21.244 -0.8499  0.3995 -0.4453
    1HTM     C115313   4.271   7.321   1.322  0.3634 -0.2293 -0.3882
    1HTM     C215314   4.293   7.346   1.455  0.3438 -0.7848 -0.2765
    1HTM     C315315   4.426   7.394   1.483  0.3411 -0.9083 -0.0524
    1HTM     C415316   4.505   7.406   1.373  0.3586 -0.4471  0.0066
    1HTM     S115317   4.418   7.357   1.223  0.3801  0.1841 -0.2179
    2TAL     C515318   4.464   7.426   1.629  0.0024  0.7665  0.3028
    2TAL     C615319   4.364   7.496   1.727 -0.4070  0.7393  0.3965
    2TAL     C715320   4.387   7.644   1.718 -0.1767 -0.1670  0.4085
    2TAL     C815321   4.272   7.722   1.773  0.7080  0.8658  0.6065
    2TAL     C915322   4.265   7.745   1.930 -0.3073  0.4030 -0.3335
    2TAL    C1015323   4.393   7.774   1.996 -0.0192 -0.4865  0.0036
    3HTM    C1115324   4.637   7.455   1.354 -0.1376 -0.1395 -0.3484
    3HTM    C1215325   4.677   7.580   1.316 -0.6728 -0.0374 -0.5861
    3HTM    C1315326   4.820   7.597   1.314 -0.7441  0.6503 -0.3499
    3HTM    C1415327   4.889   7.485   1.349 -0.2637  1.0725  0.0679
    3HTM     S215328   4.779   7.348   1.389  0.3207  0.6309  0.1965
    4TAL    C1515329   4.888   7.721   1.254 -0.2456 -0.7921  0.6800
    4TAL    C1615330   4.829   7.835   1.158  0.4577  0.6090  0.2954
    4TAL    C1715331   4.742   7.762   1.047  0.3326 -0.5406 -0.9511
    4TAL    C1815332   4.806   7.682   0.937 -0.4735 -0.6154 -0.2583
    4TAL    C1915333   4.722   7.604   0.841  1.0562  0.8707  0.9103
    4TAL    C2015334   4.807   7.557   0.727  0.0214 -0.0735  0.1280
    5HTM    C2115335   5.027   7.461   1.352 -0.2687 -0.5683 -0.2067
    5HTM    C2215336   5.137   7.536   1.321 -0.5869 -0.0803 -0.1803
    5HTM    C2315337   5.261   7.464   1.333 -0.2526  0.5111  0.0104
    5HTM    C2415338   5.246   7.334   1.372  0.3203  0.4741  0.1294
    5HTM     S315339   5.072   7.293   1.398  0.4833 -0.3168  0.0088
    6TAL    C2515340   5.390   7.520   1.266  0.0109  0.3523 -0.1235
    6TAL    C2615341   5.394   7.577   1.126 -0.5480  0.0684  1.0308
    6TAL    C2715342   5.342   7.481   1.019  0.6660  0.2067  0.4840
    6TAL    C2815343   5.438   7.435   0.907  0.3762 -1.5647  0.0025
    6TAL    C2915344   5.442   7.558   0.809 -0.3573 -0.5361 -0.8095
    6TAL    C3015345   5.325   7.578   0.723  0.4667 -0.4084  0.9105
    7HTM    C3115346   5.341   7.228   1.402  0.1190 -0.1980 -0.1198
    7HTM    C3215347   5.321   7.093   1.415  0.2857 -0.2930 -0.7936
    7HTM    C3315348   5.443   7.018   1.429  0.3598 -0.1634 -0.7356
    7HTM    C3415349   5.556   7.095   1.427  0.2493  0.0304 -0.0175
    7HTM     S415350   5.516   7.270   1.407  0.0416  0.0646  0.6462
    8TAL    C3515351   5.434   6.869   1.452  0.0912  0.5973  0.1453
    8TAL    C3615352   5.337   6.775   1.386 -0.4822 -0.2066 -0.8592
    8TAL    C3715353   5.354   6.764   1.239 -0.1563 -0.7051  0.3757
    8TAL    C3815354   5.358   6.885   1.149  0.9805 -0.4582 -0.0351
    8TAL    C3915355   5.276   6.856   1.025 -0.1484 -0.8976  0.6373
    8TAL    C4015356   5.278   6.977   0.932  0.3932  0.6573  0.6916
    9HTM    C4115357   5.699   7.057   1.410  0.0994 -0.0686 -0.6088
    9HTM    C4215358   5.800   7.139   1.371  0.0336 -0.1709 -0.9982
    9HTM    C4315359   5.930   7.078   1.376  0.0584 -0.1118 -0.9133
    9HTM    C4415360   5.929   6.949   1.419  0.1431  0.0357 -0.4591
    9HTM     S515361   5.761   6.894   1.457  0.1983  0.1119 -0.1007
   10TAL    C4515362   6.066   7.148   1.342  0.6579  0.3452  0.4746
   10TAL    C4615363   6.055   7.295   1.358 -0.1593 -1.4779  0.2870
   10TAL    C4715364   6.167   7.364   1.280 -0.3275  0.7695 -0.3378
   10TAL    C4815365   6.164   7.516   1.264  0.4074  0.7364  0.6533
   10TAL    C4915366   6.302   7.586   1.272  0.2844  0.0917 -0.9715
   10TAL    C5015367   6.300   7.723   1.208  0.3997  1.1286  0.2895
   11HTM    C5115368   6.029   6.848   1.444 -0.1933  0.0848  0.3105
   11HTM    C5215369   6.163   6.863   1.465 -0.1799  0.5924 -0.1081
   11HTM    C5315370   6.235   6.738   1.476  0.3518  0.8597 -0.4682
   11HTM    C5415371   6.155   6.628   1.463  0.7440  0.5562 -0.3241
   11HTM     S615372   5.983   6.673   1.437  0.4698 -0.0959  0.2822
   12TAL    C5515373   6.384   6.746   1.513 -0.3571 -1.2958 -0.4842
   12TAL    C5615374   6.424   6.692   1.651  0.6481 -0.6819 -0.4388
   12TAL    C5715375   6.369   6.769   1.772  0.5668  1.0369  0.0536
   12TAL    C5815376   6.394   6.696   1.902  0.3805 -0.0469  0.0800
   12TAL    C5915377   6.346   6.770   2.023 -0.0357  0.1099  0.0171
   12TAL    C6015378   6.354   6.695   2.156 -0.1013 -0.2592 -0.8995
   13HTM    C6115379   6.173   6.482   1.470 -0.5019  0.0260  0.2366
   13HTM    C6215380   6.293   6.418   1.470 -0.3077  0.3814  0.3875
   13HTM    C6315381   6.282   6.275   1.485  0.0579  0.2867 -0.1645
   13HTM    C6415382   6.154   6.231   1.498  0.1426 -0.1407 -0.7365
   13HTM     S715383   6.036   6.367   1.490 -0.2360 -0.4595 -0.6213
   14TAL    C6515384   6.407   6.194   1.458 -0.0840 -0.5352  0.6409
   14TAL    C6615385   6.518   6.185   1.557  0.3193  0.3441  0.0433
   14TAL    C6715386   6.608   6.080   1.479  0.4966 -0.0181 -0.6202
   14TAL    C6815387   6.721   6.038   1.569  0.3035  0.1353 -0.8308
   14TAL    C6915388   6.739   5.890   1.587  0.8401  0.3607 -0.1445
   14TAL    C7015389   6.849   5.846   1.671 -0.2377  0.4197  0.3819
   15HTM    C7115390   6.091   6.098   1.524  0.3754  0.3504 -0.2339
   15HTM    C7215391   5.960   6.064   1.502  0.3294  0.5207 -0.2241
   15HTM    C7315392   5.937   5.922   1.497  0.1224  0.5490 -0.0926
   15HTM    C7415393   6.050   5.847   1.515  0.0104  0.4005 -0.0019
   15HTM     S815394   6.195   5.951   1.540  0.1589  0.2119 -0.0764
   16TAL    C7515395   5.796   5.877   1.477  0.7698  0.8179  0.2397
   16TAL    C7615396   5.764   5.877   1.326  0.2224 -0.8881  0.0485
   16TAL    C7715397   5.619   5.850   1.302  0.2371 -1.1915  0.8435
   16TAL    C7815398   5.541   5.971   1.366 -0.1387  0.0058  0.3201
   16TAL    C7915399   5.388   5.979   1.347 -0.4612  0.0044 -0.2180
   16TAL    C8015400   5.347   6.117   1.317  0.2413 -0.2484  0.2486
   17HTM    C8115401   6.067   5.709   1.511 -0.0128 -0.1429 -0.7414
   17HTM    C8215402   6.189   5.651   1.491 -0.1506 -0.1376 -1.6991
   17HTM    C8315403   6.183   5.508   1.472 -0.2911 -0.1457 -1.6011
   17HTM    C8415404   6.057   5.457   1.477 -0.2606 -0.1571 -0.5686
   17HTM     S915405   5.934   5.586   1.507 -0.0501 -0.1585  0.3673
   18TAL    C8515406   6.309   5.430   1.460  1.0295  0.2129 -0.1031
   18TAL    C8615407   6.417   5.463   1.565 -0.1554  0.5150 -0.1899
   18TAL    C8715408   6.560   5.389   1.564  1.0999  0.9294  0.4634
   18TAL    C8815409   6.629   5.365   1.423  0.5466  0.4262  0.1604
   18TAL    C8915410   6.762   5.441   1.419 -0.6331  1.2090  0.2956
   18TAL    C9015411   6.869   5.366   1.347  0.1562 -1.5437  0.1784
   19HTM    C9115412   6.002   5.326   1.470 -0.1758 -0.3724 -0.2267
   19HTM    C9215413   6.064   5.209   1.501 -0.6113 -0.4660  0.3193
   19HTM    C9315414   5.986   5.092   1.469 -0.8730 -0.3377  0.4765
   19HTM    C9415415   5.865   5.120   1.413 -0.6369 -0.1464  0.0504
   19HTM    S1015416   5.839   5.298   1.397 -0.0614 -0.1129 -0.5875
   20TAL    C9515417   6.030   4.956   1.533 -0.7213 -0.1485 -0.0445
   20TAL    C9615418   6.126   4.878   1.452  0.1052  1.1821 -0.6868
   20TAL    C9715419   6.278   4.903   1.464 -0.1005 -0.1670 -0.7146
   20TAL    C9815420   6.332   4.886   1.609 -0.7838  0.0147 -0.4344
   20TAL    C9915421   6.368   5.017   1.676  0.5351 -0.3572  0.2577
   20TAL   C10015422   6.421   4.989   1.814 -0.3643  0.2580 -0.9812
   21HTM   C10115423   5.759   5.046   1.367  0.4738 -0.1034 -0.1912
   21HTM   C10215424   5.664   5.083   1.276  0.1611  0.1307  0.2282
   21HTM   C10315425   5.571   4.978   1.243 -0.0321  0.2540  0.3663
   21HTM   C10415426   5.596   4.860   1.307  0.1337  0.1141  0.0522
   21HTM    S1115427   5.739   4.874   1.416  0.5496 -0.1867 -0.4463
   22TAL   C10515428   5.476   4.996   1.127  0.5195 -0.1984  0.3642
   22TAL   C10615429   5.515   5.085   1.018  0.6290 -0.2206  0.2251
   22TAL   C10715430   5.606   5.021   0.911 -0.1234 -0.4125 -0.2261
   22TAL   C10815431   5.577   4.913   0.805  0.6556 -0.0267 -0.3291
   22TAL   C10915432   5.474   4.933   0.685 -0.9103 -0.2988  0.2927
   22TAL   C11015433   5.471   4.803   0.600 -0.9044 -0.2131 -0.9392
   23HTM   C11115434   5.497   4.746   1.312 -0.3469 -0.0737  0.0344
   23HTM   C11215435   5.496   4.656   1.414 -0.6695 -0.1248 -0.0115
   23HTM   C11315436   5.403   4.548   1.396 -0.7833  0.0128 -0.2471
   23HTM   C11415437   5.332   4.555   1.279 -0.5475  0.1688 -0.3807
   23HTM    S1215438   5.379   4.701   1.183 -0.1603  0.1540 -0.2182
   24TAL   C11515439   5.382   4.441   1.504 -0.2416  1.9112 -0.6075
   24TAL   C11615440   5.506   4.409   1.590 -0.7021 -0.4709 -0.0819
   24TAL   C11715441   5.472   4.284   1.675 -0.2491  0.4223  1.4518
   24TAL   C11815442   5.437   4.301   1.825 -0.7646 -0.5987 -0.1290
   24TAL   C11915443   5.533   4.267   1.931  0.1791  0.6080  0.8380
   24TAL   C12015444   5.478   4.269   2.069  0.1953 -0.2979  0.8047
   25HTM   C12115445   5.229   4.464   1.228  0.3835 -0.2916 -0.3801
   25HTM   C12215446   5.181   4.482   1.101  0.1634 -0.4070 -0.3138
   25HTM   C12315447   5.116   4.365   1.047 -0.1690 -0.3719  0.0055
   25HTM   C12415448   5.114   4.259   1.133 -0.2026 -0.2303  0.1825
   25HTM    S1315449   5.195   4.298   1.289  0.1861 -0.1290 -0.0419
   26TAL   C12515450   5.063   4.362   0.908  0.6301 -1.2978 -0.5586
   26TAL   C12615451   5.127   4.450   0.803 -0.3118 -0.1469  0.2996
   26TAL   C12715452   5.047   4.470   0.668 -0.3059 -0.1115  0.3945
   26TAL   C12815453   5.130   4.520   0.545 -0.0299 -0.5041 -1.8296
   26TAL   C12915454   5.080   4.654   0.487 -0.4092  0.0609 -0.1338
   26TAL   C13015455   5.058   4.777   0.585 -0.6725 -0.1054 -0.9261
   27HTM   C13115456   5.067   4.123   1.110  0.1953 -0.2493 -0.0601
   27HTM   C13215457   5.036   4.039   1.213  0.7943 -0.4692 -0.0489
   27HTM   C13315458   5.022   3.902   1.174  0.8954 -0.4375 -0.1986
   27HTM   C13415459   5.042   3.880   1.041  0.3735 -0.1931 -0.3239
   27HTM    S1415460   5.081   4.033   0.954 -0.2913  0.0172 -0.2621
   28TAL   C13515461   5.007   3.801   1.290 -0.4297 -0.1921  0.1636
   28TAL   C13615462   5.023   3.844   1.444 -0.5641 -0.2057 -0.6563
   28TAL   C13715463   5.171   3.896   1.510  0.2467  0.4555  0.0399
   28TAL   C13815464   5.187   3.944   1.648 -0.0066  0.3747 -0.1581
   28TAL   C13915465   5.085   3.896   1.758  0.9039 -0.1124  0.5744
   28TAL   C14015466   5.084   4.010   1.855 -0.5797 -0.6026  0.0563
   29HTM   C14115467   5.028   3.756   0.959 -0.7317 -0.4355 -0.1132
   29HTM   C14215468   4.958   3.644   0.992 -1.3520 -0.2576 -0.7804
   29HTM   C14315469   4.940   3.552   0.882 -1.0269  0.0520 -1.0964
   29HTM   C14415470   4.997   3.595   0.766 -0.1586  0.1103 -0.6701
   29HTM    S1515471   5.077   3.755   0.786  0.3193 -0.2242  0.1700
   30TAL   C14515472   4.878   3.409   0.901 -0.0340 -0.5985 -0.8889
   30TAL   C14615473   4.854   3.372   1.045 -0.2656  0.7328  0.0567
   30TAL   C14715474   4.704   3.335   1.063  0.3217 -0.7110  0.9252
   30TAL   C14815475   4.618   3.251   0.958  0.2175 -1.2948  0.6557
   30TAL   C14915476   4.467   3.287   0.956  1.2954  0.5465  0.2301
   30TAL   C15015477   4.420   3.412   0.877  0.1458 -0.1668  1.0773
   31HTM   C15115478   5.002   3.540   0.630 -0.2137  0.3673 -0.3535
   31HTM   C15215479   4.970   3.412   0.593 -0.2682  0.4306 -0.5237
   31HTM   C15315480   5.001   3.383   0.455 -0.1512  0.5583 -0.5250
   31HTM   C15415481   5.056   3.488   0.388 -0.0075  0.5922 -0.3558
   31HTM    S1615482   5.073   3.633   0.494 -0.0088  0.4647 -0.1804
   32TAL   C15515483   4.983   3.239   0.393 -0.0283  0.8686 -0.5250
   32TAL   C15615484   5.105   3.147   0.392  0.2597 -0.1741 -0.9896
   32TAL   C15715485   5.099   3.027   0.296  0.5614 -0.2678  0.5525
   32TAL   C15815486   5.206   2.917   0.270  0.0932 -0.5241 -0.5687
   32TAL   C15915487   5.346   2.965   0.241  0.1119 -0.0717 -0.5566
   32TAL   C16015488   5.379   2.986   0.089 -0.6357 -0.5350  0.2430
   33HTM   C16115489   5.093   3.496   0.252  0.2879 -0.1979 -0.1820
   33HTM   C16215490   5.220   3.473   0.208  0.2829  0.0461 -0.3225
   33HTM   C16315491   5.228   3.441   0.068  0.2027  0.1882 -0.3597
   33HTM   C16415492   5.107   3.439   0.005  0.1466  0.0526 -0.2475
   33HTM    S1715493   4.973   3.478   0.120  0.1909 -0.2677 -0.0850
   34TAL   C16515494   5.358   3.439  -0.004 -0.9488 -0.2905  0.1230
   34TAL   C16615495   5.456   3.335   0.063 -0.4661 -0.3029  0.3778
   34TAL   C16715496   5.603   3.354   0.015 -0.2254 -0.5507 -0.3467
   34TAL   C16815497   5.669   3.485   0.062 -0.0100  0.4564 -0.2352
   34TAL   C16915498   5.645   3.519   0.204 -0.7172 -0.6826  0.2310
   34TAL   C17015499   5.691   3.663   0.241 -0.1463 -0.1674 -0.5144
   35HTM   C17115500   5.070   3.400  -0.128  0.2761  0.1044  0.1026
   35HTM   C17215501   4.939   3.393  -0.165  0.1154  0.3766  0.6032
   35HTM   C17315502   4.918   3.338  -0.297 -0.5091  0.3079  0.7224
   35HTM   C17415503   5.034   3.304  -0.360 -0.8247 -0.0168  0.3127
   35HTM    S1815504   5.178   3.338  -0.258 -0.3540 -0.2628 -0.2598
   36TAL   C17515505   4.776   3.339  -0.363 -0.1908  0.4411 -1.4011
   36TAL   C17615506   4.723   3.221  -0.438  0.0630  0.5006  0.0845
   36TAL   C17715507   4.607   3.240  -0.538  0.4082 -0.1834  0.0036
   36TAL   C17815508   4.538   3.100  -0.571 -0.8672  0.8213  0.8761
   36TAL   C17915509   4.452   3.042  -0.467  0.1734  0.2751 -0.5552
   36TAL   C18015510   4.427   2.897  -0.487  0.6901  0.9556  0.4932
   37HTM   C18115511   5.052   3.266  -0.502 -0.0481  0.5580 -0.3629
   37HTM   C18215512   5.074   3.333  -0.619 -0.3458  0.3857 -0.5193
   37HTM   C18315513   5.086   3.247  -0.734 -0.3721  0.1969 -0.3829
   37HTM   C18415514   5.073   3.115  -0.705 -0.0943  0.2252 -0.1212
   37HTM    S1915515   5.045   3.087  -0.529  0.2243  0.4945 -0.0267
   38TAL   C18515516   5.110   3.289  -0.878  0.6585 -0.1374  1.2495
   38TAL   C18615517   5.131   3.431  -0.904 -0.2371 -0.9737  0.9758
   38TAL   C18715518   5.160   3.467  -1.046  0.1672 -0.9213 -0.5391
   38TAL   C18815519   5.282   3.417  -1.125  0.3845  0.6530 -0.1367
   38TAL   C18915520   5.246   3.292  -1.208  1.1473  0.6935  1.3177
   38TAL   C19015521   5.355   3.282  -1.321 -0.4149  0.0349  0.6292
   39HTM   C19115522   5.094   3.008  -0.803  0.4743  0.7333 -0.8701
   39HTM   C19215523   5.181   2.906  -0.782  0.6262  0.8516 -0.9179
   39HTM   C19315524   5.175   2.803  -0.883  0.3875  0.6221 -0.6757
   39HTM   C19415525   5.084   2.828  -0.981  0.0538  0.3287 -0.4438
   39HTM    S2015526   4.997   2.984  -0.954  0.0147  0.3196 -0.5142
   40TAL   C19515527   5.280   2.694  -0.867  0.2527  0.2526  0.9058
   40TAL   C19615528   5.382   2.684  -0.979 -0.6898  0.4753  0.0371
   40TAL   C19715529   5.482   2.801  -0.995  1.0259 -0.5965  0.1920
   40TAL   C19815530   5.601   2.830  -0.902  1.1529  0.1877  0.4182
   40TAL   C19915531   5.679   2.717  -0.837  0.0473 -0.5841  0.2516
   40TAL   C20015532   5.753   2.613  -0.913  0.1114 -0.6587 -0.0781
   41HTM   C20115533   5.039   2.763  -1.100 -0.4923 -0.0598  0.3247
   41HTM   C20215534   5.089   2.645  -1.146 -0.6201 -0.2210  0.5975
   41HTM   C20315535   5.028   2.599  -1.268 -0.4911 -0.3054  0.5631
   41HTM   C20415536   4.931   2.683  -1.315 -0.2650 -0.2084  0.2647
   41HTM    S2115537   4.910   2.827  -1.208 -0.1969 -0.0015  0.0020
   42TAL   C20515538   5.068   2.460  -1.324  0.1977 -0.4719  0.2357
   42TAL   C20615539   5.128   2.358  -1.227  0.4591 -0.5050  0.5019
   42TAL   C20715540   5.122   2.213  -1.283  0.6769 -0.4577  0.6627
   42TAL   C20815541   5.196   2.118  -1.183 -0.1112  0.9292  0.2282
   42TAL   C20915542   5.218   1.973  -1.211 -0.4827  0.7862  0.0059
   42TAL   C21015543   5.260   1.881  -1.094 -0.1958  0.8570  0.1321
   43HTM   C21115544   4.868   2.682  -1.441 -0.0705 -0.3347  0.2222
   43HTM   C21215545   4.825   2.795  -1.506 -0.8934 -0.1226  1.0958
   43HTM   C21315546   4.747   2.768  -1.624 -1.2733  0.2428  1.2569
   43HTM   C21415547   4.731   2.635  -1.650 -0.7402  0.3096  0.5073
   43HTM    S2215548   4.813   2.533  -1.526  0.2911 -0.0871 -0.4692
   44TAL   C21515549   4.691   2.884  -1.723  0.4479  1.0229 -0.1780
   44TAL   C21615550   4.667   3.028  -1.682 -0.6770  0.9902  0.3306
   44TAL   C21715551   4.615   3.118  -1.797  0.6718  0.0192  0.8642
   44TAL   C21815552   4.594   3.263  -1.737  0.4967  0.4392  0.2067
   44TAL   C21915553   4.548   3.360  -1.838  0.4197 -0.5691 -0.2925
   44TAL   C22015554   4.459   3.458  -1.758  0.4603 -0.4170  0.2632
   45HTM   C22115555   4.678   2.555  -1.758 -0.2911  0.1239  0.0418
   45HTM   C22215556   4.620   2.604  -1.871 -0.3238 -0.0082 -0.0005
   45HTM   C22315557   4.605   2.506  -1.976 -0.0082 -0.0411 -0.0186
   45HTM   C22415558   4.651   2.382  -1.943  0.2651  0.0659  0.0094
   45HTM    S2315559   4.718   2.379  -1.775  0.1443  0.2177  0.0608
   46TAL   C22515560   4.549   2.530  -2.116 -0.8027 -0.5386  0.1897
   46TAL   C22615561   4.465   2.661  -2.140 -0.7313  0.0930 -1.0048
   46TAL   C22715562   4.320   2.632  -2.099 -0.1801  0.7570 -0.0926
   46TAL   C22815563   4.200   2.711  -2.132  0.7516 -0.3431  0.5582
   46TAL   C22915564   4.065   2.704  -2.048 -0.3205 -1.0471  0.0668
   46TAL   C23015565   3.946   2.775  -2.115 -0.4803  0.2836 -0.3122
   47HTM   C23115566   4.665   2.253  -2.019  0.1467  0.2080 -0.2294
   47HTM   C23215567   4.735   2.144  -1.977  0.2794  0.2986 -0.2155
   47HTM   C23315568   4.748   2.041  -2.076  0.1245  0.1637 -0.0973
   47HTM   C23415569   4.687   2.071  -2.195 -0.1262 -0.0297 -0.0210
   47HTM    S2415570   4.609   2.233  -2.190 -0.1866 -0.0567 -0.0930
   48TAL   C23515571   4.819   1.909  -2.038 -0.5212 -0.1557  0.4491
   48TAL   C23615572   4.940   1.872  -2.136  0.0008  0.4375 -0.3090
   48TAL   C23715573   5.021   1.757  -2.076  0.3362 -0.1144 -0.8668
   48TAL   C23815574   5.165   1.755  -2.120 -0.0241 -0.3202 -0.6756
   48TAL   C23915575   5.258   1.700  -2.012  0.4835  0.1329  0.8483
   48TAL   C24015576   5.385   1.778  -2.019  0.1426 -0.1209  0.2885
    1HTM     C115577   6.989   1.941   7.346 -0.0089  0.2702 -0.5422
    1HTM     C215578   7.124   1.958   7.355  0.0049  0.2015 -0.6115
    1HTM     C315579   7.162   2.079   7.424  0.1024 -0.0213 -0.2691
    1HTM     C415580   7.056   2.154   7.467  0.1627 -0.1225  0.0616
    1HTM     S115581   6.899   2.077   7.423  0.1008  0.0572 -0.0350
    2TAL     C515582   7.313   2.106   7.454  0.1491 -0.2633 -0.1336
    2TAL     C615583   7.412   1.995   7.453 -0.0186  0.3911 -0.1810
    2TAL     C715584   7.454   1.939   7.317 -1.0512 -0.4240 -0.9226
    2TAL     C815585   7.466   2.034   7.198  0.9853 -0.9500 -0.8642
    2TAL     C915586   7.562   2.152   7.202 -0.1749  0.0511 -0.2586
    2TAL    C1015587   7.540   2.231   7.072  0.7119 -0.6493 -0.3220
    3HTM    C1115588   7.040   2.279   7.530  0.4737 -0.0612  0.1232
    3HTM    C1215589   6.945   2.371   7.497  0.3664 -0.2133  0.0081
    3HTM    C1315590   6.953   2.492   7.573  0.1394 -0.1623 -0.0497
    3HTM    C1415591   7.053   2.493   7.665  0.0735  0.0288  0.0215
    3HTM     S215592   7.148   2.340   7.662  0.2948  0.1602  0.1681
    4TAL    C1515593   6.844   2.596   7.564 -0.6707  0.3846 -0.3196
    4TAL    C1615594   6.845   2.715   7.468  0.3221 -1.1657 -0.0317
    4TAL    C1715595   6.908   2.846   7.510 -0.8459  0.0547  0.4747
    4TAL    C1815596   6.858   2.907   7.636  0.8542 -0.3935 -0.6368
    4TAL    C1915597   6.716   2.970   7.632  0.3233 -0.6525  0.1346
    4TAL    C2015598   6.665   2.978   7.781 -0.0315  0.3744 -0.1291
    5HTM    C2115599   7.097   2.597   7.756 -0.0490  0.1285 -0.0709
    5HTM    C2215600   7.083   2.591   7.891 -0.2686  0.3725 -0.0814
    5HTM    C2315601   7.145   2.701   7.961 -0.2296  0.4047 -0.1668
    5HTM    C2415602   7.207   2.790   7.878  0.0196  0.1852 -0.2214
    5HTM     S315603   7.191   2.743   7.705  0.2262 -0.0813 -0.1688
    6TAL    C2515604   7.127   2.726   8.111 -0.5373  0.2966 -0.0346
    6TAL    C2615605   6.999   2.744   8.183  0.0807 -0.6397  0.3679
    6TAL    C2715606   6.926   2.870   8.121 -0.0837  0.4629  0.2533
    6TAL    C2815607   6.822   2.950   8.206  0.3622 -0.0575  0.3840
    6TAL    C2915608   6.717   2.867   8.270  0.2640  0.2846  0.0268
    6TAL    C3015609   6.637   2.946   8.376 -1.6585 -0.0169 -0.2719
    7HTM    C3115610   7.257   2.927   7.907 -0.0771 -0.0581  0.1042
    7HTM    C3215611   7.222   3.044   7.846 -0.0516 -0.0338  0.1360
    7HTM    C3315612   7.288   3.160   7.900 -0.2379 -0.0281  0.3546
    7HTM    C3415613   7.373   3.132   8.002 -0.4051 -0.0481  0.4896
    7HTM     S415614   7.377   2.955   8.039 -0.3401 -0.0759  0.3500
    8TAL    C3515615   7.271   3.293   7.838 -0.3873 -0.0406  0.2220
    8TAL    C3615616   7.125   3.355   7.856  0.1550 -0.2037  0.0295
    8TAL    C3715617   7.065   3.328   7.727  1.6930 -0.7196 -0.8311
    8TAL    C3815618   6.907   3.352   7.726  0.1984  0.4146  0.2620
    8TAL    C3915619   6.856   3.371   7.587  0.1485  0.3199  0.4510
    8TAL    C4015620   6.704   3.400   7.592 -0.6098  0.4817 -0.2442
    9HTM    C4115621   7.449   3.226   8.090 -0.1740 -0.3476  0.0552
    9HTM    C4215622   7.584   3.237   8.090 -0.1904 -0.1271 -0.0794
    9HTM    C4315623   7.634   3.337   8.181 -0.2790  0.2016 -0.3886
    9HTM    C4415624   7.536   3.403   8.250 -0.3303  0.2319 -0.4899
    9HTM     S515625   7.372   3.342   8.205 -0.2701 -0.1554 -0.2003
   10TAL    C4515626   7.785   3.340   8.213 -1.1977 -0.0262  1.2384
   10TAL    C4615627   7.882   3.378   8.102 -0.3894  0.5165 -0.2050
   10TAL    C4715628   7.871   3.340   7.953 -0.2740  0.3752  0.8706
   10TAL    C4815629   7.959   3.438   7.873 -0.2631  0.7138  0.0344
   10TAL    C4915630   7.994   3.374   7.736 -1.5580  0.6075 -0.4195
   10TAL    C5015631   8.096   3.476   7.662 -0.6585 -0.1120 -0.3070
   11HTM    C5115632   7.558   3.487   8.367 -0.1745 -0.0945 -0.2545
   11HTM    C5215633   7.497   3.465   8.487  0.0739 -0.2668 -0.1576
   11HTM    C5315634   7.532   3.562   8.588  0.1599 -0.3183 -0.1380
   11HTM    C5415635   7.619   3.657   8.546 -0.0229 -0.1852 -0.2206
   11HTM     S615636   7.665   3.632   8.373 -0.3201  0.0170 -0.3298
   12TAL    C5515637   7.476   3.562   8.725 -0.2702  0.1622 -0.4486
   12TAL    C5615638   7.462   3.425   8.791 -0.1715  0.6976  0.3739
   12TAL    C5715639   7.585   3.325   8.808 -0.0522  0.1552 -0.4935
   12TAL    C5815640   7.705   3.389   8.886 -0.0100  1.2172 -0.6330
   12TAL    C5915641   7.692   3.417   9.037 -0.2054 -0.4628  0.3597
   12TAL    C6015642   7.824   3.461   9.112 -1.3200  0.2496  0.3528
   13HTM    C6115643   7.670   3.778   8.607  0.1719  0.1921  0.6540
   13HTM    C6215644   7.791   3.811   8.661 -0.1185  0.1799  1.3394
   13HTM    C6315645   7.791   3.936   8.731 -0.4815  0.2216  1.2708
   13HTM    C6415646   7.671   4.000   8.731 -0.4679  0.2652  0.5331
   13HTM     S715647   7.546   3.905   8.642  0.0082  0.2571 -0.1374
   14TAL    C6515648   7.916   3.978   8.812 -0.1594  0.2704 -1.2362
   14TAL    C6615649   7.939   3.886   8.936 -0.0549  0.1442 -0.5279
   14TAL    C6715650   7.830   3.864   9.041  0.8857  0.1036  0.2105
   14TAL    C6815651   7.766   3.977   9.115  0.4281 -1.1264  0.2852
   14TAL    C6915652   7.796   3.997   9.264  1.4573 -0.4309 -0.9303
   14TAL    C7015653   7.934   3.973   9.306  0.1699  0.7901 -0.5500
   15HTM    C7115654   7.621   4.123   8.793 -0.2231  0.2498 -0.0139
   15HTM    C7215655   7.495   4.172   8.782 -0.0590  0.6946  0.0255
   15HTM    C7315656   7.481   4.308   8.827  0.3775  0.6599  0.2782
   15HTM    C7415657   7.597   4.363   8.872  0.5462  0.1884  0.4316
   15HTM     S815658   7.734   4.246   8.861  0.1639 -0.2517  0.2676
   16TAL    C7515659   7.354   4.396   8.833  0.3617  0.0138 -0.1281
   16TAL    C7615660   7.289   4.439   8.700  1.2789 -0.1209  0.5908
   16TAL    C7715661   7.161   4.532   8.716  0.1994  0.9170 -0.2716
   16TAL    C7815662   7.030   4.495   8.769  0.1136 -0.1097 -0.9953
   16TAL    C7915663   6.958   4.603   8.841  0.0301 -0.0240  0.8327
   16TAL    C8015664   6.920   4.707   8.746  0.1596  0.4866  0.9045
   17HTM    C8115665   7.624   4.497   8.915  0.3352  0.0483 -0.5051
   17HTM    C8215666   7.654   4.600   8.832 -0.4673  0.5020 -0.2515
   17HTM    C8315667   7.661   4.728   8.898 -1.2391  0.3706  0.1063
   17HTM    C8415668   7.636   4.722   9.032 -1.0251 -0.1832  0.1250
   17HTM     S915669   7.602   4.553   9.085  0.1771 -0.5850 -0.3108
   18TAL    C8515670   7.705   4.848   8.812 -0.5918 -0.9391  0.2367
   18TAL    C8615671   7.652   4.851   8.666  0.1460  0.1001 -0.9857
   18TAL    C8715672   7.616   4.991   8.638 -0.1637 -0.7880  1.3365
   18TAL    C8815673   7.574   5.019   8.497  0.6591 -0.0560  1.0731
   18TAL    C8915674   7.553   5.160   8.448  0.1113 -0.0832  0.0342
   18TAL    C9015675   7.437   5.225   8.525 -0.1245 -0.5069  0.0301
   19HTM    C9115676   7.641   4.827   9.137  1.0990  0.4225  0.3569
   19HTM    C9215677   7.655   4.962   9.128  0.9649  0.4770  0.9243
   19HTM    C9315678   7.617   5.032   9.248  0.3463 -0.0180  1.0269
   19HTM    C9415679   7.574   4.950   9.348  0.0089 -0.4499  0.5374
   19HTM    S1015680   7.578   4.777   9.298  0.4495 -0.2634 -0.0957
   20TAL    C9515681   7.610   5.185   9.223  0.3077 -0.4717 -0.0668
   20TAL    C9615682   7.687   5.299   9.299  0.6609 -0.2516 -0.8053
   20TAL    C9715683   7.838   5.272   9.326  0.6901  1.0245  0.4218
   20TAL    C9815684   7.937   5.248   9.207  0.4751 -0.2040 -0.4547
   20TAL    C9915685   7.988   5.382   9.149 -0.2216  0.7448 -0.8341
   20TAL   C10015686   8.076   5.459   9.247 -0.3338 -0.4206  0.5212
   21HTM   C10115687   7.522   4.994   9.475 -0.0464 -0.1479  0.1212
   21HTM   C10215688   7.444   4.912   9.551  0.1267 -0.2787  0.1583
   21HTM   C10315689   7.397   4.973   9.673  0.0404 -0.3401  0.1559
   21HTM   C10415690   7.439   5.102   9.689 -0.1987 -0.2561  0.1173
   21HTM    S1115691   7.542   5.156   9.552 -0.3343 -0.0917  0.0799
   22TAL   C10515692   7.323   4.890   9.767 -0.5833 -0.6328  0.3640
   22TAL   C10615693   7.184   4.835   9.725  0.0571 -0.5452 -0.3378
   22TAL   C10715694   7.121   4.729   9.815 -0.5511  0.7265  0.5857
   22TAL   C10815695   7.010   4.657   9.739  0.5736  0.1426 -0.2215
   22TAL   C10915696   6.998   4.508   9.777 -0.5084  0.3695 -0.3263
   22TAL   C11015697   6.942   4.466   9.907 -0.1380 -0.2983  0.3932
   23HTM   C11115698   7.413   5.204   9.790 -0.0808 -0.0456 -0.0653
   23HTM   C11215699   7.335   5.199   9.902 -0.8610  0.4165 -0.5734
   23HTM   C11315700   7.349   5.314   9.987 -1.1659  0.5909 -0.7546
   23HTM   C11415701   7.438   5.406   9.941 -0.6181  0.2617 -0.3847
   23HTM    S1215702   7.511   5.355   9.784  0.3327 -0.2981  0.2259
   24TAL   C11515703   7.294   5.324  10.125 -0.3399  0.6598  0.2426
   24TAL   C11615704   7.144   5.280  10.128 -0.5935  0.5602 -0.6179
   24TAL   C11715705   7.047   5.392  10.172 -0.7012 -0.2985  0.3017
   24TAL   C11815706   6.907   5.333  10.170  0.2835  0.5117 -0.3878
   24TAL   C11915707   6.825   5.450  10.230 -0.5926  0.7098  0.9206
   24TAL   C12015708   6.677   5.423  10.247 -0.1396  0.3554 -0.4183
   25HTM   C12115709   7.495   5.529   9.999  0.1589  0.2254 -0.7130
   25HTM   C12215710   7.432   5.628  10.068  0.4066  0.0230 -0.1810
   25HTM   C12315711   7.514   5.746  10.086  0.6878 -0.2589  0.4196
   25HTM   C12415712   7.638   5.735  10.032  0.6547 -0.2716  0.3456
   25HTM    S1315713   7.663   5.575   9.953  0.2626  0.0744 -0.4950
   26TAL   C12515714   7.442   5.870  10.144  0.5468 -0.9523 -0.1378
   26TAL   C12615715   7.390   5.840  10.291  0.6548  0.1269 -0.6693
   26TAL   C12715716   7.331   5.943  10.393 -0.8897  0.0574  0.2185
   26TAL   C12815717   7.214   6.022  10.327 -0.8443  0.6418 -0.3684
   26TAL   C12915718   7.092   6.016  10.423 -0.3306 -0.5215  0.9260
   26TAL   C13015719   6.990   6.127  10.376  0.1449  1.3549  0.4730
   27HTM   C13115720   7.741   5.830  10.017 -0.1199  0.2734 -0.1238
   27HTM   C13215721   7.808   5.876   9.907 -0.2737  0.1897 -0.2539
   27HTM   C13315722   7.914   5.968   9.938 -0.1186  0.0836 -0.4606
   27HTM   C13415723   7.927   5.993  10.072  0.1537  0.0866 -0.4886
   27HTM    S1415724   7.807   5.900  10.169  0.2358  0.2244 -0.2537
   28TAL   C13515725   8.006   6.010   9.817 -0.1600 -0.7757 -0.8228
   28TAL   C13615726   7.959   6.149   9.748  0.8949  0.5095  0.6580
   28TAL   C13715727   7.968   6.155   9.596 -0.2130 -1.0100  0.4789
   28TAL   C13815728   7.997   6.295   9.548  0.5507  0.1374  0.0920
   28TAL   C13915729   7.973   6.308   9.396 -0.2570 -0.5401 -0.5343
   28TAL   C14015730   7.950   6.449   9.371 -0.3904 -1.0000  1.1183
   29HTM   C14115731   8.006   6.080  10.152 -0.4373 -0.0879  0.1553
   29HTM   C14215732   8.142   6.081  10.161 -0.3931  0.3122 -0.4554
   29HTM   C14315733   8.193   6.177  10.255 -0.2509  0.4402 -0.6616
   29HTM   C14415734   8.096   6.249  10.319 -0.1866  0.1379 -0.2084
   29HTM    S1515735   7.932   6.201  10.264 -0.3016 -0.3357  0.5199
   30TAL   C14515736   8.344   6.176  10.282 -0.3262 -0.4110  0.1792
   30TAL   C14615737   8.432   6.234  10.177  0.0387 -0.4268 -0.1203
   30TAL   C14715738   8.381   6.367  10.112 -0.6710  0.1951  0.1960
   30TAL   C14815739   8.436   6.414   9.981  0.4740 -1.1508  0.2400
   30TAL   C14915740   8.327   6.485   9.887 -0.7863  0.4904 -1.0555
   30TAL   C15015741   8.387   6.559   9.766  0.0991  0.2587  0.4813
   31HTM   C15115742   8.107   6.368  10.406  0.1687 -0.3852  0.5305
   31HTM   C15215743   7.997   6.443  10.437 -0.1406 -1.2078  1.5237
   31HTM   C15315744   8.026   6.554  10.524 -0.2289 -1.1432  1.4703
   31HTM   C15415745   8.157   6.564  10.560  0.0131 -0.2714  0.4363
   31HTM    S1615746   8.256   6.433  10.485  0.3741  0.5420 -0.5580
   32TAL   C15515747   7.909   6.640  10.562 -0.4484  0.2519 -0.4109
   32TAL   C15615748   7.847   6.722  10.440 -0.1274  0.4966 -0.4558
   32TAL   C15715749   7.738   6.821  10.464  0.1933 -0.2861  0.0851
   32TAL   C15815750   7.633   6.792  10.576  0.6635  0.5135 -0.1379
   32TAL   C15915751   7.539   6.902  10.629 -0.5171 -1.2508  1.4129
   32TAL   C16015752   7.426   6.858  10.703  0.6402  0.3963  0.2421
   33HTM   C16115753   8.225   6.668  10.638  0.2855 -0.3312  0.5916
   33HTM   C16215754   8.177   6.726  10.752  0.4728  0.0147  0.4990
   33HTM   C16315755   8.273   6.808  10.820  0.5652  0.2799  0.0560
   33HTM   C16415756   8.395   6.814  10.758  0.4483  0.1363 -0.1893
   33HTM    S1715757   8.397   6.715  10.608  0.2107 -0.3489  0.1223
   34TAL   C16515758   8.235   6.870  10.962 -0.5077 -0.1087  0.2256
   34TAL   C16615759   8.189   6.774  11.078 -0.6978 -0.4681 -0.1462
   34TAL   C16715760   8.291   6.665  11.123 -0.1699 -0.4110  0.5366
   34TAL   C16815761   8.435   6.718  11.134  1.4387 -1.0536  0.0534
   34TAL   C16915762   8.544   6.638  11.206  0.8316  0.8150  0.1629
   34TAL   C17015763   8.664   6.718  11.211  0.1989  0.2613  0.3489
   35HTM   C17115764   8.514   6.884  10.792 -0.1860 -0.1801 -0.1098
   35HTM   C17215765   8.550   7.014  10.809 -0.3649 -0.2099  0.5715
   35HTM   C17315766   8.690   7.033  10.836 -0.3728 -0.1552  0.5748
   35HTM   C17415767   8.761   6.917  10.841 -0.2000 -0.0838 -0.1034
   35HTM    S1815768   8.656   6.773  10.810 -0.0124 -0.0799 -0.8044
   36TAL   C17515769   8.745   7.179  10.845  0.6421  0.4607 -0.7078
   36TAL   C17615770   8.749   7.244  10.988  0.2201  0.4464 -0.7317
   36TAL   C17715771   8.637   7.199  11.076  0.5751 -0.5320  0.4584
   36TAL   C17815772   8.600   7.296  11.190  0.3739 -0.0451 -0.6273
   36TAL   C17915773   8.498   7.241  11.297  0.5488 -0.6349 -0.7291
   36TAL   C18015774   8.354   7.291  11.264  0.0208  0.3519 -0.2636
   37HTM   C18115775   8.898   6.880  10.892 -0.4221  0.2984  0.2607
   37HTM   C18215776   8.942   6.752  10.884 -0.7786  0.1836  0.0534
   37HTM   C18315777   9.078   6.735  10.930 -0.7868 -0.2484 -0.0744
   37HTM   C18415778   9.136   6.850  10.972 -0.4366 -0.4630  0.0352
   37HTM    S1915779   9.024   6.991  10.957 -0.0664 -0.1338  0.3110
   38TAL   C18515780   9.152   6.602  10.932 -0.1262 -0.7981 -0.6318
   38TAL   C18615781   9.148   6.517  11.055 -0.8787  0.2334 -0.6273
   38TAL   C18715782   9.021   6.433  11.081  0.7249  0.5449 -0.1762
   38TAL   C18815783   9.042   6.329  11.195  1.3206  0.0892  0.4755
   38TAL   C18915784   8.923   6.232  11.186  0.4496  1.0913 -0.3019
   38TAL   C19015785   8.909   6.127  11.302  1.0416 -0.7736  0.6769
   39HTM   C19115786   9.274   6.886  11.012 -0.2175  0.5500  0.0171
   39HTM   C19215787   9.339   6.886  11.132 -0.5514  0.8606  0.2024
   39HTM   C19315788   9.479   6.918  11.122 -0.4892  0.6831  0.4907
   39HTM   C19415789   9.521   6.942  10.995 -0.1076  0.2373  0.5257
   39HTM    S2015790   9.386   6.927  10.876  0.2049  0.0053  0.1940
   40TAL   C19515791   9.578   6.933  11.249 -0.5273  0.5448 -0.1379
   40TAL   C19615792   9.628   6.796  11.309  0.4000 -0.2172 -0.2176
   40TAL   C19715793   9.757   6.818  11.387 -0.4975 -0.3113  0.3567
   40TAL   C19815794   9.784   6.735  11.507  0.3997  0.3872  0.2897
   40TAL   C19915795   9.848   6.599  11.490 -0.0034  0.7744 -0.3196
   40TAL   C20015796   9.773   6.495  11.399 -0.5768 -0.8062  0.7201
   41HTM   C20115797   9.653   6.946  10.946 -0.4067 -0.2351 -0.2695
   41HTM   C20215798   9.738   6.844  10.915 -0.7731 -0.4787 -0.4895
   41HTM   C20315799   9.867   6.888  10.868 -0.7135 -0.8432 -0.6752
   41HTM   C20415800   9.880   7.024  10.863 -0.3016 -0.8772 -0.5967
   41HTM    S2115801   9.730   7.107  10.918  0.0457 -0.4486 -0.2795
   42TAL   C20515802   9.970   6.787  10.836 -0.3629  0.4114  0.5851
   42TAL   C20615803  10.122   6.792  10.866  1.2697 -0.4487  0.4958
   42TAL   C20715804  10.186   6.684  10.791 -0.2833  0.0573 -1.6001
   42TAL   C20815805  10.342   6.698  10.805 -0.0535  0.9529  0.5043
   42TAL   C20915806  10.396   6.561  10.749 -0.1824 -0.6947  0.2477
   42TAL   C21015807  10.492   6.478  10.827 -0.1453  0.2890  1.2434
   43HTM   C21115808   9.985   7.122  10.824 -0.0776  0.5630  0.2859
   43HTM   C21215809  10.110   7.105  10.771 -0.1777  0.4413  0.0856
   43HTM   C21315810  10.177   7.229  10.742 -0.2409  0.3755 -0.3517
   43HTM   C21415811  10.104   7.340  10.773 -0.1890  0.4468 -0.4842
   43HTM    S2215812   9.943   7.296  10.841 -0.0552  0.6040 -0.0641
   44TAL   C21515813  10.305   7.254  10.661  0.5527  0.0945  0.0707
   44TAL   C21615814  10.394   7.136  10.621  0.4126 -0.4106  0.8163
   44TAL   C21715815  10.503   7.192  10.527  0.8139  0.0569 -0.7284
   44TAL   C21815816  10.628   7.118  10.493 -0.7596 -0.0714  0.3387
   44TAL   C21915817  10.718   7.079  10.606  0.6164  0.8306 -0.6116
   44TAL   C22015818  10.856   7.009  10.566 -0.1316  0.8805 -0.6354
   45HTM   C22115819  10.123   7.475  10.767 -0.3042 -0.1734 -0.0441
   45HTM   C22215820  10.031   7.566  10.721 -0.4215 -0.1302  0.2699
   45HTM   C22315821  10.085   7.698  10.704 -0.4753 -0.1054  0.2935
   45HTM   C22415822  10.217   7.709  10.736 -0.3988 -0.1297 -0.0031
   45HTM    S2315823  10.284   7.551  10.792 -0.2521 -0.1862 -0.3370
   46TAL   C22515824   9.993   7.812  10.655  1.9503  0.0555  0.5193
   46TAL   C22615825   9.895   7.876  10.761 -0.2150  0.9314  0.0922
   46TAL   C22715826   9.797   7.955  10.679 -1.5629 -0.4359 -0.4120
   46TAL   C22815827   9.729   8.033  10.789  0.1768 -0.3132  0.6472
   46TAL   C22915828   9.596   8.104  10.750  0.3115 -0.1016 -0.0201
   46TAL   C23015829   9.506   8.133  10.878 -0.6087 -0.9841  0.2768
   47HTM   C23115830  10.283   7.830  10.763  0.2529 -0.5800  0.5943
   47HTM   C23215831  10.344   7.924  10.684 -0.1426 -0.7622  0.0596
   47HTM   C23315832  10.391   8.039  10.757 -0.5013 -0.2056 -0.5701
   47HTM   C23415833  10.366   8.033  10.891 -0.3794  0.4009 -0.5161
   47HTM    S2415834  10.281   7.881  10.936  0.2024  0.3155  0.3415
   48TAL   C23515835  10.455   8.152  10.682  0.3464  1.3055 -0.6180
   48TAL   C23615836  10.363   8.229  10.584  0.1647  0.5697 -0.2530
   48TAL   C23715837  10.427   8.320  10.480 -0.0898  0.8487  0.2780
   48TAL   C23815838  10.480   8.441  10.535 -0.3761  0.7286 -0.2007
   48TAL   C23915839  10.423   8.513  10.667  0.7300  1.0720  1.4268
   48TAL   C24015840  10.287   8.573  10.656  1.0261  0.3609 -0.5662
    1HTM     C115841   2.495   6.642  17.798  0.4242  0.1872  0.3340
    1HTM     C215842   2.487   6.527  17.725  1.3775 -0.1794  0.7858
    1HTM     C315843   2.376   6.443  17.761  1.6699 -0.6335  0.6447
    1HTM     C415844   2.299   6.494  17.861  0.9395 -0.6132  0.0857
    1HTM     S115845   2.361   6.654  17.918 -0.1830 -0.0144 -0.3095
    2TAL     C515846   2.354   6.313  17.674 -0.5670 -0.6010 -0.0508
    2TAL     C615847   2.348   6.178  17.734 -0.1085  0.4301  0.1564
    2TAL     C715848   2.477   6.100  17.774  0.3849  0.3163  0.5632
    2TAL     C815849   2.577   6.159  17.872 -1.1400  0.2414 -0.4654
    2TAL     C915850   2.700   6.061  17.888 -0.4264  0.6022  0.5007
    2TAL    C1015851   2.770   6.099  18.018  0.8832  0.1529 -0.4040
    3HTM    C1115852   2.211   6.427  17.954  0.0959  0.1490 -0.0603
    3HTM    C1215853   2.244   6.415  18.085  0.2990  0.1107 -0.1144
    3HTM    C1315854   2.171   6.312  18.155  0.4665  0.0331 -0.0515
    3HTM    C1415855   2.082   6.245  18.076  0.3911  0.0122  0.0507
    3HTM     S215856   2.084   6.308  17.907  0.1004  0.0896  0.0756
    4TAL    C1515857   2.189   6.298  18.308  0.2056 -0.2023  0.0311
    4TAL    C1615858   2.318   6.243  18.365  0.5976 -0.6998  0.2612
    4TAL    C1715859   2.436   6.335  18.360 -1.0171 -0.2487 -0.6915
    4TAL    C1815860   2.549   6.226  18.381  0.1598  0.0032  1.1448
    4TAL    C1915861   2.687   6.278  18.350 -0.2281  0.2316 -0.4433
    4TAL    C2015862   2.779   6.153  18.376  0.6633 -0.4665  0.4578
    5HTM    C2115863   2.011   6.126  18.107  0.4285  1.0753  0.6296
    5HTM    C2215864   2.033   6.015  18.030  0.9502  1.6340 -0.0501
    5HTM    C2315865   1.966   5.897  18.078  1.0234  1.1513 -1.0953
    5HTM    C2415866   1.892   5.918  18.190  0.5576  0.2246 -1.2132
    5HTM     S315867   1.902   6.089  18.246 -0.0141 -0.1131 -0.0037
    6TAL    C2515868   1.979   5.763  18.018  0.3637  0.4591  0.7670
    6TAL    C2615869   2.082   5.655  18.073  1.3941  0.4197 -0.3831
    6TAL    C2715870   2.171   5.669  18.199  0.0750 -0.6961  0.1425
    6TAL    C2815871   2.141   5.556  18.280 -0.1015  0.0055  0.1843
    6TAL    C2915872   2.181   5.575  18.423 -1.3837  0.5215 -0.6230
    6TAL    C3015873   2.161   5.425  18.473 -0.2578 -0.3030  0.6679
    7HTM    C3115874   1.801   5.830  18.277 -0.3536 -0.1690  0.3045
    7HTM    C3215875   1.754   5.869  18.399 -0.6109 -0.1165  0.1907
    7HTM    C3315876   1.690   5.763  18.473 -0.7454 -0.0904  0.1111
    7HTM    C3415877   1.688   5.643  18.407 -0.5907 -0.1232  0.1640
    7HTM     S415878   1.768   5.656  18.245 -0.2606 -0.1901  0.3208
    8TAL    C3515879   1.625   5.778  18.601  0.0065 -0.5524 -0.5054
    8TAL    C3615880   1.734   5.776  18.708 -0.4117  0.5618  0.3003
    8TAL    C3715881   1.670   5.785  18.846 -0.2309 -0.4899 -0.0112
    8TAL    C3815882   1.771   5.787  18.962  0.2238 -0.2318 -0.3273
    8TAL    C3915883   1.715   5.800  19.103 -0.4696  0.6232  0.0068
    8TAL    C4015884   1.637   5.684  19.153  0.7694 -0.0770 -0.2646
    9HTM    C4115885   1.650   5.510  18.443 -0.0964  0.2736 -0.6461
    9HTM    C4215886   1.739   5.410  18.469  0.1086  0.5748 -0.1636
    9HTM    C4315887   1.679   5.279  18.478  0.3343  0.5149  0.7315
    9HTM    C4415888   1.544   5.280  18.458  0.3014  0.1676  0.9317
    9HTM     S515889   1.482   5.446  18.427 -0.0197 -0.1124 -0.0021
   10TAL    C4515890   1.780   5.174  18.506  0.1526  0.7391  0.6136
   10TAL    C4615891   1.841   5.097  18.384 -1.1234 -0.5832 -0.0004
   10TAL    C4715892   1.874   4.963  18.425 -0.2897 -0.0383  0.0325
   10TAL    C4815893   1.927   4.859  18.328  0.6021  0.1627 -0.1883
   10TAL    C4915894   1.870   4.721  18.355  0.6262 -0.2876 -0.3044
   10TAL    C5015895   1.720   4.690  18.312 -1.2814  1.3402  0.5558
   11HTM    C5115896   1.449   5.174  18.442 -0.0992  0.0796 -0.4891
   11HTM    C5215897   1.333   5.165  18.513 -0.0585  0.0581 -0.4244
   11HTM    C5315898   1.264   5.039  18.496 -0.1224  0.1043 -0.5064
   11HTM    C5415899   1.328   4.953  18.412 -0.2118  0.1611 -0.6337
   11HTM     S615900   1.481   5.024  18.347 -0.2223  0.1605 -0.6598
   12TAL    C5515901   1.134   5.005  18.560 -0.2979 -0.2971 -0.4585
   12TAL    C5615902   1.087   5.074  18.688 -0.0298 -0.0398  0.8049
   12TAL    C5715903   0.953   5.030  18.737  0.8818 -0.1724  0.0016
   12TAL    C5815904   0.908   5.097  18.874  0.0936 -0.4794 -0.2255
   12TAL    C5915905   0.960   5.234  18.915  0.8161  0.2666 -0.4002
   12TAL    C6015906   0.933   5.272  19.061 -0.0909  0.4792  0.8270
   13HTM    C6115907   1.307   4.812  18.369  0.2600 -0.1076  0.1966
   13HTM    C6215908   1.377   4.765  18.262  0.2201  0.1655  0.0477
   13HTM    C6315909   1.312   4.655  18.195  0.0288  0.5598 -0.4201
   13HTM    C6415910   1.193   4.619  18.250 -0.0772  0.5874 -0.6275
   13HTM     S715911   1.153   4.722  18.393  0.0575  0.1139 -0.2455
   14TAL    C6515912   1.381   4.575  18.074 -0.0609 -0.4561 -0.1130
   14TAL    C6615913   1.487   4.641  17.984 -0.3202 -1.2486  0.3683
   14TAL    C6715914   1.459   4.775  17.905 -0.4877 -0.1113 -0.5851
   14TAL    C6815915   1.570   4.811  17.800 -0.6593 -0.0191 -0.3383
   14TAL    C6915916   1.587   4.718  17.672 -0.1009 -0.1488 -0.0762
   14TAL    C7015917   1.499   4.742  17.552  0.1304  0.1787 -0.0410
   15HTM    C7115918   1.095   4.529  18.189 -0.6725  0.0808  0.4073
   15HTM    C7215919   1.054   4.400  18.205 -0.7796  0.1253  0.4973
   15HTM    C7315920   0.947   4.361  18.117 -0.5729  0.0490  0.2761
   15HTM    C7415921   0.905   4.461  18.034 -0.3082 -0.0538  0.0161
   15HTM     S815922   0.999   4.612  18.060 -0.2995 -0.0620  0.0327
   16TAL    C7515923   0.896   4.220  18.111  0.1287  0.7500  0.4811
   16TAL    C7615924   0.813   4.166  18.228  0.9399  0.5590 -0.1272
   16TAL    C7715925   0.874   4.154  18.371  0.8969  0.0848 -0.6332
   16TAL    C7815926   0.983   4.050  18.417  0.3180 -0.6126  0.6692
   16TAL    C7915927   0.950   3.915  18.380  0.7532  0.7857 -1.2018
   16TAL    C8015928   1.005   3.826  18.489 -0.8260  0.6244 -0.7826
   17HTM    C8115929   0.830   4.454  17.908 -0.6325 -0.0153 -0.0723
   17HTM    C8215930   0.848   4.541  17.804 -0.6468 -0.0708 -0.1206
   17HTM    C8315931   0.753   4.524  17.698 -0.5348 -0.2635 -0.1903
   17HTM    C8415932   0.663   4.424  17.720 -0.4351 -0.3549 -0.1944
   17HTM     S915933   0.691   4.343  17.879 -0.4753 -0.2033 -0.1108
   18TAL    C8515934   0.762   4.604  17.574  0.5592  0.3710  0.0154
   18TAL    C8615935   0.826   4.741  17.575 -0.2999 -0.0606 -0.5257
   18TAL    C8715936   0.839   4.806  17.437 -0.1127 -0.1276  0.4173
   18TAL    C8815937   0.945   4.741  17.357 -0.3317  0.0715 -0.4560
   18TAL    C8915938   1.077   4.819  17.355  0.6552 -0.2962 -1.0665
   18TAL    C9015939   1.185   4.740  17.279  0.5374  0.0711  0.0666
   19HTM    C9115940   0.538   4.378  17.646  0.0609  0.0259  0.0699
   19HTM    C9215941   0.424   4.327  17.702 -0.0688  0.3272  0.0844
   19HTM    C9315942   0.324   4.291  17.605 -0.0877  0.3823  0.0834
   19HTM    C9415943   0.361   4.314  17.476  0.0275  0.1231  0.0686
   19HTM    S1015944   0.527   4.384  17.467  0.1700 -0.2134  0.0546
   20TAL    C9515945   0.192   4.227  17.650 -1.1436  0.3851 -0.4060
   20TAL    C9615946   0.200   4.099  17.734  1.1319  0.0164  1.3962
   20TAL    C9715947   0.106   4.094  17.852  1.5493  0.1561  0.2277
   20TAL    C9815948   0.138   4.198  17.957 -1.0789 -0.2603 -0.2246
   20TAL    C9915949   0.013   4.279  17.987 -0.9215  0.6040  0.1033
   20TAL   C10015950   0.036   4.341  18.126 -0.1138 -0.1857  0.4303
   21HTM   C10115951   0.300   4.285  17.350 -0.1174 -0.1239  0.2089
   21HTM   C10215952   0.292   4.364  17.239 -0.2051 -0.0015  0.3009
   21HTM   C10315953   0.236   4.297  17.124 -0.2419  0.1065  0.2556
   21HTM   C10415954   0.201   4.167  17.148 -0.1822  0.0670  0.1288
   21HTM    S1115955   0.236   4.119  17.318 -0.0741 -0.1116  0.0567
   22TAL   C10515956   0.222   4.383  17.001 -0.1530 -0.0881  0.4725
   22TAL   C10615957   0.084   4.439  16.980 -0.0036 -0.0558 -0.3414
   22TAL   C10715958   0.071   4.481  16.829 -0.3724  0.0021 -0.8844
   22TAL   C10815959  -0.071   4.490  16.791  1.1059 -0.2111  0.3414
   22TAL   C10915960  -0.143   4.359  16.772 -1.0264 -0.6014 -0.2791
   22TAL   C11015961  -0.101   4.258  16.667  0.1295 -0.6713 -0.6794
   23HTM   C11115962   0.134   4.072  17.052  0.8094 -0.5861  0.0124
   23HTM   C11215963   0.136   4.076  16.916  0.7295 -0.5660  0.0124
   23HTM   C11315964   0.071   3.963  16.854 -0.0215 -0.1623  0.0315
   23HTM   C11415965   0.021   3.873  16.943 -0.5143  0.1253  0.0471
   23HTM    S1215966   0.050   3.924  17.113 -0.0645 -0.0930  0.0381
   24TAL   C11515967   0.074   3.959  16.703 -0.7588 -0.0855  0.5273
   24TAL   C11615968   0.181   4.041  16.617 -0.1881  0.0805  0.0629
   24TAL   C11715969   0.338   4.022  16.638 -0.3314 -0.8158  0.4929
   24TAL   C11815970   0.382   3.878  16.611 -0.4986 -0.0536 -0.7878
   24TAL   C11915971   0.536   3.850  16.604  0.0174 -0.4398  0.8649
   24TAL   C12015972   0.557   3.716  16.545 -0.0825 -0.5531 -0.0686
   25HTM   C12115973  -0.040   3.744  16.908 -0.2265 -0.1487  0.1015
   25HTM   C12215974  -0.002   3.614  16.922 -0.7037 -0.2829  0.1988
   25HTM   C12315975  -0.092   3.520  16.861 -0.7832  0.0342 -0.1793
   25HTM   C12415976  -0.199   3.578  16.800 -0.3668  0.4102 -0.5655
   25HTM    S1315977  -0.194   3.758  16.815  0.1623  0.3926 -0.4800
   26TAL   C12515978  -0.052   3.376  16.864 -0.1444  0.0075 -0.5616
   26TAL   C12615979   0.080   3.340  16.799 -0.0235 -1.5352  0.4614
   26TAL   C12715980   0.061   3.358  16.650 -0.4482  0.5291 -0.0634
   26TAL   C12815981  -0.039   3.272  16.562 -0.5975  0.6185 -0.2213
   26TAL   C12915982  -0.024   3.305  16.410  0.3527  0.1550 -0.4230
   26TAL   C13015983  -0.060   3.188  16.319  0.2294  0.2802  0.2468
   27HTM   C13115984  -0.317   3.527  16.742 -0.4429 -0.6129  0.2158
   27HTM   C13215985  -0.361   3.398  16.747 -0.9723 -0.4299  0.4907
   27HTM   C13315986  -0.475   3.372  16.664 -0.8433 -0.2277  0.2470
   27HTM   C13415987  -0.519   3.481  16.595 -0.2157 -0.2564 -0.2127
   27HTM    S1415988  -0.418   3.626  16.630  0.2651 -0.5434 -0.3757
   28TAL   C13515989  -0.529   3.229  16.652  0.9925 -0.1196  0.4372
   28TAL   C13615990  -0.607   3.177  16.773  0.2545 -0.4650  0.4666
   28TAL   C13715991  -0.751   3.231  16.801 -0.4591 -0.4016  0.7426
   28TAL   C13815992  -0.870   3.227  16.703 -0.4776 -0.7439 -0.3352
   28TAL   C13915993  -0.919   3.093  16.643  0.4657 -0.0015 -0.2701
   28TAL   C14015994  -0.998   3.007  16.739  0.1640 -0.2241  0.6018
   29HTM   C14115995  -0.599   3.502  16.484  0.0182  0.0114  0.5414
   29HTM   C14215996  -0.676   3.418  16.410  0.2041 -0.2396  0.6328
   29HTM   C14315997  -0.760   3.485  16.314  0.4098 -0.5594  0.2265
   29HTM   C14415998  -0.746   3.620  16.315  0.3806 -0.5522 -0.1761
   29HTM    S1515999  -0.626   3.675  16.438  0.0888 -0.1379 -0.0699
   30TAL   C14516000  -0.838   3.409  16.221  0.8285 -0.0079 -0.0439
   30TAL   C14616001  -0.969   3.341  16.271  0.0110  0.1327  0.1320
   30TAL   C14716002  -1.000   3.206  16.194  1.0455 -0.7193  0.5748
   30TAL   C14816003  -0.915   3.099  16.247 -0.2172 -0.0979  0.4149
   30TAL   C14916004  -0.949   2.956  16.213 -0.2655  0.1118  0.1621
   30TAL   C15016005  -0.876   2.846  16.289  1.1653 -0.6688  0.0363
   31HTM   C15116006  -0.809   3.723  16.228  0.0612  0.0156 -0.0704
   31HTM   C15216007  -0.761   3.848  16.202  0.1825 -0.0694 -0.2518
   31HTM   C15316008  -0.851   3.930  16.125  0.1084  0.0311 -0.0587
   31HTM   C15416009  -0.968   3.868  16.093 -0.0694  0.1926  0.2695
   31HTM    S1616010  -0.974   3.700  16.158 -0.1575  0.2308  0.3617
   32TAL   C15516011  -0.800   4.074  16.088 -0.0163  0.5221  0.4228
   32TAL   C15616012  -0.768   4.113  15.937 -0.2115  0.1242  0.0612
   32TAL   C15716013  -0.650   4.053  15.871 -1.0928  0.7516 -0.0990
   32TAL   C15816014  -0.642   4.056  15.717  1.3659  0.7935 -0.6228
   32TAL   C15916015  -0.531   4.140  15.663  0.9823 -0.3444  0.1159
   32TAL   C16016016  -0.514   4.120  15.511  0.6258 -0.9424  0.3607
   33HTM   C16116017  -1.071   3.905  15.997 -0.5059  0.0369 -0.1439
   33HTM   C16216018  -1.115   4.029  15.962 -0.0829  0.1544 -0.2761
   33HTM   C16316019  -1.210   4.029  15.854  0.1998  0.3983 -0.5267
   33HTM   C16416020  -1.238   3.904  15.806 -0.0078  0.4669 -0.5856
   33HTM    S1716021  -1.146   3.777  15.894 -0.5809  0.2268 -0.3275
   34TAL   C16516022  -1.285   4.154  15.821  0.1337 -0.7092 -0.1773
   34TAL   C16616023  -1.197   4.236  15.728 -0.4272 -0.5601 -0.1386
   34TAL   C16716024  -1.259   4.367  15.678 -0.1162 -1.5481  0.5247
   34TAL   C16816025  -1.338   4.331  15.546 -0.6221 -0.4903 -0.2826
   34TAL   C16916026  -1.420   4.452  15.504  0.6836 -0.0165  0.3867
   34TAL   C17016027  -1.366   4.503  15.369  0.7525 -0.8866 -0.4563
   35HTM   C17116028  -1.310   3.854  15.693 -0.1161  0.8285 -0.0730
   35HTM   C17216029  -1.444   3.874  15.676 -0.2065  0.2404 -0.1051
   35HTM   C17316030  -1.492   3.836  15.546 -0.1311 -0.5406  0.0861
   35HTM   C17416031  -1.395   3.787  15.464  0.0166 -0.5479  0.2640
   35HTM    S1816032  -1.234   3.785  15.545  0.0726  0.4385  0.2034
   36TAL   C17516033  -1.624   3.875  15.505  0.7183 -0.6840 -0.9679
   36TAL   C17616034  -1.699   3.997  15.569  0.1273  0.8616 -0.1935
   36TAL   C17716035  -1.675   4.127  15.503  0.7022  0.0111  0.5935
   36TAL   C17816036  -1.802   4.161  15.436  0.3046 -0.0461 -0.3822
   36TAL   C17916037  -1.841   4.315  15.419 -0.5995  0.8663 -0.0684
   36TAL   C18016038  -1.865   4.383  15.545 -0.0419 -0.5464  0.2017
   37HTM   C18116039  -1.398   3.750  15.326 -0.0012 -0.1383  0.2580
   37HTM   C18216040  -1.306   3.666  15.270 -0.4590 -0.6241  0.2260
   37HTM   C18316041  -1.321   3.648  15.128 -0.8140 -0.8256  0.2861
   37HTM   C18416042  -1.425   3.720  15.075 -0.6273 -0.4934  0.3639
   37HTM    S1916043  -1.511   3.815  15.201  0.0167  0.1044  0.3672
   38TAL   C18516044  -1.214   3.568  15.050  0.6551  0.0728 -0.2699
   38TAL   C18616045  -1.066   3.595  15.068 -0.2777 -0.9110  0.5825
   38TAL   C18716046  -0.960   3.532  14.966  0.1083 -0.2389  0.8957
   38TAL   C18816047  -0.997   3.463  14.836 -0.0296 -0.6812 -0.0949
   38TAL   C18916048  -1.014   3.563  14.716 -0.4722 -0.0047  0.7498
   38TAL   C19016049  -0.912   3.529  14.608 -0.2627 -0.4040 -0.0441
   39HTM   C19116050  -1.462   3.737  14.937 -0.1617  0.2346  0.4271
   39HTM   C19216051  -1.571   3.684  14.876 -0.3589  0.4309  0.6080
   39HTM   C19316052  -1.577   3.710  14.734 -0.5286  0.4109  0.6111
   39HTM   C19416053  -1.472   3.783  14.688 -0.4604  0.1992  0.4316
   39HTM    S2016054  -1.356   3.824  14.820 -0.1748  0.0073  0.2443
   40TAL   C19516055  -1.698   3.671  14.647  0.3030  0.4809 -0.0122
   40TAL   C19616056  -1.842   3.721  14.698  0.8159 -1.2890  0.3118
   40TAL   C19716057  -1.940   3.735  14.576  0.4171 -0.6779  0.4287
   40TAL   C19816058  -2.028   3.612  14.563 -0.0001 -0.0713  0.4617
   40TAL   C19916059  -2.138   3.638  14.470  0.8937  0.2136 -0.7504
   40TAL   C20016060  -2.222   3.503  14.448 -0.7579  0.1078  0.2225
   41HTM   C20116061  -1.430   3.814  14.548 -0.5011 -0.2301  0.0821
   41HTM   C20216062  -1.301   3.811  14.504 -0.4969 -0.2026  0.0935
   41HTM   C20316063  -1.280   3.885  14.382 -0.5021 -0.2002  0.0939
   41HTM   C20416064  -1.393   3.944  14.333 -0.5105 -0.2259  0.0827
   41HTM    S2116065  -1.536   3.910  14.438 -0.5124 -0.2552  0.0707
   42TAL   C20516066  -1.137   3.901  14.335 -0.3386 -0.0651  0.1751
   42TAL   C20616067  -1.042   3.976  14.428  0.1774 -0.4511  0.6292
   42TAL   C20716068  -0.893   3.950  14.379 -0.4165 -0.7716 -0.2036
   42TAL   C20816069  -0.802   4.037  14.469  0.5720  0.4314 -0.0463
   42TAL   C20916070  -0.815   4.027  14.628 -0.4414 -0.4782  0.8195
   42TAL   C21016071  -0.749   4.139  14.694 -0.7128 -0.4447 -0.0530
   43HTM   C21116072  -1.418   4.002  14.203  0.2723  1.5618 -0.0504
   43HTM   C21216073  -1.535   4.054  14.159  0.1249  0.9136 -0.4609
   43HTM   C21316074  -1.537   4.081  14.018 -0.0688 -0.4524 -0.7479
   43HTM   C21416075  -1.421   4.049  13.954 -0.0689 -0.8457 -0.5561
   43HTM    S2216076  -1.299   3.982  14.068  0.1773  0.4892  0.0062
   44TAL   C21516077  -1.644   4.168  13.956  0.2553 -1.0403 -0.1378
   44TAL   C21616078  -1.778   4.126  13.904 -0.2854  1.1104 -0.8784
   44TAL   C21716079  -1.799   4.000  13.824  0.0828 -0.1593  0.1470
   44TAL   C21816080  -1.772   3.860  13.873  0.1823 -0.5451  0.0523
   44TAL   C21916081  -1.825   3.753  13.783 -0.2972  0.2214  0.6624
   44TAL   C22016082  -1.816   3.615  13.850 -0.1206 -0.0194 -0.9138
   45HTM   C22116083  -1.365   4.067  13.818 -0.2419 -0.8177  0.4004
   45HTM   C22216084  -1.241   4.106  13.777  0.0261 -1.3404  0.6962
   45HTM   C22316085  -1.228   4.118  13.634  0.2881 -0.9714  0.7474
   45HTM   C22416086  -1.343   4.088  13.566  0.2198 -0.1674  0.4904
   45HTM    S2316087  -1.476   4.043  13.678 -0.1837  0.1888  0.1618
   46TAL   C22516088  -1.100   4.166  13.582  0.2691  0.0729  1.2991
   46TAL   C22616089  -1.023   4.076  13.480  1.2973 -0.0616  0.8290
   46TAL   C22716090  -0.882   4.119  13.445  0.4189 -1.1725 -0.1375
   46TAL   C22816091  -0.895   4.254  13.364 -0.7431 -0.1452  0.0523
   46TAL   C22916092  -0.757   4.321  13.375  1.0303  0.6860  0.0157
   46TAL   C23016093  -0.756   4.467  13.320  0.7668  0.2803  0.0644
   47HTM   C23116094  -1.378   4.069  13.424 -0.7412  0.1972  0.1533
   47HTM   C23216095  -1.471   3.980  13.378 -1.0808  0.4833  0.2785
   47HTM   C23316096  -1.500   3.993  13.238 -1.0222  0.3889  0.2577
   47HTM   C23416097  -1.429   4.092  13.176 -0.6382  0.0308  0.1165
   47HTM    S2416098  -1.319   4.177  13.291 -0.3180 -0.2169 -0.0020
   48TAL   C23516099  -1.611   3.911  13.170 -0.1044  0.6054 -0.4009
   48TAL   C23616100  -1.647   3.954  13.027 -0.6840  0.9383  1.4433
   48TAL   C23716101  -1.764   3.861  12.981  0.8914 -0.7022 -0.0196
   48TAL   C23816102  -1.799   3.883  12.840 -0.6655  0.2878  0.0082
   48TAL   C23916103  -1.830   3.751  12.767  0.8360  0.4810 -0.0605
   48TAL   C24016104  -1.836   3.765  12.613  0.2850 -0.3723 -0.7919
    1HTM     C116105   4.781   1.852   2.843  0.1901 -0.0360 -0.2961
    1HTM     C216106   4.912   1.846   2.881  0.2066  0.1525 -0.3161
    1HTM     C316107   4.931   1.789   3.011  0.3140  0.1121 -0.3495
    1HTM     C416108   4.815   1.752   3.073  0.3796 -0.1072 -0.3548
    1HTM     S116109   4.671   1.787   2.970  0.3104 -0.2812 -0.3179
    2TAL     C516110   5.068   1.753   3.087  0.0536  0.0358  0.6419
    2TAL     C616111   5.197   1.785   3.011  0.0250  0.0646  0.1428
    2TAL     C716112   5.315   1.753   3.097 -0.3976 -0.0959 -0.7187
    2TAL     C816113   5.442   1.771   3.016  0.1312  0.0153 -0.2697
    2TAL     C916114   5.562   1.695   3.061 -0.1694  1.1160  0.5230
    2TAL    C1016115   5.563   1.540   3.040  0.3054  0.1200  0.4532
    3HTM    C1116116   4.788   1.704   3.209 -0.2623 -0.7780  0.1873
    3HTM    C1216117   4.685   1.624   3.250 -0.1515 -0.5775  0.8845
    3HTM    C1316118   4.671   1.616   3.393  0.3208  0.0603  0.9751
    3HTM    C1416119   4.763   1.690   3.461  0.5699  0.3462  0.3471
    3HTM     S216120   4.876   1.775   3.349  0.2246 -0.1721 -0.4135
    4TAL    C1516121   4.559   1.536   3.464  0.1618 -0.2906 -0.8270
    4TAL    C1616122   4.471   1.453   3.368  0.5080  0.9266  0.5736
    4TAL    C1716123   4.361   1.370   3.442  0.0213 -0.2178 -0.4692
    4TAL    C1816124   4.414   1.256   3.523  0.2642 -0.6508 -0.1959
    4TAL    C1916125   4.313   1.192   3.617 -1.1197  1.0290  0.6021
    4TAL    C2016126   4.362   1.069   3.679  0.2515  0.6046 -0.1331
    5HTM    C2116127   4.784   1.696   3.606 -0.4057 -0.2267 -0.1952
    5HTM    C2216128   4.774   1.814   3.673  0.0710 -0.0721 -0.3917
    5HTM    C2316129   4.784   1.802   3.816  0.3974  0.1741 -0.3904
    5HTM    C2416130   4.802   1.673   3.859  0.1694  0.2073 -0.1929
    5HTM     S316131   4.807   1.558   3.720 -0.4802 -0.0720  0.0084
    6TAL    C2516132   4.766   1.938   3.897  0.2861  1.2024  0.6750
    6TAL    C2616133   4.819   1.939   4.045  0.5061  0.0098 -0.5554
    6TAL    C2716134   4.736   2.045   4.133 -1.0982 -0.0086 -0.4088
    6TAL    C2816135   4.600   2.012   4.186 -0.5940 -0.2265 -0.0864
    6TAL    C2916136   4.600   1.882   4.265  0.0812  0.0854 -0.1331
    6TAL    C3016137   4.451   1.851   4.284 -0.1741  0.0361  0.4554
    7HTM    C3116138   4.818   1.610   3.988 -0.7864  0.1630  0.2560
    7HTM    C3216139   4.933   1.601   4.061 -0.7045  0.8271  0.2215
    7HTM    C3316140   4.915   1.538   4.189 -0.2645  0.5209  0.1367
    7HTM    C3416141   4.787   1.499   4.214 -0.0106 -0.3767  0.1068
    7HTM     S416142   4.678   1.540   4.076 -0.3103 -0.9089  0.1837
    8TAL    C3516143   5.025   1.511   4.291  0.1072 -0.2531 -0.1026
    8TAL    C3616144   5.167   1.566   4.276  0.5841  0.1827  0.8014
    8TAL    C3716145   5.245   1.578   4.414 -0.1088  0.1979  1.2137
    8TAL    C3816146   5.282   1.445   4.481  0.5507 -1.4065  0.1424
    8TAL    C3916147   5.335   1.473   4.621 -0.7339 -0.0783  0.7830
    8TAL    C4016148   5.422   1.352   4.678  0.8789 -0.1495 -0.0885
    9HTM    C4116149   4.731   1.449   4.342  0.2280 -0.6401  0.3142
    9HTM    C4216150   4.766   1.335   4.409 -0.0250 -0.1538  1.3053
    9HTM    C4316151   4.666   1.290   4.502 -0.2180  0.7551  1.5616
    9HTM    C4416152   4.555   1.369   4.506 -0.1122  0.9618  0.7659
    9HTM     S516153   4.568   1.507   4.392  0.2423  0.0173 -0.3779
   10TAL    C4516154   4.710   1.164   4.556 -0.1828  0.8272  0.5566
   10TAL    C4616155   4.681   1.029   4.478 -0.0268 -0.7193  0.1733
   10TAL    C4716156   4.783   0.936   4.524 -0.3459 -0.7530  0.6329
   10TAL    C4816157   4.724   0.801   4.561 -1.1169 -0.2975 -0.5650
   10TAL    C4916158   4.649   0.794   4.694  0.6330 -0.6404 -0.4019
   10TAL    C5016159   4.578   0.662   4.740  0.1241 -0.5266  0.4758
   11HTM    C5116160   4.427   1.344   4.563  0.1939 -0.1285 -0.1379
   11HTM    C5216161   4.393   1.249   4.654  0.1506 -0.3521 -0.3839
   11HTM    C5316162   4.257   1.259   4.701  0.1791 -0.3616 -0.2985
   11HTM    C5416163   4.187   1.362   4.645  0.2441 -0.1451  0.0125
   11HTM     S616164   4.289   1.454   4.528  0.2747  0.0893  0.2233
   12TAL    C5516165   4.212   1.175   4.818  0.2368  0.8109 -0.2513
   12TAL    C5616166   4.293   1.061   4.877 -1.0196  0.3295  0.0042
   12TAL    C5716167   4.260   1.026   5.024 -0.3845 -0.2365  0.8540
   12TAL    C5816168   4.358   1.061   5.130  0.1060  0.2037 -0.5508
   12TAL    C5916169   4.287   1.105   5.253  0.4295 -1.2438 -0.8057
   12TAL    C6016170   4.330   1.043   5.381  0.2165 -0.7226 -0.0056
   13HTM    C6116171   4.041   1.376   4.639  0.0016 -0.1450 -0.8067
   13HTM    C6216172   3.970   1.491   4.620  0.0097 -0.3029 -1.8989
   13HTM    C6316173   3.828   1.473   4.630 -0.0092 -0.2641 -2.0984
   13HTM    C6416174   3.790   1.345   4.656 -0.0316 -0.0767 -1.1587
   13HTM     S716175   3.933   1.236   4.672 -0.0306  0.0665  0.0610
   14TAL    C6516176   3.733   1.592   4.609  0.4260 -0.1977 -0.0129
   14TAL    C6616177   3.771   1.694   4.498 -0.6364 -0.7679 -0.2477
   14TAL    C6716178   3.683   1.822   4.471  0.5708  0.3594  0.8043
   14TAL    C6816179   3.701   1.944   4.555 -0.7150  0.2885 -0.2131
   14TAL    C6916180   3.584   2.044   4.547  0.3738  0.4220  0.2425
   14TAL    C7016181   3.557   2.135   4.668 -0.4659 -0.5527  1.6280
   15HTM    C7116182   3.663   1.283   4.685 -0.2835  0.1825  0.2774
   15HTM    C7216183   3.570   1.231   4.600  0.0913 -0.6455  0.3563
   15HTM    C7316184   3.466   1.156   4.666  0.4379 -1.0074  0.5040
   15HTM    C7416185   3.479   1.152   4.802  0.3274 -0.4554  0.5376
   15HTM     S816186   3.626   1.242   4.857 -0.2275  0.5723  0.3842
   16TAL    C7516187   3.357   1.082   4.582 -1.1221 -0.7071 -0.4518
   16TAL    C7616188   3.405   0.985   4.476  0.0312  0.7588 -0.2736
   16TAL    C7716189   3.336   1.001   4.346 -0.4806 -1.5579  0.7895
   16TAL    C7816190   3.371   0.913   4.231 -1.2314 -0.5756 -0.8109
   16TAL    C7916191   3.273   0.921   4.111  0.0715  0.1376 -1.1479
   16TAL    C8016192   3.335   0.850   3.996 -0.3051  0.0772 -0.1467
   17HTM    C8116193   3.382   1.095   4.898 -0.4601 -0.3794 -0.1865
   17HTM    C8216194   3.248   1.071   4.887 -0.4802 -0.3439 -0.0176
   17HTM    C8316195   3.195   0.991   4.995 -0.3569 -0.3709  0.0238
   17HTM    C8416196   3.288   0.954   5.087 -0.2428 -0.4271 -0.1133
   17HTM     S916197   3.451   1.017   5.045 -0.2825 -0.4503 -0.3071
   18TAL    C8516198   3.049   0.964   4.976 -0.2522  0.8339 -0.4308
   18TAL    C8616199   3.009   0.821   4.943  0.4688 -1.1312  0.8260
   18TAL    C8716200   3.099   0.730   4.856 -0.9534 -0.4405  0.4772
   18TAL    C8816201   3.080   0.573   4.828 -0.4546  0.0562  0.4644
   18TAL    C8916202   3.084   0.499   4.969  0.1035 -0.3191 -0.2274
   18TAL    C9016203   3.045   0.362   4.952 -0.6474  0.2926 -0.8886
   19HTM    C9116204   3.268   0.862   5.198  0.1028  0.0878 -0.0279
   19HTM    C9216205   3.201   0.883   5.315 -0.0837  0.0115 -0.1211
   19HTM    C9316206   3.204   0.770   5.404 -0.4554 -0.1449 -0.3021
   19HTM    C9416207   3.273   0.663   5.355 -0.5521 -0.1880 -0.3469
   19HTM    S1016208   3.341   0.698   5.192 -0.1784 -0.0330 -0.1625
   20TAL    C9516209   3.152   0.784   5.547 -1.2427 -0.0701 -0.1857
   20TAL    C9616210   3.002   0.749   5.546 -0.0350 -0.7366 -0.1124
   20TAL    C9716211   2.940   0.692   5.676  1.1540 -0.8162  0.1374
   20TAL    C9816212   2.937   0.779   5.805 -1.3402  0.7058  1.1160
   20TAL    C9916213   2.919   0.708   5.938  0.4032 -0.2128 -0.8998
   20TAL   C10016214   2.789   0.624   5.940  0.0264  0.2143 -0.2471
   21HTM   C10116215   3.287   0.526   5.401  0.7865  0.9949  0.7940
   21HTM   C10216216   3.373   0.430   5.358  1.2856  1.3181  1.0455
   21HTM   C10316217   3.352   0.301   5.419  1.1519  1.0734  0.4983
   21HTM   C10416218   3.249   0.300   5.509  0.5508  0.5637 -0.1704
   21HTM    S1116219   3.172   0.462   5.524  0.1037  0.3515 -0.1606
   22TAL   C10516220   3.439   0.181   5.367  0.5770  0.0814 -0.5916
   22TAL   C10616221   3.539   0.160   5.242  0.0555  0.3763 -1.1668
   22TAL   C10716222   3.655   0.255   5.230  0.5986 -0.1350  0.5413
   22TAL   C10816223   3.752   0.230   5.107 -0.1019 -0.0603  0.4261
   22TAL   C10916224   3.685   0.258   4.972 -0.0074 -0.3853  1.2855
   22TAL   C11016225   3.680   0.412   4.938  0.3793 -0.0075 -1.9795
   23HTM   C11116226   3.177   0.201   5.589 -0.0128  0.4882 -0.1443
   23HTM   C11216227   3.221   0.079   5.630  0.2211  0.3858 -0.6865
   23HTM   C11316228   3.127   0.009   5.715  0.5114 -0.0062 -0.6843
   23HTM   C11416229   3.012   0.078   5.738  0.4989 -0.2026 -0.1403
   23HTM    S1216230   3.013   0.238   5.655  0.1166  0.0945  0.4155
   24TAL   C11516231   3.152  -0.131   5.758  0.1381  0.9820  0.4093
   24TAL   C11616232   3.224  -0.218   5.652 -0.1940  0.7197 -0.9570
   24TAL   C11716233   3.314  -0.334   5.697 -0.2248  0.0167  0.7072
   24TAL   C11816234   3.247  -0.455   5.748 -0.5090  0.2415 -0.5487
   24TAL   C11916235   3.363  -0.536   5.799 -0.9669  0.1486 -0.4989
   24TAL   C12016236   3.328  -0.680   5.852  0.1910  0.0811 -0.2286
   25HTM   C12116237   2.889   0.052   5.817 -0.0486 -0.2941  0.0475
   25HTM   C12216238   2.824  -0.066   5.840 -0.0123 -0.2838  0.2018
   25HTM   C12316239   2.705  -0.051   5.920  0.0046 -0.2213  0.2156
   25HTM   C12416240   2.679   0.078   5.958 -0.0188 -0.1837  0.0720
   25HTM    S1316241   2.805   0.191   5.894 -0.0644 -0.2248 -0.0933
   26TAL   C12516242   2.620  -0.172   5.971 -0.0925  0.0576  0.4008
   26TAL   C12616243   2.636  -0.307   5.898  0.1528  0.3286  0.0981
   26TAL   C12716244   2.562  -0.423   5.961 -0.0003 -0.5445 -0.1089
   26TAL   C12816245   2.544  -0.536   5.867  1.1370  0.9889  0.5345
   26TAL   C12916246   2.417  -0.561   5.790  0.3774 -0.5371 -0.4523
   26TAL   C13016247   2.461  -0.700   5.754  0.1779  0.6473 -0.3236
   27HTM   C13116248   2.571   0.141   6.029  0.3137 -0.4091 -0.4027
   27HTM   C13216249   2.506   0.098   6.141  0.5784 -0.5321 -0.2922
   27HTM   C13316250   2.407   0.191   6.188  0.5903 -0.6486 -0.0378
   27HTM   C13416251   2.396   0.304   6.113  0.3349 -0.6144  0.0459
   27HTM    S1416252   2.512   0.302   5.975  0.0571 -0.4311 -0.1921
   28TAL   C13516253   2.310   0.146   6.294 -0.8034  0.8740 -0.6984
   28TAL   C13616254   2.244   0.006   6.281 -0.5252  0.4254 -0.2034
   28TAL   C13716255   2.161  -0.007   6.154  0.1008 -0.3615  0.3436
   28TAL   C13816256   2.080  -0.134   6.174  0.2600  0.4034 -0.0640
   28TAL   C13916257   2.021  -0.176   6.043  0.4166 -0.4147  0.0277
   28TAL   C14016258   1.957  -0.310   6.034  0.3503 -0.7682  0.4832
   29HTM   C14116259   2.299   0.412   6.125  0.2405 -0.0513  0.1588
   29HTM   C14216260   2.342   0.542   6.125  0.2006 -0.0298  0.8556
   29HTM   C14316261   2.237   0.637   6.100  0.1688  0.0773  1.3826
   29HTM   C14416262   2.114   0.581   6.082  0.1845  0.1374  1.0880
   29HTM    S1516263   2.122   0.401   6.094  0.2410  0.0629  0.1140
   30TAL   C14516264   2.263   0.786   6.101  0.5756 -0.5499 -0.0661
   30TAL   C14616265   2.272   0.836   6.246  0.6432 -0.6262  0.5522
   30TAL   C14716266   2.360   0.958   6.248 -0.5190  0.0363  0.6122
   30TAL   C14816267   2.498   0.918   6.312  0.0344  0.6452  0.0111
   30TAL   C14916268   2.596   1.030   6.316 -0.0448 -0.0216 -0.0029
   30TAL   C15016269   2.708   0.998   6.414  1.0159 -0.0799  0.5951
   31HTM   C15116270   1.978   0.635   6.032 -0.3264  0.0053  0.3452
   31HTM   C15216271   1.857   0.573   6.036 -0.3166  0.0105  0.9861
   31HTM   C15316272   1.747   0.660   6.003 -0.4548 -0.0684  1.2326
   31HTM   C15416273   1.784   0.788   5.974 -0.5698 -0.1337  0.7798
   31HTM    S1616274   1.963   0.808   5.986 -0.5122 -0.1004  0.0008
   32TAL   C15516275   1.595   0.617   6.013 -0.6692 -0.4910  0.4893
   32TAL   C15616276   1.575   0.473   5.982  0.5967 -0.1634 -0.6847
   32TAL   C15716277   1.423   0.435   5.970 -0.0869  0.1533 -0.0147
   32TAL   C15816278   1.393   0.285   5.936 -0.1991 -0.6534 -0.1142
   32TAL   C15916279   1.251   0.269   5.895  1.0209  0.5045  0.3225
   32TAL   C16016280   1.207   0.119   5.898 -0.4269 -0.2013  0.3668
   33HTM   C16116281   1.708   0.908   5.946  0.1888 -0.1022 -0.1054
   33HTM   C16216282   1.734   1.030   6.001  0.5865 -0.0601 -0.3792
   33HTM   C16316283   1.648   1.135   5.951  0.8831  0.0967 -0.5646
   33HTM   C16416284   1.558   1.093   5.859  0.7115  0.1740 -0.4321
   33HTM    S1716285   1.573   0.916   5.827  0.1578  0.0539 -0.0600
   34TAL   C16516286   1.649   1.283   6.001  0.1973  0.7331 -0.4343
   34TAL   C16616287   1.715   1.326   6.132 -0.3720  0.2767  0.1993
   34TAL   C16716288   1.862   1.323   6.154  0.2617 -0.3597 -0.0375
   34TAL   C16816289   1.941   1.419   6.063 -0.1329  0.1118  0.1993
   34TAL   C16916290   2.090   1.401   6.065 -1.0332  0.0295  0.5978
   34TAL   C17016291   2.178   1.400   6.188  0.7616 -0.2161 -0.3417
   35HTM   C17116292   1.438   1.154   5.799  0.0130 -0.5534  0.6986
   35HTM   C17216293   1.341   1.092   5.726 -0.2064 -0.2133  0.6993
   35HTM   C17316294   1.225   1.174   5.703  0.2096  0.3071  0.4314
   35HTM   C17416295   1.234   1.299   5.758  0.7461  0.3639  0.2265
   35HTM    S1816296   1.391   1.322   5.844  0.7679 -0.2403  0.3570
   36TAL   C17516297   1.099   1.125   5.634 -0.5035 -0.2566 -0.6353
   36TAL   C17616298   1.049   1.181   5.499 -0.5369  0.1650 -0.1596
   36TAL   C17716299   1.147   1.173   5.379 -0.2486  0.0945 -0.7826
   36TAL   C17816300   1.083   1.218   5.247  0.4394 -0.1761 -0.3384
   36TAL   C17916301   1.151   1.164   5.119  0.7659 -0.3545 -0.2999
   36TAL   C18016302   1.099   1.207   4.982  0.4007  0.3220 -0.3748
   37HTM   C18116303   1.130   1.398   5.766  0.0298  0.1640 -0.0469
   37HTM   C18216304   1.042   1.405   5.869  0.1289  0.2873  0.0298
   37HTM   C18316305   0.949   1.515   5.859  0.1874  0.3380  0.0421
   37HTM   C18416306   0.967   1.592   5.748  0.1330  0.2532 -0.0250
   37HTM    S1916307   1.103   1.531   5.646  0.0025  0.1017 -0.1102
   38TAL   C18516308   0.846   1.535   5.966 -0.1024  0.4140 -0.3883
   38TAL   C18616309   0.714   1.450   5.979 -0.0003 -0.4511 -0.3159
   38TAL   C18716310   0.617   1.443   5.858 -0.1117  0.0041 -0.1097
   38TAL   C18816311   0.493   1.363   5.877  0.9339  0.2219 -0.3773
   38TAL   C18916312   0.408   1.396   5.999  0.2373 -0.2224 -0.7107
   38TAL   C19016313   0.280   1.314   5.993  0.2160 -0.8590  0.6988
   39HTM   C19116314   0.891   1.705   5.690 -0.7817  0.1474  0.4223
   39HTM   C19216315   0.767   1.749   5.724 -0.6631  0.8009  0.0386
   39HTM   C19316316   0.724   1.864   5.648  0.0336  0.8328 -0.3296
   39HTM   C19416317   0.815   1.907   5.556  0.4463  0.2035 -0.2266
   39HTM    S2016318   0.964   1.805   5.558 -0.0166 -0.4834  0.3478
   40TAL   C19516319   0.585   1.914   5.678 -0.0286  0.3166  0.2699
   40TAL   C19616320   0.468   1.816   5.703  0.0153  1.6627 -0.0443
   40TAL   C19716321   0.418   1.712   5.605 -1.1625  0.1771  0.3509
   40TAL   C19816322   0.326   1.611   5.650  0.1303  0.3105  0.0557
   40TAL   C19916323   0.247   1.563   5.532 -0.5066  0.4595 -0.2653
   40TAL   C20016324   0.151   1.447   5.555  0.6654  0.4055 -0.1151
   41HTM   C20116325   0.804   2.008   5.459 -0.3787 -0.5556  0.0685
   41HTM   C20216326   0.689   2.047   5.398 -0.3676 -1.1419 -0.3438
   41HTM   C20316327   0.709   2.119   5.275 -0.2844 -0.9159 -0.1992
   41HTM   C20416328   0.841   2.135   5.242 -0.2320 -0.1573  0.3234
   41HTM    S2116329   0.949   2.060   5.365 -0.2841  0.3343  0.6762
   42TAL   C20516330   0.586   2.141   5.191 -0.7399 -0.2389  0.1458
   42TAL   C20616331   0.537   2.282   5.178  0.4248  0.5846  0.5207
   42TAL   C20716332   0.472   2.297   5.037  0.3064  1.3689  0.8108
   42TAL   C20816333   0.387   2.419   5.002  0.8946  0.0687  0.4046
   42TAL   C20916334   0.329   2.407   4.859  0.3089 -0.6302  0.1604
   42TAL   C21016335   0.271   2.536   4.794 -0.4408  0.0086 -0.8182
   43HTM   C21116336   0.907   2.188   5.126 -0.0200 -0.4636  0.6467
   43HTM   C21216337   0.850   2.258   5.024  0.0584  0.3113  1.1227
   43HTM   C21316338   0.939   2.282   4.913  0.0827  0.9757  1.2735
   43HTM   C21416339   1.064   2.229   4.930  0.0228  0.7075  0.9123
   43HTM    S2216340   1.079   2.145   5.089 -0.0697 -0.4139  0.3495
   44TAL   C21516341   0.885   2.338   4.771  0.4185 -0.5334 -0.7477
   44TAL   C21616342   0.749   2.427   4.769 -0.6190  0.2714  0.3746
   44TAL   C21716343   0.730   2.505   4.637 -0.5046  0.2430 -0.2615
   44TAL   C21816344   0.815   2.627   4.638 -0.1188  0.4468 -0.2299
   44TAL   C21916345   0.785   2.688   4.498 -0.4648  0.7246  0.3038
   44TAL   C22016346   0.841   2.828   4.488 -0.2689  0.4652  0.0772
   45HTM   C22116347   1.173   2.213   4.839  0.0256  0.2571  0.0066
   45HTM   C22216348   1.235   2.095   4.811 -0.0864  0.2377 -0.1627
   45HTM   C22316349   1.330   2.104   4.703 -0.0444  0.3139 -0.1197
   45HTM   C22416350   1.340   2.229   4.649  0.0996  0.3913  0.0826
   45HTM    S2316351   1.229   2.345   4.731  0.1940  0.3739  0.2357
   46TAL   C22516352   1.412   1.974   4.661 -0.9274 -0.4713  0.8396
   46TAL   C22616353   1.384   1.823   4.700  1.0119 -1.4353  0.9997
   46TAL   C22716354   1.240   1.775   4.679  0.1484 -0.5152 -0.0760
   46TAL   C22816355   1.209   1.641   4.732  0.1476  1.1363 -0.1430
   46TAL   C22916356   1.080   1.579   4.673 -0.7032  0.7997  0.0566
   46TAL   C23016357   1.051   1.439   4.723 -0.1603  0.2430  0.6850
   47HTM   C23116358   1.447   2.267   4.562  0.1403  0.0691 -0.3004
   47HTM   C23216359   1.458   2.233   4.431  0.0578 -0.4939 -0.1681
   47HTM   C23316360   1.579   2.282   4.369 -0.0235 -0.6778 -0.4741
   47HTM   C23416361   1.659   2.352   4.453 -0.0030 -0.2549 -0.8399
   47HTM    S2416362   1.588   2.363   4.619  0.1215  0.4133 -0.8259
   48TAL   C23516363   1.620   2.238   4.230 -0.7555 -0.0806 -0.2145
   48TAL   C23616364   1.758   2.299   4.183  0.3846 -0.3294  0.5120
   48TAL   C23716365   1.795   2.245   4.050 -0.5064  0.7772  0.1610
   48TAL   C23816366   1.873   2.334   3.957 -0.2920 -0.0446 -0.3466
   48TAL   C23916367   1.955   2.261   3.843 -0.0888 -0.2462 -0.6056
   48TAL   C24016368   2.007   2.360   3.747  0.3172 -0.7119 -0.7364
    1HTM     C116369   6.365   7.083  16.063  0.3154  0.4390 -0.0290
    1HTM     C216370   6.463   7.117  15.975  0.6025  0.2272  0.2031
    1HTM     C316371   6.595   7.114  16.031  0.4796 -0.2195  0.4745
    1HTM     C416372   6.598   7.077  16.162  0.0990 -0.3480  0.4497
    1HTM     S116373   6.433   7.043  16.226 -0.1357  0.0882  0.0781
    2TAL     C516374   6.718   7.143  15.945 -0.4829 -0.2071 -0.8556
    2TAL     C616375   6.725   7.269  15.855 -0.9296 -0.3970 -0.2390
    2TAL     C716376   6.678   7.390  15.919 -0.8115 -0.9975  0.3661
    2TAL     C816377   6.702   7.525  15.842  0.2661  0.3385  0.8212
    2TAL     C916378   6.646   7.529  15.694 -0.8284 -0.3006 -0.8658
    2TAL    C1016379   6.726   7.635  15.615  0.4549 -0.2354  0.3722
    3HTM    C1116380   6.702   7.060  16.259  0.0561 -0.6850  0.2257
    3HTM    C1216381   6.702   6.976  16.367  0.4853 -1.2656 -0.2165
    3HTM    C1316382   6.823   6.982  16.445  0.5858 -1.3018 -0.3681
    3HTM    C1416383   6.915   7.071  16.397  0.2334 -0.7484 -0.0417
    3HTM     S216384   6.856   7.154  16.248 -0.2569 -0.1343  0.4862
    4TAL    C1516385   6.829   6.919  16.591 -0.7759 -0.5778  1.1342
    4TAL    C1616386   6.699   6.892  16.673 -0.3811 -0.2952  0.6257
    4TAL    C1716387   6.615   6.766  16.649  0.1635  0.1898 -1.4894
    4TAL    C1816388   6.687   6.636  16.638 -0.2429 -0.5785 -0.4218
    4TAL    C1916389   6.623   6.517  16.558  0.0589  0.7431  0.3654
    4TAL    C2016390   6.601   6.554  16.405 -0.5950  0.3303 -0.0700
    5HTM    C2116391   7.048   7.113  16.442  0.1121 -0.1418 -0.4859
    5HTM    C2216392   7.089   7.242  16.428  0.3282 -0.2468 -0.8168
    5HTM    C2316393   7.223   7.266  16.477  0.3027 -0.3064 -0.7181
    5HTM    C2416394   7.282   7.155  16.529  0.0671 -0.2470 -0.3124
    5HTM     S316395   7.174   7.011  16.520 -0.1424 -0.1100 -0.0200
    6TAL    C2516396   7.282   7.406  16.455 -1.0761 -0.2316  1.8085
    6TAL    C2616397   7.350   7.411  16.311  0.1878  0.1954 -0.2916
    6TAL    C2716398   7.452   7.533  16.304  0.2436 -0.2496 -0.2759
    6TAL    C2816399   7.464   7.605  16.166  0.6994  0.9816  0.7071
    6TAL    C2916400   7.524   7.743  16.154  0.1959 -0.5175 -0.1464
    6TAL    C3016401   7.496   7.854  16.263 -0.3014 -0.9695 -0.5155
    7HTM    C3116402   7.402   7.144  16.623 -0.3903  0.0441  0.0163
    7HTM    C3216403   7.513   7.223  16.621 -0.5197  0.2249 -0.2608
    7HTM    C3316404   7.623   7.169  16.697 -0.3293  0.5291 -0.3181
    7HTM    C3416405   7.596   7.050  16.757 -0.0548  0.5800 -0.0842
    7HTM     S416406   7.427   6.995  16.721 -0.0151  0.2453  0.2287
    8TAL    C3516407   7.753   7.248  16.705 -0.1258 -0.3645 -0.4263
    8TAL    C3616408   7.752   7.403  16.711  1.0050 -0.0077  0.5619
    8TAL    C3716409   7.759   7.464  16.846 -1.2035  0.1694 -0.3764
    8TAL    C3816410   7.794   7.617  16.867  0.2864 -0.5740  0.2276
    8TAL    C3916411   7.808   7.658  17.015 -0.4798 -0.4678 -0.7986
    8TAL    C4016412   7.792   7.801  17.044  0.1399  0.6097 -0.2880
    9HTM    C4116413   7.665   6.950  16.822 -0.1624 -0.1181  0.5544
    9HTM    C4216414   7.713   6.940  16.949 -0.5110 -0.8997  0.6413
    9HTM    C4316415   7.796   6.825  16.972 -0.5724 -1.0433  0.1583
    9HTM    C4416416   7.811   6.746  16.862 -0.2706 -0.3710 -0.2970
    9HTM     S516417   7.721   6.812  16.720  0.1176  0.5023 -0.1496
   10TAL    C4516418   7.853   6.817  17.114 -1.0971 -0.2041  0.3531
   10TAL    C4616419   7.796   6.721  17.218  0.9273 -0.7527  0.2833
   10TAL    C4716420   7.865   6.754  17.348 -0.7369 -1.8801 -0.0194
   10TAL    C4816421   7.874   6.648  17.448 -0.9838 -0.0174 -0.7334
   10TAL    C4916422   7.910   6.506  17.429 -0.3790  0.1484 -0.3169
   10TAL    C5016423   8.060   6.472  17.375 -0.0964  0.7122 -0.2920
   11HTM    C5116424   7.895   6.629  16.838  0.3889 -0.1803 -0.1726
   11HTM    C5216425   7.895   6.542  16.733  0.7521 -0.0254 -0.3042
   11HTM    C5316426   7.997   6.440  16.741  0.9276  0.1521 -0.2632
   11HTM    C5416427   8.074   6.450  16.853  0.6983  0.1330 -0.1003
   11HTM     S616428   8.025   6.589  16.957  0.2393 -0.1128  0.0139
   12TAL    C5516429   7.996   6.337  16.631  1.0492 -0.0312 -0.3266
   12TAL    C5616430   8.135   6.332  16.566 -0.1175  0.4005 -0.4941
   12TAL    C5716431   8.136   6.252  16.438 -1.3667  0.3432  0.4092
   12TAL    C5816432   8.276   6.254  16.360 -0.8165  0.4246  0.1158
   12TAL    C5916433   8.398   6.189  16.435 -0.3208 -0.5773 -0.3980
   12TAL    C6016434   8.515   6.144  16.342  0.2630  0.7519 -1.0384
   13HTM    C6116435   8.174   6.363  16.918 -0.6483  0.2509  1.0176
   13HTM    C6216436   8.292   6.398  16.977 -0.7547  0.4405  1.1168
   13HTM    C6316437   8.369   6.286  17.024 -0.3008  0.5162  0.5779
   13HTM    C6416438   8.310   6.165  17.002  0.1518  0.3843  0.0678
   13HTM     S716439   8.151   6.184  16.918  0.0389  0.1525  0.2294
   14TAL    C6516440   8.492   6.308  17.118  0.3950  0.1122 -0.2319
   14TAL    C6616441   8.608   6.218  17.091 -0.2949  0.1684 -0.0316
   14TAL    C6716442   8.711   6.262  16.991 -1.1230  0.9742  1.0460
   14TAL    C6816443   8.686   6.233  16.835 -0.4290 -1.1912  0.2347
   14TAL    C6916444   8.794   6.287  16.730 -0.4815  1.0285  0.4833
   14TAL    C7016445   8.833   6.433  16.732 -0.6862 -0.0633  1.3881
   15HTM    C7116446   8.340   6.026  17.035  0.4106 -0.0133  0.1530
   15HTM    C7216447   8.270   5.953  17.127  0.5973  0.1749  0.4497
   15HTM    C7316448   8.292   5.811  17.116  0.2134  0.1184  0.3905
   15HTM    C7416449   8.378   5.776  17.016 -0.2661 -0.1126  0.0481
   15HTM     S816450   8.439   5.921  16.928 -0.2699 -0.2783 -0.2276
   16TAL    C7516451   8.245   5.725  17.231  0.0676  0.0763  0.1529
   16TAL    C7616452   8.095   5.728  17.252 -0.0107 -0.0458  0.1052
   16TAL    C7716453   8.020   5.643  17.151 -0.9128  0.2834  1.0992
   16TAL    C7816454   8.028   5.497  17.148 -0.4106  0.0694  0.0093
   16TAL    C7916455   7.971   5.403  17.250 -0.5207 -0.3158  0.0754
   16TAL    C8016456   8.050   5.272  17.253 -0.0486 -0.4273  0.4187
   17HTM    C8116457   8.433   5.638  16.980 -0.5126  0.1383  0.2481
   17HTM    C8216458   8.492   5.624  16.858 -1.2088  0.4635 -0.1402
   17HTM    C8316459   8.522   5.487  16.824 -1.1645  0.5759 -0.5665
   17HTM    C8416460   8.486   5.398  16.920 -0.4345  0.3365 -0.5023
   17HTM     S916461   8.410   5.479  17.062  0.2590 -0.0525  0.1058
   18TAL    C8516462   8.598   5.460  16.692 -0.7367 -0.7025  0.9330
   18TAL    C8616463   8.546   5.530  16.566 -0.0164 -0.5793 -0.3783
   18TAL    C8716464   8.647   5.537  16.454  0.0046 -0.4231  0.4574
   18TAL    C8816465   8.598   5.580  16.317  0.2576  0.4827  0.2501
   18TAL    C8916466   8.479   5.490  16.247  0.3131  0.2125 -1.2544
   18TAL    C9016467   8.534   5.377  16.157  0.1414 -0.8673 -0.3033
   19HTM    C9116468   8.505   5.257  16.924 -0.1458 -0.2767  0.5218
   19HTM    C9216469   8.418   5.160  16.885  0.0987 -0.3988  0.2728
   19HTM    C9316470   8.476   5.028  16.881  0.3897 -0.2664  0.0868
   19HTM    C9416471   8.607   5.025  16.916  0.3672 -0.0436  0.1938
   19HTM    S1016472   8.668   5.189  16.959 -0.0264  0.0173  0.5402
   20TAL    C9516473   8.381   4.927  16.816 -1.1155  0.6150 -0.5054
   20TAL    C9616474   8.327   4.838  16.921 -0.5848  0.2426 -1.4144
   20TAL    C9716475   8.171   4.832  16.914  0.3504  0.7474  0.4414
   20TAL    C9816476   8.104   4.759  17.030  0.3870 -0.2934 -1.0058
   20TAL    C9916477   7.953   4.773  17.041  0.7025  0.0991 -1.2111
   20TAL   C10016478   7.926   4.700  17.170 -0.3605 -0.6467 -0.6585
   21HTM   C10116479   8.698   4.903  16.922 -0.3057 -0.3757  0.5331
   21HTM   C10216480   8.831   4.904  16.949 -0.2764 -0.2429  0.3781
   21HTM   C10316481   8.898   4.780  16.920 -0.0787 -0.0013 -0.2422
   21HTM   C10416482   8.815   4.683  16.871  0.0429  0.0504 -0.5601
   21HTM    S1116483   8.645   4.742  16.859 -0.0839 -0.2044 -0.0972
   22TAL   C10516484   9.048   4.751  16.945  0.3812  0.9048 -0.8344
   22TAL   C10616485   9.127   4.830  17.055  0.3924  0.7725 -0.5250
   22TAL   C10716486   9.287   4.798  17.044  1.0212  0.3915 -0.0964
   22TAL   C10816487   9.363   4.825  17.164 -0.4298 -0.0191 -0.0102
   22TAL   C10916488   9.324   4.788  17.305  0.9862 -0.1122 -1.3854
   22TAL   C11016489   9.436   4.826  17.397 -0.2978  0.0469  0.1885
   23HTM   C11116490   8.838   4.542  16.860 -0.0903 -0.0343 -0.4625
   23HTM   C11216491   8.854   4.445  16.955 -0.3228 -0.0721 -0.4601
   23HTM   C11316492   8.856   4.311  16.902 -0.4575 -0.0671 -0.4783
   23HTM   C11416493   8.842   4.306  16.767 -0.3277 -0.0253 -0.4945
   23HTM    S1216494   8.824   4.470  16.695 -0.0229  0.0111 -0.4878
   24TAL   C11516495   8.883   4.184  16.988  1.2000  0.3653 -0.6861
   24TAL   C11616496   8.775   4.126  17.077  0.9638  0.0983  0.0937
   24TAL   C11716497   8.645   4.082  17.006  0.6726  0.7890 -0.0853
   24TAL   C11816498   8.537   4.021  17.104 -0.1509 -0.5069  0.4915
   24TAL   C11916499   8.566   3.886  17.165 -0.5891  0.2519 -0.7163
   24TAL   C12016500   8.471   3.831  17.256  1.3371  1.3541 -0.0481
   25HTM   C12116501   8.820   4.198  16.669 -0.4002  0.4003 -0.7445
   25HTM   C12216502   8.723   4.102  16.673 -0.5529  0.5257 -1.2527
   25HTM   C12316503   8.736   4.002  16.570  0.0798  0.3026 -0.9642
   25HTM   C12416504   8.843   4.022  16.488  0.7149  0.0070 -0.2369
   25HTM    S1316505   8.936   4.169  16.534  0.5620 -0.0126  0.1443
   26TAL   C12516506   8.631   3.888  16.548 -0.9496 -0.7604  0.2884
   26TAL   C12616507   8.484   3.898  16.602  0.7607 -0.4444 -0.0304
   26TAL   C12716508   8.363   3.978  16.536 -0.4741 -0.0651  0.5965
   26TAL   C12816509   8.400   4.117  16.477  0.0411  0.5278  0.1985
   26TAL   C12916510   8.389   4.125  16.325  0.7697  0.0245 -0.1175
   26TAL   C13016511   8.498   4.220  16.296 -0.2398 -1.0708 -0.1011
   27HTM   C13116512   8.884   3.966  16.364  0.1158  0.2003  0.1983
   27HTM   C13216513   8.892   3.835  16.326 -0.2003  0.1822  0.1850
   27HTM   C13316514   8.960   3.816  16.200 -0.7586  0.0778 -0.1059
   27HTM   C13416515   9.003   3.932  16.143 -0.8680  0.0165 -0.3148
   27HTM    S1416516   8.961   4.075  16.244 -0.2700  0.0861 -0.1579
   28TAL   C13516517   8.974   3.671  16.152  1.0837 -1.3977 -0.2133
   28TAL   C13616518   9.115   3.620  16.128 -0.3309 -0.1695  0.5627
   28TAL   C13716519   9.141   3.517  16.019 -0.4315 -0.6677 -0.0021
   28TAL   C13816520   9.065   3.389  16.018 -0.2464 -0.7644  0.2785
   28TAL   C13916521   9.132   3.287  15.925 -1.2693  0.0254 -0.5825
   28TAL   C14016522   9.039   3.177  15.915  0.3839  1.0658 -0.7278
   29HTM   C14116523   9.066   3.953  16.012  0.2262 -0.8742 -0.0123
   29HTM   C14216524   9.017   3.965  15.885 -0.2864 -1.1111  0.1614
   29HTM   C14316525   9.118   3.984  15.785 -0.7296 -0.6337 -0.2060
   29HTM   C14416526   9.245   3.986  15.834 -0.5548 -0.0327 -0.6601
   29HTM    S1516527   9.246   3.965  16.013  0.1888 -0.0232 -0.6589
   30TAL   C14516528   9.085   3.992  15.636 -0.0284  0.3415  0.3655
   30TAL   C14616529   8.988   3.886  15.577 -0.9202 -0.0777  0.5779
   30TAL   C14716530   8.944   3.931  15.435  0.3913 -0.1523  0.2079
   30TAL   C14816531   8.851   4.054  15.422 -0.6187  0.1153  0.0997
   30TAL   C14916532   8.767   4.051  15.294 -0.0274  0.1424  0.2951
   30TAL   C15016533   8.642   4.137  15.297  0.0622 -0.5025  0.0300
   31HTM   C15116534   9.374   4.008  15.776 -0.2731  0.6012  0.3820
   31HTM   C15216535   9.498   3.989  15.831 -0.3715  1.1196  0.8101
   31HTM   C15316536   9.606   4.025  15.743 -0.2159  0.8469  0.8874
   31HTM   C15416537   9.565   4.072  15.622  0.0012  0.1202  0.5186
   31HTM    S1616538   9.385   4.075  15.609  0.0261 -0.2786  0.0409
   32TAL   C15516539   9.750   4.016  15.793  0.3443 -0.5257 -0.1725
   32TAL   C15616540   9.818   3.884  15.780  0.6214  0.9188  0.6995
   32TAL   C15716541   9.961   3.903  15.728  0.3205  0.2401 -0.5831
   32TAL   C15816542  10.020   3.810  15.623  1.0812 -0.9572  0.4116
   32TAL   C15916543   9.965   3.851  15.489  0.0288 -0.5524  0.4131
   32TAL   C16016544  10.018   3.760  15.372  0.5760  0.5009  0.2598
   33HTM   C16116545   9.647   4.101  15.506  0.1741  0.2839  0.0821
   33HTM   C16216546   9.693   4.018  15.407  0.0765  0.4581 -0.1109
   33HTM   C16316547   9.762   4.087  15.301 -0.1962  0.6682 -0.1554
   33HTM   C16416548   9.769   4.222  15.319 -0.3067  0.6540  0.0037
   33HTM    S1716549   9.689   4.273  15.472 -0.0731  0.3722  0.2235
   34TAL   C16516550   9.803   4.004  15.176  0.6711  0.1560  0.4264
   34TAL   C16616551   9.695   3.970  15.079 -0.9531 -0.2461  0.9196
   34TAL   C16716552   9.616   4.082  15.015 -0.6928  0.6674  0.4844
   34TAL   C16816553   9.468   4.052  15.041  0.8144  0.4803 -1.1031
   34TAL   C16916554   9.367   4.140  14.985  0.2364 -0.2279  0.4205
   34TAL   C17016555   9.224   4.126  15.026 -0.9195  0.0533 -0.5394
   35HTM   C17116556   9.821   4.328  15.233  0.5771 -0.3563  0.1861
   35HTM   C17216557   9.849   4.330  15.099 -0.3222 -0.0687 -0.0088
   35HTM   C17316558   9.906   4.454  15.054 -1.0555  0.1979 -0.2298
   35HTM   C17416559   9.922   4.547  15.152 -0.7154  0.1135 -0.2036
   35HTM    S1816560   9.866   4.484  15.312  0.5674 -0.3125  0.1045
   36TAL   C17516561   9.947   4.472  14.911  0.3317 -0.7091  0.8213
   36TAL   C17616562   9.911   4.373  14.806 -0.2176  0.1408  0.2067
   36TAL   C17716563   9.996   4.244  14.801  0.5764  0.4659  0.5216
   36TAL   C17816564   9.920   4.137  14.719  0.7225 -0.5117 -0.9846
   36TAL   C17916565  10.002   4.035  14.642  1.2619 -1.0862  0.1475
   36TAL   C18016566   9.901   3.933  14.604  1.0382 -0.3543 -0.1016
   37HTM   C18116567   9.961   4.688  15.145 -0.5053 -0.1242  0.1919
   37HTM   C18216568   9.949   4.780  15.046 -0.4809 -0.2925  0.0305
   37HTM   C18316569  10.009   4.907  15.078 -0.1336 -0.3603 -0.3307
   37HTM   C18416570  10.066   4.912  15.201  0.1069 -0.2438 -0.4449
   37HTM    S1916571  10.049   4.754  15.287 -0.0883 -0.0379 -0.1025
   38TAL   C18516572   9.986   5.022  14.971  0.2873  0.1382 -0.9654
   38TAL   C18616573   9.862   5.116  15.004  0.1532  0.0592 -0.4005
   38TAL   C18716574   9.828   5.191  14.873 -0.2254 -1.0157 -0.1859
   38TAL   C18816575   9.936   5.283  14.808 -0.5565 -0.4021 -0.1529
   38TAL   C18916576   9.954   5.417  14.875  0.1238 -0.5775  0.3186
   38TAL   C19016577  10.096   5.454  14.913 -0.3276 -0.3053  0.3134
   39HTM   C19116578  10.134   5.012  15.277  0.3682 -0.0219 -0.5728
   39HTM   C19216579  10.180   5.011  15.406  0.6310 -0.5151 -0.6635
   39HTM   C19316580  10.264   5.123  15.438  0.7218 -0.6540 -0.4148
   39HTM   C19416581  10.283   5.209  15.335  0.5282 -0.2669 -0.1342
   39HTM    S2016582  10.195   5.155  15.187  0.2139  0.3077 -0.1629
   40TAL   C19516583  10.331   5.130  15.584  0.3980  0.2385  0.0138
   40TAL   C19616584  10.458   5.047  15.591  0.1802  0.8070  0.0443
   40TAL   C19716585  10.562   5.115  15.684 -0.1137  0.3703 -0.2109
   40TAL   C19816586  10.703   5.089  15.634  0.0943  0.9485 -0.5449
   40TAL   C19916587  10.789   5.145  15.750  0.1975 -0.4282 -0.1049
   40TAL   C20016588  10.794   5.099  15.889  0.0730 -0.3808  0.0876
   41HTM   C20116589  10.371   5.327  15.318  0.3497 -0.0104  0.0108
   41HTM   C20216590  10.377   5.413  15.212  0.2218  0.2224  0.1910
   41HTM   C20316591  10.490   5.502  15.216  0.1554  0.3008  0.3166
   41HTM   C20416592  10.570   5.485  15.325  0.2326  0.1278  0.2329
   41HTM    S2116593  10.508   5.353  15.432  0.3965 -0.1498 -0.0137
   42TAL   C20516594  10.521   5.590  15.096 -0.8210  0.1258  1.2817
   42TAL   C20616595  10.459   5.574  14.963  0.8210  0.2088  0.5541
   42TAL   C20716596  10.545   5.644  14.854  0.3545 -0.0519 -0.2681
   42TAL   C20816597  10.512   5.624  14.707 -0.3261  0.3471 -0.5095
   42TAL   C20916598  10.370   5.674  14.667 -0.4941  0.2060 -0.3692
   42TAL   C21016599  10.321   5.637  14.524 -0.2069 -0.3794 -0.3130
   43HTM   C21116600  10.693   5.558  15.362 -0.2836 -0.3667 -0.3286
   43HTM   C21216601  10.738   5.686  15.350 -0.3745 -0.3548 -0.5522
   43HTM   C21316602  10.874   5.705  15.394 -0.4623 -0.1378 -0.3669
   43HTM   C21416603  10.933   5.590  15.439 -0.4384  0.0159 -0.0024
   43HTM    S2216604  10.821   5.449  15.430 -0.3021 -0.1026  0.1364
   44TAL   C21516605  10.948   5.840  15.408  0.4508  0.2465  0.5386
   44TAL   C21616606  10.978   5.916  15.274  0.4939  0.2160 -1.0130
   44TAL   C21716607  11.073   5.873  15.166 -0.1352  0.4597 -0.0888
   44TAL   C21816608  11.046   5.738  15.088  0.1026 -0.0939  0.1829
   44TAL   C21916609  10.915   5.703  15.026  1.4610  0.8534  0.0408
   44TAL   C22016610  10.856   5.796  14.917 -0.4058 -0.8767 -0.0844
   45HTM   C22116611  11.064   5.559  15.494 -0.2009 -0.2364 -0.0807
   45HTM   C22216612  11.186   5.600  15.448 -0.4039 -0.0455 -0.4547
   45HTM   C22316613  11.297   5.533  15.510 -0.0969  0.3676 -0.5512
   45HTM   C22416614  11.260   5.441  15.603  0.3402  0.4918 -0.2506
   45HTM    S2316615  11.081   5.431  15.620  0.3985  0.0934  0.1810
   46TAL   C22516616  11.441   5.570  15.482 -0.6289  0.0423  0.1990
   46TAL   C22616617  11.476   5.569  15.336 -0.8677  0.7753 -0.9365
   46TAL   C22716618  11.620   5.600  15.333 -0.4786 -0.0802  0.6289
   46TAL   C22816619  11.673   5.626  15.192 -0.5761  0.4956 -0.4221
   46TAL   C22916620  11.811   5.694  15.179 -0.5074 -0.6361  0.5927
   46TAL   C23016621  11.860   5.822  15.255 -0.8088  0.6256 -0.1387
   47HTM   C23116622  11.329   5.342  15.684  0.2902  0.1491  0.1711
   47HTM   C23216623  11.273   5.260  15.778  0.1922  0.2762  0.2255
   47HTM   C23316624  11.362   5.156  15.823 -0.0627 -0.0441 -0.0033
   47HTM   C23416625  11.485   5.159  15.765 -0.1589 -0.4158 -0.2323
   47HTM    S2416626  11.499   5.294  15.647  0.0667 -0.3895 -0.1756
   48TAL   C23516627  11.322   5.043  15.913  0.8497  0.7540 -0.1538
   48TAL   C23616628  11.188   4.973  15.862 -0.6447 -0.7732 -0.8252
   48TAL   C23716629  11.145   4.848  15.924 -0.2613 -0.1920  0.2630
   48TAL   C23816630  11.003   4.796  15.889  0.5113  0.5930 -0.5078
   48TAL   C23916631  10.992   4.743  15.752  0.9845 -0.5194  0.7105
   48TAL   C24016632  10.894   4.632  15.731 -1.1619  0.1393  0.2647
    1HTM     C116633   0.442   0.154  26.520 -0.5930 -0.1523 -0.0911
    1HTM     C216634   0.315   0.201  26.510 -0.4886  0.0681 -0.4287
    1HTM     C316635   0.264   0.202  26.375 -0.0675  0.3349 -0.5889
    1HTM     C416636   0.353   0.156  26.282  0.1492  0.3180 -0.3746
    1HTM     S116637   0.509   0.108  26.359 -0.1642 -0.0390  0.0513
    2TAL     C516638   0.119   0.245  26.340 -0.3071 -0.6040  0.0299
    2TAL     C616639   0.058   0.345  26.434 -1.1931  0.4092 -0.1422
    2TAL     C716640  -0.068   0.422  26.408  0.9467  0.7549 -0.1888
    2TAL     C816641  -0.200   0.374  26.339 -0.9877  0.1268 -0.2233
    2TAL     C916642  -0.314   0.463  26.367  0.1269 -0.2948 -0.5873
    2TAL    C1016643  -0.362   0.493  26.509  0.4641  0.7918 -0.7701
    3HTM    C1116644   0.345   0.140  26.140 -0.0964 -0.1276  0.0351
    3HTM    C1216645   0.446   0.161  26.051  0.0387 -0.6219  0.0691
    3HTM    C1316646   0.406   0.145  25.913  0.1122 -0.8380  0.0710
    3HTM    C1416647   0.275   0.113  25.897  0.0331 -0.5084  0.0391
    3HTM     S216648   0.190   0.099  26.056 -0.1417  0.1052  0.0037
    4TAL    C1516649   0.498   0.159  25.792 -0.4509 -0.7345 -0.3312
    4TAL    C1616650   0.619   0.062  25.806  0.1215 -0.1477  0.1193
    4TAL    C1716651   0.591  -0.086  25.818 -0.1102  0.2953  0.7283
    4TAL    C1816652   0.720  -0.163  25.813 -0.0733  0.6755 -0.1284
    4TAL    C1916653   0.722  -0.302  25.885  1.3159 -0.8653  0.7144
    4TAL    C2016654   0.637  -0.422  25.816  0.2918 -0.2439  0.3769
    5HTM    C2116655   0.200   0.072  25.774 -0.1210 -0.1019  0.3910
    5HTM    C2216656   0.122  -0.038  25.755 -0.2175 -0.0187  0.2975
    5HTM    C2316657   0.062  -0.045  25.625 -0.0781  0.0534  0.2294
    5HTM    C2416658   0.094   0.060  25.544  0.1247  0.0253  0.2702
    5HTM     S316659   0.203   0.177  25.627  0.1556 -0.0954  0.3999
    6TAL    C2516660  -0.017  -0.167  25.577 -0.1570 -0.2876  0.6119
    6TAL    C2616661   0.075  -0.279  25.533 -0.0386  0.3642  0.0925
    6TAL    C2716662   0.001  -0.397  25.464  0.1114  0.0029  0.3218
    6TAL    C2816663   0.084  -0.479  25.366  0.6879  0.0270 -0.6586
    6TAL    C2916664   0.020  -0.584  25.274  0.0014 -0.6096 -0.1043
    6TAL    C3016665   0.112  -0.635  25.163  0.3789 -0.3165 -0.2691
    7HTM    C3116666   0.056   0.088  25.411 -0.1192  0.7281  0.2799
    7HTM    C3216667   0.133   0.150  25.318 -0.0995  0.2289 -0.0424
    7HTM    C3316668   0.064   0.179  25.195 -0.1378 -0.2238 -0.1326
    7HTM    C3416669  -0.066   0.140  25.195 -0.1867 -0.0697  0.1218
    7HTM     S416670  -0.112   0.061  25.351 -0.1882  0.6647  0.4973
    8TAL    C3516671   0.128   0.261  25.083 -0.7510  0.9706  0.4215
    8TAL    C3616672   0.276   0.296  25.107 -1.2786 -0.1548  1.7171
    8TAL    C3716673   0.403   0.208  25.105  0.2837  0.2459  0.3982
    8TAL    C3816674   0.416   0.068  25.039 -1.1291 -0.6981 -0.1037
    8TAL    C3916675   0.396  -0.056  25.129  0.1849 -0.7372 -0.0016
    8TAL    C4016676   0.520  -0.117  25.191 -0.2182  0.2898  0.8372
    9HTM    C4116677  -0.178   0.151  25.105  0.3631  0.5066 -0.2066
    9HTM    C4216678  -0.298   0.191  25.156  0.2466 -0.0297 -0.0434
    9HTM    C4316679  -0.383   0.255  25.059 -0.2251 -0.5175  0.0443
    9HTM    C4416680  -0.328   0.263  24.934 -0.4681 -0.3532 -0.0532
    9HTM     S516681  -0.163   0.190  24.929 -0.1177  0.4366 -0.2643
   10TAL    C4516682  -0.519   0.314  25.105  0.1573  0.4069  0.1333
   10TAL    C4616683  -0.569   0.321  25.242  1.0531 -0.3635  0.0224
   10TAL    C4716684  -0.625   0.193  25.282 -0.3043  0.5216 -1.0202
   10TAL    C4816685  -0.661   0.182  25.432  0.1315  0.0217  0.1362
   10TAL    C4916686  -0.754   0.303  25.475 -0.2233  0.0527  0.0364
   10TAL    C5016687  -0.894   0.237  25.509 -0.2706 -0.4587  0.1248
   11HTM    C5116688  -0.360   0.344  24.818  0.3368  0.0339 -0.2517
   11HTM    C5216689  -0.444   0.325  24.713  0.2069 -0.0576 -0.1311
   11HTM    C5316690  -0.491   0.447  24.654  0.0614 -0.1087 -0.1216
   11HTM    C5416691  -0.442   0.559  24.713  0.0804 -0.0562 -0.2354
   11HTM     S616692  -0.332   0.519  24.850  0.2850  0.0629 -0.3651
   12TAL    C5516693  -0.567   0.432  24.520  0.1932  0.5265 -0.1487
   12TAL    C5616694  -0.520   0.328  24.408  0.1803 -0.1247 -0.3949
   12TAL    C5716695  -0.612   0.221  24.354 -0.5782  0.1302  0.9844
   12TAL    C5816696  -0.630   0.106  24.448 -0.1666  0.2782 -0.0269
   12TAL    C5916697  -0.709  -0.006  24.402 -0.3149  1.0232 -0.1577
   12TAL    C6016698  -0.698  -0.146  24.488 -0.2221  0.0472  0.1615
   13HTM    C6116699  -0.463   0.691  24.669  0.1471 -0.0327 -0.0229
   13HTM    C6216700  -0.369   0.790  24.654  0.1404  0.0172  0.2460
   13HTM    C6316701  -0.425   0.916  24.614  0.1463  0.0901  0.4659
   13HTM    C6416702  -0.560   0.915  24.599  0.1575  0.0958  0.3653
   13HTM     S716703  -0.629   0.752  24.634  0.1616  0.0089 -0.0184
   14TAL    C6516704  -0.336   1.030  24.546  0.0611  0.2349 -0.7908
   14TAL    C6616705  -0.229   1.095  24.643  0.1065  0.4822 -0.7581
   14TAL    C6716706  -0.275   1.161  24.776  0.8903  0.8087  0.6799
   14TAL    C6816707  -0.163   1.220  24.859 -0.2730  0.9887 -0.1282
   14TAL    C6916708  -0.058   1.311  24.795  0.2216 -0.0800 -1.3043
   14TAL    C7016709   0.062   1.359  24.896 -0.1589 -1.5284 -0.2744
   15HTM    C7116710  -0.657   1.015  24.556 -0.4036 -0.2229  0.0070
   15HTM    C7216711  -0.747   1.003  24.454 -0.1782 -0.2098 -0.1950
   15HTM    C7316712  -0.815   1.126  24.422  0.0460 -0.1569 -0.4740
   15HTM    C7416713  -0.777   1.231  24.500 -0.0084 -0.1296 -0.4851
   15HTM     S816714  -0.651   1.183  24.620 -0.3498 -0.1689 -0.1404
   16TAL    C7516715  -0.907   1.117  24.302  1.0674  0.0220 -0.2298
   16TAL    C7616716  -1.042   1.039  24.315 -0.0964  0.0969 -0.0489
   16TAL    C7716717  -1.075   1.000  24.171  0.4929 -0.0323  0.2233
   16TAL    C7816718  -1.200   0.923  24.144  0.1907  0.6338 -0.0632
   16TAL    C7916719  -1.186   0.837  24.017 -0.1059 -0.3752 -0.0143
   16TAL    C8016720  -1.090   0.730  24.003  0.1869 -0.3812 -0.0353
   17HTM    C8116721  -0.830   1.369  24.507  0.1734 -0.0610 -0.0964
   17HTM    C8216722  -0.838   1.436  24.626  0.3170 -0.1629 -0.0281
   17HTM    C8316723  -0.918   1.555  24.620  0.1658 -0.2501  0.2146
   17HTM    C8416724  -0.971   1.579  24.497 -0.0929 -0.2148  0.3313
   17HTM     S916725  -0.924   1.452  24.378 -0.1663 -0.0674  0.1426
   18TAL    C8516726  -0.923   1.640  24.746 -0.7400 -0.4907 -0.0907
   18TAL    C8616727  -0.785   1.671  24.814  0.0237 -0.2521  0.2351
   18TAL    C8716728  -0.683   1.751  24.725  0.8885  0.4096 -0.0468
   18TAL    C8816729  -0.548   1.739  24.779 -0.6445 -0.0393 -0.5896
   18TAL    C8916730  -0.496   1.744  24.928 -0.7234  0.2183  0.4110
   18TAL    C9016731  -0.345   1.699  24.962  0.2260 -0.6500  0.6825
   19HTM    C9116732  -1.073   1.670  24.438 -0.2862  0.2998  0.5165
   19HTM    C9216733  -1.068   1.738  24.321 -0.2402  0.2652  0.4978
   19HTM    C9316734  -1.175   1.833  24.304 -0.3211  0.1505  0.3610
   19HTM    C9416735  -1.262   1.837  24.409 -0.4287  0.0976  0.2750
   19HTM    S1016736  -1.214   1.721  24.538 -0.4365  0.1893  0.3610
   20TAL    C9516737  -1.177   1.905  24.176 -0.5270  0.9994 -0.3108
   20TAL    C9616738  -1.160   1.811  24.059 -0.0878 -0.4500  1.0702
   20TAL    C9716739  -1.159   1.898  23.925  0.0701 -0.5161  0.2221
   20TAL    C9816740  -1.272   1.877  23.818 -0.1454  0.9936 -0.6274
   20TAL    C9916741  -1.413   1.929  23.860  0.8001  0.4148  0.0602
   20TAL   C10016742  -1.427   2.080  23.831 -0.6771  0.3586 -0.1482
   21HTM   C10116743  -1.377   1.935  24.439 -0.5211  0.1026  0.0020
   21HTM   C10216744  -1.414   1.988  24.559 -0.7137 -0.1186  0.0424
   21HTM   C10316745  -1.526   2.079  24.550 -0.6137  0.0024  0.0081
   21HTM   C10416746  -1.574   2.094  24.424 -0.3446  0.3159 -0.0591
   21HTM    S1116747  -1.481   1.995  24.304 -0.1957  0.4839 -0.0837
   22TAL   C10516748  -1.568   2.158  24.673  0.8894 -0.4481 -0.0786
   22TAL   C10616749  -1.490   2.109  24.799  0.8209 -0.1373  0.0531
   22TAL   C10716750  -1.558   2.171  24.921  0.6867  0.9819  0.6890
   22TAL   C10816751  -1.548   2.109  25.052  0.5341  0.5082 -0.5490
   22TAL   C10916752  -1.626   2.170  25.172 -0.3035 -0.6883 -0.3480
   22TAL   C11016753  -1.630   2.060  25.284 -0.3926 -0.4021  0.0567
   23HTM   C11116754  -1.674   2.179  24.358 -0.3578 -0.0313 -0.0060
   23HTM   C11216755  -1.660   2.242  24.238 -0.3852 -0.0259 -0.0062
   23HTM   C11316756  -1.769   2.329  24.204 -0.2040  0.2841  0.2050
   23HTM   C11416757  -1.867   2.334  24.299 -0.0384  0.5151  0.3662
   23HTM    S1216758  -1.828   2.227  24.439 -0.0988  0.3577  0.2631
   24TAL   C11516759  -1.775   2.409  24.075  0.5158 -0.7138 -0.2143
   24TAL   C11616760  -1.708   2.374  23.936  0.7070  0.4497 -0.8212
   24TAL   C11716761  -1.788   2.285  23.834  0.5458 -0.6432  0.2900
   24TAL   C11816762  -1.718   2.250  23.709 -0.6297  0.7173 -0.1269
   24TAL   C11916763  -1.665   2.371  23.623 -0.3508 -0.1407 -0.6869
   24TAL   C12016764  -1.758   2.461  23.558  0.5046 -0.0806  0.8197
   25HTM   C12116765  -1.992   2.406  24.313  0.0781 -0.1415 -0.4613
   25HTM   C12216766  -2.108   2.395  24.242 -0.3666 -0.7794  0.3309
   25HTM   C12316767  -2.212   2.484  24.287 -0.4643 -1.1560  0.8674
   25HTM   C12416768  -2.176   2.562  24.392 -0.0942 -0.8053  0.4839
   25HTM    S1316769  -2.006   2.530  24.443  0.4105  0.0343 -0.5929
   26TAL   C12516770  -2.347   2.473  24.218 -1.2169  0.2089  0.4349
   26TAL   C12616771  -2.347   2.522  24.079  0.6406 -0.2325  0.8633
   26TAL   C12716772  -2.445   2.434  24.007 -0.8054 -0.6197 -0.2336
   26TAL   C12816773  -2.478   2.463  23.860  0.3891 -0.0390 -0.1867
   26TAL   C12916774  -2.386   2.394  23.753  0.8779  0.5914 -1.4410
   26TAL   C13016775  -2.414   2.418  23.603 -0.5518 -0.7334  0.4269
   27HTM   C13116776  -2.242   2.662  24.474  0.4673  0.3575  0.0691
   27HTM   C13216777  -2.231   2.675  24.609  0.5133  0.5950  0.0429
   27HTM   C13316778  -2.336   2.754  24.669  0.1478  0.1280  0.0257
   27HTM   C13416779  -2.427   2.800  24.580 -0.1766 -0.4653  0.0399
   27HTM    S1416780  -2.388   2.748  24.412 -0.0451 -0.4806  0.0748
   28TAL   C13516781  -2.324   2.779  24.813  0.2403  0.1025  0.2802
   28TAL   C13616782  -2.260   2.915  24.838  0.3733  0.4926  0.5758
   28TAL   C13716783  -2.257   2.927  24.991  0.6511  0.3957 -0.5207
   28TAL   C13816784  -2.195   3.051  25.042  0.4871  0.4035 -0.2246
   28TAL   C13916785  -2.233   3.070  25.190  0.4317  0.2324 -0.5718
   28TAL   C14016786  -2.167   3.188  25.266  2.0685 -0.2102 -1.0837
   29HTM   C14116787  -2.561   2.854  24.609  0.3191 -0.3002  0.1397
   29HTM   C14216788  -2.637   2.904  24.507  0.8222  0.0424 -0.0725
   29HTM   C14316789  -2.744   2.989  24.552  0.9272  0.3287 -0.3557
   29HTM   C14416790  -2.751   3.003  24.687  0.5043  0.2042 -0.3597
   29HTM    S1516791  -2.620   2.909  24.770 -0.0639 -0.2878 -0.0033
   30TAL   C14516792  -2.838   3.052  24.452  0.9437  0.1420  0.0668
   30TAL   C14616793  -2.769   3.115  24.326  0.3280  1.0710  0.0719
   30TAL   C14716794  -2.845   3.214  24.237  0.3905  1.0474 -0.8455
   30TAL   C14816795  -2.778   3.296  24.132  0.6348  1.1823 -0.1038
   30TAL   C14916796  -2.868   3.419  24.107 -0.2053 -0.8968  0.6217
   30TAL   C15016797  -2.800   3.519  24.012 -0.4845 -0.0766  0.7931
   31HTM   C15116798  -2.825   3.107  24.757  0.3439 -0.0616  0.5513
   31HTM   C15216799  -2.769   3.161  24.869 -0.2313 -0.0685  0.8516
   31HTM   C15316800  -2.844   3.272  24.922 -0.5993 -0.1761  0.5741
   31HTM   C15416801  -2.956   3.303  24.852 -0.3046 -0.2511  0.0627
   31HTM    S1616802  -2.977   3.192  24.710  0.4665 -0.1911 -0.1082
   32TAL   C15516803  -2.808   3.347  25.053  0.4379 -0.0896  0.3455
   32TAL   C15616804  -2.657   3.326  25.088 -0.2266  0.5789  0.3437
   32TAL   C15716805  -2.592   3.359  25.219 -0.0929 -0.0495 -0.1189
   32TAL   C15816806  -2.613   3.509  25.261 -0.7544  0.7865  0.3758
   32TAL   C15916807  -2.600   3.510  25.411 -0.1406  0.5110 -0.3259
   32TAL   C16016808  -2.692   3.594  25.491 -0.2830 -1.1988  0.1234
   33HTM   C16116809  -3.038   3.415  24.861  0.3421 -0.3683  0.3514
   33HTM   C16216810  -3.174   3.416  24.864  0.3448 -0.6341  0.6318
   33HTM   C16316811  -3.231   3.541  24.907  0.1844 -0.6640  0.5074
   33HTM   C16416812  -3.138   3.636  24.936  0.0594 -0.4209  0.1322
   33HTM    S1716813  -2.970   3.575  24.912  0.1350 -0.1332 -0.0952
   34TAL   C16516814  -3.379   3.564  24.894  0.7982 -0.1052  0.5101
   34TAL   C16616815  -3.471   3.463  24.830  0.0233 -0.5809 -0.7894
   34TAL   C16716816  -3.468   3.453  24.681  0.7147 -0.3138  0.7319
   34TAL   C16816817  -3.523   3.329  24.603  0.8875  0.5060 -0.5755
   34TAL   C16916818  -3.429   3.213  24.625  0.9440  0.4985  0.2245
   34TAL   C17016819  -3.437   3.100  24.521  0.0013  0.2722  0.6458
   35HTM   C17116820  -3.168   3.777  24.971  0.7598 -0.2400  0.2064
   35HTM   C17216821  -3.252   3.818  25.070  1.0411 -0.3701  0.5031
   35HTM   C17316822  -3.297   3.955  25.055  0.5449 -0.5293  0.4930
   35HTM   C17416823  -3.247   4.017  24.945 -0.1146 -0.5208  0.1887
   35HTM    S1816824  -3.138   3.908  24.851 -0.1606 -0.3092 -0.1119
   36TAL   C17516825  -3.409   4.004  25.154 -0.3822 -0.4214  0.4045
   36TAL   C17616826  -3.354   4.059  25.288 -0.4315 -0.0135 -0.8920
   36TAL   C17716827  -3.452   4.101  25.397  0.3190  1.2277  0.7001
   36TAL   C17816828  -3.511   3.982  25.462  0.0229 -0.5716 -0.1821
   36TAL   C17916829  -3.631   4.009  25.559 -0.3597  0.4273  0.6466
   36TAL   C18016830  -3.665   3.900  25.647  0.2502  1.2849 -0.2265
   37HTM   C18116831  -3.288   4.144  24.890 -0.1315 -0.2664  0.4114
   37HTM   C18216832  -3.330   4.172  24.764 -0.7341 -0.6313  0.5226
   37HTM   C18316833  -3.352   4.313  24.739 -0.9001 -0.7050  0.2384
   37HTM   C18416834  -3.327   4.392  24.847 -0.4242 -0.3963 -0.0897
   37HTM    S1916835  -3.273   4.294  24.989  0.2762  0.0147 -0.0652
   38TAL   C18516836  -3.404   4.355  24.606  0.4870 -0.5454  0.1976
   38TAL   C18616837  -3.472   4.255  24.513 -0.0711 -0.6083  0.0255
   38TAL   C18716838  -3.606   4.199  24.579  0.4725 -0.2033 -0.1339
   38TAL   C18816839  -3.731   4.281  24.544  0.1020  0.2285 -0.4962
   38TAL   C18916840  -3.841   4.274  24.655 -0.2846 -0.2948  0.1164
   38TAL   C19016841  -3.841   4.376  24.767 -0.4632  0.1530 -0.4696
   39HTM   C19116842  -3.293   4.528  24.865 -0.7546  0.5253  0.1025
   39HTM   C19216843  -3.315   4.634  24.782 -0.7969  0.5113  0.0963
   39HTM   C19316844  -3.259   4.758  24.829 -0.4075  0.4348 -0.1574
   39HTM   C19416845  -3.194   4.747  24.948 -0.0679  0.3901 -0.3449
   39HTM    S2016846  -3.198   4.578  25.010 -0.2151  0.4420 -0.2147
   40TAL   C19516847  -3.276   4.889  24.765  1.3271  0.4843 -0.8185
   40TAL   C19616848  -3.394   4.916  24.669 -1.0249  0.2083 -0.4272
   40TAL   C19716849  -3.378   5.055  24.607  0.3313  0.7362 -0.3138
   40TAL   C19816850  -3.478   5.104  24.499  0.0952 -0.6727  0.1100
   40TAL   C19916851  -3.620   5.113  24.538  0.6227 -0.4684 -0.8394
   40TAL   C20016852  -3.713   5.159  24.429  0.3364  0.0978  0.5430
   41HTM   C20116853  -3.120   4.850  25.021 -0.3146  0.2187 -0.0523
   41HTM   C20216854  -2.987   4.881  25.018 -0.2810  0.0799  0.0119
   41HTM   C20316855  -2.954   5.001  25.091 -0.1702 -0.0292  0.1445
   41HTM   C20416856  -3.062   5.062  25.148 -0.1193  0.0266  0.1803
   41HTM    S2116857  -3.214   4.972  25.115 -0.2083  0.2228  0.0495
   42TAL   C20516858  -2.811   5.044  25.083  0.1452  0.4569 -0.0153
   42TAL   C20616859  -2.708   4.988  25.184  0.5437  0.8783 -0.1603
   42TAL   C20716860  -2.693   4.835  25.162 -0.2762 -0.1492 -0.8234
   42TAL   C20816861  -2.584   4.773  25.258  0.7189  0.3555  0.0206
   42TAL   C20916862  -2.638   4.639  25.328 -0.1421 -0.1696  0.1037
   42TAL   C21016863  -2.622   4.522  25.231 -0.2838  0.3226 -0.0426
   43HTM   C21116864  -3.066   5.170  25.244  0.2504 -0.3554  0.3772
   43HTM   C21216865  -3.119   5.294  25.225  0.1431 -0.4861 -0.2055
   43HTM   C21316866  -3.119   5.377  25.343 -0.0986  0.0049 -0.5393
   43HTM   C21416867  -3.066   5.315  25.453 -0.1757  0.5099 -0.2110
   43HTM    S2216868  -3.012   5.147  25.415  0.0529  0.4037  0.5503
   44TAL   C21516869  -3.165   5.514  25.333 -0.0510  0.0890 -0.3120
   44TAL   C21616870  -3.197   5.583  25.203 -0.5078 -0.1863 -0.3187
   44TAL   C21716871  -3.084   5.588  25.097 -0.2774 -0.3622  0.5035
   44TAL   C21816872  -3.113   5.688  24.996  0.2581 -0.4122  0.2505
   44TAL   C21916873  -3.030   5.694  24.867 -0.0384  0.1147 -0.0822
   44TAL   C22016874  -3.069   5.806  24.766  0.2701  0.7922  0.1565
   45HTM   C22116875  -3.059   5.349  25.595 -0.3378 -0.0548  0.0581
   45HTM   C22216876  -3.017   5.461  25.660 -0.2997 -0.0274 -0.0138
   45HTM   C22316877  -3.040   5.458  25.802 -0.0734 -0.0354  0.0248
   45HTM   C22416878  -3.101   5.344  25.845  0.0607 -0.0690  0.1260
   45HTM    S2316879  -3.133   5.230  25.708 -0.0892 -0.0932  0.1806
   46TAL   C22516880  -2.998   5.582  25.886 -1.2537  0.5381  0.5109
   46TAL   C22616881  -2.931   5.562  26.026 -0.2899 -0.4869  1.3803
   46TAL   C22716882  -2.886   5.698  26.079 -0.6490 -0.0353  0.3351
   46TAL   C22816883  -2.807   5.689  26.207 -0.4023  0.9629 -0.5075
   46TAL   C22916884  -2.876   5.625  26.335 -0.9187 -0.8102 -0.3352
   46TAL   C23016885  -3.017   5.656  26.372 -0.1024  0.7934 -0.5180
   47HTM   C23116886  -3.134   5.295  25.978 -0.4832 -0.1073  0.0738
   47HTM   C23216887  -3.081   5.189  26.045 -0.2027  0.1203  0.2189
   47HTM   C23316888  -3.117   5.185  26.185  0.3796  0.5928  0.3910
   47HTM   C23416889  -3.197   5.288  26.223  0.5430  0.7252  0.3768
   47HTM    S2416890  -3.233   5.399  26.086 -0.0301  0.2601  0.1438
   48TAL   C23516891  -3.068   5.065  26.273 -0.1233  0.0381 -0.1265
   48TAL   C23616892  -3.088   5.095  26.421  0.0847 -0.0792 -0.8197
   48TAL   C23716893  -3.004   5.001  26.513 -0.3270 -1.2385 -0.0847
   48TAL   C23816894  -2.996   4.856  26.490 -0.0760  0.4181  0.2526
   48TAL   C23916895  -2.919   4.772  26.592  0.3000 -0.5393  0.1486
   48TAL   C24016896  -2.945   4.622  26.573  1.1128  0.3180 -0.0713
    1HTM     C116897   1.879   4.041   1.857 -0.1048 -0.0164 -0.2477
    1HTM     C216898   1.862   4.144   1.769  0.1342  0.0567 -0.2095
    1HTM     C316899   1.866   4.274   1.832  0.2598  0.0178 -0.1349
    1HTM     C416900   1.886   4.270   1.966  0.1165 -0.0852 -0.1163
    1HTM     S116901   1.902   4.100   2.026 -0.1906 -0.1412 -0.1921
    2TAL     C516902   1.844   4.411   1.754  0.6135 -0.3860 -0.1320
    2TAL     C616903   1.819   4.420   1.604 -0.6092 -0.0207  0.0105
    2TAL     C716904   1.827   4.568   1.567  0.2650  0.7695 -1.4503
    2TAL     C816905   1.798   4.577   1.414  0.4830 -0.1207 -0.2675
    2TAL     C916906   1.801   4.707   1.336 -0.0634 -0.1610 -0.0836
    2TAL    C1016907   1.926   4.787   1.325 -0.5371  0.5052 -0.1052
    3HTM    C1116908   1.920   4.383   2.058  0.5160 -0.1165 -0.0170
    3HTM    C1216909   2.042   4.423   2.105  0.4218 -0.5352  0.6126
    3HTM    C1316910   2.037   4.543   2.184  0.4322 -0.4954  0.5526
    3HTM    C1416911   1.912   4.595   2.197  0.5343 -0.0463 -0.1227
    3HTM     S216912   1.789   4.495   2.111  0.6261  0.3642 -0.7400
    4TAL    C1516913   2.165   4.601   2.254  0.1930 -0.3660 -0.3397
    4TAL    C1616914   2.279   4.507   2.287  0.7555  0.2751 -0.4418
    4TAL    C1716915   2.253   4.414   2.409 -0.8609  0.3375  0.2636
    4TAL    C1816916   2.372   4.325   2.447 -0.7302 -0.3401 -0.5387
    4TAL    C1916917   2.318   4.193   2.441 -0.6259  0.6823 -0.3246
    4TAL    C2016918   2.383   4.081   2.513 -0.1851  0.5335  0.1302
    5HTM    C2116919   1.864   4.707   2.278 -0.4211  0.0051 -0.3039
    5HTM    C2216920   1.926   4.828   2.297 -0.4052  0.0339 -0.5249
    5HTM    C2316921   1.864   4.908   2.400 -0.2045  0.0967 -0.4532
    5HTM    C2416922   1.756   4.849   2.458 -0.0674  0.1156 -0.1775
    5HTM     S316923   1.723   4.686   2.388 -0.1821  0.0553  0.0143
    6TAL    C2516924   1.919   5.045   2.453  0.3330 -0.4662 -0.1656
    6TAL    C2616925   2.064   5.089   2.413  0.9147 -0.2392 -0.9510
    6TAL    C2716926   2.123   5.213   2.478  0.2785 -0.3061  0.4619
    6TAL    C2816927   2.268   5.229   2.430  0.9662 -0.3954  0.2510
    6TAL    C2916928   2.346   5.333   2.506 -0.5198 -0.7910 -0.8969
    6TAL    C3016929   2.487   5.378   2.468  0.1108  0.0324 -0.1508
    7HTM    C3116930   1.653   4.889   2.549 -0.4119 -0.8340  0.1626
    7HTM    C3216931   1.612   4.824   2.661 -1.0724 -0.9205 -0.1208
    7HTM    C3316932   1.490   4.876   2.717 -1.1247 -0.6274 -0.4953
    7HTM    C3416933   1.439   4.982   2.649 -0.5041 -0.3173 -0.4975
    7HTM     S416934   1.540   5.024   2.506  0.2000 -0.3718 -0.0230
    8TAL    C3516935   1.420   4.830   2.851  0.6379 -0.3845  0.5619
    8TAL    C3616936   1.446   4.686   2.896 -0.4787 -0.3110 -0.8388
    8TAL    C3716937   1.390   4.657   3.035  0.3989 -0.2120  0.1144
    8TAL    C3816938   1.391   4.754   3.164 -0.2431  0.1623  0.5444
    8TAL    C3916939   1.329   4.698   3.294 -0.6601 -0.3463  0.2859
    8TAL    C4016940   1.355   4.816   3.385  0.8758  0.1380 -0.0161
    9HTM    C4116941   1.317   5.068   2.690 -0.0502 -0.2312  0.2903
    9HTM    C4216942   1.222   5.107   2.601  0.2575  0.0238  0.0683
    9HTM    C4316943   1.154   5.229   2.638  0.4517  0.1696 -0.0558
    9HTM    C4416944   1.199   5.282   2.755  0.2922  0.0257  0.0716
    9HTM     S516945   1.330   5.183   2.828 -0.1188 -0.3077  0.3604
   10TAL    C4516946   1.034   5.270   2.551 -0.0172 -0.6805  0.4586
   10TAL    C4616947   0.922   5.165   2.521  0.2039 -0.1388 -0.3660
   10TAL    C4716948   0.799   5.218   2.443  0.0901 -0.0917 -0.1904
   10TAL    C4816949   0.664   5.235   2.500  0.2394  0.2081  0.4687
   10TAL    C4916950   0.669   5.326   2.625 -0.1916 -0.0336  0.3459
   10TAL    C5016951   0.531   5.355   2.662  1.1317 -0.2466  0.2493
   11HTM    C5116952   1.170   5.406   2.831  0.1336  0.2846  0.2953
   11HTM    C5216953   1.261   5.489   2.888  0.1804  0.3771  0.0880
   11HTM    C5316954   1.206   5.614   2.933  0.2362  0.4907 -0.1552
   11HTM    C5416955   1.072   5.626   2.910  0.2319  0.4848 -0.1333
   11HTM     S616956   1.005   5.479   2.829  0.1565  0.3341  0.1987
   12TAL    C5516957   1.290   5.706   3.005 -0.0516 -0.1696  0.3543
   12TAL    C5616958   1.323   5.850   2.951  0.4368 -0.6047 -0.1398
   12TAL    C5716959   1.371   5.920   3.079 -0.3431  0.4693  0.1120
   12TAL    C5816960   1.371   6.071   3.058 -0.2092 -0.3084  1.1330
   12TAL    C5916961   1.445   6.154   3.157  0.2079 -0.2699  0.0421
   12TAL    C6016962   1.377   6.175   3.286  0.3194 -0.0943 -0.5087
   13HTM    C6116963   0.977   5.735   2.921  0.3432  0.4366 -0.4427
   13HTM    C6216964   0.971   5.813   3.033  0.3477  0.5287 -0.5064
   13HTM    C6316965   0.855   5.899   3.038 -0.0462 -0.0063 -0.2188
   13HTM    C6416966   0.773   5.886   2.930 -0.3511 -0.5064  0.0641
   13HTM     S716967   0.835   5.764   2.813 -0.1628 -0.3391 -0.0111
   14TAL    C6516968   0.829   5.987   3.158 -0.4455  0.0823  0.0738
   14TAL    C6616969   0.929   6.108   3.174  0.8465 -0.0577  0.7756
   14TAL    C6716970   0.863   6.223   3.260  0.0510 -0.4424  0.5859
   14TAL    C6816971   0.949   6.356   3.268 -0.2403  0.5618  0.6543
   14TAL    C6916972   0.876   6.447   3.361  0.2409  0.1594 -0.5642
   14TAL    C7016973   0.873   6.412   3.516  0.0574  0.1023  0.0374
   15HTM    C7116974   0.663   5.968   2.896 -0.3140 -0.3141 -0.2011
   15HTM    C7216975   0.635   6.007   2.769 -0.8104 -0.9820 -0.3026
   15HTM    C7316976   0.530   6.105   2.759 -0.6871 -0.8574 -0.3853
   15HTM    C7416977   0.478   6.141   2.879 -0.0967 -0.0944 -0.3468
   15HTM     S816978   0.558   6.054   3.016  0.3529  0.5308 -0.2021
   16TAL    C7516979   0.486   6.162   2.626  0.6901 -0.5144 -0.5065
   16TAL    C7616980   0.593   6.200   2.537 -0.0328 -0.7648 -0.4407
   16TAL    C7716981   0.556   6.294   2.418 -0.1301 -0.2267 -2.0703
   16TAL    C7816982   0.679   6.364   2.368 -0.2651  0.7043 -0.1653
   16TAL    C7916983   0.666   6.488   2.284 -0.7651  1.0797  0.2691
   16TAL    C8016984   0.796   6.563   2.275  0.4709  0.4884  0.6273
   17HTM    C8116985   0.372   6.230   2.923  0.1949 -0.4871 -0.8483
   17HTM    C8216986   0.369   6.304   3.038  0.9292 -1.1230 -0.3990
   17HTM    C8316987   0.239   6.357   3.069  1.1441 -1.1915  0.6794
   17HTM    C8416988   0.142   6.324   2.979  0.5738 -0.6081  1.0524
   17HTM     S916989   0.209   6.222   2.846 -0.2857  0.0788  0.0629
   18TAL    C8516990   0.214   6.462   3.185 -0.4989 -0.1086 -0.8784
   18TAL    C8616991   0.297   6.444   3.309  0.3462 -0.7407 -0.6648
   18TAL    C8716992   0.395   6.560   3.327  0.1965  0.0840  0.5296
   18TAL    C8816993   0.442   6.540   3.467 -0.2198  0.4680 -0.0781
   18TAL    C8916994   0.546   6.648   3.490  0.4388 -0.4089  0.6817
   18TAL    C9016995   0.588   6.666   3.635  0.3544 -0.0637 -0.4469
   19HTM    C9116996  -0.000   6.364   2.968 -0.7423 -0.1824  1.0670
   19HTM    C9216997  -0.088   6.399   3.066 -1.2933 -0.5288  0.7149
   19HTM    C9316998  -0.224   6.412   3.021 -1.0597 -0.4231  0.0106
   19HTM    C9416999  -0.241   6.386   2.888 -0.3305  0.0038 -0.1742
   19HTM    S1017000  -0.084   6.344   2.809  0.1211  0.3081  0.5324
   20TAL    C9517001  -0.311   6.478   3.115  0.0847  0.4549 -0.3161
   20TAL    C9617002  -0.278   6.635   3.137  0.4170  0.0522 -0.6587
   20TAL    C9717003  -0.381   6.722   3.210 -0.2638  0.4243 -0.2748
   20TAL    C9817004  -0.436   6.694   3.353  0.3941  0.2550 -0.0622
   20TAL    C9917005  -0.574   6.747   3.385  0.2279 -0.0632  0.6429
   20TAL   C10017006  -0.620   6.709   3.524 -0.6116 -0.3508 -0.6634
   21HTM   C10117007  -0.360   6.371   2.814 -0.0943 -0.7090  0.4307
   21HTM   C10217008  -0.362   6.279   2.714 -0.2854 -1.0710  0.7605
   21HTM   C10317009  -0.490   6.268   2.649 -0.2084 -0.7493  0.5455
   21HTM   C10417010  -0.586   6.351   2.700  0.0415 -0.1421  0.0517
   21HTM    S1117011  -0.520   6.451   2.835  0.2001  0.0722 -0.1817
   22TAL   C10517012  -0.516   6.186   2.525 -0.9740 -0.3460  0.1155
   22TAL   C10617013  -0.415   6.210   2.409 -0.1261  0.9065  1.1400
   22TAL   C10717014  -0.464   6.162   2.266 -0.7590  0.3121  0.6740
   22TAL   C10817015  -0.556   6.265   2.194  0.5693  0.2826 -0.1560
   22TAL   C10917016  -0.516   6.407   2.193 -0.2471 -0.0934  1.0787
   22TAL   C11017017  -0.614   6.516   2.170  0.2135 -0.1509 -0.5863
   23HTM   C11117018  -0.723   6.371   2.652  0.8653 -0.3611 -0.4149
   23HTM   C11217019  -0.833   6.379   2.734  1.0266 -0.7064 -0.1599
   23HTM   C11317020  -0.957   6.393   2.662  0.8932 -0.2952  0.1462
   23HTM   C11417021  -0.943   6.396   2.527  0.6304  0.3640  0.1244
   23HTM    S1217022  -0.770   6.381   2.478  0.5299  0.5172 -0.2874
   24TAL   C11517023  -1.094   6.403   2.726 -0.3886 -0.1491  1.5882
   24TAL   C11617024  -1.092   6.425   2.878  0.7395 -0.1699  0.3425
   24TAL   C11717025  -1.221   6.378   2.952  0.5397  0.4497 -0.2782
   24TAL   C11817026  -1.351   6.459   2.954 -0.2447  0.1415  0.1713
   24TAL   C11917027  -1.335   6.590   3.030 -0.4097 -0.5645  0.0900
   24TAL   C12017028  -1.318   6.580   3.183  0.4008 -0.1164  0.5302
   25HTM   C12117029  -1.045   6.393   2.420 -0.1513  0.2908  0.4951
   25HTM   C12217030  -1.046   6.299   2.322  0.1558  0.2526  0.5277
   25HTM   C12317031  -1.166   6.299   2.242  0.2120 -0.0746  0.4402
   25HTM   C12417032  -1.256   6.393   2.279 -0.0526 -0.2860  0.3411
   25HTM    S1317033  -1.197   6.491   2.419 -0.3958 -0.0866  0.3505
   26TAL   C12517034  -1.191   6.202   2.131 -0.2525  0.0099 -0.3505
   26TAL   C12617035  -1.123   6.248   1.992  0.1125  0.7912 -0.5339
   26TAL   C12717036  -0.976   6.283   1.993 -0.6500  1.0324  0.3259
   26TAL   C12817037  -0.878   6.172   2.042 -0.0776  0.2773  0.0530
   26TAL   C12917038  -0.853   6.044   1.951 -0.5174 -0.7584 -0.4354
   26TAL   C13017039  -0.746   5.956   2.017  0.8284 -1.2700 -0.9616
   27HTM   C13117040  -1.386   6.426   2.221  0.4654  0.6621 -0.2337
   27HTM   C13217041  -1.424   6.434   2.090  0.2804  1.1988 -0.1554
   27HTM   C13317042  -1.555   6.489   2.071  0.1272  0.9930  0.2777
   27HTM   C13417043  -1.618   6.523   2.187  0.1953  0.2994  0.5297
   27HTM    S1417044  -1.515   6.489   2.331  0.4603 -0.1512  0.2372
   28TAL   C13517045  -1.595   6.503   1.921  0.2972 -0.0071  0.5050
   28TAL   C13617046  -1.529   6.596   1.820  0.5037 -0.6404 -0.6487
   28TAL   C13717047  -1.547   6.753   1.854  1.4282 -0.4188 -0.3693
   28TAL   C13817048  -1.696   6.807   1.839 -0.8625 -1.1963  0.5158
   28TAL   C13917049  -1.724   6.949   1.884  0.0345 -0.5269 -0.6393
   28TAL   C14017050  -1.761   6.970   2.036 -0.2445  0.1158 -0.0348
   29HTM   C14117051  -1.748   6.596   2.205  0.0091  0.1548  0.3506
   29HTM   C14217052  -1.862   6.572   2.133  0.1758  0.3453  0.0196
   29HTM   C14317053  -1.977   6.645   2.180  0.2306  0.7848 -0.5153
   29HTM   C14417054  -1.951   6.725   2.287  0.1056  0.9293 -0.5920
   29HTM    S1517055  -1.778   6.713   2.338 -0.0927  0.5185  0.0099
   30TAL   C14517056  -2.114   6.613   2.113 -0.2600 -0.0164 -0.0080
   30TAL   C14617057  -2.145   6.662   1.970  0.0911 -1.0637  0.1533
   30TAL   C14717058  -2.051   6.616   1.859 -0.3437  0.3416  0.5959
   30TAL   C14817059  -2.059   6.457   1.824 -0.1281  0.5804 -1.4762
   30TAL   C14917060  -1.973   6.400   1.714 -0.2016  0.8027  0.1625
   30TAL   C15017061  -2.010   6.440   1.567  0.8969 -0.1797  0.0779
   31HTM   C15117062  -2.033   6.818   2.369 -0.1041 -0.4426  0.1291
   31HTM   C15217063  -1.992   6.867   2.489 -0.3179 -0.7892  0.3471
   31HTM   C15317064  -2.097   6.931   2.564 -0.3672 -0.6576  0.1678
   31HTM   C15417065  -2.218   6.930   2.501 -0.1904 -0.2107 -0.1867
   31HTM    S1617066  -2.208   6.848   2.341  0.0533  0.0808 -0.3228
   32TAL   C15517067  -2.057   6.956   2.714  0.4605  0.9755 -0.4935
   32TAL   C15617068  -2.036   7.096   2.752 -1.0850  0.8054 -0.0353
   32TAL   C15717069  -1.972   7.119   2.892 -0.0461 -0.2018 -0.5933
   32TAL   C15817070  -1.985   7.263   2.935  0.7376 -0.5303 -0.1312
   32TAL   C15917071  -1.925   7.282   3.081 -0.1118  0.6886 -0.1508
   32TAL   C16017072  -1.829   7.392   3.096  0.6301  0.3701  0.5617
   33HTM   C16117073  -2.331   7.013   2.536 -0.1693  0.4709 -0.2213
   33HTM   C16217074  -2.351   7.087   2.649 -0.1478  0.5611 -0.2756
   33HTM   C16317075  -2.468   7.170   2.645 -0.3026  0.3473 -0.2110
   33HTM   C16417076  -2.538   7.160   2.528 -0.4420  0.0942 -0.1074
   33HTM    S1717077  -2.461   7.044   2.414 -0.3881  0.1061 -0.0831
   34TAL   C16517078  -2.505   7.259   2.771  0.4814  0.0635  0.3491
   34TAL   C16617079  -2.407   7.367   2.817 -0.2818 -0.4608 -0.9125
   34TAL   C16717080  -2.373   7.472   2.719  1.0518 -0.0669  0.3882
   34TAL   C16817081  -2.495   7.570   2.699  0.7026 -0.4118  0.1587
   34TAL   C16917082  -2.547   7.647   2.824  0.4806 -0.4954  0.6861
   34TAL   C17017083  -2.668   7.738   2.770  0.1767  0.7626 -1.2236
   35HTM   C17117084  -2.648   7.235   2.476  0.0157  0.4617 -0.1291
   35HTM   C17217085  -2.661   7.290   2.352 -0.3352  0.3731 -0.1327
   35HTM   C17317086  -2.779   7.372   2.337 -0.6489 -0.0463 -0.0157
   35HTM   C17417087  -2.855   7.380   2.450 -0.5372 -0.2772  0.0772
   35HTM    S1817088  -2.784   7.283   2.585 -0.0232  0.0189  0.0237
   36TAL   C17517089  -2.788   7.455   2.208  0.4592 -0.1961  0.8613
   36TAL   C17617090  -2.693   7.581   2.192  0.1233  0.0975 -0.5313
   36TAL   C17717091  -2.687   7.665   2.330  0.7655 -0.2671 -0.0137
   36TAL   C17817092  -2.626   7.805   2.309 -0.6195  0.1419  0.2348
   36TAL   C17917093  -2.485   7.808   2.242  0.7644 -0.0309  0.3582
   36TAL   C18017094  -2.448   7.940   2.164 -0.4924 -0.0703 -0.0194
   37HTM   C18117095  -2.975   7.455   2.494  0.1742  0.1036  0.1773
   37HTM   C18217096  -3.020   7.482   2.620  0.5792  0.6170  0.2173
   37HTM   C18317097  -3.148   7.549   2.623  0.6710  0.7879  0.3554
   37HTM   C18417098  -3.200   7.573   2.499  0.3356  0.4050  0.4207
   37HTM    S1917099  -3.092   7.512   2.369 -0.1255 -0.2061  0.3121
   38TAL   C18517100  -3.208   7.597   2.765 -0.4141 -0.3686  0.5453
   38TAL   C18617101  -3.127   7.673   2.872  0.3035 -0.4149 -0.1448
   38TAL   C18717102  -3.059   7.803   2.825  0.4670 -0.4121 -0.1167
   38TAL   C18817103  -3.006   7.885   2.941 -0.8338 -0.9375 -0.1568
   38TAL   C18917104  -3.103   7.970   3.027  0.8964  0.4604 -0.5058
   38TAL   C19017105  -3.192   7.899   3.121  0.5092  0.6521 -0.1831
   39HTM   C19117106  -3.322   7.648   2.467  0.1211 -0.1640 -0.2873
   39HTM   C19217107  -3.349   7.779   2.489 -0.0083 -0.2805  0.2906
   39HTM   C19317108  -3.480   7.820   2.444 -0.1779 -0.2827  0.7730
   39HTM   C19417109  -3.552   7.719   2.388 -0.1777 -0.1680  0.5630
   39HTM    S2017110  -3.460   7.564   2.388  0.0383 -0.0472 -0.2668
   40TAL   C19517111  -3.540   7.960   2.439 -0.2165 -0.8472 -0.4623
   40TAL   C19617112  -3.468   8.071   2.536 -0.1893  0.1643 -0.2742
   40TAL   C19717113  -3.467   8.037   2.694 -0.2799 -0.4525  0.9177
   40TAL   C19817114  -3.389   8.154   2.753  1.0157 -0.1783  0.8388
   40TAL   C19917115  -3.242   8.149   2.732 -0.0010 -0.1755  0.1802
   40TAL   C20017116  -3.176   8.259   2.816  0.7120 -0.1540  0.0865
   41HTM   C20117117  -3.683   7.715   2.324 -0.4127 -1.0379  0.2145
   41HTM   C20217118  -3.769   7.612   2.349 -0.6515 -1.0844 -0.7271
   41HTM   C20317119  -3.873   7.599   2.251 -0.4706 -0.1800 -1.0599
   41HTM   C20417120  -3.867   7.692   2.152 -0.0937  0.5561 -0.3722
   41HTM    S2117121  -3.728   7.804   2.174  0.0631  0.1610  0.7580
   42TAL   C20517122  -3.979   7.493   2.281 -0.4577  0.2354 -0.2809
   42TAL   C20617123  -4.101   7.519   2.372 -0.2043 -0.3920 -0.4317
   42TAL   C20717124  -4.235   7.570   2.327 -0.0868 -0.0557 -0.1248
   42TAL   C20817125  -4.323   7.613   2.444 -0.8392 -0.4092  0.1058
   42TAL   C20917126  -4.430   7.717   2.399  0.7360 -0.0843  0.2490
   42TAL   C21017127  -4.477   7.829   2.492  0.3089 -0.3421  0.1083
   43HTM   C21117128  -3.945   7.697   2.033  0.2169 -0.0650 -0.1426
   43HTM   C21217129  -3.905   7.707   1.903  0.2940 -0.5712 -0.1645
   43HTM   C21317130  -4.013   7.735   1.811  0.4023 -0.5569 -0.2877
   43HTM   C21417131  -4.135   7.746   1.871  0.4077 -0.0398 -0.3597
   43HTM    S2217132  -4.123   7.721   2.049  0.2755  0.4732 -0.2770
   44TAL   C21517133  -3.980   7.753   1.656 -0.3262  0.7023  0.2488
   44TAL   C21617134  -3.998   7.647   1.538 -0.2827 -0.5499  0.2811
   44TAL   C21717135  -3.922   7.517   1.541 -0.3700  0.1621 -0.2702
   44TAL   C21817136  -3.922   7.455   1.402 -0.5955 -0.2759 -0.1668
   44TAL   C21917137  -3.792   7.508   1.342  0.4331  0.0224  0.2452
   44TAL   C22017138  -3.765   7.440   1.217 -0.5319 -0.3772 -0.4193
   45HTM   C22117139  -4.280   7.773   1.820 -0.3798  0.6199 -0.2105
   45HTM   C22217140  -4.391   7.829   1.877 -0.6556  0.7487 -0.8577
   45HTM   C22317141  -4.513   7.796   1.808 -0.3574  0.4060 -1.2379
   45HTM   C22417142  -4.495   7.716   1.699  0.1458  0.0160 -0.8804
   45HTM    S2317143  -4.321   7.676   1.675  0.2831  0.0515 -0.0294
   46TAL   C22517144  -4.647   7.840   1.866 -0.2851 -0.3887 -0.8110
   46TAL   C22617145  -4.706   7.772   1.994 -0.2759  0.3279  0.1840
   46TAL   C22717146  -4.853   7.789   2.052 -0.3279  0.0044  0.3935
   46TAL   C22817147  -4.926   7.918   2.057 -0.2663  0.6948 -0.1111
   46TAL   C22917148  -4.848   8.013   2.150 -0.3206 -0.3966 -0.7657
   46TAL   C23017149  -4.907   8.147   2.201  0.2953 -0.4737 -0.0979
   47HTM   C23117150  -4.596   7.657   1.603 -0.1093  0.4006  0.5210
   47HTM   C23217151  -4.680   7.552   1.625 -0.8230  0.9563  0.5533
   47HTM   C23317152  -4.740   7.500   1.504 -1.2992  1.4167  0.5872
   47HTM   C23417153  -4.702   7.566   1.391 -0.9487  1.2122  0.5808
   47HTM    S2417154  -4.587   7.700   1.428  0.0176  0.4159  0.5310
   48TAL   C23517155  -4.832   7.377   1.515  0.2550 -0.0176  0.5682
   48TAL   C23617156  -4.893   7.324   1.387 -0.7578 -0.5063  0.6042
   48TAL   C23717157  -5.014   7.243   1.422  0.6709 -0.2625 -0.3113
   48TAL   C23817158  -5.115   7.222   1.312  0.3230  0.0847  0.5587
   48TAL   C23917159  -5.096   7.072   1.278  0.4811 -0.3190 -0.3254
   48TAL   C24017160  -5.201   7.019   1.189  0.3757 -0.1259 -0.0974
    1HTM     C117161   6.029   2.754  15.044 -0.2311 -0.3958 -0.2359
    1HTM     C217162   6.139   2.696  15.100 -0.3257 -0.0721  0.3028
    1HTM     C317163   6.263   2.755  15.057 -0.2774  0.1242  0.7088
    1HTM     C417164   6.248   2.858  14.970 -0.1461 -0.0499  0.4797
    1HTM     S117165   6.074   2.888  14.933 -0.0724 -0.4784 -0.2721
    2TAL     C517166   6.394   2.682  15.081 -0.6540  0.2200  0.0845
    2TAL     C617167   6.473   2.711  15.207  0.3468 -0.3865  0.2713
    2TAL     C717168   6.390   2.687  15.331  0.2183 -0.5539 -0.7126
    2TAL     C817169   6.470   2.695  15.457 -0.1083 -0.2844  0.1115
    2TAL     C917170   6.427   2.580  15.543 -0.5249 -0.4561 -1.1779
    2TAL    C1017171   6.525   2.558  15.660  0.2403  1.2390 -0.7316
    3HTM    C1117172   6.345   2.919  14.877  0.3080 -0.2765 -0.3775
    3HTM    C1217173   6.330   2.948  14.744  0.4361 -0.5980 -0.4632
    3HTM    C1317174   6.442   3.018  14.687  0.3928 -0.5320 -0.4673
    3HTM    C1417175   6.543   3.043  14.776  0.2319 -0.1603 -0.3848
    3HTM     S217176   6.503   2.979  14.940  0.1213  0.1375 -0.2949
    4TAL    C1517177   6.445   3.052  14.544 -0.3586 -0.1969  0.0428
    4TAL    C1617178   6.370   3.165  14.505 -0.1186 -0.2728  0.5233
    4TAL    C1717179   6.381   3.200  14.357  0.0143  0.3963  0.3204
    4TAL    C1817180   6.512   3.249  14.293  0.3640  0.5829  0.2707
    4TAL    C1917181   6.535   3.261  14.143  0.7096  0.0610 -0.2156
    4TAL    C2017182   6.662   3.338  14.086  0.3478  0.1164 -0.3611
    5HTM    C2117183   6.659   3.121  14.766 -0.1077 -0.5994 -0.4330
    5HTM    C2217184   6.684   3.226  14.684  0.5147 -1.4622 -1.4017
    5HTM    C2317185   6.812   3.288  14.705  0.7172 -1.7714 -1.7004
    5HTM    C2417186   6.885   3.230  14.804  0.2492 -1.1443 -0.9597
    5HTM     S317187   6.798   3.091  14.878 -0.4896 -0.1067  0.1816
    6TAL    C2517188   6.841   3.422  14.642  0.0066  0.9821  0.2108
    6TAL    C2617189   6.872   3.410  14.497  0.0285  0.0587  0.2148
    6TAL    C2717190   6.957   3.300  14.438  0.2659 -0.2838 -0.7267
    6TAL    C2817191   7.009   3.320  14.301  0.4400 -0.3631 -0.0312
    6TAL    C2917192   7.065   3.200  14.233  0.6530  0.2336 -0.2863
    6TAL    C3017193   6.969   3.082  14.213 -0.0017  0.1323  0.6240
    7HTM    C3117194   7.020   3.253  14.853 -0.1752  0.9112  0.3038
    7HTM    C3217195   7.087   3.178  14.945 -0.1630  0.8532  0.2475
    7HTM    C3317196   7.220   3.225  14.971  0.0795  0.4478 -0.2277
    7HTM    C3417197   7.255   3.335  14.899  0.2523  0.1966 -0.5338
    7HTM     S417198   7.121   3.389  14.792  0.1208  0.4548 -0.2436
    8TAL    C3517199   7.316   3.152  15.059  0.2871 -0.9732  0.5511
    8TAL    C3617200   7.326   3.001  15.048  0.3579 -0.9043  0.0763
    8TAL    C3717201   7.364   2.931  15.183 -1.2252 -0.9717  0.4179
    8TAL    C3817202   7.465   3.003  15.272 -0.4443  0.3791  0.4627
    8TAL    C3917203   7.491   2.921  15.396 -0.2322  0.2662  0.2567
    8TAL    C4017204   7.545   3.006  15.511  0.3874  0.0091  0.8284
    9HTM    C4117205   7.377   3.415  14.898 -0.7499  0.5126  0.1553
    9HTM    C4217206   7.480   3.422  14.809 -0.5729  0.0268  0.3147
    9HTM    C4317207   7.588   3.507  14.852 -0.2825 -0.3982  0.4351
    9HTM    C4417208   7.567   3.564  14.974 -0.2382 -0.2363  0.3668
    9HTM     S517209   7.408   3.515  15.044 -0.5622  0.4708  0.1437
   10TAL    C4517210   7.704   3.511  14.757  0.1876 -0.2328 -0.4798
   10TAL    C4617211   7.708   3.591  14.635  1.1211  0.3140  0.5889
   10TAL    C4717212   7.838   3.553  14.572  0.1612  0.3717 -0.5811
   10TAL    C4817213   7.850   3.605  14.433  0.2139  0.0637 -0.4339
   10TAL    C4917214   7.817   3.502  14.326 -0.7394 -0.6092 -0.2111
   10TAL    C5017215   7.826   3.557  14.179 -0.0823 -0.2377 -1.7492
   11HTM    C5117216   7.647   3.650  15.065 -0.0773  0.3010  0.3163
   11HTM    C5217217   7.776   3.694  15.059 -0.1477  0.5049  0.2611
   11HTM    C5317218   7.812   3.782  15.166 -0.2790  0.6664  0.1729
   11HTM    C5417219   7.711   3.807  15.254 -0.3087  0.5857  0.1609
   11HTM     S617220   7.560   3.719  15.208 -0.1721  0.2971  0.2610
   12TAL    C5517221   7.950   3.843  15.180  0.2131 -0.0113 -0.4414
   12TAL    C5617222   8.093   3.785  15.195 -0.7667  0.1012 -0.6101
   12TAL    C5717223   8.115   3.721  15.337 -0.0128 -0.4343 -0.4147
   12TAL    C5817224   8.042   3.585  15.363  0.4594 -0.6569 -0.1085
   12TAL    C5917225   8.027   3.568  15.508 -0.1089  0.6610  0.0330
   12TAL    C6017226   7.971   3.437  15.563 -0.0770  0.7312 -0.0266
   13HTM    C6117227   7.695   3.882  15.375  0.1846 -0.6184  0.7413
   13HTM    C6217228   7.583   3.903  15.450  0.0794 -0.4837  0.5472
   13HTM    C6317229   7.598   4.008  15.548 -0.1312 -0.1537  0.2317
   13HTM    C6417230   7.721   4.066  15.548 -0.1866 -0.0366  0.1851
   13HTM     S717231   7.829   3.993  15.423  0.0245 -0.3364  0.5387
   14TAL    C6517232   7.494   4.054  15.647  0.3698  0.2653 -0.8768
   14TAL    C6617233   7.348   4.034  15.614 -0.4955 -0.2348  0.7201
   14TAL    C6717234   7.255   3.933  15.703 -0.0269  0.0056  1.1016
   14TAL    C6817235   7.234   3.954  15.855 -0.0689 -0.1821 -0.1317
   14TAL    C6917236   7.086   3.960  15.890 -0.1232  0.2422  0.9002
   14TAL    C7017237   7.009   3.828  15.877 -0.9999 -0.2661 -0.0076
   15HTM    C7117238   7.783   4.161  15.640 -0.0286  0.2676 -0.1767
   15HTM    C7217239   7.733   4.285  15.667 -0.2845  0.0887  0.1929
   15HTM    C7317240   7.811   4.359  15.762 -0.4531 -0.0402  0.4351
   15HTM    C7417241   7.921   4.292  15.808 -0.3258  0.0403  0.2504
   15HTM     S817242   7.934   4.128  15.734  0.0198  0.2871 -0.2474
   16TAL    C7517243   7.771   4.505  15.801  0.1847  0.3155  0.1947
   16TAL    C7617244   7.644   4.571  15.760 -0.0519 -0.6826  0.1220
   16TAL    C7717245   7.515   4.492  15.763 -0.1483 -0.3258  0.4765
   16TAL    C7817246   7.389   4.553  15.708 -0.1043  0.6673 -0.3696
   16TAL    C7917247   7.274   4.450  15.738 -0.5421 -0.1812 -0.1509
   16TAL    C8017248   7.128   4.482  15.686  0.6311  0.4339 -0.3333
   17HTM    C8117249   8.019   4.336  15.899  0.1923 -0.0083 -0.1772
   17HTM    C8217250   8.035   4.323  16.034 -0.2175 -0.0802 -0.1326
   17HTM    C8317251   8.141   4.404  16.087 -0.3876 -0.0982  0.2360
   17HTM    C8417252   8.206   4.479  15.993 -0.1075 -0.0400  0.4729
   17HTM     S917253   8.137   4.452  15.829  0.3968  0.0424  0.2468
   18TAL    C8517254   8.163   4.412  16.231 -0.4101 -0.8321 -0.0156
   18TAL    C8617255   8.066   4.354  16.335  0.2041  0.6052 -0.4596
   18TAL    C8717256   8.121   4.320  16.476  0.1678 -0.7472  0.0516
   18TAL    C8817257   8.188   4.440  16.550  0.3308  1.0816  0.5177
   18TAL    C8917258   8.238   4.408  16.688 -0.7954  0.0385  0.4951
   18TAL    C9017259   8.385   4.437  16.705 -0.6133  0.4724 -1.3742
   19HTM    C9117260   8.301   4.590  16.009 -0.4115  0.0756 -0.3460
   19HTM    C9217261   8.275   4.723  16.025 -0.4663  0.0290 -0.0339
   19HTM    C9317262   8.392   4.802  16.051 -0.5148 -0.0008  0.2794
   19HTM    C9417263   8.507   4.730  16.055 -0.4970  0.0232  0.2058
   19HTM    S1017264   8.477   4.555  16.026 -0.4170  0.0858 -0.2677
   20TAL    C9517265   8.385   4.957  16.058  0.1875  0.5511 -1.0539
   20TAL    C9617266   8.265   5.041  16.008 -0.2707 -0.3603  0.6801
   20TAL    C9717267   8.265   5.193  16.047  0.8204 -0.4610  0.4369
   20TAL    C9817268   8.145   5.274  16.003 -0.1975  0.2436 -0.2276
   20TAL    C9917269   8.139   5.419  16.060  0.7097  0.1992  0.2809
   20TAL   C10017270   8.239   5.518  15.996  0.5709 -0.2276 -0.7790
   21HTM   C10117271   8.644   4.782  16.039  0.1484  0.3345  0.0950
   21HTM   C10217272   8.753   4.704  16.068 -0.0654  0.0799  0.2251
   21HTM   C10317273   8.877   4.778  16.075  0.0836 -0.1913  0.4811
   21HTM   C10417274   8.862   4.911  16.052  0.4111 -0.1434  0.5464
   21HTM    S1117275   8.690   4.955  16.019  0.5578  0.2507  0.2885
   22TAL   C10517276   8.990   4.702  16.133 -0.2967  0.3515 -0.0169
   22TAL   C10617277   9.109   4.652  16.050 -0.0184  0.6626 -0.0473
   22TAL   C10717278   9.210   4.556  16.105  0.5510  0.1022 -0.6029
   22TAL   C10817279   9.156   4.415  16.127  1.0889 -0.3150  0.2258
   22TAL   C10917280   9.252   4.304  16.132 -0.2898  0.3665 -0.2074
   22TAL   C11017281   9.312   4.277  16.271  0.4488  0.2666  0.0124
   23HTM   C11117282   8.952   5.027  16.061 -0.2019 -0.0576  0.0236
   23HTM   C11217283   8.914   5.155  16.086 -0.4756 -0.1907  0.2990
   23HTM   C11317284   9.023   5.244  16.116 -0.6401  0.0288  0.2589
   23HTM   C11417285   9.145   5.183  16.114 -0.4917  0.3298 -0.0455
   23HTM    S1217286   9.131   5.007  16.073 -0.1301  0.3592 -0.3089
   24TAL   C11517287   8.996   5.381  16.176 -1.0592  0.6272 -1.0634
   24TAL   C11617288   8.949   5.484  16.073 -0.3189  0.4682 -0.3166
   24TAL   C11717289   8.881   5.593  16.156 -0.4233 -0.2797  0.7739
   24TAL   C11817290   8.861   5.729  16.078  0.9772  0.0321 -0.1733
   24TAL   C11917291   8.760   5.743  15.960 -1.1102 -0.4023  1.1638
   24TAL   C12017292   8.616   5.682  15.966 -0.2845 -0.1423 -0.0927
   25HTM   C12117293   9.286   5.215  16.138 -0.2654 -0.6086  0.0162
   25HTM   C12217294   9.329   5.294  16.240 -0.8412 -0.8137  0.4311
   25HTM   C12317295   9.473   5.300  16.252 -0.8886 -0.2509  0.7873
   25HTM   C12417296   9.539   5.225  16.159 -0.3490  0.3837  0.6434
   25HTM    S1317297   9.424   5.140  16.048  0.2657  0.3189  0.0436
   26TAL   C12517298   9.531   5.401  16.358  0.6034  0.1696 -0.4041
   26TAL   C12617299   9.448   5.410  16.496  0.2252  0.2715 -0.5563
   26TAL   C12717300   9.512   5.494  16.601  0.0932 -0.6460 -0.0216
   26TAL   C12817301   9.475   5.459  16.749  0.0361  0.2306  0.0861
   26TAL   C12917302   9.494   5.315  16.785 -0.3186 -0.0401 -0.6899
   26TAL   C13017303   9.482   5.288  16.935  0.6000 -0.1462  0.5952
   27HTM   C13117304   9.681   5.201  16.138 -0.2027 -0.2422 -0.6681
   27HTM   C13217305   9.793   5.256  16.194 -0.5198  0.5301 -0.7648
   27HTM   C13317306   9.916   5.213  16.133 -0.2540  1.0657 -0.6166
   27HTM   C13417307   9.898   5.126  16.029  0.2658  0.7018 -0.4072
   27HTM    S1417308   9.723   5.091  16.001  0.4615 -0.3539 -0.3799
   28TAL   C13517309  10.050   5.265  16.188  0.1292  0.0677 -0.3016
   28TAL   C13617310  10.131   5.178  16.288  0.3777 -0.8832 -0.3359
   28TAL   C13717311  10.058   5.138  16.424  0.3808 -0.6371 -0.3126
   28TAL   C13817312   9.998   5.263  16.507 -0.3988 -0.3946  0.7494
   28TAL   C13917313   9.918   5.221  16.623  0.4125 -0.7766 -0.4999
   28TAL   C14017314   9.882   5.332  16.723 -0.8648 -0.1533 -0.0462
   29HTM   C14117315   9.991   5.043  15.955 -0.3863  0.0763  0.5631
   29HTM   C14217316   9.954   4.967  15.848 -0.6838  0.4549  0.3891
   29HTM   C14317317  10.055   4.872  15.807 -0.7804  0.6226 -0.2546
   29HTM   C14417318  10.168   4.877  15.883 -0.5564  0.3722 -0.5716
   29HTM    S1517319  10.157   5.002  16.012 -0.2035 -0.0990 -0.0777
   30TAL   C14517320  10.018   4.792  15.680 -0.6630 -0.5929  0.2239
   30TAL   C14617321   9.961   4.652  15.674 -0.2342  0.5801  0.1353
   30TAL   C14717322   9.854   4.613  15.778  0.0592  1.1121 -0.1641
   30TAL   C14817323   9.731   4.707  15.767 -0.1066  0.3826  0.0594
   30TAL   C14917324   9.628   4.636  15.863 -0.4041  0.0956  0.6898
   30TAL   C15017325   9.505   4.706  15.842  0.5578  0.0739 -0.6377
   31HTM   C15117326  10.289   4.792  15.894 -0.1953  0.6652 -0.0302
   31HTM   C15217327  10.321   4.675  15.831 -0.0001  1.1867 -0.9427
   31HTM   C15317328  10.443   4.615  15.879 -0.0348  0.8886 -1.2193
   31HTM   C15417329  10.504   4.687  15.978 -0.2566  0.1397 -0.5184
   31HTM    S1617330  10.411   4.836  16.018 -0.4402 -0.2500  0.5545
   32TAL   C15517331  10.494   4.488  15.815 -0.9244  0.5537 -0.3033
   32TAL   C15617332  10.434   4.429  15.692  0.3157  0.4719  0.9332
   32TAL   C15717333  10.298   4.360  15.730 -0.1028 -0.1310 -0.6752
   32TAL   C15817334  10.198   4.323  15.630 -0.8539  0.0737 -0.3241
   32TAL   C15917335  10.246   4.217  15.534 -0.6507  0.6960  0.0855
   32TAL   C16017336  10.143   4.200  15.425 -0.4194 -0.0686 -0.8190
   33HTM   C16117337  10.635   4.669  16.039  0.1018  0.1983 -0.6242
   33HTM   C16217338  10.709   4.765  16.101  0.4749 -0.0857 -0.6251
   33HTM   C16317339  10.823   4.713  16.172  0.3474 -0.5130 -0.7262
   33HTM   C16417340  10.835   4.577  16.165 -0.1228 -0.5549 -0.8032
   33HTM    S1717341  10.703   4.504  16.066 -0.4437 -0.0538 -0.7533
   34TAL   C16517342  10.931   4.793  16.247 -0.2395 -0.0199  0.1986
   34TAL   C16617343  10.924   4.941  16.257  0.6222  0.5167  0.0763
   34TAL   C16717344  11.070   4.984  16.307  0.6185 -0.5017 -0.1863
   34TAL   C16817345  11.099   5.138  16.320  0.6852  0.0815 -0.7338
   34TAL   C16917346  11.238   5.175  16.373 -0.8331 -1.5515 -0.3165
   34TAL   C17017347  11.253   5.335  16.363 -0.0856  0.4258 -0.5747
   35HTM   C17117348  10.928   4.484  16.219 -0.2545 -0.1235  0.3173
   35HTM   C17217349  10.906   4.349  16.213 -0.2822 -0.1255  0.4544
   35HTM   C17317350  11.009   4.272  16.276 -0.1795 -0.0914  0.3304
   35HTM   C17417351  11.109   4.347  16.331 -0.0734 -0.0636  0.1004
   35HTM    S1817352  11.081   4.523  16.306 -0.0951 -0.0784  0.0204
   36TAL   C17517353  11.011   4.111  16.258 -0.4588 -0.4832  0.3525
   36TAL   C17617354  10.897   4.052  16.339 -0.3860 -0.4136 -0.7334
   36TAL   C17717355  10.895   3.903  16.358  1.4143  0.6107 -0.2833
   36TAL   C17817356  10.871   3.844  16.500  0.8473  0.1363  0.5854
   36TAL   C17917357  10.794   3.712  16.493 -0.4104 -0.0840 -0.4738
   36TAL   C18017358  10.645   3.709  16.528  0.4547  0.0775  1.0537
   37HTM   C18117359  11.236   4.310  16.393  0.1190 -0.1804 -0.2287
   37HTM   C18217360  11.337   4.397  16.421  0.2105 -0.1816 -0.5436
   37HTM   C18317361  11.445   4.337  16.496  0.3637 -0.1380 -0.7267
   37HTM   C18417362  11.425   4.206  16.525  0.3891 -0.1038 -0.5513
   37HTM    S1917363  11.269   4.145  16.459  0.2201 -0.1238 -0.1383
   38TAL   C18517364  11.567   4.422  16.538  0.6829  0.2678 -0.7918
   38TAL   C18617365  11.620   4.519  16.436  0.1792  0.3328  0.0295
   38TAL   C18717366  11.735   4.454  16.348  0.8787  0.1234  0.4375
   38TAL   C18817367  11.813   4.558  16.268  0.7233  0.3459  0.2265
   38TAL   C18917368  11.904   4.511  16.159  0.2876 -0.0706 -0.4055
   38TAL   C19017369  11.984   4.620  16.097  0.0178  0.1190  0.1372
   39HTM   C19117370  11.530   4.121  16.585 -0.0632 -0.1432 -0.5064
   39HTM   C19217371  11.608   4.026  16.525 -0.2885 -0.4653 -0.2928
   39HTM   C19317372  11.695   3.957  16.616 -0.4821 -0.4995 -0.1307
   39HTM   C19417373  11.685   4.000  16.746 -0.4044 -0.2034 -0.2193
   39HTM    S2017374  11.562   4.131  16.763 -0.0782  0.1442 -0.5178
   40TAL   C19517375  11.780   3.836  16.557 -0.1406 -0.8496 -0.5286
   40TAL   C19617376  11.723   3.726  16.474  0.6482 -0.5260 -0.8177
   40TAL   C19717377  11.678   3.601  16.549  0.5768  0.9357 -0.7967
   40TAL   C19817378  11.792   3.490  16.551 -0.2817  1.2359  0.0816
   40TAL   C19917379  11.753   3.382  16.659  0.1345 -0.8668  0.7989
   40TAL   C20017380  11.768   3.436  16.799 -0.0849 -0.2972 -0.7794
   41HTM   C20117381  11.772   3.974  16.856 -0.1144  0.1062  0.3582
   41HTM   C20217382  11.899   4.022  16.870 -0.3121  0.5860  0.5698
   41HTM   C20317383  11.971   3.962  16.979 -0.2002  0.7107  0.5646
   41HTM   C20417384  11.899   3.869  17.048  0.0825  0.3261  0.3489
   41HTM    S2117385  11.733   3.849  16.980  0.2307 -0.2278  0.1347
   42TAL   C20517386  12.120   3.989  16.993 -0.3827 -0.0597 -1.0348
   42TAL   C20617387  12.203   3.886  16.922  0.0353 -0.4605 -0.0054
   42TAL   C20717388  12.345   3.864  16.976 -0.4110  0.4612 -0.2559
   42TAL   C20817389  12.363   3.814  17.116 -0.5260  0.6207  0.1433
   42TAL   C20917390  12.490   3.829  17.181  0.6027 -0.7827 -0.6623
   42TAL   C21017391  12.494   3.750  17.315 -0.4286 -0.0018  0.4659
   43HTM   C21117392  11.932   3.793  17.165  0.7643  0.1162 -0.5920
   43HTM   C21217393  11.841   3.717  17.232  0.6112 -0.0501 -0.9818
   43HTM   C21317394  11.879   3.687  17.367  0.1023 -0.0126 -0.8254
   43HTM   C21417395  11.999   3.741  17.403 -0.1326  0.1824 -0.3167
   43HTM    S2217396  12.074   3.834  17.268  0.2740  0.3349  0.0068
   44TAL   C21517397  11.786   3.596  17.440  0.0551 -0.3786 -0.0565
   44TAL   C21617398  11.699   3.689  17.516  0.4029  0.1495 -0.1270
   44TAL   C21717399  11.585   3.615  17.585 -0.0302 -0.2078  0.4352
   44TAL   C21817400  11.505   3.707  17.671  0.9177  0.0300  0.7818
   44TAL   C21917401  11.556   3.725  17.806 -0.2258  1.4066  0.4144
   44TAL   C22017402  11.510   3.854  17.871  0.7695 -0.2157  0.2883
   45HTM   C22117403  12.064   3.733  17.537  0.4416 -0.2701  0.3681
   45HTM   C22217404  12.187   3.688  17.575  0.3734 -0.2206  0.6499
   45HTM   C22317405  12.224   3.725  17.709  0.1032 -0.0991  0.6909
   45HTM   C22417406  12.129   3.799  17.773 -0.0342 -0.0559  0.4397
   45HTM    S2317407  11.985   3.827  17.668  0.1680 -0.1664  0.1302
   46TAL   C22517408  12.354   3.680  17.765  0.2831  0.9059 -0.7031
   46TAL   C22617409  12.492   3.684  17.688 -0.1625  0.5281 -0.6445
   46TAL   C22717410  12.591   3.593  17.758  0.3063  0.4283  0.3192
   46TAL   C22817411  12.743   3.611  17.749  1.0436 -0.2312 -0.8747
   46TAL   C22917412  12.799   3.754  17.740 -0.0632 -0.2117  0.4555
   46TAL   C23017413  12.780   3.846  17.862  0.3427 -0.0819 -0.4686
   47HTM   C23117414  12.133   3.850  17.911 -0.1931  0.2137  0.1444
   47HTM   C23217415  12.147   3.788  18.032 -0.2229  0.0789  0.0801
   47HTM   C23317416  12.116   3.873  18.144  0.0812  0.0601  0.1802
   47HTM   C23417417  12.078   3.999  18.109  0.3428  0.1804  0.3219
   47HTM    S2417418  12.078   4.021  17.930  0.2246  0.3283  0.3391
   48TAL   C23517419  12.142   3.813  18.286  0.1073 -0.2010  1.1452
   48TAL   C23617420  12.239   3.693  18.323  0.4152 -0.6699  0.6793
   48TAL   C23717421  12.384   3.728  18.363  0.0398 -0.3008  0.1707
   48TAL   C23817422  12.454   3.590  18.350  0.9433  0.4080  0.1161
   48TAL   C23917423  12.604   3.579  18.376 -0.3922  0.3781  0.5546
   48TAL   C24017424  12.637   3.428  18.369 -0.0727 -0.1538 -0.0794
    1HTM     C117425   3.712   4.607   0.764  0.0889 -0.1911  0.1252
    1HTM     C217426   3.627   4.663   0.674 -0.0188  0.2197  0.4690
    1HTM     C317427   3.535   4.568   0.615 -0.2389  0.5238  0.3170
    1HTM     C417428   3.550   4.441   0.662 -0.2991  0.3451 -0.1427
    1HTM     S117429   3.683   4.430   0.784 -0.0807 -0.2256 -0.4215
    2TAL     C517430   3.437   4.608   0.520  0.3079  0.7433  0.6763
    2TAL     C617431   3.360   4.737   0.541 -0.9189 -0.8690  0.1121
    2TAL     C717432   3.311   4.794   0.400 -0.0398 -0.5640 -0.2711
    2TAL     C817433   3.159   4.823   0.391 -0.2548 -0.8251  0.7444
    2TAL     C917434   3.119   4.873   0.247 -0.4268  0.4657  0.3752
    2TAL    C1017435   2.969   4.894   0.240 -1.0349 -0.3919 -0.0383
    3HTM    C1117436   3.482   4.319   0.624  0.3061  0.2813 -0.1754
    3HTM    C1217437   3.398   4.245   0.701  0.8250  0.1100  0.2396
    3HTM    C1317438   3.336   4.136   0.630  0.8565 -0.1440  0.5970
    3HTM    C1417439   3.373   4.127   0.500  0.3617 -0.1666  0.4546
    3HTM     S217440   3.490   4.257   0.455 -0.1867  0.1337 -0.1467
    4TAL    C1517441   3.222   4.049   0.690 -0.8685 -0.6000 -0.1144
    4TAL    C1617442   3.126   4.117   0.786  0.9923 -1.1466  0.3275
    4TAL    C1717443   3.009   4.025   0.831  0.4768  0.2276  0.2375
    4TAL    C1817444   2.912   3.976   0.718  0.4442  0.1665  0.5354
    4TAL    C1917445   2.798   4.076   0.707  0.0086 -0.7969  0.8651
    4TAL    C2017446   2.689   4.021   0.617  1.0500 -0.0664 -0.5148
    5HTM    C2117447   3.340   4.034   0.393 -0.6550 -0.1502 -0.3628
    5HTM    C2217448   3.216   4.018   0.339 -0.4525 -0.5687 -0.7177
    5HTM    C2317449   3.212   3.923   0.231  0.1106 -0.8374 -0.5133
    5HTM    C2417450   3.332   3.867   0.202  0.3374 -0.6236 -0.0023
    5HTM     S317451   3.462   3.930   0.310 -0.1463 -0.0619  0.2622
    6TAL    C2517452   3.092   3.873   0.165  0.8259 -0.0539 -0.0152
    6TAL    C2617453   2.959   3.909   0.239 -0.8745  0.2454 -0.0942
    6TAL    C2717454   2.830   3.877   0.156  0.1611 -0.0152 -0.1373
    6TAL    C2817455   2.719   3.884   0.254  1.2029  0.3475 -0.1305
    6TAL    C2917456   2.575   3.874   0.190 -0.4142 -0.2175  0.2527
    6TAL    C3017457   2.530   3.724   0.179 -0.1073 -0.3761  0.0342
    7HTM    C3117458   3.377   3.771   0.103 -0.0653  0.3679  0.3045
    7HTM    C3217459   3.324   3.648   0.080 -0.1681  0.3962  0.3910
    7HTM    C3317460   3.405   3.564  -0.005 -0.2331  0.2656  0.4568
    7HTM    C3417461   3.520   3.624  -0.047 -0.1797  0.1377  0.4202
    7HTM     S417462   3.535   3.792   0.018 -0.0423  0.1727  0.2991
    8TAL    C3517463   3.343   3.434  -0.058 -0.7495 -0.3679  0.7016
    8TAL    C3617464   3.190   3.420  -0.059  0.1791 -0.2626  0.8521
    8TAL    C3717465   3.141   3.281  -0.112 -0.1761  0.3200  0.2014
    8TAL    C3817466   2.999   3.254  -0.077  0.0725 -0.0573  0.3355
    8TAL    C3917467   2.904   3.356  -0.147  0.2041  0.6943  0.5471
    8TAL    C4017468   2.769   3.358  -0.071  0.7575 -0.2717 -0.0812
    9HTM    C4117469   3.630   3.578  -0.134  0.0208  0.5105 -0.1723
    9HTM    C4217470   3.618   3.516  -0.255  0.0224  0.5594 -0.1974
    9HTM    C4317471   3.738   3.516  -0.333  0.1616  0.1516  0.0148
    9HTM    C4417472   3.844   3.577  -0.272  0.2662 -0.2082  0.2015
    9HTM     S517473   3.798   3.641  -0.109  0.1964 -0.0588  0.1237
   10TAL    C4517474   3.759   3.452  -0.470 -1.3175  0.0841  0.6531
   10TAL    C4617475   3.708   3.309  -0.501  0.6276  0.0050 -0.4946
   10TAL    C4717476   3.766   3.194  -0.412 -0.3416 -0.2683 -0.2867
   10TAL    C4817477   3.729   3.072  -0.469 -0.2873  0.2147  0.0186
   10TAL    C4917478   3.817   2.946  -0.461 -0.0318  0.3780  1.3792
   10TAL    C5017479   3.813   2.886  -0.329  0.0451 -0.0349 -0.3174
   11HTM    C5117480   3.984   3.589  -0.307 -0.1500 -0.0284 -0.0056
   11HTM    C5217481   4.029   3.671  -0.406  0.0477  0.0604  0.1569
   11HTM    C5317482   4.171   3.695  -0.402  0.1169 -0.3404  0.1693
   11HTM    C5417483   4.235   3.631  -0.299 -0.0282 -0.7347  0.0165
   11HTM     S617484   4.119   3.535  -0.200 -0.2652 -0.6296 -0.1566
   12TAL    C5517485   4.237   3.791  -0.499 -0.9992 -0.3222  0.5640
   12TAL    C5617486   4.295   3.737  -0.634 -0.0773 -0.9599  0.8199
   12TAL    C5717487   4.205   3.668  -0.729  0.3837 -0.2805 -0.3554
   12TAL    C5817488   4.221   3.516  -0.713  0.4351 -1.5956 -0.3382
   12TAL    C5917489   4.149   3.440  -0.826  0.5680 -0.6755  0.3467
   12TAL    C6017490   4.118   3.296  -0.788 -0.3614  0.0840 -0.7616
   13HTM    C6117491   4.376   3.633  -0.260 -0.2604  0.1006 -0.5089
   13HTM    C6217492   4.419   3.573  -0.145 -0.7038 -0.2137 -0.5050
   13HTM    C6317493   4.556   3.601  -0.112 -0.8036 -0.3650  0.0629
   13HTM    C6417494   4.618   3.683  -0.202 -0.4365 -0.1660  0.4908
   13HTM     S717495   4.508   3.731  -0.336  0.0677  0.2309  0.2095
   14TAL    C6517496   4.630   3.544   0.013  0.1518 -0.4660  0.7095
   14TAL    C6617497   4.578   3.412   0.074  0.4104 -0.3927  0.4091
   14TAL    C6717498   4.626   3.286  -0.004  1.2600 -0.5566  0.4728
   14TAL    C6817499   4.602   3.162   0.077  0.7547 -0.5358  0.2668
   14TAL    C6917500   4.735   3.116   0.139 -0.1479 -0.6819  0.4967
   14TAL    C7017501   4.728   3.030   0.252  0.4408 -0.0761 -0.7641
   15HTM    C7117502   4.762   3.723  -0.193  0.2526 -1.1905  0.5829
   15HTM    C7217503   4.844   3.752  -0.088  0.3629 -1.1683  0.4907
   15HTM    C7317504   4.979   3.782  -0.127  0.1433 -0.4011  0.2713
   15HTM    C7417505   5.000   3.775  -0.262 -0.1347  0.1618  0.1962
   15HTM     S817506   4.850   3.732  -0.351 -0.1402 -0.2366  0.3980
   16TAL    C7517507   5.082   3.822  -0.027 -0.7145  0.0096 -0.3455
   16TAL    C7617508   5.049   3.941   0.065 -0.4256  0.5201 -0.7883
   16TAL    C7717509   5.136   3.916   0.200  0.4637 -0.1017  0.5506
   16TAL    C7817510   5.260   4.009   0.200  0.2421 -0.8841 -1.0012
   16TAL    C7917511   5.343   3.993   0.328 -0.5644 -0.2359 -0.7195
   16TAL    C8017512   5.390   3.852   0.366  0.7276  0.2698 -0.3276
   17HTM    C8117513   5.129   3.758  -0.337  0.1220  0.2899 -0.0438
   17HTM    C8217514   5.151   3.686  -0.451  0.0204  0.6929 -0.3247
   17HTM    C8317515   5.290   3.684  -0.492  0.0247  0.6239 -0.3076
   17HTM    C8417516   5.372   3.755  -0.409  0.1295  0.1683 -0.0135
   17HTM     S917517   5.281   3.830  -0.273  0.2318 -0.2118  0.2670
   18TAL    C8517518   5.334   3.577  -0.597 -0.0452 -0.3250  0.3890
   18TAL    C8617519   5.407   3.467  -0.525 -0.3878  1.2664 -0.1726
   18TAL    C8717520   5.507   3.366  -0.603 -0.5730 -0.3742 -0.0082
   18TAL    C8817521   5.460   3.319  -0.739  0.1504 -0.0735 -0.7756
   18TAL    C8917522   5.584   3.258  -0.806  1.2377  0.7445 -0.1064
   18TAL    C9017523   5.526   3.220  -0.944  0.4256 -0.3343 -0.0375
   19HTM    C9117524   5.515   3.767  -0.411 -0.4951  0.6965 -0.1941
   19HTM    C9217525   5.577   3.839  -0.508 -0.1733  0.5476 -0.1016
   19HTM    C9317526   5.694   3.909  -0.462  0.2156 -0.1231 -0.0377
   19HTM    C9417527   5.721   3.891  -0.330  0.1907 -0.4857 -0.0814
   19HTM    S1017528   5.599   3.782  -0.252 -0.3302 -0.0044 -0.2081
   20TAL    C9517529   5.776   3.992  -0.556  0.1874 -0.9382 -0.1815
   20TAL    C9617530   5.868   3.924  -0.654  0.3937 -0.1730  0.0363
   20TAL    C9717531   5.949   3.807  -0.591 -0.8473 -0.3884  0.7969
   20TAL    C9817532   6.055   3.733  -0.668 -0.1702  0.1681 -0.1780
   20TAL    C9917533   6.181   3.805  -0.676  0.4379 -0.3495  0.4426
   20TAL   C10017534   6.291   3.712  -0.721 -0.2091 -0.2930  0.2043
   21HTM   C10117535   5.815   3.952  -0.243 -0.4105 -0.2104 -0.5934
   21HTM   C10217536   5.784   3.991  -0.116 -0.3840 -0.7191 -0.4277
   21HTM   C10317537   5.894   4.050  -0.045 -0.4185 -0.8332 -0.2790
   21HTM   C10417538   6.010   4.056  -0.118 -0.4717 -0.4115 -0.3311
   21HTM    S1117539   5.988   3.988  -0.283 -0.4818  0.1670 -0.5741
   22TAL   C10517540   5.848   4.072   0.094  0.4251  0.3012  0.0584
   22TAL   C10617541   5.773   4.193   0.145  0.3577  0.6839  0.2921
   22TAL   C10717542   5.858   4.309   0.181 -1.4181 -0.6023 -0.1145
   22TAL   C10817543   5.771   4.409   0.265 -0.0990  0.0569  0.9438
   22TAL   C10917544   5.809   4.553   0.244 -0.5362 -0.7405  0.1645
   22TAL   C11017545   5.755   4.636   0.364  0.6395  0.0138  0.4004
   23HTM   C11117546   6.146   4.087  -0.067 -0.3232  0.1011  0.3525
   23HTM   C11217547   6.174   4.180   0.029 -0.2968  0.0237  0.4200
   23HTM   C11317548   6.315   4.206   0.044 -0.3024  0.1363  0.2831
   23HTM   C11417549   6.394   4.133  -0.040 -0.3333  0.2995  0.1115
   23HTM    S1217550   6.295   4.025  -0.146 -0.3575  0.3240  0.1096
   24TAL   C11517551   6.365   4.316   0.126  0.4596 -1.3866 -0.5166
   24TAL   C11617552   6.498   4.336   0.198 -0.2753  0.5136  0.6904
   24TAL   C11717553   6.512   4.466   0.263  1.3292 -0.1348 -0.2592
   24TAL   C11817554   6.647   4.519   0.299  0.2934 -0.8263 -0.2476
   24TAL   C11917555   6.723   4.429   0.397  0.5840  0.0443  0.3147
   24TAL   C12017556   6.853   4.489   0.445  0.3023 -0.1999  0.9459
   25HTM   C12117557   6.541   4.117  -0.060 -0.0145  0.4987 -0.6216
   25HTM   C12217558   6.620   4.030   0.010 -0.3728  0.5029 -0.1996
   25HTM   C12317559   6.758   4.033  -0.030 -0.2037  0.3296  0.3591
   25HTM   C12417560   6.785   4.122  -0.130  0.2836  0.1933  0.3628
   25HTM    S1317561   6.636   4.210  -0.181  0.5689  0.2739 -0.3446
   26TAL   C12517562   6.874   3.927   0.010 -0.5362 -1.0304  0.1831
   26TAL   C12617563   6.825   3.782   0.035 -0.1546 -0.1343  0.2944
   26TAL   C12717564   6.916   3.674   0.098 -0.0224  0.5648 -0.0360
   26TAL   C12817565   7.070   3.681   0.080  0.9172 -0.4623  0.8318
   26TAL   C12917566   7.121   3.695  -0.071 -0.0883  0.3096 -0.6039
   26TAL   C13017567   7.266   3.657  -0.100 -0.1519 -0.0133  0.2741
   27HTM   C13117568   6.902   4.148  -0.208 -0.3408  0.6720  0.1256
   27HTM   C13217569   6.905   4.182  -0.340 -0.3432  0.4600  0.0706
   27HTM   C13317570   7.038   4.204  -0.392 -0.3136 -0.0354 -0.0744
   27HTM   C13417571   7.136   4.187  -0.299 -0.2889 -0.2011 -0.1300
   27HTM    S1417572   7.068   4.142  -0.138 -0.3010  0.2592 -0.0024
   28TAL   C13517573   7.055   4.273  -0.522 -0.7369 -0.3064  0.4327
   28TAL   C13617574   6.972   4.215  -0.636 -0.6658  0.4885 -1.0044
   28TAL   C13717575   6.940   4.302  -0.750  1.0580 -0.5973  0.1106
   28TAL   C13817576   6.845   4.230  -0.854  0.2709 -0.1329 -0.7233
   28TAL   C13917577   6.865   4.288  -0.993  1.1247  0.3588 -0.3419
   28TAL   C14017578   6.771   4.222  -1.089  0.1494  0.3403  0.2585
   29HTM   C14117579   7.278   4.166  -0.325  0.1205 -0.4645  0.2367
   29HTM   C14217580   7.349   4.056  -0.289  0.0777 -0.7815 -0.5999
   29HTM   C14317581   7.479   4.048  -0.350 -0.1047 -0.6093 -1.0142
   29HTM   C14417582   7.507   4.153  -0.433 -0.2010 -0.1609 -0.4937
   29HTM    S1517583   7.370   4.270  -0.441 -0.0678  0.0802  0.5679
   30TAL   C14517584   7.565   3.933  -0.312 -0.3183  0.0005  0.4608
   30TAL   C14617585   7.634   3.930  -0.175 -0.0189 -0.4879  0.2245
   30TAL   C14717586   7.715   3.812  -0.147 -0.0200  0.0649 -0.1347
   30TAL   C14817587   7.804   3.832  -0.021  0.1160  0.1632  0.8455
   30TAL   C14917588   7.857   3.692   0.029  0.7013 -1.1283 -0.8264
   30TAL   C15017589   7.951   3.697   0.156  1.2710  0.5558  0.2627
   31HTM   C15117590   7.637   4.203  -0.497  0.0873 -0.0471 -0.4508
   31HTM   C15217591   7.697   4.326  -0.499 -0.3485  0.1621 -0.8068
   31HTM   C15317592   7.812   4.333  -0.585 -0.3923  0.3362 -0.8526
   31HTM   C15417593   7.841   4.216  -0.647  0.0101  0.2596 -0.5309
   31HTM    S1617594   7.724   4.086  -0.603  0.4793 -0.0407 -0.1429
   32TAL   C15517595   7.905   4.448  -0.592  0.6529 -0.1238 -0.1768
   32TAL   C15617596   8.002   4.443  -0.474 -0.6523  0.3596 -0.8981
   32TAL   C15717597   8.006   4.549  -0.376  0.5255 -0.6283 -0.0477
   32TAL   C15817598   8.056   4.496  -0.256 -0.6643 -0.7746 -0.3941
   32TAL   C15917599   8.003   4.591  -0.143 -0.3594  1.1352 -0.5852
   32TAL   C16017600   7.982   4.528  -0.012 -0.0842  0.2428 -0.0023
   33HTM   C16117601   7.946   4.182  -0.744 -0.4167 -0.2734 -0.3927
   33HTM   C16217602   7.994   4.055  -0.752  0.0453 -0.1010 -0.4020
   33HTM   C16317603   8.093   4.037  -0.855  0.3434  0.3359 -0.1984
   33HTM   C16417604   8.120   4.150  -0.926  0.1085  0.4965 -0.0338
   33HTM    S1717605   8.022   4.290  -0.867 -0.5121  0.1052 -0.1236
   34TAL   C16517606   8.161   3.904  -0.901 -0.3249  0.5248 -1.3384
   34TAL   C16617607   8.116   3.765  -0.833  0.6846 -0.6374  0.0350
   34TAL   C16717608   7.977   3.711  -0.872 -0.1318  0.2491 -0.1787
   34TAL   C16817609   7.928   3.676  -1.014  0.1158  0.2517  0.3339
   34TAL   C16917610   8.012   3.558  -1.072 -0.1307 -0.2771  0.1137
   34TAL   C17017611   8.032   3.517  -1.215  0.2235 -0.1179  0.3371
   35HTM   C17117612   8.217   4.181  -1.029 -0.3857  0.1074 -0.0177
   35HTM   C17217613   8.242   4.112  -1.144 -0.2348 -0.0455  0.1068
   35HTM   C17317614   8.328   4.182  -1.236 -0.0067 -0.2239  0.1817
   35HTM   C17417615   8.368   4.305  -1.192  0.0163 -0.2070  0.1147
   35HTM    S1817616   8.300   4.341  -1.029 -0.2504  0.0375 -0.0497
   36TAL   C17517617   8.389   4.118  -1.366  0.3258 -0.9851 -0.1450
   36TAL   C17617618   8.399   3.974  -1.395  0.5708  0.6216 -0.2445
   36TAL   C17717619   8.455   3.877  -1.302  0.2207 -0.4659 -0.6196
   36TAL   C17817620   8.569   3.904  -1.202 -0.2210 -0.1498 -0.7822
   36TAL   C17917621   8.701   3.960  -1.262 -0.3305 -0.5752 -0.1661
   36TAL   C18017622   8.804   3.924  -1.155  0.2641 -0.4845  0.3752
   37HTM   C18117623   8.450   4.412  -1.249 -0.9004  0.5029 -0.3913
   37HTM   C18217624   8.529   4.494  -1.174 -1.3792  0.7790 -0.1817
   37HTM   C18317625   8.609   4.585  -1.252 -0.9290  0.5382 -0.0057
   37HTM   C18417626   8.591   4.572  -1.386 -0.1069  0.0786 -0.0815
   37HTM    S1917627   8.471   4.443  -1.425  0.1645 -0.0870 -0.3833
   38TAL   C18517628   8.704   4.690  -1.210  0.4648 -0.3522 -0.0300
   38TAL   C18617629   8.740   4.693  -1.060  0.5968  0.3157  0.0806
   38TAL   C18717630   8.866   4.775  -1.003  0.9271  0.5965  0.3489
   38TAL   C18817631   8.998   4.773  -1.083  0.6950  0.7283  0.1124
   38TAL   C18917632   9.002   4.879  -1.188  0.1488 -0.4881 -0.3002
   38TAL   C19017633   9.123   4.915  -1.273 -0.3133  0.1928  0.7805
   39HTM   C19117634   8.640   4.650  -1.499 -0.3019 -0.3107 -0.1953
   39HTM   C19217635   8.634   4.785  -1.513  0.2498 -0.2030  0.5360
   39HTM   C19317636   8.705   4.836  -1.627  0.6880  0.1616  0.9618
   39HTM   C19417637   8.766   4.738  -1.701  0.4704  0.3324  0.5541
   39HTM    S2017638   8.737   4.574  -1.632 -0.3109  0.0433 -0.4065
   40TAL   C19517639   8.713   4.982  -1.651 -0.1403 -0.4983  0.2806
   40TAL   C19617640   8.607   5.089  -1.612  0.0214 -0.2173 -0.6428
   40TAL   C19717641   8.462   5.085  -1.661  0.5444 -0.2976  0.9835
   40TAL   C19817642   8.369   5.183  -1.586 -1.1775  0.2541  0.7726
   40TAL   C19917643   8.327   5.129  -1.446 -0.7883  0.8797  0.4685
   40TAL   C20017644   8.242   5.228  -1.377  0.6742 -0.1561  0.5177
   41HTM   C20117645   8.831   4.738  -1.832 -0.0576 -0.0146  0.4119
   41HTM   C20217646   8.858   4.622  -1.899 -0.6590 -0.1200  0.3486
   41HTM   C20317647   8.913   4.643  -2.030 -1.0524 -0.3349  0.1469
   41HTM   C20417648   8.929   4.774  -2.064 -0.7510 -0.3931  0.0562
   41HTM    S2117649   8.875   4.883  -1.931  0.0593 -0.1797  0.2197
   42TAL   C20517650   8.970   4.521  -2.097 -0.1104 -0.0849  0.5194
   42TAL   C20617651   9.123   4.482  -2.094  0.3470  0.7435 -0.8404
   42TAL   C20717652   9.159   4.339  -2.145  0.6337  0.3394 -0.2164
   42TAL   C20817653   9.308   4.317  -2.124  0.5608 -0.5294 -0.7576
   42TAL   C20917654   9.387   4.396  -2.222 -0.3702  1.0358  0.1281
   42TAL   C21017655   9.539   4.356  -2.241  0.7881  0.5389  0.3114
   43HTM   C21117656   8.966   4.834  -2.189  0.0209  0.2028  0.0651
   43HTM   C21217657   8.895   4.930  -2.254  0.4568  0.4078 -0.1206
   43HTM   C21317658   8.948   4.965  -2.383  0.7779  0.1197 -0.0672
   43HTM   C21417659   9.061   4.895  -2.416  0.5868 -0.3051  0.1582
   43HTM    S2217660   9.108   4.779  -2.286 -0.0181 -0.3749  0.3224
   44TAL   C21517661   8.878   5.075  -2.472 -0.0032  0.0648 -0.7057
   44TAL   C21617662   8.837   5.197  -2.399  0.8913 -0.0477  0.6756
   44TAL   C21717663   8.737   5.286  -2.487 -0.6329 -0.0992  0.0604
   44TAL   C21817664   8.612   5.230  -2.547  0.5778  0.7888 -0.0125
   44TAL   C21917665   8.517   5.174  -2.437  0.9461 -0.3562 -0.3456
   44TAL   C22017666   8.372   5.129  -2.471 -0.7086 -0.8639 -0.1718
   45HTM   C22117667   9.147   4.896  -2.534  0.3712 -0.1562  0.3555
   45HTM   C22217668   9.272   4.842  -2.539  0.3571 -0.1632  0.0267
   45HTM   C22317669   9.345   4.875  -2.659  0.0820 -0.0807 -0.1192
   45HTM   C22417670   9.275   4.953  -2.745 -0.1137 -0.0112  0.0993
   45HTM    S2317671   9.111   4.993  -2.682  0.0354 -0.0443  0.5085
   46TAL   C22517672   9.475   4.802  -2.690 -0.1160  0.3328  0.4970
   46TAL   C22617673   9.486   4.653  -2.690  0.4078 -0.3961 -0.6169
   46TAL   C22717674   9.629   4.610  -2.726  0.1500 -0.3697  0.1747
   46TAL   C22817675   9.611   4.476  -2.794 -0.3653  0.1032  0.3172
   46TAL   C22917676   9.711   4.421  -2.894  0.5151 -0.3126 -0.1811
   46TAL   C23017677   9.659   4.476  -3.033  0.7282 -0.1390 -0.0070
   47HTM   C23117678   9.315   4.988  -2.879  0.5738 -0.2295  0.5840
   47HTM   C23217679   9.228   5.011  -2.982  0.5549 -1.2518  0.3548
   47HTM   C23317680   9.291   5.063  -3.100  0.4036 -1.5801  0.1259
   47HTM   C23417681   9.426   5.081  -3.088  0.3070 -0.8081  0.1798
   47HTM    S2417682   9.484   5.032  -2.924  0.4005  0.4027  0.5279
   48TAL   C23517683   9.233   5.105  -3.236 -0.5421 -0.5246 -0.1924
   48TAL   C23617684   9.080   5.091  -3.255 -0.1327  1.3255  0.0755
   48TAL   C23717685   9.038   5.130  -3.393  0.6268 -0.0754  1.2633
   48TAL   C23817686   9.087   5.270  -3.440  0.7438 -0.4534 -0.0997
   48TAL   C23917687   8.997   5.394  -3.418  0.9814 -0.1615 -0.3819
   48TAL   C24017688   9.074   5.520  -3.473 -0.6741 -0.3060 -0.6552
    1HTM     C117689   5.102   7.187  15.273  0.3291 -0.0045 -0.2518
    1HTM     C217690   5.189   7.206  15.170 -0.1813 -0.0650 -0.7029
    1HTM     C317691   5.159   7.322  15.090 -0.6157 -0.1458 -0.6611
    1HTM     C417692   5.049   7.391  15.132 -0.4362 -0.1469 -0.1782
    1HTM     S117693   4.974   7.314  15.277  0.3008 -0.0451  0.2649
    2TAL     C517694   5.250   7.360  14.972  0.4113  1.0515 -0.6566
    2TAL     C617695   5.336   7.492  14.975 -0.2615  0.4132 -0.3686
    2TAL     C717696   5.369   7.529  14.832 -0.2418 -0.2852  0.2876
    2TAL     C817697   5.440   7.451  14.729  0.0093  0.1501  1.2646
    2TAL     C917698   5.457   7.534  14.603  0.1735  0.5462  0.2335
    2TAL    C1017699   5.571   7.639  14.596  1.0070  1.0545  0.1490
    3HTM    C1117700   4.961   7.485  15.063 -0.7068 -0.4515  1.2073
    3HTM    C1217701   4.981   7.612  15.018  0.0634 -0.5936  1.1168
    3HTM    C1317702   4.865   7.671  14.958  0.6440 -0.2179  0.3233
    3HTM    C1417703   4.756   7.589  14.957  0.3164  0.2107 -0.1908
    3HTM     S217704   4.793   7.429  15.032 -0.7589  0.1727  0.2910
    4TAL    C1517705   4.868   7.820  14.906  0.0035 -0.0718  0.7206
    4TAL    C1617706   4.970   7.925  14.967 -0.6877 -0.0679  0.4735
    4TAL    C1717707   5.113   7.880  14.934  0.0882 -0.2705  1.0053
    4TAL    C1817708   5.215   7.971  14.858  0.1546  0.7478 -0.2023
    4TAL    C1917709   5.355   7.911  14.845 -0.4603  0.3142 -0.4327
    4TAL    C2017710   5.420   7.991  14.738 -1.3224  0.0893 -0.2868
    5HTM    C2117711   4.620   7.600  14.927 -0.0955 -0.2366 -0.2718
    5HTM    C2217712   4.517   7.630  15.012 -0.1414 -0.6593 -0.1779
    5HTM    C2317713   4.389   7.640  14.947 -0.1984 -0.8863 -0.1059
    5HTM    C2417714   4.394   7.620  14.812 -0.1959 -0.6366 -0.1451
    5HTM     S317715   4.562   7.584  14.757 -0.1210 -0.0913 -0.2771
    6TAL    C2517716   4.266   7.692  15.035 -0.4231 -0.7425 -0.0238
    6TAL    C2617717   4.164   7.787  14.973  0.4142  0.6669  0.2776
    6TAL    C2717718   4.100   7.883  15.068  0.3141 -0.3821 -0.4442
    6TAL    C2817719   3.989   7.979  15.023 -0.1360 -0.5637 -0.1638
    6TAL    C2917720   3.937   8.052  15.148 -1.1732 -0.1137  1.2370
    6TAL    C3017721   3.838   8.165  15.127 -0.6063  0.4052  0.3507
    7HTM    C3117722   4.291   7.606  14.704  0.3524 -0.0126 -0.1664
    7HTM    C3217723   4.176   7.534  14.703  0.4545 -0.1828  0.1004
    7HTM    C3317724   4.096   7.554  14.585  0.1543 -0.3031  0.2811
    7HTM    C3417725   4.150   7.641  14.496 -0.1769 -0.2246  0.1519
    7HTM     S417726   4.308   7.706  14.555 -0.1351  0.0091 -0.2106
    8TAL    C3517727   3.948   7.500  14.588  0.4116 -0.0645 -0.2620
    8TAL    C3617728   3.828   7.557  14.667  0.1793  0.5360 -0.1561
    8TAL    C3717729   3.837   7.588  14.821  0.1060 -1.1643  0.4144
    8TAL    C3817730   3.707   7.667  14.854 -0.0096  0.2084 -0.0663
    8TAL    C3917731   3.662   7.673  15.001  0.4978 -0.7420  0.0396
    8TAL    C4017732   3.552   7.777  15.027 -0.3115 -0.4249  1.4111
    9HTM    C4117733   4.098   7.696  14.372  0.1043 -0.1680 -0.3768
    9HTM    C4217734   4.179   7.750  14.276  0.1639 -0.8994 -0.7467
    9HTM    C4317735   4.112   7.772  14.150  0.1488 -1.5297 -0.8557
    9HTM    C4417736   3.980   7.735  14.151  0.0777 -1.2789 -0.5690
    9HTM     S517737   3.931   7.669  14.311  0.0241 -0.2190 -0.1357
   10TAL    C4517738   4.197   7.842  14.047  0.4047  0.4783 -0.9211
   10TAL    C4617739   4.213   7.781  13.908  0.3793  0.1300  0.5678
   10TAL    C4717740   4.273   7.634  13.896  0.0897 -0.1262 -0.2866
   10TAL    C4817741   4.291   7.592  13.752  0.4161 -0.0182 -0.2048
   10TAL    C4917742   4.388   7.484  13.739 -0.6972  0.6077  0.4582
   10TAL    C5017743   4.456   7.490  13.603  0.2980 -0.6482 -0.2500
   11HTM    C5117744   3.872   7.755  14.057 -0.1055 -0.0824 -0.5802
   11HTM    C5217745   3.780   7.660  14.026 -0.0068 -0.0859 -0.8738
   11HTM    C5317746   3.684   7.701  13.927 -0.1478  0.1807 -0.6287
   11HTM    C5417747   3.703   7.829  13.882 -0.3538  0.3876 -0.1482
   11HTM     S617748   3.845   7.906  13.962 -0.3862  0.2607  0.0336
   12TAL    C5517749   3.564   7.622  13.880  0.6536 -0.9742 -0.2666
   12TAL    C5617750   3.577   7.493  13.807  0.1980  0.5184 -1.3852
   12TAL    C5717751   3.455   7.430  13.762  1.5760 -0.1382  0.4265
   12TAL    C5817752   3.332   7.422  13.860  0.0777  0.9552 -0.2485
   12TAL    C5917753   3.237   7.319  13.809 -0.1834  0.5233  0.7155
   12TAL    C6017754   3.109   7.278  13.879  0.6055  0.3955 -0.6942
   13HTM    C6117755   3.626   7.922  13.804 -0.3445  0.1892 -0.1868
   13HTM    C6217756   3.583   7.898  13.677 -0.9905  0.1719  0.0257
   13HTM    C6317757   3.538   8.015  13.607 -0.9897  0.2232  0.1113
   13HTM    C6417758   3.547   8.129  13.681 -0.3430  0.2797 -0.0354
   13HTM     S717759   3.612   8.097  13.846  0.3201  0.2724 -0.2955
   14TAL    C6517760   3.477   8.007  13.468 -0.1237 -0.1163 -0.4327
   14TAL    C6617761   3.453   7.872  13.389  0.1102  0.2406 -0.6830
   14TAL    C6717762   3.357   7.774  13.458  0.0759 -0.5933 -0.1707
   14TAL    C6817763   3.345   7.631  13.420  1.7157  0.2043  0.6540
   14TAL    C6917764   3.329   7.601  13.269 -0.4092 -1.9236  0.3959
   14TAL    C7017765   3.354   7.458  13.234  0.3980  0.0500 -0.6070
   15HTM    C7117766   3.506   8.269  13.653 -0.5725 -0.2694  0.1819
   15HTM    C7217767   3.595   8.372  13.662 -1.0820  0.0972  1.6763
   15HTM    C7317768   3.544   8.496  13.609 -1.1554  0.2359  2.0626
   15HTM    C7417769   3.417   8.488  13.560 -0.7017 -0.0249  0.8621
   15HTM     S817770   3.351   8.321  13.577 -0.1425 -0.4693 -0.8618
   16TAL    C7517771   3.632   8.623  13.601 -0.1294  0.9027 -0.4787
   16TAL    C7617772   3.764   8.615  13.521  0.5589  0.2148  0.0221
   16TAL    C7717773   3.809   8.752  13.489  0.0436  0.0247  0.5904
   16TAL    C7817774   3.937   8.781  13.418  0.0753 -1.0312 -0.6496
   16TAL    C7917775   3.994   8.925  13.438  0.4184 -0.2993  1.1479
   16TAL    C8017776   4.094   8.965  13.328  0.3652  0.0938  0.2970
   17HTM    C8117777   3.328   8.591  13.501  0.1132 -0.2800 -0.5595
   17HTM    C8217778   3.330   8.666  13.387  0.0414  0.0920 -0.3207
   17HTM    C8317779   3.208   8.738  13.362  0.0844  0.3051  0.0744
   17HTM    C8417780   3.112   8.718  13.457  0.1890  0.0957  0.1373
   17HTM     S917781   3.170   8.606  13.587  0.2418 -0.3909 -0.3012
   18TAL    C8517782   3.183   8.827  13.233  0.7807  0.2269 -0.4089
   18TAL    C8617783   3.289   8.910  13.170 -0.3479  1.1170  0.0839
   18TAL    C8717784   3.260   8.969  13.030 -0.7117 -0.3059 -0.4353
   18TAL    C8817785   3.360   9.024  12.935 -0.0408  1.1931  1.2145
   18TAL    C8917786   3.495   9.053  12.979  0.7443 -1.2926 -0.6128
   18TAL    C9017787   3.620   9.064  12.897 -0.1696  0.1603  0.0190
   19HTM    C9117788   2.981   8.779  13.465  0.2003  0.0665 -0.4801
   19HTM    C9217789   2.925   8.847  13.570  0.2733 -0.0043 -0.3943
   19HTM    C9317790   2.790   8.889  13.545  0.2232 -0.0710 -0.2332
   19HTM    C9417791   2.742   8.853  13.423  0.1121 -0.0511 -0.1956
   19HTM    S1017792   2.865   8.763  13.328  0.0615  0.0543 -0.3627
   20TAL    C9517793   2.718   8.973  13.660 -0.5144 -0.7682  0.4384
   20TAL    C9617794   2.782   8.994  13.801 -0.2226 -0.4982 -0.3972
   20TAL    C9717795   2.917   9.066  13.823  1.3953 -0.4507  1.1487
   20TAL    C9817796   2.932   9.209  13.776  0.3186 -0.2810  1.3617
   20TAL    C9917797   2.816   9.307  13.811  0.0773  0.1998  0.7333
   20TAL   C10017798   2.787   9.342  13.960 -0.3192  0.3057  0.5158
   21HTM   C10117799   2.607   8.867  13.370 -0.0205 -0.0658  0.0487
   21HTM   C10217800   2.484   8.884  13.427 -0.0266  0.1681 -0.0293
   21HTM   C10317801   2.377   8.898  13.332  0.0474  0.2665 -0.0978
   21HTM   C10417802   2.418   8.893  13.202  0.1101  0.1077 -0.0720
   21HTM    S1117803   2.597   8.869  13.190  0.0800 -0.1807  0.0418
   22TAL   C10517804   2.233   8.909  13.374  0.5220  1.0413 -1.0216
   22TAL   C10617805   2.195   8.986  13.510 -0.7248  0.6366  1.1440
   22TAL   C10717806   2.140   8.908  13.623  0.0703 -0.5865 -0.2260
   22TAL   C10817807   2.104   8.971  13.756  0.1119 -0.0057  0.5140
   22TAL   C10917808   2.016   9.099  13.743  0.6658 -0.1264  0.1840
   22TAL   C11017809   1.931   9.122  13.865  0.6651  0.8146 -0.0038
   23HTM   C11117810   2.330   8.899  13.086  0.1331  0.0941 -0.0299
   23HTM   C11217811   2.231   8.992  13.068  0.1038  0.1242  0.2728
   23HTM   C11317812   2.157   8.975  12.946  0.0348  0.4320  0.2692
   23HTM   C11417813   2.199   8.869  12.871  0.0116  0.6365 -0.0359
   23HTM    S1217814   2.336   8.782  12.949  0.0755  0.4548 -0.3452
   24TAL   C11517815   2.044   9.064  12.897  0.3441  0.0972 -0.5618
   24TAL   C11617816   1.969   9.164  12.987  0.9443 -0.1033  0.6886
   24TAL   C11717817   1.843   9.233  12.932  0.6803  0.1943  0.2010
   24TAL   C11817818   1.773   9.344  13.014  0.8502  0.2852 -0.2123
   24TAL   C11917819   1.835   9.479  13.042  0.2674 -0.2924 -0.7851
   24TAL   C12017820   1.738   9.579  13.116  1.2559  0.7518  0.4979
   25HTM   C12117821   2.159   8.811  12.741  0.2779 -0.3022  0.6640
   25HTM   C12217822   2.037   8.803  12.680  0.0765 -0.4046  1.0681
   25HTM   C12317823   2.032   8.706  12.574 -0.1569 -0.3176  0.9983
   25HTM   C12417824   2.150   8.640  12.554 -0.1333 -0.1488  0.5411
   25HTM    S1317825   2.277   8.696  12.669  0.1879 -0.0862  0.1598
   26TAL   C12517826   1.904   8.666  12.496 -0.9473  0.4136  0.4754
   26TAL   C12617827   1.787   8.629  12.576 -0.3595 -0.3009 -1.1081
   26TAL   C12717828   1.730   8.714  12.689 -0.2446  0.9246 -0.2627
   26TAL   C12817829   1.695   8.856  12.646 -1.4965 -0.6685 -0.1334
   26TAL   C12917830   1.608   8.932  12.748 -0.6845  0.3798 -0.6540
   26TAL   C13017831   1.541   9.041  12.672  0.5025 -0.3448  0.9122
   27HTM   C13117832   2.190   8.539  12.454  0.1841  0.3018 -0.2525
   27HTM   C13217833   2.313   8.480  12.448  0.1184  0.1454 -0.0827
   27HTM   C13317834   2.327   8.384  12.342  0.0084 -0.1891  0.2005
   27HTM   C13417835   2.214   8.370  12.266 -0.0097 -0.2878  0.2467
   27HTM    S1417836   2.081   8.477  12.324  0.1116  0.0367 -0.0667
   28TAL   C13517837   2.464   8.305  12.328 -0.3629  0.0097 -0.4851
   28TAL   C13617838   2.592   8.376  12.371 -0.9813  0.3305  0.1570
   28TAL   C13717839   2.722   8.298  12.340  0.3654  0.5584  0.4936
   28TAL   C13817840   2.836   8.384  12.368  0.8185 -0.0445 -0.9601
   28TAL   C13917841   2.962   8.318  12.312  1.0160  0.0992 -0.0527
   28TAL   C14017842   3.102   8.350  12.375  0.0435 -0.3736 -1.0294
   29HTM   C14117843   2.184   8.291  12.150  0.1499  0.3338 -0.0586
   29HTM   C14217844   2.099   8.327  12.051  0.5014  0.4190 -0.3364
   29HTM   C14317845   2.103   8.242  11.935  0.5671  0.2303 -0.1950
   29HTM   C14417846   2.193   8.140  11.946  0.2657  0.0013  0.1902
   29HTM    S1517847   2.279   8.144  12.105 -0.1275  0.0061  0.4059
   30TAL   C14517848   2.025   8.280  11.805 -0.2478 -1.5100 -0.3053
   30TAL   C14617849   1.900   8.202  11.773  0.9104 -0.0799  0.0212
   30TAL   C14717850   1.825   8.238  11.646  1.2125  0.1401  0.2771
   30TAL   C14817851   1.704   8.145  11.602 -0.2264  0.7264  0.0757
   30TAL   C14917852   1.719   7.991  11.607 -0.4863 -0.0902 -0.1976
   30TAL   C15017853   1.803   7.943  11.480 -0.8622  0.4710 -0.0628
   31HTM   C15117854   2.242   8.041  11.848  0.9072  0.5837  0.4196
   31HTM   C15217855   2.250   8.058  11.713  0.7132  0.7819  0.4334
   31HTM   C15317856   2.311   7.948  11.644  0.2425  0.7048  0.1361
   31HTM   C15417857   2.349   7.846  11.726  0.0777  0.4477 -0.1038
   31HTM    S1617858   2.311   7.882  11.898  0.5075  0.2818  0.0278
   32TAL   C15517859   2.318   7.955  11.488 -0.1857 -0.2911 -0.2522
   32TAL   C15617860   2.299   7.835  11.406  0.5220  0.4405  0.2885
   32TAL   C15717861   2.356   7.833  11.263  0.3499  0.1747  0.8563
   32TAL   C15817862   2.330   7.694  11.204 -0.2330 -1.1551 -1.1135
   32TAL   C15917863   2.430   7.694  11.091 -0.2851  0.3370  0.4824
   32TAL   C16017864   2.464   7.556  11.064  0.0858  0.3599 -0.3698
   33HTM   C16117865   2.408   7.716  11.686 -0.5575 -0.5967 -0.4799
   33HTM   C16217866   2.354   7.592  11.700 -0.0147 -0.8177 -0.2940
   33HTM   C16317867   2.439   7.486  11.651  0.4413 -0.5204 -0.1547
   33HTM   C16417868   2.558   7.530  11.601  0.2461 -0.0727 -0.2341
   33HTM    S1717869   2.571   7.710  11.611 -0.5348  0.0088 -0.4936
   34TAL   C16517870   2.398   7.345  11.672 -0.0339 -0.3351  0.7363
   34TAL   C16617871   2.287   7.273  11.591  0.1748 -0.7296 -0.0536
   34TAL   C16717872   2.269   7.299  11.443  0.2432 -0.4188  0.0258
   34TAL   C16817873   2.380   7.272  11.343 -0.8617 -1.1796  0.1949
   34TAL   C16917874   2.457   7.140  11.340  0.8310 -0.6632 -0.9731
   34TAL   C17017875   2.565   7.120  11.238  0.7425 -0.1309  0.1375
   35HTM   C17117876   2.668   7.447  11.548  0.0643  0.4088 -0.1253
   35HTM   C17217877   2.707   7.320  11.580 -0.0629  0.4442  0.1748
   35HTM   C17317878   2.807   7.266  11.491 -0.2686  0.0564  0.1771
   35HTM   C17417879   2.844   7.351  11.392 -0.2983 -0.2748 -0.1214
   35HTM    S1817880   2.755   7.508  11.402 -0.0669 -0.1213 -0.4309
   36TAL   C17517881   2.879   7.128  11.499 -0.0667  0.0533  0.1303
   36TAL   C17617882   2.796   7.002  11.528 -0.9750  0.1720  0.0660
   36TAL   C17717883   2.778   6.982  11.675 -0.1492  0.9271  0.7231
   36TAL   C17817884   2.755   6.835  11.703 -0.2977  0.5744  1.2208
   36TAL   C17917885   2.711   6.799  11.843  0.2008  0.4186  0.7374
   36TAL   C18017886   2.835   6.817  11.939 -0.4276  0.6346  0.4071
   37HTM   C18117887   2.944   7.347  11.272 -0.2046  0.4157 -0.4287
   37HTM   C18217888   2.971   7.231  11.206 -0.2240  0.3722 -0.3614
   37HTM   C18317889   3.065   7.247  11.098  0.1422  0.2072 -0.0737
   37HTM   C18417890   3.109   7.375  11.081  0.4407  0.1250  0.0781
   37HTM    S1917891   3.035   7.486  11.203  0.2813  0.2505 -0.1323
   38TAL   C18517892   3.117   7.126  11.032  0.7727 -0.0799  1.1205
   38TAL   C18617893   3.227   7.031  11.094 -1.1937 -1.1963  0.2154
   38TAL   C18717894   3.198   6.889  11.067 -1.1072  0.0492 -0.8309
   38TAL   C18817895   3.308   6.781  11.091  0.4278 -0.9417  0.1440
   38TAL   C18917896   3.454   6.819  11.060 -0.2808 -0.7743  0.5859
   38TAL   C19017897   3.534   6.696  11.068  0.8464  0.2606  0.0196
   39HTM   C19117898   3.191   7.435  10.970  0.0490 -0.1500  0.1634
   39HTM   C19217899   3.207   7.569  10.959 -0.4067 -0.1181 -0.1562
   39HTM   C19317900   3.277   7.609  10.839 -0.5459 -0.1630 -0.2527
   39HTM   C19417901   3.314   7.504  10.760 -0.1961 -0.2291 -0.0073
   39HTM    S2017902   3.263   7.346  10.831  0.3401 -0.2400  0.3682
   40TAL   C19517903   3.327   7.754  10.831  0.6657 -0.1561  0.6565
   40TAL   C19617904   3.373   7.820  10.959  0.6582 -0.3940  0.6319
   40TAL   C19717905   3.513   7.822  11.013 -0.1863 -0.6455  0.3527
   40TAL   C19817906   3.578   7.691  11.029 -0.4387  1.0973 -0.0166
   40TAL   C19917907   3.729   7.681  10.994  0.1506 -0.8925 -0.2604
   40TAL   C20017908   3.842   7.765  11.076 -0.3116 -0.1661  0.3682
   41HTM   C20117909   3.382   7.488  10.638  0.2821  0.5127  0.0748
   41HTM   C20217910   3.485   7.405  10.602  0.1507  0.3339  0.1066
   41HTM   C20317911   3.500   7.391  10.459  0.0019  0.0944  0.1137
   41HTM   C20417912   3.409   7.463  10.387  0.0197  0.0905  0.0874
   41HTM    S2117913   3.296   7.554  10.494  0.2276  0.3915  0.0511
   42TAL   C20517914   3.626   7.314  10.407  0.1345  0.5312  0.2675
   42TAL   C20617915   3.755   7.340  10.488  0.0011  0.1046 -0.0497
   42TAL   C20717916   3.859   7.227  10.462 -0.0912  0.9065  0.6895
   42TAL   C20817917   4.004   7.234  10.498 -0.5050 -0.4833 -1.0112
   42TAL   C20917918   4.034   7.288  10.643 -0.3885  0.2461  0.5341
   42TAL   C21017919   4.176   7.259  10.677 -0.2998 -0.0833  0.4263
   43HTM   C21117920   3.394   7.466  10.245  0.0148  0.0210 -0.3143
   43HTM   C21217921   3.466   7.422  10.138  0.0924  0.1758 -0.3269
   43HTM   C21317922   3.401   7.443  10.012  0.1131  0.2143 -0.3312
   43HTM   C21417923   3.280   7.503  10.022  0.0512  0.0889 -0.3218
   43HTM    S2217924   3.237   7.539  10.193 -0.0388 -0.0890 -0.3065
   44TAL   C21517925   3.454   7.405   9.879 -0.4455 -0.9756 -0.5105
   44TAL   C21617926   3.518   7.278   9.870 -0.8529  0.3846 -0.4898
   44TAL   C21717927   3.463   7.181   9.769 -0.5650 -0.4446  0.3383
   44TAL   C21817928   3.339   7.106   9.811  0.3396 -0.1997  0.8515
   44TAL   C21917929   3.295   6.991   9.724  0.6433  0.0870 -1.2527
   44TAL   C22017930   3.175   6.911   9.783  0.4694 -0.2355  0.7601
   45HTM   C22117931   3.179   7.535   9.919  0.3498  0.0989  0.2312
   45HTM   C22217932   3.183   7.561   9.785  0.2263 -0.2616  0.1543
   45HTM   C22317933   3.057   7.602   9.730  0.0978 -0.7299  0.0901
   45HTM   C22417934   2.956   7.608   9.821  0.1232 -0.7264  0.1184
   45HTM    S2317935   3.013   7.561   9.986  0.3131 -0.1268  0.2285
   46TAL   C22517936   3.059   7.664   9.590 -0.8688  0.1509  0.7778
   46TAL   C22617937   3.134   7.803   9.577  0.5162 -0.5226 -0.5985
   46TAL   C22717938   3.068   7.915   9.637 -1.3924 -1.2463 -0.0978
   46TAL   C22817939   3.000   8.006   9.527  0.0022  0.0271 -0.6645
   46TAL   C22917940   3.082   8.077   9.414 -0.7291 -0.4377  0.1144
   46TAL   C23017941   3.099   7.988   9.287  0.8361 -0.0051 -0.2683
   47HTM   C23117942   2.811   7.618   9.802 -0.2186 -0.2231 -0.3691
   47HTM   C23217943   2.732   7.675   9.706 -0.1946 -0.8055 -0.7467
   47HTM   C23317944   2.592   7.646   9.722 -0.1895 -0.7810 -0.6549
   47HTM   C23417945   2.564   7.567   9.829 -0.2097 -0.1799 -0.2071
   47HTM    S2417946   2.713   7.523   9.920 -0.2368  0.4063  0.1363
   48TAL   C23517947   2.496   7.690   9.615 -0.4996 -0.3527  1.1957
   48TAL   C23617948   2.360   7.728   9.670 -0.6731 -0.0119 -0.6254
   48TAL   C23717949   2.258   7.797   9.585 -0.8676 -0.5183  1.4181
   48TAL   C23817950   2.126   7.871   9.637  0.4274 -0.5850  0.1016
   48TAL   C23917951   2.028   7.802   9.724  0.0542 -0.6389  0.5776
   48TAL   C24017952   1.910   7.888   9.771  0.2106  0.1157 -0.8837
    1HTM     C117953   3.426   5.286   3.887  0.8359 -0.4332  0.3876
    1HTM     C217954   3.296   5.246   3.885  0.9239 -0.7234 -0.3676
    1HTM     C317955   3.239   5.229   4.017  0.0510 -0.3361 -0.6822
    1HTM     C417956   3.325   5.255   4.118 -0.7024  0.2494 -0.1673
    1HTM     S117957   3.488   5.304   4.056 -0.3655  0.3579  0.7624
    2TAL     C517958   3.093   5.194   4.019  0.0532 -0.0341  0.3009
    2TAL     C617959   2.993   5.312   4.029 -0.8918  0.3217  0.1742
    2TAL     C717960   3.044   5.452   4.018  0.4105  0.1142  0.0267
    2TAL     C817961   3.074   5.503   3.868 -0.4355  0.0920 -0.2490
    2TAL     C917962   2.976   5.453   3.761  0.8755  0.5484 -0.1864
    2TAL    C1017963   3.000   5.512   3.622 -0.1571 -0.6154  0.2012
    3HTM    C1117964   3.307   5.246   4.267 -0.0572 -0.6545 -0.0781
    3HTM    C1217965   3.406   5.211   4.354 -0.0667 -0.9571 -0.1854
    3HTM    C1317966   3.358   5.184   4.487  0.0232 -0.5703 -0.0732
    3HTM    C1417967   3.224   5.199   4.502  0.1012  0.0273  0.1196
    3HTM     S217968   3.145   5.247   4.347  0.0671  0.1490  0.1748
    4TAL    C1517969   3.446   5.160   4.607 -0.2812  0.4974 -0.0740
    4TAL    C1617970   3.478   5.261   4.704 -1.3600 -0.5842 -0.2350
    4TAL    C1717971   3.575   5.228   4.820  0.5686  0.0518 -0.4150
    4TAL    C1817972   3.613   5.361   4.891 -0.6289 -0.3569 -1.5945
    4TAL    C1917973   3.714   5.455   4.822 -0.8600 -0.7663  0.3784
    4TAL    C2017974   3.852   5.396   4.800  0.1845 -0.0747  0.0015
    5HTM    C2117975   3.135   5.189   4.614 -0.0009 -0.4876 -0.2209
    5HTM    C2217976   3.129   5.265   4.727  0.3898 -0.4934 -0.1947
    5HTM    C2317977   3.028   5.222   4.820  0.5553 -0.3560  0.0496
    5HTM    C2417978   2.957   5.114   4.778  0.2907 -0.2452  0.2093
    5HTM     S317979   3.012   5.057   4.616 -0.1916 -0.3065  0.0630
    6TAL    C2517980   2.971   5.301   4.940  1.0800  0.0756 -0.2236
    6TAL    C2617981   2.908   5.450   4.933 -0.1313  0.5975 -0.2648
    6TAL    C2717982   2.800   5.458   4.833 -0.1994 -0.2774 -0.2183
    6TAL    C2817983   2.654   5.436   4.867 -0.4106 -0.5808 -0.3652
    6TAL    C2917984   2.578   5.396   4.740 -0.1468 -0.3003 -1.0304
    6TAL    C3017985   2.421   5.372   4.766  0.3498  0.1963  0.7029
    7HTM    C3117986   2.852   5.029   4.837  0.0325  0.6129 -0.8510
    7HTM    C3217987   2.825   5.021   4.970  0.1689  0.8621 -0.8085
    7HTM    C3317988   2.733   4.916   5.005  0.5407  0.6460 -0.4677
    7HTM    C3417989   2.690   4.843   4.899  0.6878  0.2320 -0.2502
    7HTM     S417990   2.762   4.903   4.744  0.3656  0.0819 -0.4607
    8TAL    C3517991   2.671   4.904   5.151  0.1176 -0.7938 -0.1334
    8TAL    C3617992   2.732   4.958   5.289  0.7918  0.1746  0.0621
    8TAL    C3717993   2.759   5.106   5.302  0.0991 -0.6965 -0.0543
    8TAL    C3817994   2.644   5.200   5.290 -0.2597 -0.3000 -0.1887
    8TAL    C3917995   2.509   5.163   5.351  0.9051 -0.1411 -0.3311
    8TAL    C4017996   2.503   5.116   5.505 -0.5188  0.0742  0.2496
    9HTM    C4117997   2.612   4.715   4.903  0.2498 -0.1081 -0.3945
    9HTM    C4217998   2.488   4.699   4.851 -0.1019  0.1329  0.3430
    9HTM    C4317999   2.427   4.573   4.884 -0.1194  0.2147  0.6311
    9HTM    C4418000   2.505   4.492   4.961  0.2190  0.0361  0.1131
    9HTM     S518001   2.663   4.571   4.999  0.5888 -0.2515 -0.7853
   10TAL    C4518002   2.292   4.531   4.827 -0.2012 -0.7305  0.5961
   10TAL    C4618003   2.211   4.622   4.732  0.3985  0.3338 -0.3124
   10TAL    C4718004   2.075   4.572   4.692  0.4718 -0.4692 -0.5928
   10TAL    C4818005   2.037   4.629   4.563  1.5246 -1.0107 -0.4657
   10TAL    C4918006   1.913   4.576   4.486 -0.5301  0.7141 -0.4984
   10TAL    C5018007   1.902   4.422   4.481  0.4836  0.1519  0.9117
   11HTM    C5118008   2.474   4.375   5.043  0.3953  0.6213  0.7241
   11HTM    C5218009   2.350   4.323   5.067  0.2563  1.1504  1.2149
   11HTM    C5318010   2.352   4.201   5.142  0.0420  1.0856  1.1177
   11HTM    C5418011   2.477   4.159   5.177  0.0176  0.5075  0.5531
   11HTM     S618012   2.603   4.273   5.116  0.2654 -0.0041  0.0966
   12TAL    C5518013   2.224   4.112   5.158  0.9251  0.6637  1.0969
   12TAL    C5618014   2.183   4.024   5.041 -0.6466 -1.0172 -0.4631
   12TAL    C5718015   2.294   3.914   5.021  0.0438 -0.3269 -0.7584
   12TAL    C5818016   2.270   3.829   4.896 -0.5847 -1.1243  0.5627
   12TAL    C5918017   2.152   3.742   4.868 -0.1576 -0.6843 -0.6503
   12TAL    C6018018   2.162   3.667   4.739 -0.0954 -0.1911  0.1556
   13HTM    C6118019   2.519   4.067   5.277 -0.3995 -0.0354  0.2847
   13HTM    C6218020   2.586   3.948   5.265 -0.3838  0.0110 -0.1287
   13HTM    C6318021   2.612   3.884   5.391  0.1062 -0.1590 -0.3110
   13HTM    C6418022   2.565   3.953   5.499  0.4643 -0.3348 -0.0367
   13HTM     S718023   2.483   4.106   5.449  0.2083 -0.2995  0.4773
   14TAL    C6518024   2.667   3.738   5.389  0.2796  0.1644 -0.6957
   14TAL    C6618025   2.807   3.717   5.319  0.0785 -0.5035  1.1266
   14TAL    C6718026   2.927   3.806   5.354 -0.3452 -0.1343 -0.1630
   14TAL    C6818027   3.042   3.777   5.256  0.3564  0.0277  0.0979
   14TAL    C6918028   3.160   3.875   5.257 -0.1043  0.7767  0.5031
   14TAL    C7018029   3.270   3.831   5.153  0.4182  0.3424  0.0486
   15HTM    C7118030   2.560   3.930   5.644 -0.0440  0.0757 -0.1994
   15HTM    C7218031   2.564   4.026   5.741  0.0331  0.0271 -0.1539
   15HTM    C7318032   2.567   3.974   5.875  0.1997 -0.0414 -0.1836
   15HTM    C7418033   2.565   3.838   5.880  0.2495 -0.0451 -0.2518
   15HTM     S818034   2.559   3.765   5.716  0.0887  0.0383 -0.2840
   16TAL    C7518035   2.558   4.075   5.990  0.5121 -0.8840  0.7379
   16TAL    C7618036   2.626   4.211   5.991  0.1900  0.3670  0.5536
   16TAL    C7718037   2.706   4.241   6.110 -1.0352 -0.2071 -0.3233
   16TAL    C7818038   2.838   4.152   6.147  1.5463  0.2335 -0.4152
   16TAL    C7918039   2.949   4.145   6.060 -0.3231 -0.5649  0.2439
   16TAL    C8018040   3.079   4.138   6.142  0.3151 -0.7472  0.5115
   17HTM    C8118041   2.563   3.747   5.994  0.3210 -0.6790  0.2241
   17HTM    C8218042   2.628   3.761   6.114  0.8778 -1.3642  0.0156
   17HTM    C8318043   2.595   3.659   6.209  0.8516 -1.5663 -0.2071
   17HTM    C8418044   2.505   3.567   6.163  0.2748 -1.0352 -0.1684
   17HTM     S918045   2.455   3.603   5.994 -0.2844 -0.2324  0.1548
   18TAL    C8518046   2.655   3.658   6.341  0.4358 -0.6627 -0.6310
   18TAL    C8618047   2.707   3.795   6.414  0.9618 -0.1740  0.6703
   18TAL    C8718048   2.610   3.912   6.443 -0.2336 -0.0774  0.3816
   18TAL    C8818049   2.675   4.039   6.508  1.0758 -0.7844  0.2178
   18TAL    C8918050   2.721   4.031   6.661  0.3432 -0.4404 -0.2147
   18TAL    C9018051   2.787   4.169   6.673 -0.8759 -0.2218 -0.7900
   19HTM    C9118052   2.436   3.455   6.226 -0.2386  0.0750 -0.1059
   19HTM    C9218053   2.411   3.437   6.359  0.0740  0.1428 -0.0360
   19HTM    C9318054   2.329   3.322   6.387  0.5647 -0.1454  0.2594
   19HTM    C9418055   2.291   3.253   6.276  0.6262 -0.4330  0.4150
   19HTM    S1018056   2.357   3.328   6.126  0.0650 -0.3615  0.1990
   20TAL    C9518057   2.304   3.276   6.533 -0.4561 -0.2216  0.5458
   20TAL    C9618058   2.360   3.361   6.641 -0.0406  0.6191 -0.6899
   20TAL    C9718059   2.509   3.386   6.667 -0.0186 -0.3191  0.9114
   20TAL    C9818060   2.608   3.275   6.638  0.1594  0.4372 -0.0918
   20TAL    C9918061   2.756   3.305   6.650  0.7915 -0.0883  0.3815
   20TAL   C10018062   2.828   3.179   6.618 -0.6477 -0.5621  0.4548
   21HTM   C10118063   2.220   3.127   6.275 -0.1017 -0.4102 -0.3413
   21HTM   C10218064   2.122   3.086   6.189 -0.0665 -0.5037 -0.3376
   21HTM   C10318065   2.076   2.952   6.214 -0.2162 -0.4073 -0.0848
   21HTM   C10418066   2.138   2.890   6.318 -0.3656 -0.2401  0.1043
   21HTM    S1118067   2.261   2.998   6.395 -0.3285 -0.1912 -0.0234
   22TAL   C10518068   1.973   2.882   6.126 -0.1450  0.4509 -0.4075
   22TAL   C10618069   1.880   2.986   6.048 -0.1099 -0.5720  0.1322
   22TAL   C10718070   1.811   2.919   5.926  0.6465  0.2927 -0.3326
   22TAL   C10818071   1.711   3.021   5.856 -0.6266 -0.2154 -0.5189
   22TAL   C10918072   1.648   2.967   5.742  0.1579  0.6692  0.1408
   22TAL   C11018073   1.507   3.014   5.713 -0.8488 -0.5321  0.5343
   23HTM   C11118074   2.127   2.761   6.374  0.3620 -0.1398  0.0602
   23HTM   C11218075   2.169   2.728   6.500 -0.0269 -0.1202  0.1990
   23HTM   C11318076   2.150   2.590   6.533 -0.0700 -0.1287  0.1397
   23HTM   C11418077   2.094   2.516   6.433  0.2859 -0.1548 -0.0443
   23HTM    S1218078   2.060   2.618   6.288  0.7067 -0.1709 -0.1578
   24TAL   C11518079   2.198   2.525   6.664  0.1652 -1.2523 -0.2220
   24TAL   C11618080   2.267   2.615   6.774 -0.2882  0.4926  0.5846
   24TAL   C11718081   2.207   2.606   6.915 -0.1388  0.4921  0.7587
   24TAL   C11818082   2.284   2.671   7.035  0.2791  0.1290 -0.0219
   24TAL   C11918083   2.253   2.621   7.181 -0.2328  0.2122  0.0729
   24TAL   C12018084   2.291   2.478   7.193  0.0145 -0.5087 -0.4672
   25HTM   C12118085   2.061   2.374   6.427  0.7050  0.1405  0.2242
   25HTM   C12218086   1.990   2.318   6.325  0.8604  0.3548 -0.0050
   25HTM   C12318087   1.947   2.183   6.353  0.5981  0.3865 -0.2526
   25HTM   C12418088   1.985   2.137   6.475  0.2429  0.1963 -0.2119
   25HTM    S1318089   2.079   2.261   6.567  0.2117 -0.0393  0.1449
   26TAL   C12518090   1.878   2.092   6.246  1.5097  0.2488  0.5534
   26TAL   C12618091   1.764   2.160   6.158  0.5332  1.4688 -0.8790
   26TAL   C12718092   1.630   2.164   6.223  0.2432  0.4280  0.3216
   26TAL   C12818093   1.516   2.238   6.149 -1.0971 -0.4891 -0.1007
   26TAL   C12918094   1.388   2.270   6.231 -0.4843  0.6531  0.3415
   26TAL   C13018095   1.310   2.155   6.281  1.0292 -0.1494 -0.9180
   27HTM   C13118096   1.965   2.000   6.535 -0.2311  0.1204 -0.5504
   27HTM   C13218097   1.843   1.946   6.562 -0.1966  0.0933 -0.4478
   27HTM   C13318098   1.849   1.810   6.609 -0.1160  0.1523 -0.2874
   27HTM   C13418099   1.976   1.761   6.618 -0.0892  0.2244 -0.2679
   27HTM    S1418100   2.098   1.883   6.567 -0.1642  0.2233 -0.4519
   28TAL   C13518101   1.733   1.717   6.631  0.6744 -0.5434 -1.3882
   28TAL   C13618102   1.686   1.638   6.505 -0.6770 -0.1459 -0.1114
   28TAL   C13718103   1.615   1.720   6.389  0.0524  0.9532  0.0383
   28TAL   C13818104   1.529   1.642   6.292  0.0237 -0.3692 -0.4785
   28TAL   C13918105   1.469   1.711   6.161  0.7235 -0.3017 -0.2675
   28TAL   C14018106   1.549   1.813   6.098 -1.0870 -0.8281 -0.6833
   29HTM   C14118107   2.031   1.621   6.646 -0.0466 -0.2497 -0.2331
   29HTM   C14218108   2.044   1.514   6.562  0.2983 -0.0747 -0.4063
   29HTM   C14318109   2.103   1.398   6.624  0.3708 -0.0898 -0.5037
   29HTM   C14418110   2.135   1.417   6.755  0.0814 -0.2764 -0.4047
   29HTM    S1518111   2.093   1.583   6.811 -0.3084 -0.4488 -0.1790
   30TAL   C14518112   2.140   1.277   6.542 -0.3661 -0.0894  0.1678
   30TAL   C14618113   2.030   1.176   6.515 -0.7085 -0.0749  1.0555
   30TAL   C14718114   1.999   1.090   6.635  1.4592  1.8034  0.6180
   30TAL   C14818115   1.902   0.968   6.601 -0.1527 -0.4133 -0.6369
   30TAL   C14918116   1.864   0.884   6.726  0.3174 -0.4302 -0.1270
   30TAL   C15018117   1.981   0.799   6.775 -0.1691  0.0567 -0.1223
   31HTM   C15118118   2.198   1.322   6.842  0.1913  0.2443 -0.5505
   31HTM   C15218119   2.138   1.283   6.958 -0.4681  0.2233 -0.8914
   31HTM   C15318120   2.204   1.172   7.022 -0.8907  0.1454 -0.5833
   31HTM   C15418121   2.315   1.128   6.956 -0.5536  0.1070 -0.0071
   31HTM    S1618122   2.344   1.223   6.806  0.3305  0.1667  0.1920
   32TAL   C15518123   2.158   1.129   7.162 -0.1225  0.5653 -0.8461
   32TAL   C15618124   2.178   1.216   7.278  0.8989  0.4051 -0.4316
   32TAL   C15718125   2.316   1.249   7.333 -0.0961  0.0700  0.8108
   32TAL   C15818126   2.328   1.355   7.440  0.2004  0.1349 -1.1236
   32TAL   C15918127   2.470   1.378   7.484 -0.7722  0.7214  0.1191
   32TAL   C16018128   2.491   1.479   7.583 -0.5535  0.3181 -0.0893
   33HTM   C16118129   2.391   1.006   6.980 -0.2650  0.4621 -0.8958
   33HTM   C16218130   2.505   1.010   7.054 -0.1364  1.0243 -1.1200
   33HTM   C16318131   2.577   0.886   7.056 -0.0631  1.0737 -0.4100
   33HTM   C16418132   2.518   0.786   6.985 -0.1359  0.5493  0.3555
   33HTM    S1718133   2.365   0.843   6.908 -0.3039 -0.0524  0.2382
   34TAL   C16518134   2.710   0.861   7.139 -0.1490  0.5554  0.4518
   34TAL   C16618135   2.779   0.979   7.196 -0.7739  0.6115  0.8699
   34TAL   C16718136   2.901   0.919   7.274  0.1387  0.0573  0.0638
   34TAL   C16818137   3.019   0.865   7.181  0.0670 -0.5512 -0.1427
   34TAL   C16918138   3.115   0.758   7.236 -0.5515 -0.1145  0.2483
   34TAL   C17018139   3.065   0.644   7.323 -0.5963 -0.2359 -0.1207
   35HTM   C17118140   2.544   0.642   6.973 -0.0729 -0.7353  0.3143
   35HTM   C17218141   2.466   0.546   7.029  0.1422 -0.8051  0.4991
   35HTM   C17318142   2.532   0.418   7.042  0.2851 -0.7491  0.3365
   35HTM   C17418143   2.661   0.418   6.998  0.1793 -0.6366  0.0277
   35HTM    S1818144   2.709   0.580   6.934 -0.1117 -0.5923 -0.0825
   36TAL   C17518145   2.466   0.297   7.105 -0.6647 -0.7453 -1.1916
   36TAL   C17618146   2.383   0.191   7.039  0.1533 -0.5484 -0.1116
   36TAL   C17718147   2.232   0.228   7.006  0.0784 -0.1931  0.0156
   36TAL   C17818148   2.206   0.127   6.891 -0.3392 -0.0118 -0.6478
   36TAL   C17918149   2.062   0.072   6.860 -0.4851 -0.8019  0.2459
   36TAL   C18018150   1.969   0.045   6.978  0.7592  0.3033 -0.0728
   37HTM   C18118151   2.771   0.334   7.014 -0.3667  0.2163 -0.1164
   37HTM   C18218152   2.804   0.242   6.919 -0.4469  0.3893 -0.3145
   37HTM   C18318153   2.932   0.180   6.940 -0.4492  0.3167 -0.5108
   37HTM   C18418154   2.998   0.225   7.051 -0.3709  0.0884 -0.4623
   37HTM    S1918155   2.901   0.351   7.138 -0.2873 -0.0538 -0.1628
   38TAL   C18518156   2.971   0.069   6.850 -0.3780 -0.8124  0.0094
   38TAL   C18618157   3.013   0.095   6.701 -0.1140 -0.6947  0.4192
   38TAL   C18718158   3.122   0.191   6.658  0.2543 -0.2292 -1.0214
   38TAL   C18818159   3.261   0.134   6.644 -0.1569 -0.1028  0.1117
   38TAL   C18918160   3.330   0.128   6.776  0.8155  0.4656 -1.1791
   38TAL   C19018161   3.465   0.191   6.738  0.6158 -0.5776  0.2160
   39HTM   C19118162   3.120   0.182   7.120  0.3517  0.0132 -0.4614
   39HTM   C19218163   3.214   0.256   7.186  0.9050 -0.0186 -1.1940
   39HTM   C19318164   3.313   0.177   7.253  0.8886 -0.0739 -1.2345
   39HTM   C19418165   3.295   0.042   7.239  0.3227 -0.0843 -0.5330
   39HTM    S2018166   3.150   0.005   7.139 -0.2377 -0.0246  0.2395
   40TAL   C19518167   3.418   0.237   7.341 -0.5343 -0.2008 -0.0737
   40TAL   C19618168   3.534   0.317   7.259 -0.2473 -0.5502 -0.4411
   40TAL   C19718169   3.621   0.410   7.347 -0.2874 -0.0244 -0.6912
   40TAL   C19818170   3.762   0.434   7.285 -1.0509  0.5748  0.2564
   40TAL   C19918171   3.867   0.517   7.363  0.3588 -0.6368 -0.0900
   40TAL   C20018172   3.851   0.670   7.339  0.2784 -0.1495  0.2783
   41HTM   C20118173   3.343  -0.075   7.304 -0.2888 -0.2143  0.0299
   41HTM   C20218174   3.470  -0.121   7.324 -0.1846  0.1317  0.1707
   41HTM   C20318175   3.476  -0.254   7.377  0.1207  0.1620  0.2156
   41HTM   C20418176   3.353  -0.311   7.398  0.2493 -0.1611  0.1089
   41HTM    S2118177   3.220  -0.199   7.351 -0.0073 -0.5314 -0.0578
   42TAL   C20518178   3.616  -0.319   7.389  0.5779  0.1902  0.7883
   42TAL   C20618179   3.745  -0.241   7.409  0.0756  0.4936  0.6909
   42TAL   C20718180   3.799  -0.178   7.552  0.9227 -0.2999 -0.4779
   42TAL   C20818181   3.832  -0.280   7.659  0.9892  0.1096 -0.3563
   42TAL   C20918182   3.713  -0.340   7.726 -0.4856  1.1742 -0.2857
   42TAL   C21018183   3.731  -0.483   7.750 -0.0653  0.6150  0.2804
   43HTM   C21118184   3.313  -0.442   7.445  0.4394  0.4098  0.7661
   43HTM   C21218185   3.182  -0.480   7.456  0.3518  0.7944  1.1044
   43HTM   C21318186   3.165  -0.610   7.516  0.1679  0.5474  0.5276
   43HTM   C21418187   3.282  -0.671   7.550  0.1151 -0.0255 -0.2507
   43HTM    S2218188   3.424  -0.568   7.510  0.2952 -0.2994 -0.3157
   44TAL   C21518189   3.026  -0.668   7.522  0.3329  0.0407  0.4607
   44TAL   C21618190   2.955  -0.694   7.656 -0.3634 -0.4419 -0.1038
   44TAL   C21718191   2.949  -0.591   7.764 -0.1670  0.6592 -0.4551
   44TAL   C21818192   3.050  -0.635   7.870 -0.4898  0.0290 -0.5199
   44TAL   C21918193   3.134  -0.529   7.952 -0.0408 -0.5340 -0.0092
   44TAL   C22018194   3.243  -0.575   8.045  0.9471  0.8557  0.0475
   45HTM   C22118195   3.318  -0.792   7.605  0.1377  0.0664 -0.0801
   45HTM   C22218196   3.363  -0.801   7.734  0.0606  0.0494 -0.0546
   45HTM   C22318197   3.352  -0.933   7.790  0.1249  0.0190 -0.1140
   45HTM   C22418198   3.299  -1.025   7.704  0.2511  0.0127 -0.1849
   45HTM    S2318199   3.259  -0.951   7.544  0.2989  0.0450 -0.1821
   46TAL   C22518200   3.410  -0.967   7.932  0.6902 -0.4979 -0.3442
   46TAL   C22618201   3.551  -1.027   7.940 -1.0729 -0.6581 -0.0465
   46TAL   C22718202   3.668  -0.949   7.884 -0.8022  0.8065 -0.0392
   46TAL   C22818203   3.778  -1.058   7.891 -0.1943  0.1140 -0.2608
   46TAL   C22918204   3.921  -1.019   7.840  0.3704  0.4175  0.1710
   46TAL   C23018205   3.926  -1.004   7.686 -0.2389  0.0799 -1.1482
   47HTM   C23118206   3.254  -1.165   7.727 -0.2323  0.0690  0.0158
   47HTM   C23218207   3.217  -1.242   7.621 -0.9462  0.1578  0.1882
   47HTM   C23318208   3.198  -1.381   7.654 -0.8709  0.1570  0.2295
   47HTM   C23418209   3.220  -1.410   7.785 -0.0996  0.0678  0.0885
   47HTM    S2418210   3.267  -1.262   7.879  0.5969 -0.0228 -0.1087
   48TAL   C23518211   3.159  -1.480   7.550 -0.2132 -0.6792  0.2108
   48TAL   C23618212   3.250  -1.513   7.437  0.0946 -0.3119 -1.0795
   48TAL   C23718213   3.211  -1.625   7.336  0.8767  0.1107  0.4301
   48TAL   C23818214   3.104  -1.582   7.234 -0.1650  0.5842  0.2117
   48TAL   C23918215   3.079  -1.700   7.130 -0.5162  0.1111 -1.0352
   48TAL   C24018216   3.023  -1.658   7.002  0.1605  0.4911  0.4132
    1HTM     C118217   1.795   2.745   5.257  0.1033  0.0834 -0.6235
    1HTM     C218218   1.787   2.854   5.175  0.0056  0.2975 -0.3313
    1HTM     C318219   1.658   2.918   5.177  0.1005  0.4792  0.2240
    1HTM     C418220   1.568   2.859   5.260  0.2706  0.4038  0.3551
    1HTM     S118221   1.639   2.715   5.343  0.3246  0.0949 -0.2168
    2TAL     C518222   1.623   3.034   5.083  0.3590 -0.0856  1.0982
    2TAL     C618223   1.640   3.174   5.139  0.2782  0.6609 -0.4090
    2TAL     C718224   1.779   3.228   5.192  0.4849 -0.9186 -0.2709
    2TAL     C818225   1.885   3.248   5.090  0.0339  0.0078  0.2513
    2TAL     C918226   1.853   3.368   5.006 -0.0104  0.0398  0.2422
    2TAL    C1018227   1.887   3.338   4.857 -0.6387  1.0736 -0.8046
    3HTM    C1118228   1.426   2.893   5.278  0.1244  0.2624 -0.4951
    3HTM    C1218229   1.360   2.872   5.396  0.4629  0.0654 -0.3375
    3HTM    C1318230   1.227   2.927   5.398  0.3875 -0.1285  0.0606
    3HTM    C1418231   1.191   2.989   5.282 -0.0084 -0.0796  0.2066
    3HTM     S218232   1.324   2.983   5.160 -0.3192  0.2178 -0.1499
    4TAL    C1518233   1.131   2.915   5.524 -0.1001 -0.0187  0.4501
    4TAL    C1618234   1.090   2.773   5.543 -0.3023  0.7552  0.1775
    4TAL    C1718235   0.993   2.751   5.650  0.0042  1.2797  0.3624
    4TAL    C1818236   0.955   2.605   5.680  0.8408 -0.3015 -0.1744
    4TAL    C1918237   0.849   2.601   5.793  0.3584  0.8402  1.1257
    4TAL    C2018238   0.844   2.674   5.916  0.7193  0.1857  0.0217
    5HTM    C2118239   1.069   3.059   5.248 -0.2433  0.0780  0.2181
    5HTM    C2218240   0.994   3.048   5.135 -0.2130 -0.4672  0.2439
    5HTM    C2318241   0.865   3.112   5.145 -0.2538 -0.4988 -0.0660
    5HTM    C2418242   0.842   3.171   5.265 -0.3151  0.0222 -0.3281
    5HTM     S318243   0.983   3.151   5.377 -0.3263  0.5978 -0.2028
    6TAL    C2518244   0.781   3.117   5.018  0.0719  0.1919 -0.1636
    6TAL    C2618245   0.832   3.171   4.888  0.2899  0.2925  0.9826
    6TAL    C2718246   0.893   3.311   4.878  0.1438 -0.2047  0.0578
    6TAL    C2818247   0.913   3.351   4.730  0.2386  0.0524 -0.1731
    6TAL    C2918248   0.888   3.500   4.690 -0.4884 -0.4067 -0.6469
    6TAL    C3018249   0.764   3.583   4.745 -1.0757 -0.3710  0.5106
    7HTM    C3118250   0.728   3.232   5.320  0.3319  0.6961 -0.4007
    7HTM    C3218251   0.701   3.241   5.454  0.6206  0.7590 -0.3432
    7HTM    C3318252   0.567   3.287   5.482  0.5554  0.4178 -0.0808
    7HTM    C3418253   0.493   3.314   5.371  0.2171  0.0945  0.0619
    7HTM     S418254   0.587   3.282   5.220 -0.0475  0.1970 -0.1254
    8TAL    C3518255   0.514   3.304   5.630  0.4079  0.7946 -0.1583
    8TAL    C3618256   0.513   3.168   5.710  0.1661 -0.4931 -0.3254
    8TAL    C3718257   0.437   3.151   5.844 -0.3605 -0.1922 -0.7554
    8TAL    C3818258   0.361   3.275   5.907  0.8556  0.1512  0.9702
    8TAL    C3918259   0.314   3.267   6.042  0.6042 -0.9141 -0.0544
    8TAL    C4018260   0.248   3.390   6.099 -0.4813  0.1806  0.5988
    9HTM    C4118261   0.351   3.339   5.362  0.2914 -0.4449  0.7315
    9HTM    C4218262   0.284   3.311   5.247  0.3743 -1.1955  0.8506
    9HTM    C4318263   0.159   3.382   5.235  0.1893 -1.5785  0.4781
    9HTM    C4418264   0.131   3.464   5.340 -0.0348 -1.1198  0.0751
    9HTM     S518265   0.261   3.457   5.465 -0.0294 -0.1611  0.1350
   10TAL    C4518266   0.071   3.360   5.113 -0.3026  0.3249  0.9910
   10TAL    C4618267   0.095   3.440   4.986 -0.4514 -0.4793  0.4073
   10TAL    C4718268   0.199   3.360   4.909 -1.4477 -0.3983  0.2231
   10TAL    C4818269   0.177   3.393   4.765  0.4967  0.2261 -0.1700
   10TAL    C4918270   0.264   3.334   4.658  0.0158 -0.5737 -0.9053
   10TAL    C5018271   0.398   3.413   4.652  0.2987  0.2657 -0.6223
   11HTM    C5118272   0.026   3.568   5.356 -0.5722 -0.3629 -0.7898
   11HTM    C5218273  -0.093   3.559   5.422 -0.9403 -0.4451 -1.4412
   11HTM    C5318274  -0.175   3.677   5.409 -0.5242 -0.1121 -1.1146
   11HTM    C5418275  -0.119   3.775   5.333  0.1615  0.2238 -0.2137
   11HTM     S618276   0.043   3.726   5.271  0.3358  0.1452  0.2955
   12TAL    C5518277  -0.308   3.691   5.471  0.1434  0.0952 -0.0803
   12TAL    C5618278  -0.330   3.696   5.618 -0.1015  0.5320 -0.6072
   12TAL    C5718279  -0.336   3.556   5.694  0.4747 -0.2527  0.6769
   12TAL    C5818280  -0.387   3.559   5.832 -1.0914 -0.1018 -0.1255
   12TAL    C5918281  -0.365   3.435   5.914 -0.5232 -0.6813 -0.3478
   12TAL    C6018282  -0.231   3.440   5.977 -0.5342  0.1716 -0.4709
   13HTM    C6118283  -0.161   3.911   5.296 -0.4974 -0.0806  0.5653
   13HTM    C6218284  -0.100   4.032   5.308 -0.5682 -0.0401  0.5209
   13HTM    C6318285  -0.173   4.141   5.248 -0.3613 -0.1931 -0.0174
   13HTM    C6418286  -0.290   4.103   5.190 -0.1328 -0.3503 -0.3834
   13HTM     S718287  -0.318   3.925   5.207 -0.1612 -0.3173 -0.0744
   14TAL    C6518288  -0.113   4.288   5.247 -0.3321  0.7158  0.0103
   14TAL    C6618289   0.027   4.306   5.277 -0.4628 -0.1082  0.0849
   14TAL    C6718290   0.057   4.448   5.323  0.3720 -0.6714 -0.0025
   14TAL    C6818291   0.195   4.491   5.366  0.2413 -0.6511 -0.0048
   14TAL    C6918292   0.214   4.629   5.432  0.2967  0.8629 -1.3942
   14TAL    C7018293   0.236   4.747   5.339  0.4054  0.8870 -0.4902
   15HTM    C7118294  -0.391   4.184   5.117 -0.5585  0.6277  0.1576
   15HTM    C7218295  -0.521   4.213   5.150 -0.4851  1.1700 -0.0033
   15HTM    C7318296  -0.586   4.300   5.056 -0.1581  1.0399 -0.3580
   15HTM    C7418297  -0.507   4.338   4.952  0.0179  0.3982 -0.4673
   15HTM     S818298  -0.342   4.266   4.964 -0.2176 -0.0950 -0.1286
   16TAL    C7518299  -0.727   4.343   5.073  0.2798 -0.0318  0.5619
   16TAL    C7618300  -0.844   4.273   5.161 -0.3858  0.0078  0.0437
   16TAL    C7718301  -0.898   4.138   5.107  0.5309 -0.1182  1.0840
   16TAL    C7818302  -0.993   4.050   5.192 -0.0353 -0.0172  0.1763
   16TAL    C7918303  -0.964   4.006   5.340 -0.6848  0.4881 -0.0805
   16TAL    C8018304  -0.868   3.898   5.363  0.2834 -0.7197 -0.1459
   17HTM    C8118305  -0.541   4.421   4.833  0.2660 -0.9188 -0.1269
   17HTM    C8218306  -0.643   4.510   4.812  0.2794 -0.8037  0.2785
   17HTM    C8318307  -0.650   4.559   4.677  0.2689 -0.2031  0.4944
   17HTM    C8418308  -0.553   4.509   4.595  0.2474  0.1399  0.2537
   17HTM     S918309  -0.445   4.394   4.683  0.2388 -0.2727 -0.2683
   18TAL    C8518310  -0.769   4.650   4.632 -0.4242  0.7442 -0.2968
   18TAL    C8618311  -0.913   4.586   4.639 -0.6945  0.5646 -0.4721
   18TAL    C8718312  -1.020   4.668   4.582 -0.3288 -0.1025  0.0014
   18TAL    C8818313  -1.069   4.621   4.446  0.3467 -0.0985  0.2718
   18TAL    C8918314  -1.007   4.654   4.314  0.5705  0.6260 -1.0696
   18TAL    C9018315  -1.070   4.579   4.196  0.3480  0.3283  0.5799
   19HTM    C9118316  -0.502   4.542   4.463  0.0046 -0.5347  0.2684
   19HTM    C9218317  -0.373   4.549   4.419 -0.0570 -1.2147 -0.0508
   19HTM    C9318318  -0.359   4.606   4.288 -0.0916 -1.4278 -0.1471
   19HTM    C9418319  -0.478   4.642   4.231 -0.0564 -0.9098  0.0985
   19HTM    S1018320  -0.617   4.607   4.340  0.0239 -0.1072  0.4735
   20TAL    C9518321  -0.223   4.614   4.211  0.9693 -0.0719 -0.1095
   20TAL    C9618322  -0.090   4.558   4.260 -0.7205 -0.4806  0.0499
   20TAL    C9718323   0.006   4.682   4.277 -0.1265 -0.2939  0.1484
   20TAL    C9818324  -0.029   4.774   4.392 -0.4918 -0.0581  0.3854
   20TAL    C9918325   0.107   4.844   4.422  0.5638 -0.7338  0.1231
   20TAL   C10018326   0.155   4.959   4.338 -0.4569 -0.6979  0.5907
   21HTM   C10118327  -0.508   4.709   4.102  0.2535 -0.4726 -0.2288
   21HTM   C10218328  -0.446   4.819   4.051  0.2655 -0.5124 -0.3003
   21HTM   C10318329  -0.514   4.877   3.938 -0.0252 -0.2562  0.0017
   21HTM   C10418330  -0.628   4.810   3.903 -0.2584 -0.0214  0.3035
   21HTM    S1118331  -0.658   4.669   4.011 -0.1285 -0.1061  0.2292
   22TAL   C10518332  -0.461   4.993   3.853 -0.0747  0.3164 -0.0227
   22TAL   C10618333  -0.360   4.960   3.735  0.2699  0.0005 -0.4378
   22TAL   C10718334  -0.263   4.843   3.747 -0.0883 -0.5096  0.4809
   22TAL   C10818335  -0.156   4.833   3.642  0.8825  0.2171 -0.0360
   22TAL   C10918336  -0.053   4.713   3.652  0.3428 -0.0473  0.0462
   22TAL   C11018337  -0.104   4.568   3.626  1.0336 -0.6884  0.3737
   23HTM   C11118338  -0.734   4.837   3.810 -0.2897 -0.1120  0.0206
   23HTM   C11218339  -0.859   4.880   3.843 -0.0261  0.6335  0.0872
   23HTM   C11318340  -0.940   4.913   3.729  0.1651  1.3162  0.1367
   23HTM   C11418341  -0.877   4.895   3.609  0.0473  1.0911  0.1078
   23HTM    S1218342  -0.709   4.835   3.632 -0.3170 -0.0090  0.0149
   24TAL   C11518343  -1.074   4.976   3.751  0.2221 -0.5345  0.9226
   24TAL   C11618344  -1.192   4.875   3.750 -0.1082  0.5056 -0.4752
   24TAL   C11718345  -1.331   4.924   3.793 -0.6625 -0.8938  0.7591
   24TAL   C11818346  -1.456   4.833   3.765  0.1143  0.3474 -0.4371
   24TAL   C11918347  -1.587   4.904   3.791  0.6584  0.0478 -0.3546
   24TAL   C12018348  -1.709   4.817   3.780  0.2960  0.4940  0.5054
   25HTM   C12118349  -0.936   4.885   3.476 -0.2563  0.1985  0.0841
   25HTM   C12218350  -1.014   4.984   3.424 -0.0196  0.2162 -0.2446
   25HTM   C12318351  -1.041   4.969   3.284  0.4722  0.1615 -0.3375
   25HTM   C12418352  -0.984   4.859   3.228  0.6102  0.1020 -0.0797
   25HTM    S1318353  -0.890   4.764   3.350  0.1263  0.1102  0.3034
   26TAL   C12518354  -1.099   5.076   3.196  0.3233  0.0627  0.2818
   26TAL   C12618355  -1.136   5.221   3.247  0.1579  0.3667  0.4572
   26TAL   C12718356  -1.209   5.322   3.162  0.0671 -0.4995  0.9351
   26TAL   C12818357  -1.144   5.349   3.024  1.7372  0.3640 -0.2990
   26TAL   C12918358  -1.182   5.495   2.989 -0.5666  0.0637  0.2109
   26TAL   C13018359  -1.187   5.523   2.835  0.6322 -0.3642 -0.9250
   27HTM   C13118360  -0.975   4.813   3.092  0.1746  0.2602  0.1793
   27HTM   C13218361  -1.056   4.834   2.985  0.3945  0.7836  0.1090
   27HTM   C13318362  -1.020   4.757   2.869  0.2633  0.8847  0.0002
   27HTM   C13418363  -0.912   4.677   2.887 -0.0565  0.4386 -0.0124
   27HTM    S1418364  -0.846   4.693   3.055 -0.2181 -0.1486  0.1131
   28TAL   C13518365  -1.093   4.775   2.733 -0.8002  0.2009  0.2175
   28TAL   C13618366  -1.240   4.743   2.725 -0.7992  0.3519 -0.1942
   28TAL   C13718367  -1.307   4.744   2.595  0.0606 -0.6715  1.0242
   28TAL   C13818368  -1.435   4.651   2.586 -0.3946  0.1302 -0.3980
   28TAL   C13918369  -1.417   4.501   2.559  0.0605 -0.8110  0.9113
   28TAL   C14018370  -1.542   4.426   2.529  0.4395 -0.6209 -0.0465
   29HTM   C14118371  -0.842   4.598   2.782  0.1942 -0.0113 -0.3341
   29HTM   C14218372  -0.708   4.605   2.757  0.2470 -0.6510 -0.2695
   29HTM   C14318373  -0.665   4.521   2.648 -0.1042 -0.8498 -0.2583
   29HTM   C14418374  -0.766   4.449   2.591 -0.4248 -0.3617 -0.3145
   29HTM    S1518375  -0.924   4.483   2.669 -0.3069  0.3927 -0.3863
   30TAL   C14518376  -0.520   4.527   2.611 -0.3067 -0.2235  0.2535
   30TAL   C14618377  -0.428   4.659   2.611 -0.7623 -0.9461  0.0650
   30TAL   C14718378  -0.461   4.783   2.525 -0.4832  0.0007  0.5046
   30TAL   C14818379  -0.354   4.891   2.519 -0.0656  0.6920  0.4709
   30TAL   C14918380  -0.237   4.852   2.437  0.2813  0.9006 -0.2806
   30TAL   C15018381  -0.135   4.958   2.417 -0.5346  0.4537 -0.0639
   31HTM   C15118382  -0.760   4.370   2.474  0.1594 -0.1687  0.4681
   31HTM   C15218383  -0.855   4.278   2.444  0.1233 -0.0411  0.1862
   31HTM   C15318384  -0.821   4.193   2.333  0.0844  0.2893 -0.0820
   31HTM   C15418385  -0.699   4.221   2.279  0.0908  0.4136 -0.0047
   31HTM    S1618386  -0.618   4.357   2.364  0.1472  0.1208  0.4163
   32TAL   C15518387  -0.916   4.072   2.302 -0.4710 -0.7492 -1.5132
   32TAL   C15618388  -1.077   4.094   2.297 -0.3658 -0.7764  0.7089
   32TAL   C15718389  -1.124   4.210   2.206 -0.8515 -0.0059 -0.8081
   32TAL   C15818390  -1.270   4.233   2.240  0.5418  1.0141  0.1088
   32TAL   C15918391  -1.363   4.189   2.132 -0.8051  0.8025  0.1261
   32TAL   C16018392  -1.503   4.199   2.181  0.6330  0.3071  0.2333
   33HTM   C16118393  -0.650   4.173   2.160 -0.5683  0.0854 -0.3524
   33HTM   C16218394  -0.586   4.053   2.142 -0.4666  0.1303 -0.2945
   33HTM   C16318395  -0.533   4.035   2.009  0.2375  0.4400 -0.0619
   33HTM   C16418396  -0.555   4.141   1.926  0.6727  0.6313  0.0575
   33HTM    S1718397  -0.647   4.273   2.010  0.2237  0.4335 -0.1160
   34TAL   C16518398  -0.446   3.914   1.970 -0.2602 -0.0690  0.7342
   34TAL   C16618399  -0.396   3.818   2.086  0.1757 -0.6311 -0.0047
   34TAL   C16718400  -0.251   3.860   2.137 -0.2628  0.8907  0.2790
   34TAL   C16818401  -0.167   3.948   2.048 -0.0054 -0.0352  0.3441
   34TAL   C16918402  -0.027   3.972   2.088  0.0546  0.6102  0.1707
   34TAL   C17018403   0.055   3.852   2.046  0.5291  0.7045 -0.0548
   35HTM   C17118404  -0.511   4.171   1.789  0.0213 -0.0105  0.3648
   35HTM   C17218405  -0.391   4.218   1.744 -0.3246  1.0697  0.5103
   35HTM   C17318406  -0.385   4.236   1.602 -0.3860  1.3521  0.5426
   35HTM   C17418407  -0.501   4.203   1.537 -0.0870  0.4877  0.4217
   35HTM    S1818408  -0.627   4.146   1.653  0.2985 -0.7602  0.2564
   36TAL   C17518409  -0.247   4.263   1.536  0.2572 -0.5821  0.3775
   36TAL   C17618410  -0.118   4.185   1.586  0.5782 -1.6723  0.0364
   36TAL   C17718411  -0.110   4.035   1.585  0.0247 -0.4950  0.5661
   36TAL   C17818412  -0.196   3.938   1.670 -0.3732  0.8960  0.3119
   36TAL   C17918413  -0.137   3.795   1.671  1.0613  0.3695 -0.2575
   36TAL   C18018414  -0.112   3.723   1.544  0.1742  0.1072  0.9411
   37HTM   C18118415  -0.530   4.174   1.399 -0.2827 -0.2203 -0.2335
   37HTM   C18218416  -0.508   4.256   1.292 -0.2716 -0.3080 -0.2988
   37HTM   C18318417  -0.553   4.200   1.166 -0.1098 -0.4805 -0.2810
   37HTM   C18418418  -0.608   4.077   1.178  0.0025 -0.5244 -0.2022
   37HTM    S1918419  -0.609   4.019   1.349 -0.0880 -0.3497 -0.1438
   38TAL   C18518420  -0.550   4.274   1.029 -0.3084 -0.1363  0.0524
   38TAL   C18618421  -0.434   4.376   1.016 -0.6237  0.6846 -0.0965
   38TAL   C18718422  -0.417   4.439   0.877  0.6026  0.3609 -0.1802
   38TAL   C18818423  -0.499   4.560   0.841  0.0799 -0.2451  0.4944
   38TAL   C18918424  -0.499   4.672   0.933  0.8420 -0.4030 -0.0509
   38TAL   C19018425  -0.542   4.798   0.850 -0.3834  0.0163  0.4803
   39HTM   C19118426  -0.660   3.980   1.089  0.3268  0.6586 -0.2510
   39HTM   C19218427  -0.768   3.900   1.111  0.1603  0.9619  0.0488
   39HTM   C19318428  -0.796   3.809   1.003 -0.0955  0.6923  0.3380
   39HTM   C19418429  -0.709   3.819   0.898 -0.1242  0.1834  0.2588
   39HTM    S2018430  -0.584   3.946   0.929  0.1719  0.0037 -0.1907
   40TAL   C19518431  -0.904   3.703   1.023  0.1889  0.0551  0.4057
   40TAL   C19618432  -1.009   3.706   1.129 -0.0024 -0.1764  0.9221
   40TAL   C19718433  -1.123   3.607   1.103  0.7087 -0.6525  0.2123
   40TAL   C19818434  -1.222   3.681   1.189  0.0671 -0.8355  0.0626
   40TAL   C19918435  -1.354   3.601   1.211  1.0476  0.2520  0.1266
   40TAL   C20018436  -1.461   3.663   1.299  0.0532 -1.4842  0.1618
   41HTM   C20118437  -0.697   3.753   0.777  0.2416  0.3365 -0.0581
   41HTM   C20218438  -0.582   3.729   0.707  0.3525  0.5007  0.0669
   41HTM   C20318439  -0.598   3.635   0.599  0.7304  0.0383  0.4070
   41HTM   C20418440  -0.725   3.587   0.587  0.9073 -0.4786  0.5412
   41HTM    S2118441  -0.835   3.657   0.711  0.6084 -0.4209  0.2463
   42TAL   C20518442  -0.486   3.581   0.509  0.4527  0.7027 -0.5271
   42TAL   C20618443  -0.356   3.656   0.519  0.2578 -0.3399  0.9936
   42TAL   C20718444  -0.262   3.588   0.421 -1.3118  0.7460  0.1576
   42TAL   C20818445  -0.106   3.623   0.434  0.2483  0.5098  0.1417
   42TAL   C20918446  -0.057   3.764   0.401  0.4420  0.8571  0.4840
   42TAL   C21018447  -0.079   3.856   0.521  0.1100  0.3357 -0.5334
   43HTM   C21118448  -0.783   3.478   0.511  0.1517  0.4698  0.0183
   43HTM   C21218449  -0.751   3.348   0.538 -0.0453  0.5774  0.8019
   43HTM   C21318450  -0.854   3.254   0.500 -0.0625  0.4756  1.0943
   43HTM   C21418451  -0.963   3.312   0.444  0.1215  0.2904  0.5336
   43HTM    S2218452  -0.946   3.491   0.434  0.3322  0.2297 -0.4145
   44TAL   C21518453  -0.825   3.112   0.468 -0.1168 -0.2239 -0.6101
   44TAL   C21618454  -0.738   3.085   0.347 -0.8828  0.2326  0.2247
   44TAL   C21718455  -0.588   3.117   0.357 -0.3292  0.5610 -0.3768
   44TAL   C21818456  -0.488   3.045   0.261  1.3783  0.6243  0.8275
   44TAL   C21918457  -0.526   3.041   0.109  0.5568  0.8040 -0.0840
   44TAL   C22018458  -0.396   3.008   0.034 -0.0104 -0.0727 -0.4801
   45HTM   C22118459  -1.090   3.248   0.403 -0.1558 -0.5770  0.1866
   45HTM   C22218460  -1.212   3.292   0.445 -0.2059 -0.3462 -0.1865
   45HTM   C22318461  -1.323   3.229   0.379 -0.1256 -0.1833 -0.4799
   45HTM   C22418462  -1.286   3.136   0.286 -0.0148 -0.2899 -0.3307
   45HTM    S2318463  -1.106   3.122   0.275 -0.0024 -0.6066  0.1962
   46TAL   C22518464  -1.463   3.265   0.435  0.3043  0.2691  0.2448
   46TAL   C22618465  -1.562   3.156   0.438  0.3786  0.3486  0.0470
   46TAL   C22718466  -1.702   3.169   0.390 -0.0264 -1.4209  0.4629
   46TAL   C22818467  -1.804   3.259   0.464  0.2421  0.5507  1.3866
   46TAL   C22918468  -1.842   3.221   0.599  0.0972  0.1500 -0.9520
   46TAL   C23018469  -1.964   3.302   0.629 -0.0872 -0.6390 -0.3343
   47HTM   C23118470  -1.362   3.073   0.176  0.3690 -0.5726 -0.8903
   47HTM   C23218471  -1.372   3.108   0.045 -0.2537 -0.8898 -0.9318
   47HTM   C23318472  -1.465   3.026  -0.029 -0.8349 -0.8835 -0.2360
   47HTM   C23418473  -1.525   2.929   0.046 -0.6554 -0.5616  0.3368
   47HTM    S2418474  -1.469   2.934   0.217  0.2690 -0.2388  0.0381
   48TAL   C23518475  -1.495   3.069  -0.164  0.2937 -0.2783  0.4720
   48TAL   C23618476  -1.624   3.001  -0.232 -0.4990  0.4163  1.0470
   48TAL   C23718477  -1.764   3.040  -0.196  1.0198  0.6339  0.6376
   48TAL   C23818478  -1.851   3.070  -0.322  0.3602  0.0362  0.5619
   48TAL   C23918479  -1.837   2.957  -0.431 -0.1200  1.2367 -0.4145
   48TAL   C24018480  -1.951   2.957  -0.528  0.0987  0.2887  0.4323
    1HTM     C118481   4.531   5.602   1.100 -0.0286 -0.1208  0.1633
    1HTM     C218482   4.553   5.690   1.201 -1.2484  0.0411  0.3156
    1HTM     C318483   4.589   5.628   1.326 -1.6884  0.2815  0.5654
    1HTM     C418484   4.594   5.492   1.320 -0.8040  0.3026  0.6037
    1HTM     S118485   4.554   5.431   1.155  0.6645  0.0185  0.3249
    2TAL     C518486   4.637   5.699   1.458 -0.1265 -0.6602 -0.3736
    2TAL     C618487   4.656   5.855   1.470  0.6939 -0.4544 -0.3466
    2TAL     C718488   4.761   5.911   1.385 -0.4453  0.0363  0.1676
    2TAL     C818489   4.898   5.937   1.461  0.7538 -0.2094 -1.3158
    2TAL     C918490   4.999   6.017   1.401  0.2668 -0.8630  0.2705
    2TAL    C1018491   4.970   6.171   1.374  0.9118  0.1011 -0.1336
    3HTM    C1118492   4.617   5.386   1.413  0.3310  0.2168 -0.0940
    3HTM    C1218493   4.533   5.287   1.453 -0.0921  0.7164  0.2679
    3HTM    C1318494   4.583   5.209   1.563 -0.5141  1.0264  0.6862
    3HTM    C1418495   4.706   5.249   1.607 -0.4131  0.7632  0.6433
    3HTM     S218496   4.768   5.389   1.512  0.2280  0.0981  0.0668
    4TAL    C1518497   4.497   5.089   1.618  0.2847 -0.0115 -0.1228
    4TAL    C1618498   4.357   5.118   1.676 -1.0145  0.0978 -0.0583
    4TAL    C1718499   4.256   5.189   1.592  0.0750  0.0650  0.0933
    4TAL    C1818500   4.132   5.267   1.649 -0.8518 -0.4653  0.6686
    4TAL    C1918501   4.074   5.240   1.787  0.1219  0.4656  0.0907
    4TAL    C2018502   3.991   5.352   1.838  0.5115  0.7011 -0.3820
    5HTM    C2118503   4.794   5.202   1.708 -0.1114  0.0252 -0.1522
    5HTM    C2218504   4.806   5.080   1.768  0.5162 -0.2483 -0.8130
    5HTM    C2318505   4.917   5.071   1.859  0.6831 -0.2432 -1.0127
    5HTM    C2418506   4.989   5.186   1.870  0.1829  0.0342 -0.5041
    5HTM     S318507   4.922   5.316   1.764 -0.5438  0.3127  0.2724
    6TAL    C2518508   4.950   4.943   1.939  0.0793 -0.0055 -0.4512
    6TAL    C2618509   4.917   4.809   1.869  1.2153  0.2697 -0.1155
    6TAL    C2718510   5.011   4.764   1.760  0.5263 -0.5289 -0.5082
    6TAL    C2818511   5.164   4.764   1.775  0.0931 -0.3060 -0.8684
    6TAL    C2918512   5.224   4.666   1.884  0.5092  0.0159  0.1124
    6TAL    C3018513   5.369   4.666   1.876 -0.4560  0.9677 -0.3780
    7HTM    C3118514   5.101   5.218   1.958  0.0179 -0.0598  0.0897
    7HTM    C3218515   5.100   5.324   2.043  0.2804 -0.0023  0.0212
    7HTM    C3318516   5.208   5.323   2.139  0.3812 -0.1122 -0.0932
    7HTM    C3418517   5.291   5.215   2.127  0.1957 -0.2537 -0.1119
    7HTM     S418518   5.239   5.106   1.993 -0.1234 -0.2590  0.0146
    8TAL    C3518519   5.208   5.422   2.261 -0.8390 -1.0679  0.8250
    8TAL    C3618520   5.081   5.497   2.309 -0.6293  0.0652  0.3072
    8TAL    C3718521   5.113   5.568   2.433  1.2575 -0.7228  0.2465
    8TAL    C3818522   5.010   5.686   2.453 -0.4280 -0.7860 -0.7378
    8TAL    C3918523   5.003   5.804   2.339  0.4326  0.8748 -0.5318
    8TAL    C4018524   4.917   5.923   2.357  0.9131 -0.0457 -0.9877
    9HTM    C4118525   5.409   5.184   2.207  0.1202 -0.3434 -0.3963
    9HTM    C4218526   5.467   5.061   2.214  0.2685 -0.2582 -0.0850
    9HTM    C4318527   5.596   5.062   2.279  0.1132  0.0012  0.2228
    9HTM    C4418528   5.635   5.185   2.323 -0.1532  0.1140  0.1463
    9HTM     S518529   5.511   5.311   2.284 -0.2295 -0.1005 -0.3242
   10TAL    C4518530   5.663   4.926   2.315  0.0444 -0.4256 -0.2940
   10TAL    C4618531   5.591   4.844   2.415 -0.3106  0.3554 -0.5341
   10TAL    C4718532   5.477   4.768   2.351  0.4696  0.3421 -0.1425
   10TAL    C4818533   5.423   4.676   2.460  0.7659  0.9920 -0.0906
   10TAL    C4918534   5.512   4.562   2.527 -0.0919 -0.2857  0.6527
   10TAL    C5018535   5.426   4.473   2.615 -0.4264  0.2966 -0.9499
   11HTM    C5118536   5.746   5.234   2.397  0.2422 -0.6688  0.5226
   11HTM    C5218537   5.763   5.361   2.442  0.0230 -0.7733  0.9121
   11HTM    C5318538   5.899   5.392   2.479  0.0526 -0.5341  0.6177
   11HTM    C5418539   5.985   5.287   2.463  0.2941 -0.2473  0.0038
   11HTM     S618540   5.901   5.141   2.398  0.5045 -0.2570 -0.2522
   12TAL    C5518541   5.940   5.535   2.530 -0.1273 -0.2343  0.0530
   12TAL    C5618542   5.877   5.654   2.460 -1.6479 -0.4380  0.2963
   12TAL    C5718543   5.927   5.797   2.504  0.2684 -0.4053  0.1431
   12TAL    C5818544   5.962   5.833   2.652 -0.1472  0.1958  0.1271
   12TAL    C5918545   5.935   5.976   2.702 -0.2123  0.3367  0.3864
   12TAL    C6018546   5.986   6.082   2.598 -0.3523  0.7052  0.5014
   13HTM    C6118547   6.125   5.280   2.496 -0.1997 -0.4478  0.1246
   13HTM    C6218548   6.225   5.294   2.405 -0.2528  0.3582  0.1709
   13HTM    C6318549   6.357   5.286   2.462 -0.2081  1.0687  0.1832
   13HTM    C6418550   6.357   5.266   2.597 -0.1212  0.8044  0.1463
   13HTM     S718551   6.189   5.256   2.662 -0.0888 -0.3714  0.0928
   14TAL    C6518552   6.488   5.310   2.377 -0.6424  0.5044 -0.2389
   14TAL    C6618553   6.572   5.236   2.278 -1.3253 -0.3482  0.0272
   14TAL    C6718554   6.594   5.088   2.297  0.6350  0.3884 -0.0741
   14TAL    C6818555   6.684   5.034   2.182  0.3136 -0.3312  0.2055
   14TAL    C6918556   6.697   4.883   2.214 -0.5677 -0.0309  0.6001
   14TAL    C7018557   6.774   4.828   2.103 -0.7721 -0.4097  0.2489
   15HTM    C7118558   6.468   5.250   2.686  0.1840  0.1110  0.2352
   15HTM    C7218559   6.515   5.345   2.772 -0.1069 -0.0927  0.6208
   15HTM    C7318560   6.625   5.300   2.854 -0.2049 -0.1986  0.6959
   15HTM    C7418561   6.662   5.171   2.829  0.0115 -0.0758  0.3674
   15HTM     S818562   6.561   5.096   2.701  0.3583  0.1852 -0.0655
   16TAL    C7518563   6.711   5.398   2.927  0.4638 -0.2077 -0.0999
   16TAL    C7618564   6.636   5.472   3.037 -0.1797 -0.9242 -0.1241
   16TAL    C7718565   6.598   5.408   3.174 -0.1737 -0.9211  0.2950
   16TAL    C7818566   6.717   5.352   3.259 -0.3761 -0.0730  0.4882
   16TAL    C7918567   6.682   5.305   3.396 -1.3757  0.4822 -0.1293
   16TAL    C8018568   6.612   5.374   3.513  0.5623  0.8646  0.5775
   17HTM    C8118569   6.775   5.097   2.889  0.0012 -0.3218 -0.4921
   17HTM    C8218570   6.790   5.076   3.023  0.2642 -0.2067 -0.5018
   17HTM    C8318571   6.877   4.965   3.055  0.5653  0.0075 -0.5710
   17HTM    C8418572   6.928   4.902   2.945  0.5319  0.0559 -0.6142
   17HTM     S918573   6.871   4.978   2.792  0.1144 -0.1674 -0.5704
   18TAL    C8518574   6.895   4.951   3.211 -0.4780  0.3269  0.0965
   18TAL    C8618575   7.006   5.033   3.284  1.3316  0.5718 -0.3137
   18TAL    C8718576   7.141   4.995   3.221 -0.8907 -0.0287 -1.0499
   18TAL    C8818577   7.263   5.029   3.307 -1.0721  0.8228 -0.4799
   18TAL    C8918578   7.372   4.927   3.274  0.0005  0.3444  1.1292
   18TAL    C9018579   7.515   4.976   3.284 -0.1888 -0.0017  0.3485
   19HTM    C9118580   7.045   4.808   2.934  1.0001 -0.1785  0.1431
   19HTM    C9218581   7.171   4.840   2.893  1.0935 -0.8863 -0.1571
   19HTM    C9318582   7.273   4.751   2.942  0.7676 -1.1547  0.0404
   19HTM    C9418583   7.224   4.650   3.020  0.4257 -0.6512  0.4914
   19HTM    S1018584   7.045   4.661   3.038  0.4894  0.2073  0.7031
   20TAL    C9518585   7.414   4.790   2.888  0.1566  0.6032 -0.8263
   20TAL    C9618586   7.447   4.772   2.732  0.0277  0.4652  0.6201
   20TAL    C9718587   7.448   4.624   2.691 -1.2764  0.6408  0.0615
   20TAL    C9818588   7.482   4.600   2.547 -0.2978  0.5402  0.6214
   20TAL    C9918589   7.629   4.628   2.510  0.2374 -0.6788  0.3448
   20TAL   C10018590   7.694   4.560   2.383 -0.1944  0.0449 -0.8833
   21HTM   C10118591   7.298   4.559   3.101  0.0510 -0.7575 -0.0065
   21HTM   C10218592   7.425   4.570   3.149  0.1837 -1.0833 -0.2702
   21HTM   C10318593   7.454   4.477   3.255  0.0982 -1.0291 -0.1979
   21HTM   C10418594   7.350   4.394   3.286 -0.0999 -0.6624  0.1209
   21HTM    S1118595   7.205   4.429   3.185 -0.1944 -0.3544  0.3565
   22TAL   C10518596   7.607   4.482   3.300  0.3072  0.0639  1.2663
   22TAL   C10618597   7.637   4.467   3.445 -0.0910 -0.4613 -0.2493
   22TAL   C10718598   7.787   4.510   3.465 -0.4952 -0.1927 -0.2260
   22TAL   C10818599   7.836   4.484   3.608  0.6180 -0.3656  0.7176
   22TAL   C10918600   7.768   4.560   3.729 -0.6697  1.1120  1.0607
   22TAL   C11018601   7.801   4.479   3.852  0.9027  0.7416  0.5424
   23HTM   C11118602   7.339   4.268   3.358  0.2454  0.5436 -0.4404
   23HTM   C11218603   7.248   4.230   3.453 -0.0126  1.0189 -0.4914
   23HTM   C11318604   7.268   4.097   3.502 -0.5083  1.0484 -0.1956
   23HTM   C11418605   7.374   4.033   3.446 -0.6282  0.5959  0.0811
   23HTM    S1218606   7.458   4.137   3.324 -0.1206  0.0931 -0.0112
   24TAL   C11518607   7.184   4.032   3.610  0.0851 -0.9249  0.3592
   24TAL   C11618608   7.146   4.123   3.727 -0.5196 -0.8504  0.1768
   24TAL   C11718609   7.074   4.063   3.845 -0.5352  0.2507 -1.1819
   24TAL   C11818610   6.958   4.150   3.881 -0.1465 -0.1585 -1.0690
   24TAL   C11918611   6.999   4.281   3.958  0.3574  0.5148 -0.3585
   24TAL   C12018612   6.869   4.339   4.001  0.4751 -0.2710 -0.5326
   25HTM   C12118613   7.436   3.906   3.494  0.0003  0.0956 -0.4157
   25HTM   C12218614   7.383   3.789   3.541 -0.2943  0.1615 -0.5752
   25HTM   C12318615   7.482   3.691   3.574 -0.5208  0.0286 -0.2828
   25HTM   C12418616   7.611   3.732   3.552 -0.3988 -0.1388  0.0994
   25HTM    S1318617   7.616   3.900   3.488  0.0148 -0.1414  0.1201
   26TAL   C12518618   7.442   3.544   3.600  0.2540 -0.7565 -0.1769
   26TAL   C12618619   7.408   3.512   3.746 -0.2782  0.4519  0.4095
   26TAL   C12718620   7.339   3.383   3.753 -0.4919  0.0691  0.4802
   26TAL   C12818621   7.415   3.258   3.709 -0.6927  0.2081 -0.7083
   26TAL   C12918622   7.509   3.204   3.809  0.1588 -0.3542 -0.2815
   26TAL   C13018623   7.579   3.083   3.737  0.2269  0.2831 -0.1578
   27HTM   C13118624   7.742   3.672   3.566  0.8378  0.3180  0.4079
   27HTM   C13218625   7.861   3.730   3.530  0.9564  0.3602  0.8639
   27HTM   C13318626   7.976   3.649   3.563  0.8242  0.1263  0.7570
   27HTM   C13418627   7.945   3.531   3.623  0.6047 -0.0943  0.2194
   27HTM    S1418628   7.767   3.511   3.643  0.5475 -0.0232 -0.1965
   28TAL   C13518629   8.124   3.702   3.547 -0.0447 -0.4340 -0.4030
   28TAL   C13618630   8.159   3.851   3.509  0.1860  0.0657 -0.0575
   28TAL   C13718631   8.089   3.970   3.581  0.3538  0.0225  0.1128
   28TAL   C13818632   8.088   3.969   3.727 -0.2884 -0.5538  0.0987
   28TAL   C13918633   8.012   4.090   3.776  0.2638 -0.6438 -0.2860
   28TAL   C14018634   8.005   4.079   3.940  0.1197 -0.0676  0.5158
   29HTM   C14118635   8.030   3.417   3.656  0.1535 -0.3186  0.4604
   29HTM   C14218636   8.015   3.294   3.599  0.4189 -0.2947  0.3372
   29HTM   C14318637   8.101   3.193   3.656  0.4892 -0.2137  0.3755
   29HTM   C14418638   8.180   3.239   3.757  0.2774 -0.1759  0.5277
   29HTM    S1518639   8.154   3.415   3.787 -0.0296 -0.2401  0.6356
   30TAL   C14518640   8.093   3.050   3.595  0.7162  0.0294 -0.0401
   30TAL   C14618641   8.026   3.029   3.457 -0.2785 -0.5441 -1.1383
   30TAL   C14718642   8.085   2.924   3.358  0.5961 -0.0987 -0.2457
   30TAL   C14818643   8.231   2.949   3.307  0.8620 -0.5906 -0.3218
   30TAL   C14918644   8.305   2.857   3.228 -0.8619  0.5373  0.5469
   30TAL   C15018645   8.440   2.912   3.191 -0.2784 -0.3815 -0.2264
   31HTM   C15118646   8.282   3.178   3.841  0.6584  0.0445 -0.3841
   31HTM   C15218647   8.372   3.079   3.816  0.5423 -0.1159 -0.1764
   31HTM   C15318648   8.456   3.047   3.929  0.3187 -0.1711 -0.0247
   31HTM   C15418649   8.429   3.122   4.040  0.2642 -0.0526 -0.1166
   31HTM    S1618650   8.295   3.239   4.011  0.4930  0.1390 -0.4040
   32TAL   C15518651   8.569   2.945   3.916  0.2184 -0.0716 -0.1508
   32TAL   C15618652   8.698   3.003   3.853 -0.5574 -0.3627  0.4579
   32TAL   C15718653   8.784   3.091   3.949 -0.7342  0.2730  0.5314
   32TAL   C15818654   8.910   3.145   3.872  0.6574 -0.5500 -0.6065
   32TAL   C15918655   9.001   3.195   3.981  0.0034 -0.9616  0.3392
   32TAL   C16018656   9.122   3.103   4.015 -0.6167  0.2315  0.2480
   33HTM   C16118657   8.496   3.115   4.172  0.3358 -0.3543  0.1518
   33HTM   C16218658   8.539   3.216   4.253  0.2673 -0.3726  0.2108
   33HTM   C16318659   8.580   3.171   4.384 -0.1472 -0.3610  0.3473
   33HTM   C16418660   8.568   3.036   4.402 -0.3948 -0.3338  0.3923
   33HTM    S1718661   8.504   2.955   4.255 -0.1215 -0.3207  0.2652
   34TAL   C16518662   8.638   3.281   4.468  0.4568  0.7544 -0.9284
   34TAL   C16618663   8.695   3.255   4.614  0.0067  0.1470  0.9889
   34TAL   C16718664   8.846   3.258   4.625  0.3814  0.7345  0.1791
   34TAL   C16818665   8.928   3.376   4.594  0.0505  0.9270  1.2113
   34TAL   C16918666   8.971   3.481   4.684  0.5012 -0.8266  0.2423
   34TAL   C17018667   9.031   3.601   4.612 -0.6219 -0.0839  0.7901
   35HTM   C17118668   8.607   2.949   4.514 -0.2370  0.3379 -0.3689
   35HTM   C17218669   8.716   2.866   4.515 -0.4454  0.0489 -0.9141
   35HTM   C17318670   8.735   2.797   4.640 -0.3849 -0.5210 -1.2307
   35HTM   C17418671   8.641   2.827   4.734 -0.1305 -0.6666 -0.9270
   35HTM    S1818672   8.520   2.946   4.672  0.0539 -0.0908 -0.2119
   36TAL   C17518673   8.847   2.705   4.659 -0.1326  1.1361  0.3456
   36TAL   C17618674   8.987   2.746   4.705  0.6777 -0.0356 -0.5811
   36TAL   C17718675   9.082   2.852   4.647 -0.5259  0.1322  0.7727
   36TAL   C17818676   9.098   2.910   4.505  0.1347  0.9632 -0.5791
   36TAL   C17918677   9.205   3.016   4.502 -0.1650 -0.1251  0.3424
   36TAL   C18018678   9.260   3.058   4.363  0.5010 -0.4704  0.7080
   37HTM   C18118679   8.628   2.764   4.860  0.8743  0.0748 -0.4305
   37HTM   C18218680   8.507   2.727   4.910  0.4839  0.8787 -0.7560
   37HTM   C18318681   8.515   2.647   5.029 -0.3964  1.5072 -0.2460
   37HTM   C18418682   8.643   2.622   5.070 -0.6771  1.1825  0.4680
   37HTM    S1918683   8.764   2.699   4.960  0.1549  0.0489  0.5527
   38TAL   C18518684   8.381   2.613   5.081  0.0035  0.3648  0.2286
   38TAL   C18618685   8.321   2.715   5.172  0.3531  0.2656 -0.2595
   38TAL   C18718686   8.173   2.708   5.219 -0.2713  0.7889  1.0377
   38TAL   C18818687   8.074   2.732   5.108  0.0967 -0.2175  0.8477
   38TAL   C18918688   7.929   2.730   5.153  0.0490  1.1242  0.6390
   38TAL   C19018689   7.875   2.842   5.235  0.3427 -0.5638 -1.7903
   39HTM   C19118690   8.687   2.531   5.175  0.0667  0.1877  0.4063
   39HTM   C19218691   8.818   2.497   5.195  0.1139  0.3631  0.4016
   39HTM   C19318692   8.838   2.409   5.307  0.2055  0.1854  0.2475
   39HTM   C19418693   8.723   2.377   5.373  0.2282 -0.1254  0.1345
   39HTM    S2018694   8.579   2.455   5.297  0.1350 -0.2186  0.2148
   40TAL   C19518695   8.969   2.350   5.343  0.1513 -0.3327  0.2829
   40TAL   C19618696   9.069   2.328   5.225 -1.2985  0.4648 -0.4037
   40TAL   C19718697   9.044   2.207   5.125 -0.7710 -0.2611 -0.0594
   40TAL   C19818698   8.960   2.090   5.174 -0.6648  0.3482  0.1923
   40TAL   C19918699   8.874   2.029   5.068  0.1939 -0.8866 -0.1233
   40TAL   C20018700   8.786   1.925   5.124 -0.0782 -0.8552 -0.0170
   41HTM   C20118701   8.691   2.296   5.488 -0.1648  0.1629  0.1267
   41HTM   C20218702   8.754   2.183   5.531 -0.1138  0.1011 -0.1034
   41HTM   C20318703   8.690   2.121   5.645  0.0873  0.0131 -0.0376
   41HTM   C20418704   8.579   2.187   5.688  0.1898  0.0076  0.2428
   41HTM    S2118705   8.545   2.333   5.587  0.0390  0.1142  0.4467
   42TAL   C20518706   8.752   2.010   5.724 -0.1681 -0.7947  1.2571
   42TAL   C20618707   8.739   1.853   5.688 -0.0567 -0.2433  0.8635
   42TAL   C20718708   8.855   1.760   5.721 -0.3235  0.3037  1.2917
   42TAL   C20818709   8.996   1.765   5.655 -0.1898  0.3981 -0.0923
   42TAL   C20918710   9.024   1.753   5.498 -0.0231 -0.4116 -1.6186
   42TAL   C21018711   9.161   1.806   5.464 -0.1410 -0.8141  0.6518
   43HTM   C21118712   8.487   2.155   5.795  0.4722  0.2632  0.0588
   43HTM   C21218713   8.351   2.167   5.787  0.4896  0.1270 -0.5282
   43HTM   C21318714   8.284   2.144   5.912 -0.0269  0.1016 -0.8070
   43HTM   C21418715   8.368   2.114   6.015 -0.4382  0.2186 -0.4326
   43HTM    S2218716   8.540   2.114   5.962 -0.2032  0.3709  0.3069
   44TAL   C21518717   8.129   2.161   5.921  0.5367 -0.5627  0.2980
   44TAL   C21618718   8.076   2.259   5.821 -0.1773  0.7289 -0.6119
   44TAL   C21718719   7.919   2.259   5.831 -0.5375 -0.1484 -0.3078
   44TAL   C21818720   7.860   2.255   5.688  0.1639  0.8822  0.2151
   44TAL   C21918721   7.712   2.222   5.698 -0.7280  0.6948  0.1808
   44TAL   C22018722   7.651   2.242   5.557  0.0147 -0.3344 -0.8166
   45HTM   C22118723   8.337   2.062   6.146  0.3155  0.2524  0.0746
   45HTM   C22218724   8.359   1.935   6.189  1.4031  0.6141  0.6652
   45HTM   C22318725   8.308   1.909   6.321  1.3745  0.7184  0.6747
   45HTM   C22418726   8.247   2.017   6.379  0.2651  0.4364  0.0909
   45HTM    S2318727   8.250   2.160   6.269 -0.8382  0.0138 -0.5204
   46TAL   C22518728   8.301   1.768   6.384  0.5649  0.7801  0.5751
   46TAL   C22618729   8.434   1.684   6.397  0.4645 -0.3421 -0.3449
   46TAL   C22718730   8.402   1.555   6.473  0.3722 -0.2093  0.0998
   46TAL   C22818731   8.506   1.444   6.485 -0.7672  0.1752  1.2757
   46TAL   C22918732   8.627   1.494   6.569 -0.0015  0.0955  0.3020
   46TAL   C23018733   8.731   1.385   6.594 -0.0903 -0.3275 -0.0403
   47HTM   C23118734   8.205   2.043   6.514 -0.1996  0.3220 -0.5687
   47HTM   C23218735   8.239   1.975   6.627  0.2159  0.3981 -0.6431
   47HTM   C23318736   8.171   2.022   6.745  0.0715 -0.0166 -0.5577
   47HTM   C23418737   8.086   2.126   6.722 -0.4542 -0.4090 -0.4179
   47HTM    S2418738   8.084   2.172   6.548 -0.8103 -0.2842 -0.3833
   48TAL   C23518739   8.181   1.962   6.886 -0.1702  0.0649 -0.2760
   48TAL   C23618740   8.128   2.030   7.012 -0.0691  0.0529 -0.1814
   48TAL   C23718741   8.154   1.952   7.140 -0.5973 -0.2211  0.0789
   48TAL   C23818742   8.134   2.043   7.253  1.1814 -0.4198  0.4717
   48TAL   C23918743   8.118   1.972   7.389 -0.0185 -0.7624 -0.2634
   48TAL   C24018744   8.252   1.897   7.438  0.1079 -0.5428 -0.4009
    1HTM     C118745   5.278   4.324  28.494  0.2840 -0.5169  0.0869
    1HTM     C218746   5.275   4.291  28.362  0.0824 -0.7216  0.1402
    1HTM     C318747   5.396   4.326  28.291 -0.2685 -0.2450 -0.2360
    1HTM     C418748   5.490   4.386  28.370 -0.3342  0.3230 -0.5766
    1HTM     S118749   5.434   4.402  28.540  0.0446  0.3000 -0.4466
    2TAL     C518750   5.415   4.285  28.141 -0.0940  0.6046  0.5228
    2TAL     C618751   5.315   4.186  28.065 -0.1820 -0.8553  1.7853
    2TAL     C718752   5.173   4.248  28.044  0.1456  0.1875  0.0713
    2TAL     C818753   5.159   4.396  27.972 -0.2709  0.6606  0.3549
    2TAL     C918754   5.252   4.426  27.857  0.0165 -1.0446 -0.6069
    2TAL    C1018755   5.274   4.568  27.842 -0.5028 -0.4179 -0.3902
    3HTM    C1118756   5.628   4.436  28.350 -0.5398  0.2019 -0.6227
    3HTM    C1218757   5.707   4.408  28.243 -0.7917  0.2673 -0.8278
    3HTM    C1318758   5.842   4.456  28.255 -0.6449 -0.1104 -0.9308
    3HTM    C1418759   5.866   4.521  28.373 -0.2809 -0.4635 -0.8048
    3HTM     S218760   5.719   4.526  28.477 -0.0939 -0.3459 -0.5447
    4TAL    C1518761   5.931   4.465  28.134  0.1163  0.5080 -0.2649
    4TAL    C1618762   5.965   4.325  28.072  0.1232 -0.5666 -0.3254
    4TAL    C1718763   6.046   4.339  27.951 -0.4257  0.2381 -0.9439
    4TAL    C1818764   6.090   4.209  27.899 -0.6418 -0.5664  0.0293
    4TAL    C1918765   6.151   4.216  27.755  0.8761 -0.2726 -0.3078
    4TAL    C2018766   6.167   4.085  27.694  0.0901 -0.0817  0.1536
    5HTM    C2118767   5.989   4.552  28.441 -0.5317  0.3009 -0.1237
    5HTM    C2218768   5.998   4.596  28.570 -0.6542  0.1420 -0.0606
    5HTM    C2318769   6.123   4.659  28.602 -0.6629  0.0527  0.1516
    5HTM    C2418770   6.211   4.663  28.497 -0.5468  0.1439  0.2521
    5HTM     S318771   6.140   4.587  28.349 -0.4166  0.3509  0.0833
    6TAL    C2518772   6.158   4.700  28.750  0.4208 -0.4317 -0.0046
    6TAL    C2618773   6.162   4.850  28.763  0.3964 -0.0814 -0.4337
    6TAL    C2718774   6.255   4.895  28.869 -0.5098 -0.2017 -1.0532
    6TAL    C2818775   6.244   5.040  28.916 -0.2943 -0.6896  0.1197
    6TAL    C2918776   6.271   5.151  28.822 -0.0568 -1.5536  1.0492
    6TAL    C3018777   6.249   5.288  28.898  0.0098 -0.4673  0.5400
    7HTM    C3118778   6.356   4.713  28.478 -0.2070 -0.0286  0.5450
    7HTM    C3218779   6.402   4.833  28.431 -0.1694 -0.0039  0.6433
    7HTM    C3318780   6.544   4.835  28.408 -0.1934 -0.0814  0.4902
    7HTM    C3418781   6.606   4.718  28.437 -0.2490 -0.1651  0.2749
    7HTM     S418782   6.490   4.594  28.497 -0.2760 -0.1524  0.2490
    8TAL    C3518783   6.612   4.971  28.363  1.4524 -0.9574  0.4205
    8TAL    C3618784   6.624   5.073  28.475 -0.1853  0.0913  0.4172
    8TAL    C3718785   6.712   5.203  28.451  0.7789 -0.3163  1.1260
    8TAL    C3818786   6.854   5.201  28.502 -0.6151  0.6630  0.0372
    8TAL    C3918787   6.918   5.336  28.506 -1.7343  0.5699 -0.1896
    8TAL    C4018788   7.072   5.347  28.539 -0.5571  0.0663  0.0380
    9HTM    C4118789   6.745   4.697  28.452  0.0851  0.6764 -0.1164
    9HTM    C4218790   6.796   4.644  28.567  0.0671  0.8837 -0.0110
    9HTM    C4318791   6.940   4.644  28.572  0.0658  0.9272  0.0286
    9HTM    C4418792   6.999   4.696  28.461  0.0829  0.7531 -0.0467
    9HTM     S518793   6.876   4.751  28.340  0.1021  0.5188 -0.1736
   10TAL    C4518794   6.997   4.587  28.708 -0.2428 -1.7420  0.6904
   10TAL    C4618795   7.059   4.686  28.809  0.2736 -0.2069  0.5531
   10TAL    C4718796   6.979   4.810  28.850  1.0156 -0.0463  0.0420
   10TAL    C4818797   7.001   4.941  28.770 -0.6060 -0.1009 -0.4921
   10TAL    C4918798   7.139   4.995  28.722 -1.1372  0.0208  0.1790
   10TAL    C5018799   7.234   5.046  28.825  0.5024  0.3900 -0.3943
   11HTM    C5118800   7.137   4.722  28.428 -0.1505  0.3561 -0.3581
   11HTM    C5218801   7.232   4.625  28.433  0.0129  0.4996 -0.6151
   11HTM    C5318802   7.366   4.673  28.409 -0.0821  0.7640 -0.6204
   11HTM    C5418803   7.373   4.807  28.386 -0.3178  0.8220 -0.3668
   11HTM     S618804   7.209   4.884  28.392 -0.4392  0.5450 -0.1010
   12TAL    C5518805   7.502   4.603  28.439  0.4202  0.7349  0.5581
   12TAL    C5618806   7.521   4.591  28.582 -0.7132 -0.2514  0.1416
   12TAL    C5718807   7.576   4.456  28.636  0.0278 -0.1470 -0.1769
   12TAL    C5818808   7.487   4.340  28.656 -0.4898  0.0456 -0.4243
   12TAL    C5918809   7.544   4.251  28.759 -0.0630 -0.8556  0.6058
   12TAL    C6018810   7.491   4.108  28.763  0.0831 -0.3940 -0.4244
   13HTM    C6118811   7.491   4.901  28.355  0.6004  0.0990  0.2871
   13HTM    C6218812   7.499   5.031  28.395  0.5163  0.1841  0.0300
   13HTM    C6318813   7.619   5.097  28.350  0.3185  0.2726 -0.3819
   13HTM    C6418814   7.702   5.018  28.277  0.2519  0.2551 -0.4389
   13HTM     S718815   7.634   4.851  28.258  0.4351  0.1245  0.0274
   14TAL    C6518816   7.655   5.238  28.406  0.2427  0.1715 -0.1558
   14TAL    C6618817   7.576   5.368  28.380 -0.6461 -0.2012  0.2637
   14TAL    C6718818   7.430   5.366  28.398 -0.1172  0.2969  0.0158
   14TAL    C6818819   7.364   5.507  28.387  0.9794 -0.8470 -0.3527
   14TAL    C6918820   7.401   5.619  28.496 -0.2706 -0.3894  0.4395
   14TAL    C7018821   7.321   5.737  28.467  0.6758  0.0030  0.5372
   15HTM    C7118822   7.830   5.050  28.227  0.3422  0.5244  0.5245
   15HTM    C7218823   7.868   5.157  28.152  0.7176  0.4121  0.5507
   15HTM    C7318824   8.003   5.147  28.101  0.6202 -0.1338  0.3896
   15HTM    C7418825   8.067   5.032  28.137  0.1706 -0.4376  0.2396
   15HTM     S818826   7.962   4.927  28.239 -0.1673 -0.0548  0.2918
   16TAL    C7518827   8.057   5.255  28.011 -0.2394 -0.1559  0.0097
   16TAL    C7618828   7.989   5.277  27.878 -0.7718 -1.4175  0.4716
   16TAL    C7718829   8.049   5.391  27.794  0.2635 -1.1072  0.0642
   16TAL    C7818830   8.027   5.414  27.647  0.2183  0.2966 -0.0735
   16TAL    C7918831   8.078   5.545  27.597 -0.4686 -0.1557  0.1733
   16TAL    C8018832   8.214   5.523  27.530 -0.2667 -0.7982 -0.4294
   17HTM    C8118833   8.206   4.991  28.109 -0.3533  0.2069 -1.0528
   17HTM    C8218834   8.253   4.866  28.137 -0.5361  0.0817 -1.3018
   17HTM    C8318835   8.395   4.851  28.118 -0.3986  0.1827 -0.4110
   17HTM    C8418836   8.456   4.965  28.076 -0.1111  0.3852  0.5170
   17HTM     S918837   8.339   5.101  28.057  0.0094  0.4641  0.3360
   18TAL    C8518838   8.450   4.714  28.151  0.2671  0.6599 -0.4618
   18TAL    C8618839   8.497   4.648  28.018  0.5800  1.1755 -0.4169
   18TAL    C8718840   8.604   4.537  28.042 -0.4231  0.4199 -0.0165
   18TAL    C8818841   8.632   4.455  27.919 -0.6238 -0.2078  0.0840
   18TAL    C8918842   8.713   4.333  27.927 -0.7441  0.4654 -0.6907
   18TAL    C9018843   8.702   4.243  27.804  0.0085  0.1842  0.7841
   19HTM    C9118844   8.593   5.016  28.063 -0.1520  0.0624 -0.0231
   19HTM    C9218845   8.634   5.140  28.027  0.0708 -0.0583 -0.1917
   19HTM    C9318846   8.775   5.162  28.044  0.0637 -0.1956  0.0510
   19HTM    C9418847   8.842   5.053  28.093 -0.1644 -0.1798  0.4044
   19HTM    S1018848   8.730   4.915  28.122 -0.3898  0.0115  0.4584
   20TAL    C9518849   8.837   5.305  28.023 -0.0674 -0.4426 -0.4522
   20TAL    C9618850   8.801   5.389  27.902 -0.8080 -0.7757 -0.5754
   20TAL    C9718851   8.670   5.470  27.919  0.9995 -0.7976 -0.3793
   20TAL    C9818852   8.616   5.560  27.821 -0.9785 -0.3731 -0.5277
   20TAL    C9918853   8.713   5.662  27.762 -1.2510  1.0169 -0.7538
   20TAL   C10018854   8.656   5.756  27.654  1.0490 -0.5717  0.2061
   21HTM   C10118855   8.972   5.030  28.116 -0.8292 -0.0640  0.5888
   21HTM   C10218856   9.074   4.992  28.034 -1.2941 -0.4900  0.1922
   21HTM   C10318857   9.204   4.999  28.097 -0.9605 -0.4376 -0.4916
   21HTM   C10418858   9.201   5.042  28.226 -0.2412  0.0280 -0.6166
   21HTM    S1118859   9.032   5.077  28.280  0.0731  0.4402  0.1256
   22TAL   C10518860   9.338   4.963  28.027 -0.3639  0.4530 -0.5305
   22TAL   C10618861   9.366   5.012  27.885 -0.1139  0.7632  0.0588
   22TAL   C10718862   9.492   4.957  27.811 -0.3691  0.4506 -1.0521
   22TAL   C10818863   9.534   5.024  27.678  0.3978 -0.1116  0.0296
   22TAL   C10918864   9.433   5.009  27.556 -0.3357 -0.5852 -0.3253
   22TAL   C11018865   9.472   5.100  27.431  0.2599  0.4052  0.6012
   23HTM   C11118866   9.320   5.064  28.306  0.1909  0.1598 -0.1193
   23HTM   C11218867   9.398   5.176  28.306  0.6295 -0.1403 -0.4001
   23HTM   C11318868   9.517   5.165  28.386  0.6507 -0.4468 -0.4721
   23HTM   C11418869   9.530   5.044  28.448  0.2283 -0.3807 -0.2475
   23HTM    S1218870   9.392   4.935  28.409 -0.2326  0.0777  0.0757
   24TAL   C11518871   9.606   5.292  28.417  1.1057 -0.2903 -1.1124
   24TAL   C11618872   9.521   5.405  28.469  0.3008 -0.4427  0.1541
   24TAL   C11718873   9.610   5.529  28.462  0.3174  0.4078  0.0542
   24TAL   C11818874   9.533   5.656  28.517 -0.6643  0.4163 -0.2352
   24TAL   C11918875   9.606   5.796  28.519  0.4399 -0.3666  0.6335
   24TAL   C12018876   9.483   5.881  28.542 -0.2719 -0.7674 -0.8164
   25HTM   C12118877   9.636   5.000  28.530  0.2357 -0.8768  0.0929
   25HTM   C12218878   9.766   5.003  28.489  0.0530 -0.8963 -0.5145
   25HTM   C12318879   9.859   4.964  28.592  0.5741 -0.2774 -0.7434
   25HTM   C12418880   9.801   4.932  28.711  1.1540  0.2140 -0.3098
   25HTM    S1318881   9.621   4.948  28.702  1.0867 -0.0689  0.4261
   26TAL   C12518882  10.010   4.954  28.554  0.6017  0.6105  0.8888
   26TAL   C12618883  10.046   4.974  28.406 -0.0122  0.0394  0.2542
   26TAL   C12718884  10.196   4.974  28.371  0.4091 -0.2151  0.6278
   26TAL   C12818885  10.260   5.104  28.374  0.5341 -0.6381  0.0962
   26TAL   C12918886  10.404   5.100  28.403 -0.1133  0.9776 -0.6629
   26TAL   C13018887  10.475   5.235  28.400  0.6574 -0.1804 -0.4920
   27HTM   C13118888   9.844   4.906  28.851  0.3848 -0.4289 -0.0746
   27HTM   C13218889   9.844   4.783  28.910  0.0931 -0.0906  0.6554
   27HTM   C13318890   9.918   4.778  29.033 -0.2309  0.5492  0.8845
   27HTM   C13418891   9.974   4.897  29.069 -0.1864  0.6988  0.3291
   27HTM    S1418892   9.938   5.026  28.948  0.2719  0.0382 -0.5330
   28TAL   C13518893   9.937   4.648  29.105  0.0970 -0.3535  0.3652
   28TAL   C13618894   9.810   4.587  29.149  0.0589  0.4667  0.3816
   28TAL   C13718895   9.831   4.475  29.247 -0.2111 -0.5893  0.3361
   28TAL   C13818896   9.866   4.343  29.177  0.2696  0.1266  0.4722
   28TAL   C13918897   9.739   4.269  29.149  0.0966  0.7953  0.2711
   28TAL   C14018898   9.752   4.134  29.068  0.4161 -0.2466  0.0134
   29HTM   C14118899  10.061   4.925  29.177 -0.3661 -0.1060  0.5197
   29HTM   C14218900  10.028   4.984  29.295  0.1057  0.0607  0.5682
   29HTM   C14318901  10.139   4.994  29.387  0.4176 -0.0205  0.2061
   29HTM   C14418902  10.255   4.942  29.338  0.1837 -0.2491 -0.1184
   29HTM    S1518903  10.234   4.876  29.172 -0.4537 -0.3806  0.0091
   30TAL   C14518904  10.110   5.056  29.522  0.9970 -0.1262 -0.1077
   30TAL   C14618905  10.101   5.209  29.508 -0.5075 -0.1215  0.2088
   30TAL   C14718906  10.072   5.264  29.636  0.1189  0.1427  0.0922
   30TAL   C14818907  10.047   5.418  29.639  0.5705 -0.4537 -0.1008
   30TAL   C14918908  10.157   5.511  29.610 -1.1873 -0.5510 -0.3803
   30TAL   C15018909  10.213   5.598  29.726  0.5541 -0.1087 -0.0369
   31HTM   C15118910  10.386   4.948  29.405  0.1383 -0.0930 -0.0198
   31HTM   C15218911  10.486   5.040  29.398  0.2201 -0.2235 -0.7225
   31HTM   C15318912  10.598   5.011  29.484  0.4457  0.0322 -0.9262
   31HTM   C15418913  10.583   4.896  29.556  0.5360  0.3577 -0.3789
   31HTM    S1618914  10.426   4.816  29.521  0.3416  0.3666  0.4427
   32TAL   C15518915  10.712   5.121  29.497 -0.4252  0.4819 -0.1020
   32TAL   C15618916  10.847   5.089  29.560 -0.9088  0.0169 -0.4136
   32TAL   C15718917  10.969   5.060  29.467 -0.3019  0.5111 -0.0466
   32TAL   C15818918  11.105   5.025  29.535  0.8506 -0.4591  0.1522
   32TAL   C15918919  11.164   5.148  29.615 -0.1043  0.2113  0.2139
   32TAL   C16018920  11.265   5.095  29.705 -0.4522  0.3058 -0.0352
   33HTM   C16118921  10.662   4.829  29.662  0.1727 -0.0091  0.2891
   33HTM   C16218922  10.698   4.877  29.784  0.3442 -0.1645  0.3015
   33HTM   C16318923  10.802   4.802  29.848  0.3087 -0.3531  0.1388
   33HTM   C16418924  10.846   4.695  29.775  0.1103 -0.3417  0.0023
   33HTM    S1718925  10.758   4.682  29.618 -0.0484 -0.0894  0.0692
   34TAL   C16518926  10.849   4.860  29.976 -0.1330  0.1575  0.5768
   34TAL   C16618927  10.961   4.967  29.970  0.4801  0.2961  0.0063
   34TAL   C16718928  10.918   5.110  29.941 -0.6232  0.7254  0.0595
   34TAL   C16818929  11.030   5.201  29.960 -0.3727  0.1875 -0.3187
   34TAL   C16918930  11.005   5.351  29.972 -0.1250 -0.1329 -0.4942
   34TAL   C17018931  10.925   5.406  30.092 -0.4180 -0.2837 -0.1149
   35HTM   C17118932  10.951   4.600  29.805 -0.4590 -0.1049 -0.3950
   35HTM   C17218933  11.073   4.607  29.865 -0.4740  0.2625 -0.4004
   35HTM   C17318934  11.139   4.479  29.877 -0.1532  0.4376 -0.2708
   35HTM   C17418935  11.067   4.375  29.825  0.1063  0.2040 -0.1667
   35HTM    S1818936  10.910   4.431  29.757 -0.0354 -0.2592 -0.2246
   36TAL   C17518937  11.292   4.466  29.918 -0.2963 -1.0514  0.1701
   36TAL   C17618938  11.372   4.601  29.928 -0.6209  0.4044  0.1195
   36TAL   C17718939  11.387   4.644  30.074  0.2773  0.1366  0.0416
   36TAL   C17818940  11.476   4.756  30.119 -1.8729 -0.8506 -0.0315
   36TAL   C17918941  11.625   4.743  30.078  0.1308  0.2772  0.6083
   36TAL   C18018942  11.686   4.731  29.941 -0.5095  0.4182 -0.5027
   37HTM   C18118943  11.086   4.231  29.813 -0.1485  0.1626  0.5287
   37HTM   C18218944  11.028   4.141  29.728 -0.7862  0.2238  0.8862
   37HTM   C18318945  11.069   4.005  29.752 -1.0757  0.1311  0.8641
   37HTM   C18418946  11.159   3.991  29.854 -0.6587 -0.0006  0.4896
   37HTM    S1918947  11.198   4.150  29.930  0.1379 -0.0182  0.1333
   38TAL   C18518948  11.023   3.892  29.661 -0.3105  0.4982  0.9086
   38TAL   C18618949  10.871   3.888  29.648 -0.1438  1.2745 -1.0189
   38TAL   C18718950  10.814   3.763  29.570  0.1888 -0.3031  0.7543
   38TAL   C18818951  10.872   3.731  29.419  1.8396  0.5135 -0.7249
   38TAL   C18918952  10.783   3.632  29.349 -0.6645 -0.2741  0.0821
   38TAL   C19018953  10.814   3.607  29.202 -0.0857 -1.1225 -0.2222
   39HTM   C19118954  11.219   3.868  29.911  0.3770  0.0489  0.1642
   39HTM   C19218955  11.353   3.843  29.910  0.3564 -0.0607  0.0800
   39HTM   C19318956  11.387   3.709  29.948  0.2548 -0.1692 -0.2038
   39HTM   C19418957  11.280   3.631  29.979  0.1978 -0.1423 -0.3360
   39HTM    S2018958  11.125   3.722  29.961  0.2686  0.0233 -0.1106
   40TAL   C19518959  11.527   3.655  29.964  0.2367 -0.0977 -0.0574
   40TAL   C19618960  11.631   3.737  30.036 -0.1881 -0.7808 -0.2707
   40TAL   C19718961  11.634   3.732  30.191 -0.2290 -0.9922  0.8776
   40TAL   C19818962  11.756   3.775  30.268 -0.7536  0.4535  0.2847
   40TAL   C19918963  11.769   3.768  30.416  0.3193  0.1857  0.6284
   40TAL   C20018964  11.846   3.652  30.474  0.5288 -0.5942  0.3731
   41HTM   C20118965  11.264   3.485  29.998 -0.4183 -0.2097  0.1931
   41HTM   C20218966  11.327   3.393  30.076 -0.9948 -0.1246  0.7778
   41HTM   C20318967  11.267   3.262  30.072 -1.0305 -0.1022  0.5575
   41HTM   C20418968  11.158   3.254  29.991 -0.4814 -0.1701 -0.1952
   41HTM    S2118969  11.122   3.413  29.913  0.1283 -0.2685 -0.6881
   42TAL   C20518970  11.332   3.140  30.128  0.0786 -0.7299  0.0877
   42TAL   C20618971  11.284   3.106  30.278  0.7723 -0.4814  0.9051
   42TAL   C20718972  11.332   2.970  30.326 -0.2709  0.9432 -0.4460
   42TAL   C20818973  11.277   2.924  30.468 -0.0866 -0.2262 -0.5012
   42TAL   C20918974  11.127   2.896  30.475  0.7232 -0.9507 -0.5491
   42TAL   C21018975  11.071   2.791  30.387  0.0357  0.9284  0.6620
   43HTM   C21118976  11.067   3.144  29.975  0.0429  0.2614 -0.2243
   43HTM   C21218977  10.959   3.111  30.052  0.3207  0.1722  0.1329
   43HTM   C21318978  10.893   2.990  30.009  0.1873  0.2019  0.2553
   43HTM   C21418979  10.950   2.931  29.900 -0.1919  0.3138 -0.0087
   43HTM    S2218980  11.094   3.025  29.842 -0.4119  0.3909 -0.4354
   44TAL   C21518981  10.761   2.948  30.059 -0.4286 -0.1509  0.7094
   44TAL   C21618982  10.773   2.852  30.179  0.7551 -0.4250  0.4737
   44TAL   C21718983  10.639   2.779  30.231  0.0398  0.7396  0.6434
   44TAL   C21818984  10.532   2.721  30.129  0.1364 -0.4169 -0.3155
   44TAL   C21918985  10.406   2.667  30.203  0.4726  0.3854 -0.0603
   44TAL   C22018986  10.318   2.773  30.259 -0.2178 -0.3838  0.1479
   45HTM   C22118987  10.923   2.813  29.827  0.8994 -0.1126 -0.2918
   45HTM   C22218988  10.929   2.803  29.691  1.4820 -0.6901 -0.2356
   45HTM   C22318989  10.876   2.679  29.640  1.2491 -0.7076  0.0421
   45HTM   C22418990  10.831   2.594  29.737  0.4887 -0.1437  0.1978
   45HTM    S2318991  10.851   2.666  29.901  0.0043  0.4582  0.0041
   46TAL   C22518992  10.875   2.660  29.495  0.5765 -0.5994 -0.4617
   46TAL   C22618993  10.808   2.756  29.395 -0.7059 -0.6308  0.2334
   46TAL   C22718994  10.712   2.701  29.300  0.6421 -0.0380  0.1233
   46TAL   C22818995  10.690   2.773  29.167 -0.2003 -0.1225 -1.2992
   46TAL   C22918996  10.603   2.701  29.068  0.0568 -1.5887 -0.7789
   46TAL   C23018997  10.573   2.790  28.947 -0.4658  0.5500 -0.2813
   47HTM   C23118998  10.792   2.461  29.738  0.0337  0.6058 -0.0700
   47HTM   C23218999  10.783   2.382  29.849  0.5161  0.3464 -0.2100
   47HTM   C23319000  10.728   2.251  29.822  0.7073  0.2907 -0.3318
   47HTM   C23419001  10.696   2.231  29.691  0.3706  0.5076 -0.2847
   47HTM    S2419002  10.732   2.377  29.591 -0.2185  0.8013 -0.0812
   48TAL   C23519003  10.711   2.139  29.919  0.3395  1.0457 -0.1493
   48TAL   C23619004  10.837   2.094  29.996 -0.3061 -0.1031 -0.1692
   48TAL   C23719005  10.790   2.005  30.113  0.1647 -0.9505  0.7326
   48TAL   C23819006  10.748   1.860  30.079 -1.0447 -0.1977  0.3784
   48TAL   C23919007  10.694   1.771  30.194 -1.0101 -0.2767 -0.4458
   48TAL   C24019008  10.670   1.630  30.157 -0.0214 -0.0682 -0.6424
    1HTM     C119009   6.753   4.328   6.487 -0.0306 -0.2536  0.1843
    1HTM     C219010   6.835   4.257   6.570 -0.2545 -0.3334  0.3383
    1HTM     C319011   6.891   4.335   6.677 -0.1352 -0.3150  0.2625
    1HTM     C419012   6.852   4.466   6.676  0.1794 -0.2211  0.0506
    1HTM     S119013   6.741   4.500   6.538  0.3511 -0.1483 -0.0706
    2TAL     C519014   6.974   4.263   6.778  0.2632  0.3430  0.5161
    2TAL     C619015   7.120   4.279   6.770 -0.2927 -0.4824  0.2190
    2TAL     C719016   7.189   4.218   6.899  1.2760 -0.6290  1.1927
    2TAL     C819017   7.174   4.301   7.021 -0.0643 -0.0614 -0.3728
    2TAL     C919018   7.231   4.229   7.138 -1.0813  0.1065 -0.2672
    2TAL    C1019019   7.154   4.204   7.268 -1.1625 -0.5406  0.6448
    3HTM    C1119020   6.890   4.582   6.754  0.7339 -0.1209 -0.2762
    3HTM    C1219021   6.907   4.709   6.708  1.0114 -0.1180 -0.1690
    3HTM    C1319022   6.939   4.805   6.810  0.5229 -0.1454  0.0136
    3HTM    C1419023   6.946   4.751   6.935 -0.1268 -0.1693  0.0458
    3HTM     S219024   6.912   4.574   6.933 -0.1727 -0.1584 -0.1541
    4TAL    C1519025   6.983   4.946   6.783 -0.4157 -0.8250  1.0132
    4TAL    C1619026   6.881   5.026   6.694  0.3080 -0.3616  0.6809
    4TAL    C1719027   6.931   5.116   6.570  0.7615  0.5636  0.0755
    4TAL    C1819028   7.051   5.211   6.586 -0.4910 -0.9392 -0.3191
    4TAL    C1919029   7.189   5.167   6.534 -0.8276 -0.2856 -0.2295
    4TAL    C2019030   7.204   5.167   6.381  1.2563  0.4425  0.2372
    5HTM    C2119031   6.968   4.799   7.072  0.0747  0.5336 -0.2214
    5HTM    C2219032   6.905   4.772   7.190  0.0609  0.5853 -0.2174
    5HTM    C2319033   6.969   4.832   7.305  0.0356  0.6527 -0.2383
    5HTM    C2419034   7.081   4.904   7.274  0.0304  0.6525 -0.2583
    5HTM     S319035   7.114   4.901   7.097  0.0570  0.5664 -0.2524
    6TAL    C2519036   6.916   4.799   7.448  0.3054 -0.4837  0.5302
    6TAL    C2619037   6.886   4.650   7.486  0.3686  0.1099  0.1927
    6TAL    C2719038   7.005   4.557   7.534  0.9559  1.2500  0.5977
    6TAL    C2819039   7.027   4.572   7.683  1.0517  0.7788 -0.3366
    6TAL    C2919040   7.159   4.533   7.745  0.8435 -0.7053  0.1409
    6TAL    C3019041   7.280   4.599   7.674  0.3945 -0.4682 -0.0484
    7HTM    C3119042   7.164   4.980   7.370 -0.2468 -0.1335  0.1991
    7HTM    C3219043   7.282   5.036   7.330 -0.1470 -0.5090 -0.0381
    7HTM    C3319044   7.359   5.091   7.438  0.1214 -0.5111 -0.2266
    7HTM    C3419045   7.300   5.078   7.560  0.2260 -0.1374 -0.1330
    7HTM     S419046   7.141   4.994   7.548 -0.0081  0.2492  0.2028
    8TAL    C3519047   7.489   5.161   7.411  0.2791  0.3556  0.7388
    8TAL    C3619048   7.600   5.065   7.364  0.6460  0.1890 -0.3707
    8TAL    C3719049   7.735   5.141   7.370 -0.2157  0.5272 -0.8398
    8TAL    C3819050   7.852   5.066   7.320 -0.9240 -0.1014 -0.2429
    8TAL    C3919051   7.854   5.033   7.171 -1.0827  0.5326 -0.0971
    8TAL    C4019052   7.948   5.112   7.077 -0.2291 -0.0367 -0.0148
    9HTM    C4119053   7.337   5.112   7.694  0.1050  0.3604 -0.9644
    9HTM    C4219054   7.371   5.042   7.806 -0.2159  0.1705 -0.9831
    9HTM    C4319055   7.401   5.125   7.920 -0.2794 -0.0142 -0.8295
    9HTM    C4419056   7.390   5.259   7.894 -0.0067  0.0349 -0.6937
    9HTM     S519057   7.340   5.290   7.724  0.3540  0.3207 -0.7498
   10TAL    C4519058   7.454   5.076   8.059  0.3398 -0.3701  0.0342
   10TAL    C4619059   7.397   4.938   8.102 -0.1737 -0.3693  0.3617
   10TAL    C4719060   7.512   4.853   8.145  0.2119 -0.1928  0.1226
   10TAL    C4819061   7.486   4.708   8.171  0.1600  0.1631 -0.4930
   10TAL    C4919062   7.620   4.647   8.197  0.0094  0.2075 -0.2124
   10TAL    C5019063   7.609   4.532   8.288  0.7539  0.4978  0.0939
   11HTM    C5119064   7.436   5.378   7.971  0.2663  0.0308 -0.2020
   11HTM    C5219065   7.469   5.498   7.916  0.3455  0.1776  0.1602
   11HTM    C5319066   7.493   5.602   8.013  0.2078 -0.0756  0.4683
   11HTM    C5419067   7.477   5.560   8.142  0.0236 -0.4157  0.3408
   11HTM     S619068   7.431   5.386   8.151  0.0096 -0.4425 -0.1824
   12TAL    C5519069   7.529   5.754   7.978  1.0287  0.8298  0.9954
   12TAL    C5619070   7.672   5.758   7.932  1.4303  0.3876  0.3197
   12TAL    C5719071   7.710   5.889   7.883 -0.5576  0.3246 -0.3083
   12TAL    C5819072   7.844   5.895   7.824  0.3007  0.2746  0.1580
   12TAL    C5919073   7.867   6.043   7.786  0.4962  0.0681 -0.0104
   12TAL    C6019074   8.001   6.073   7.716 -0.2696  0.2038  0.6687
   13HTM    C6119075   7.510   5.619   8.271 -0.6120 -0.4258 -0.1571
   13HTM    C6219076   7.582   5.567   8.374 -0.8884 -0.4970 -0.0005
   13HTM    C6319077   7.575   5.645   8.495 -0.5995 -0.1768 -0.1891
   13HTM    C6419078   7.498   5.757   8.483 -0.1028  0.1388 -0.4889
   13HTM     S719079   7.428   5.773   8.318  0.0398  0.0550 -0.5574
   14TAL    C6519080   7.636   5.605   8.626 -0.0938 -0.4714 -0.1182
   14TAL    C6619081   7.705   5.482   8.644 -0.1377  0.3431 -0.4187
   14TAL    C6719082   7.851   5.497   8.686 -0.6844 -0.0676 -0.0451
   14TAL    C6819083   7.899   5.351   8.716  0.0181 -0.2642  0.0315
   14TAL    C6919084   8.043   5.333   8.734 -0.8570 -0.3055 -0.6233
   14TAL    C7019085   8.084   5.197   8.779  0.0889  0.3019 -0.3214
   15HTM    C7119086   7.448   5.856   8.574 -0.0452  0.5104 -0.1115
   15HTM    C7219087   7.356   5.954   8.550 -0.2803  0.3808  0.2346
   15HTM    C7319088   7.347   6.051   8.656 -0.6065 -0.0802  0.6378
   15HTM    C7419089   7.431   6.027   8.760 -0.6205 -0.3018  0.5989
   15HTM     S819090   7.529   5.879   8.733 -0.2193  0.0570  0.0462
   16TAL    C7519091   7.240   6.169   8.662 -0.5558  1.1967  0.0302
   16TAL    C7619092   7.103   6.117   8.702  0.7556 -0.4836  0.2696
   16TAL    C7719093   7.022   6.036   8.591 -0.8729 -0.0787  0.1149
   16TAL    C7819094   6.931   6.100   8.488 -0.6606  0.2103  0.4895
   16TAL    C7919095   6.798   6.152   8.539 -0.3252  0.5832  0.3853
   16TAL    C8019096   6.705   6.195   8.420 -0.2152 -0.2760  0.5603
   17HTM    C8119097   7.475   6.100   8.871 -0.2469 -0.3945 -0.0752
   17HTM    C8219098   7.590   6.167   8.899 -0.2949 -0.2041 -0.3178
   17HTM    C8319099   7.585   6.242   9.022 -0.1540 -0.2291 -0.2964
   17HTM    C8419100   7.466   6.232   9.087  0.0015 -0.4384 -0.0376
   17HTM     S919101   7.350   6.127   8.998 -0.0181 -0.6217  0.2009
   18TAL    C8519102   7.707   6.313   9.081  0.0071  0.4759  0.2103
   18TAL    C8619103   7.783   6.436   9.030  0.1827 -0.0309 -1.0749
   18TAL    C8719104   7.863   6.426   8.907 -0.3378  0.9765  0.2284
   18TAL    C8819105   7.943   6.555   8.885 -0.1317 -0.5745  0.4364
   18TAL    C8919106   7.873   6.671   8.810  0.6927 -0.7466 -0.0853
   18TAL    C9019107   7.940   6.803   8.811 -0.1615 -0.3727 -0.5480
   19HTM    C9119108   7.401   6.307   9.197  0.1104  0.2426 -0.5767
   19HTM    C9219109   7.466   6.373   9.297  0.2124  0.6247 -0.8883
   19HTM    C9319110   7.378   6.442   9.388  0.2675  0.4941 -0.7348
   19HTM    C9419111   7.246   6.429   9.357  0.2072  0.0125 -0.3060
   19HTM    S1019112   7.222   6.328   9.210  0.0753 -0.3162 -0.0615
   20TAL    C9519113   7.440   6.526   9.501  0.2610  0.9309  0.3124
   20TAL    C9619114   7.550   6.476   9.594 -0.9383 -0.6649 -0.6397
   20TAL    C9719115   7.549   6.554   9.722 -0.1280  0.4698 -0.8803
   20TAL    C9819116   7.672   6.520   9.806 -0.2815  0.1514 -0.1494
   20TAL    C9919117   7.671   6.557   9.955 -0.6266 -0.2032  0.7291
   20TAL   C10019118   7.716   6.703   9.988  0.3497  0.0207  0.3835
   21HTM   C10119119   7.128   6.475   9.434  0.1497  0.5297 -1.2733
   21HTM   C10219120   7.023   6.396   9.471 -0.1796  0.4474 -2.3272
   21HTM   C10319121   6.921   6.466   9.543 -0.1280  0.0198 -1.8325
   21HTM   C10419122   6.947   6.598   9.562  0.2407 -0.2240 -0.4011
   21HTM    S1119123   7.105   6.646   9.489  0.5536  0.0700  0.4396
   22TAL   C10519124   6.796   6.398   9.594  0.3151 -0.7073 -0.1771
   22TAL   C10619125   6.727   6.309   9.491 -0.1096 -0.7068 -0.3816
   22TAL   C10719126   6.578   6.304   9.504 -0.4976 -0.9230  0.0682
   22TAL   C10819127   6.521   6.209   9.416 -0.9182  0.8218 -0.7581
   22TAL   C10919128   6.380   6.242   9.368  0.1306 -1.3052  0.0143
   22TAL   C11019129   6.363   6.183   9.227  0.1379 -0.0166 -0.1120
   23HTM   C11119130   6.880   6.709   9.625  0.0106  0.0250 -0.1785
   23HTM   C11219131   6.869   6.840   9.587  0.1043  0.0192 -0.2255
   23HTM   C11319132   6.792   6.920   9.678  0.1415  0.1019 -0.2670
   23HTM   C11419133   6.743   6.851   9.785  0.0763  0.1708 -0.2519
   23HTM    S1219134   6.792   6.678   9.779 -0.0379  0.1362 -0.1836
   24TAL   C11519135   6.778   7.072   9.638 -1.0717  1.1897  0.4254
   24TAL   C11619136   6.692   7.182   9.704  0.0595  0.6667  0.2056
   24TAL   C11719137   6.541   7.166   9.685  0.1706  0.5186  0.6541
   24TAL   C11819138   6.460   7.252   9.595  0.4539  0.0391  0.2034
   24TAL   C11919139   6.458   7.405   9.622  1.2303 -0.2313 -0.0708
   24TAL   C12019140   6.333   7.496   9.581 -1.1210 -0.5093 -0.2913
   25HTM   C12119141   6.647   6.889   9.892  0.1965 -0.0219 -0.1885
   25HTM   C12219142   6.665   6.916  10.024  0.3853 -0.4045 -0.1338
   25HTM   C12319143   6.542   6.935  10.097  0.4821 -0.7582  0.1321
   25HTM   C12419144   6.431   6.924  10.020  0.3673 -0.6453  0.2798
   25HTM    S1319145   6.472   6.886   9.848  0.1260 -0.0791  0.0934
   26TAL   C12519146   6.534   6.969  10.245 -0.4031  1.3242 -1.1560
   26TAL   C12619147   6.600   7.099  10.288 -0.3252 -0.6162  0.3801
   26TAL   C12719148   6.565   7.237  10.224  0.5876  0.2317  0.2413
   26TAL   C12819149   6.644   7.355  10.287 -0.3518 -0.0544  0.3630
   26TAL   C12919150   6.773   7.399  10.219 -0.3068 -0.1352 -1.0827
   26TAL   C13019151   6.886   7.304  10.199  0.5390  0.4429 -0.5191
   27HTM   C13119152   6.292   6.969  10.041 -0.1529 -0.1106 -0.8934
   27HTM   C13219153   6.249   7.098  10.052 -0.0811 -0.0933 -0.8185
   27HTM   C13319154   6.106   7.113  10.045 -0.1107 -0.0700 -0.2446
   27HTM   C13419155   6.040   6.996  10.029 -0.2048 -0.0695  0.1178
   27HTM    S1419156   6.153   6.856  10.021 -0.2640 -0.0986 -0.2399
   28TAL   C13519157   6.062   7.266  10.045 -0.3700  1.0433  1.0197
   28TAL   C13619158   5.924   7.286  10.105  0.3636 -0.3486 -0.5881
   28TAL   C13719159   5.910   7.288  10.257 -0.2015  0.3870 -0.3577
   28TAL   C13819160   5.989   7.399  10.326  0.5991  0.1406 -0.5514
   28TAL   C13919161   5.985   7.369  10.478 -1.1219 -0.3908  0.0409
   28TAL   C14019162   6.124   7.303  10.506  0.0442  0.2983  0.5034
   29HTM   C14119163   5.895   6.954  10.034  0.3721 -0.4024  0.0546
   29HTM   C14219164   5.784   7.018   9.987  0.2912  0.2395  1.0593
   29HTM   C14319165   5.665   6.937   9.987  0.0236  0.6226  1.2617
   29HTM   C14419166   5.685   6.810  10.034 -0.0996  0.2731  0.4112
   29HTM    S1519167   5.857   6.784  10.082  0.1146 -0.5740 -0.7200
   30TAL   C14519168   5.531   6.990   9.932 -1.4506 -0.2343 -0.6058
   30TAL   C14619169   5.424   7.057  10.019  0.1652 -0.4402 -0.6991
   30TAL   C14719170   5.485   7.172  10.117  1.0342  0.3492  0.0493
   30TAL   C14819171   5.376   7.203  10.221 -0.2503 -0.2139 -0.5529
   30TAL   C14919172   5.413   7.286  10.353  0.3283  0.3261  0.1095
   30TAL   C15019173   5.526   7.382  10.372 -0.2567  0.8803  0.6285
   31HTM   C15119174   5.594   6.707  10.056  0.2311 -0.3743 -0.2739
   31HTM   C15219175   5.608   6.604  10.144  0.2539 -0.4829 -0.4044
   31HTM   C15319176   5.496   6.514  10.145  0.0979 -0.2899 -0.2370
   31HTM   C15419177   5.397   6.548  10.058 -0.0440 -0.0342  0.0211
   31HTM    S1619178   5.438   6.699   9.967  0.0090 -0.0170  0.0739
   32TAL   C15519179   5.489   6.408  10.259  0.4052 -0.1812  0.3747
   32TAL   C15619180   5.479   6.268  10.214  0.3662 -0.2711 -0.2633
   32TAL   C15719181   5.588   6.185  10.156 -1.0541 -0.5843  0.3348
   32TAL   C15819182   5.565   6.040  10.132  0.1334  0.2060 -0.8345
   32TAL   C15919183   5.555   6.010   9.990 -1.6924  0.2911  0.4363
   32TAL   C16019184   5.513   5.857   9.959 -0.9039 -0.5942 -0.1918
   33HTM   C16119185   5.262   6.490  10.036  0.2183  0.4357 -0.5491
   33HTM   C16219186   5.198   6.399  10.114  0.8243 -0.1040 -0.6616
   33HTM   C16319187   5.062   6.372  10.073  0.6576 -0.1799 -0.0877
   33HTM   C16419188   5.024   6.443   9.963 -0.0758  0.3018  0.4622
   33HTM    S1719189   5.156   6.550   9.903 -0.6166  0.8935  0.2966
   34TAL   C16519190   4.971   6.289  10.165 -0.1237  0.6778 -0.0820
   34TAL   C16619191   4.981   6.141  10.161 -0.1160 -0.0738  0.1221
   34TAL   C16719192   4.955   6.078  10.291  0.4638  0.7635 -1.4098
   34TAL   C16819193   4.806   6.032  10.295 -0.5016  0.3172 -0.4623
   34TAL   C16919194   4.743   6.043  10.442 -0.3370 -0.5273  0.1309
   34TAL   C17019195   4.796   5.964  10.557 -0.2217 -0.3960 -0.3069
   35HTM   C17119196   4.904   6.451   9.884 -0.3567  0.0412  0.3193
   35HTM   C17219197   4.884   6.404   9.758  0.0101 -0.1653  0.3347
   35HTM   C17319198   4.746   6.408   9.716  0.1107 -0.3676 -0.0184
   35HTM   C17419199   4.661   6.456   9.810 -0.1793 -0.3152 -0.3024
   35HTM    S1819200   4.749   6.502   9.961 -0.6052 -0.0040 -0.1456
   36TAL   C17519201   4.703   6.349   9.583 -0.9853 -0.5255 -1.1443
   36TAL   C17619202   4.775   6.414   9.460 -0.0795 -0.5224 -0.0174
   36TAL   C17719203   4.720   6.381   9.317 -0.4948  0.0658 -0.6115
   36TAL   C17819204   4.578   6.339   9.310  1.1328 -0.4292 -0.0054
   36TAL   C17919205   4.538   6.321   9.164 -0.1060 -0.7459 -0.1556
   36TAL   C18019206   4.400   6.263   9.140 -0.1108  0.9033  0.0144
   37HTM   C18119207   4.518   6.488   9.799  0.2997  0.1236 -1.0017
   37HTM   C18219208   4.443   6.600   9.777  0.1609  0.0327 -0.9983
   37HTM   C18319209   4.302   6.575   9.768  0.0937 -0.0224 -0.0441
   37HTM   C18419210   4.268   6.443   9.782  0.1811  0.0263  0.6801
   37HTM    S1919211   4.414   6.340   9.809  0.3568  0.1468  0.2094
   38TAL   C18519212   4.193   6.686   9.742 -0.7221 -0.4533  1.2675
   38TAL   C18619213   4.186   6.758   9.612  0.2949 -0.0139  0.6330
   38TAL   C18719214   4.116   6.885   9.639 -0.5097 -0.8552  0.7625
   38TAL   C18819215   4.023   6.937   9.527  0.3584 -0.5020 -0.3900
   38TAL   C18919216   3.885   6.871   9.550 -1.0837  0.4478 -0.7342
   38TAL   C19019217   3.772   6.968   9.509  0.4552 -0.2882 -0.5437
   39HTM   C19119218   4.141   6.381   9.777 -0.1311  0.4591  0.3568
   39HTM   C19219219   4.072   6.336   9.669  0.0471  0.8954  0.0548
   39HTM   C19319220   3.936   6.298   9.699  0.1143  0.4102 -0.2418
   39HTM   C19419221   3.902   6.314   9.830 -0.0125 -0.3964 -0.1655
   39HTM    S2019222   4.040   6.379   9.927 -0.2285 -0.6067  0.2895
   40TAL   C19519223   3.837   6.257   9.581  0.6981  0.1821 -0.3905
   40TAL   C19619224   3.875   6.146   9.478  0.1555 -0.2624 -0.2756
   40TAL   C19719225   3.912   6.005   9.521  1.0703  0.1725  0.4452
   40TAL   C19819226   3.779   5.943   9.584 -0.6525  0.4276 -0.5909
   40TAL   C19919227   3.794   5.794   9.633  0.0909 -0.3013 -0.3379
   40TAL   C20019228   3.665   5.742   9.708 -1.0619 -0.7204 -0.2094
   41HTM   C20119229   3.781   6.279   9.902 -0.2527  0.0525 -0.0294
   41HTM   C20219230   3.761   6.303  10.035  0.0905 -0.2576  0.0811
   41HTM   C20319231   3.642   6.240  10.088  0.2282 -0.3827  0.2437
   41HTM   C20419232   3.572   6.169   9.996 -0.0101 -0.1680  0.2569
   41HTM    S2119233   3.650   6.175   9.834 -0.4300  0.2117  0.0636
   42TAL   C20519234   3.604   6.252  10.238  0.0023 -1.3550 -0.1909
   42TAL   C20619235   3.610   6.394  10.303  0.5760 -0.6302 -0.4100
   42TAL   C20719236   3.468   6.457  10.316 -0.5037  0.4915 -0.8777
   42TAL   C20819237   3.461   6.559  10.431 -0.5944 -0.7876  0.3455
   42TAL   C20919238   3.333   6.630  10.456  0.3306  0.0619 -0.2410
   42TAL   C21019239   3.276   6.724  10.357 -0.9842  0.6719 -0.2350
   43HTM   C21119240   3.445   6.101   9.994 -0.2377 -0.7596 -0.3840
   43HTM   C21219241   3.407   6.001   9.909 -0.6112 -0.9888  0.0441
   43HTM   C21319242   3.276   5.949   9.936 -0.4968 -0.9282  0.7660
   43HTM   C21419243   3.213   6.009  10.041 -0.0360 -0.6527  0.8889
   43HTM    S2219244   3.316   6.137  10.115  0.2916 -0.4468  0.0961
   44TAL   C21519245   3.233   5.824   9.857 -0.0367  0.6383 -0.9222
   44TAL   C21619246   3.318   5.771   9.742 -0.4307 -0.2466 -0.6400
   44TAL   C21719247   3.280   5.644   9.670  0.2935  0.5084  0.3060
   44TAL   C21819248   3.320   5.506   9.736  0.8015 -0.7267  0.2882
   44TAL   C21919249   3.306   5.397   9.638 -0.0486  1.1035  0.6110
   44TAL   C22019250   3.338   5.259   9.697  0.0598 -0.5615 -0.3501
   45HTM   C22119251   3.081   5.982  10.101  0.2493 -1.0377  0.1866
   45HTM   C22219252   3.051   5.982  10.234  0.4227 -1.1213  0.2253
   45HTM   C22319253   2.914   5.949  10.263  0.2654 -0.3970  0.3400
   45HTM   C22419254   2.839   5.924  10.152 -0.0279  0.2390  0.3889
   45HTM    S2319255   2.936   5.941  10.001 -0.1290 -0.0296  0.2934
   46TAL   C22519256   2.850   5.968  10.401 -0.7305  0.0394 -1.1762
   46TAL   C22619257   2.931   6.024  10.526  0.3582  0.2206  0.3504
   46TAL   C22719258   2.889   5.926  10.635  1.2269  0.2946 -0.8417
   46TAL   C22819259   2.990   5.932  10.753  0.2946  1.0772  0.4549
   46TAL   C22919260   2.966   5.830  10.863 -0.8640 -0.6344  0.6601
   46TAL   C23019261   3.067   5.851  10.977 -0.0108 -1.1541  0.2895
   47HTM   C23119262   2.698   5.869  10.131 -0.6873  1.0499 -0.5019
   47HTM   C23219263   2.576   5.899  10.184 -0.9369  0.8003 -0.9212
   47HTM   C23319264   2.467   5.828  10.123 -0.4671 -0.2642 -0.5672
   47HTM   C23419265   2.505   5.743  10.024  0.1407 -0.8262  0.1228
   47HTM    S2419266   2.684   5.747   9.999  0.1671 -0.0483  0.3803
   48TAL   C23519267   2.325   5.871  10.171  0.6004 -0.1939  0.5927
   48TAL   C23619268   2.220   5.772  10.144  0.6137 -0.1175 -0.3635
   48TAL   C23719269   2.082   5.809  10.215 -0.7515  0.1582 -0.3593
   48TAL   C23819270   1.980   5.701  10.227 -0.2425  0.9978 -0.5115
   48TAL   C23919271   1.924   5.618  10.112  0.0566  0.4202  0.0320
   48TAL   C24019272   1.839   5.689  10.010  0.4228 -0.3931  0.3885
    1HTM     C119273   4.065   6.846   2.000  0.1448  0.6706 -0.2531
    1HTM     C219274   4.060   6.965   2.066  0.2438  0.8699 -0.6016
    1HTM     C319275   4.188   7.030   2.078  0.3660  0.5997 -0.4312
    1HTM     C419276   4.290   6.960   2.022  0.3600  0.1947  0.0472
    1HTM     S119277   4.233   6.806   1.948  0.1987  0.1223  0.3218
    2TAL     C519278   4.215   7.151   2.175 -0.3188  0.2523 -0.0603
    2TAL     C619279   4.270   7.111   2.310 -0.5324 -0.3876 -0.8448
    2TAL     C719280   4.158   7.116   2.423 -0.4603 -1.9737 -0.4794
    2TAL     C819281   4.178   7.088   2.571  0.0015 -0.4244  0.1973
    2TAL     C919282   4.255   6.958   2.609 -0.1162  0.6945  0.4906
    2TAL    C1019283   4.404   6.954   2.579  0.1282 -0.4901  0.4010
    3HTM    C1119284   4.429   6.975   2.007  0.1055 -0.1769  0.4070
    3HTM    C1219285   4.532   6.893   2.043 -0.0063 -0.3564  0.3223
    3HTM    C1319286   4.662   6.954   2.029  0.0974 -0.6253  0.0975
    3HTM    C1419287   4.658   7.082   1.983  0.2882 -0.6508  0.0108
    3HTM     S219288   4.489   7.136   1.952  0.3522 -0.3349  0.2079
    4TAL    C1519289   4.762   6.869   2.082  0.3057 -0.3040 -0.7489
    4TAL    C1619290   4.903   6.860   2.026  0.2467  0.0755 -0.6077
    4TAL    C1719291   4.924   6.823   1.878  0.4699 -0.0267 -0.0274
    4TAL    C1819292   4.873   6.692   1.827  0.2122 -0.0162  0.2841
    4TAL    C1919293   4.921   6.651   1.686 -0.5768 -0.6559  0.1480
    4TAL    C2019294   5.063   6.689   1.637  0.4126  0.1542  0.0624
    5HTM    C2119295   4.764   7.175   1.951  0.2966 -0.6215 -0.3056
    5HTM    C2219296   4.848   7.223   2.047 -0.1408 -0.3968 -0.0287
    5HTM    C2319297   4.928   7.334   2.004 -0.3701 -0.1138  0.2685
    5HTM    C2419298   4.905   7.372   1.875 -0.1077 -0.1226  0.2181
    5HTM     S319299   4.779   7.268   1.797  0.4537 -0.4920 -0.2118
    6TAL    C2519300   5.043   7.373   2.104 -0.0133 -0.2858  0.2710
    6TAL    C2619301   5.155   7.278   2.140  0.0271  0.3016  0.6816
    6TAL    C2719302   5.250   7.216   2.034  0.4296  0.6960 -1.3927
    6TAL    C2819303   5.335   7.342   1.989  0.3976  0.8511 -0.0374
    6TAL    C2919304   5.402   7.299   1.855  1.0475 -0.4327 -0.4125
    6TAL    C3019305   5.542   7.303   1.884 -0.1557  1.2575  0.0420
    7HTM    C3119306   4.954   7.493   1.802 -0.1140  0.0392 -0.1553
    7HTM    C3219307   4.869   7.577   1.738 -0.0222 -0.1176 -0.4874
    7HTM    C3319308   4.932   7.697   1.688  0.0582 -0.2612 -0.7310
    7HTM    C3419309   5.065   7.703   1.714  0.0275 -0.2138 -0.5847
    7HTM     S419310   5.122   7.558   1.804 -0.1061  0.0176 -0.1243
    8TAL    C3519311   4.854   7.799   1.603 -0.2936  0.2392 -0.2980
    8TAL    C3619312   4.822   7.942   1.652  0.2233 -0.0862 -0.5139
    8TAL    C3719313   4.727   7.962   1.771 -0.7480  1.1702 -0.0074
    8TAL    C3819314   4.669   8.091   1.787  0.6266 -0.5392  0.2109
    8TAL    C3919315   4.614   8.118   1.930  0.6014  1.0446  0.7113
    8TAL    C4019316   4.690   8.213   2.016  0.3035 -0.4081 -0.1925
    9HTM    C4119317   5.162   7.806   1.689  0.3654 -0.1644  0.4606
    9HTM    C4219318   5.219   7.842   1.570  0.1334 -0.2611  0.3192
    9HTM    C4319319   5.311   7.952   1.581 -0.0509 -0.0730  0.0041
    9HTM    C4419320   5.325   8.000   1.708  0.0409  0.1670 -0.0950
    9HTM     S519321   5.221   7.909   1.825  0.3695  0.1742  0.2045
   10TAL    C4519322   5.363   8.006   1.454 -0.3852 -0.6146  0.2316
   10TAL    C4619323   5.327   8.151   1.438  1.0936  0.3325  0.8632
   10TAL    C4719324   5.295   8.179   1.287  0.4579  0.2324  0.4141
   10TAL    C4819325   5.274   8.327   1.247 -0.2465 -0.4143 -0.1635
   10TAL    C4919326   5.150   8.399   1.306 -0.2409 -0.6327  0.4212
   10TAL    C5019327   5.148   8.550   1.280 -0.4963  0.2644 -0.3791
   11HTM    C5119328   5.397   8.112   1.767  0.3481  0.1150  0.1618
   11HTM    C5219329   5.525   8.155   1.752  0.4246 -0.0201  0.4277
   11HTM    C5319330   5.559   8.267   1.837  0.3465 -0.0099  0.4454
   11HTM    C5419331   5.456   8.309   1.915  0.2105  0.1330  0.1930
   11HTM     S619332   5.307   8.211   1.889  0.1700  0.2667 -0.0889
   12TAL    C5519333   5.704   8.320   1.827  0.6606  0.2582 -0.3720
   12TAL    C5619334   5.793   8.304   1.707 -0.3786  0.1162 -0.3638
   12TAL    C5719335   5.890   8.413   1.667 -0.0487 -1.3200 -0.7890
   12TAL    C5819336   5.972   8.375   1.550 -0.4586  0.7072 -0.4918
   12TAL    C5919337   6.067   8.257   1.576 -0.3065  0.7583  0.3764
   12TAL    C6019338   6.150   8.192   1.459 -0.0090 -0.8882 -1.1975
   13HTM    C6119339   5.444   8.411   2.018 -0.1216  0.3371 -0.1443
   13HTM    C6219340   5.333   8.454   2.083 -0.4138  0.3699 -0.6591
   13HTM    C6319341   5.357   8.562   2.175 -0.7704  0.2355 -0.4017
   13HTM    C6419342   5.487   8.601   2.180 -0.7501  0.1002  0.3096
   13HTM     S719343   5.590   8.504   2.068 -0.2753  0.1324  0.7124
   14TAL    C6519344   5.238   8.623   2.241  1.5327 -0.2035 -0.2604
   14TAL    C6619345   5.111   8.650   2.152  0.1790 -0.0541  0.0621
   14TAL    C6719346   4.974   8.675   2.218 -0.8967  0.2311  1.1103
   14TAL    C6819347   4.946   8.761   2.338  0.1659  0.5157 -0.2637
   14TAL    C6919348   4.977   8.912   2.357  1.1361 -0.0101  0.0218
   14TAL    C7019349   4.907   8.998   2.247 -0.7924  0.2312 -0.4464
   15HTM    C7119350   5.548   8.684   2.280  0.5843 -0.7608 -0.5961
   15HTM    C7219351   5.523   8.814   2.315  0.0813 -0.7997 -0.8029
   15HTM    C7319352   5.609   8.864   2.418 -0.3796 -0.4240 -0.5951
   15HTM    C7419353   5.700   8.773   2.463 -0.2280 -0.0986 -0.2296
   15HTM     S819354   5.684   8.615   2.377  0.5140 -0.2426 -0.1189
   16TAL    C7519355   5.591   9.002   2.471  0.9381  0.1852 -0.5080
   16TAL    C7619356   5.451   9.038   2.536 -0.2210  0.0270 -0.7014
   16TAL    C7719357   5.434   9.190   2.520 -0.3545 -1.4538 -0.7919
   16TAL    C7819358   5.294   9.246   2.567 -0.7725 -0.1366  1.2891
   16TAL    C7919359   5.267   9.400   2.555  0.0380  0.5562  0.0605
   16TAL    C8019360   5.290   9.454   2.689  0.2934 -0.2983  0.2563
   17HTM    C8119361   5.801   8.780   2.570  0.3602  0.2808  0.1313
   17HTM    C8219362   5.802   8.844   2.691  0.5113  0.2501  0.1463
   17HTM    C8319363   5.914   8.809   2.773  0.3880 -0.0981  0.1715
   17HTM    C8419364   5.999   8.719   2.716  0.1427 -0.3330  0.1758
   17HTM     S919365   5.943   8.670   2.552  0.0478 -0.1309  0.1480
   18TAL    C8519366   5.938   8.895   2.891  0.3445 -0.4483  0.5789
   18TAL    C8619367   5.968   9.045   2.872  0.0491 -0.2804  0.5179
   18TAL    C8719368   6.022   9.112   3.005  1.2631 -0.4280  0.7193
   18TAL    C8819369   6.119   9.222   2.953  0.4851  0.7437  0.2727
   18TAL    C8919370   6.203   9.293   3.062 -0.2916  0.4739 -0.1294
   18TAL    C9019371   6.314   9.203   3.104 -0.4661  0.5141  0.5240
   19HTM    C9119372   6.127   8.657   2.761  0.6311 -0.4201 -0.8773
   19HTM    C9219373   6.227   8.608   2.683  1.1367 -0.4318 -0.2308
   19HTM    C9319374   6.346   8.574   2.757  0.7273 -0.2760  0.5199
   19HTM    C9419375   6.336   8.598   2.891 -0.0906 -0.1456  0.4458
   19HTM    S1019376   6.175   8.664   2.935 -0.4092 -0.2098 -0.5860
   20TAL    C9519377   6.479   8.524   2.697 -0.3074  0.2257 -0.0338
   20TAL    C9619378   6.492   8.479   2.551  0.3065  1.4675  0.1326
   20TAL    C9719379   6.636   8.464   2.521  0.1804 -0.0906 -0.5144
   20TAL    C9819380   6.660   8.500   2.378 -0.4127  0.3686 -0.5228
   20TAL    C9919381   6.665   8.380   2.292  0.0034  1.3852  0.8809
   20TAL   C10019382   6.716   8.420   2.151  0.2121  0.0872 -0.4465
   21HTM   C10119383   6.444   8.617   2.993  0.0419 -0.0139 -0.1431
   21HTM   C10219384   6.461   8.736   3.059  0.4399  0.1810 -0.5885
   21HTM   C10319385   6.578   8.738   3.144  0.5391  0.1678 -0.7237
   21HTM   C10419386   6.649   8.622   3.143  0.2164 -0.0374 -0.3813
   21HTM    S1119387   6.574   8.499   3.034 -0.2410 -0.2312  0.1422
   22TAL   C10519388   6.609   8.866   3.229  0.7928 -0.4146  0.5365
   22TAL   C10619389   6.591   9.002   3.153 -0.2428 -0.6725 -0.4306
   22TAL   C10719390   6.708   9.033   3.057 -0.9052 -0.1844  0.6043
   22TAL   C10819391   6.839   9.065   3.130 -0.8044  0.3443  1.0156
   22TAL   C10919392   6.958   9.046   3.036 -0.0972 -0.1296  0.0012
   22TAL   C11019393   7.099   9.043   3.102  0.3740 -0.8770  0.4097
   23HTM   C11119394   6.755   8.579   3.226  0.2113  0.3805 -0.3760
   23HTM   C11219395   6.817   8.459   3.207 -0.1405  0.2657 -0.8340
   23HTM   C11319396   6.902   8.420   3.317 -0.1856 -0.3639 -1.0166
   23HTM   C11419397   6.905   8.510   3.419  0.1318 -0.7292 -0.6980
   23HTM    S1219398   6.800   8.652   3.385  0.5153 -0.3031 -0.1381
   24TAL   C11519399   7.001   8.307   3.307  0.3045  0.1988  1.0278
   24TAL   C11619400   6.939   8.160   3.281 -0.6060  0.0997  0.6974
   24TAL   C11719401   7.005   8.025   3.258 -0.8958  0.5102  0.1254
   24TAL   C11819402   7.105   8.026   3.148 -0.5981 -1.4658  0.1077
   24TAL   C11919403   7.120   7.885   3.098 -0.4792 -0.3080  0.9128
   24TAL   C12019404   7.253   7.864   3.030  0.3732 -0.3962  0.8950
   25HTM   C12119405   6.974   8.518   3.549 -0.1895 -0.7948 -0.3162
   25HTM   C12219406   6.944   8.596   3.657 -0.5578 -0.3054 -0.7635
   25HTM   C12319407   7.041   8.589   3.762 -0.5760  0.6865 -0.6667
   25HTM   C12419408   7.146   8.506   3.735 -0.2218  0.9532 -0.1456
   25HTM    S1319409   7.130   8.429   3.573  0.1654 -0.0350  0.2664
   26TAL   C12519410   7.023   8.676   3.889  0.0012  0.0602  0.3834
   26TAL   C12619411   7.072   8.822   3.908 -0.0617  0.3812  0.2583
   26TAL   C12719412   7.027   8.931   3.809  0.4907  0.6209  0.1920
   26TAL   C12819413   6.879   8.981   3.808 -0.0009 -0.1539 -1.0043
   26TAL   C12919414   6.822   9.037   3.679 -0.0485 -0.2489 -0.4946
   26TAL   C13019415   6.824   8.949   3.553 -0.7157 -0.5670 -0.1107
   27HTM   C13119416   7.267   8.477   3.803  0.0354  0.0353  0.3033
   27HTM   C13219417   7.342   8.558   3.883  0.0571  0.1263  0.1913
   27HTM   C13319418   7.462   8.496   3.933  0.2003  0.2667  0.0246
   27HTM   C13419419   7.478   8.367   3.890  0.2878  0.2826  0.0096
   27HTM    S1419420   7.343   8.314   3.784  0.1953  0.1203  0.2063
   28TAL   C13519421   7.550   8.568   4.036  0.1223 -0.4558 -0.5145
   28TAL   C13619422   7.527   8.547   4.183 -0.1666  0.5489  0.7705
   28TAL   C13719423   7.386   8.563   4.243  0.3343 -0.6106  1.4956
   28TAL   C13819424   7.321   8.699   4.240 -0.7985 -0.0439  0.2424
   28TAL   C13919425   7.204   8.715   4.333 -0.4393 -0.4817  0.2185
   28TAL   C14019426   7.127   8.851   4.326 -0.3919  0.6030  0.1157
   29HTM   C14119427   7.560   8.255   3.928 -0.0495  0.1896 -0.0808
   29HTM   C14219428   7.695   8.267   3.943 -0.1161  0.3023  0.4479
   29HTM   C14319429   7.764   8.141   3.955 -0.0512  0.3587  0.6801
   29HTM   C14419430   7.681   8.033   3.948  0.0649  0.2889  0.3285
   29HTM    S1519431   7.509   8.082   3.927  0.1015  0.1455 -0.3283
   30TAL   C14519432   7.917   8.126   3.961 -0.0433 -0.4446 -0.3737
   30TAL   C14619433   8.006   8.221   3.897  0.4159 -0.6792 -0.6578
   30TAL   C14719434   7.991   8.259   3.756  0.6843  1.1652  0.4214
   30TAL   C14819435   8.058   8.169   3.646 -0.3030 -0.0683  0.1687
   30TAL   C14919436   7.954   8.058   3.589 -0.5875 -1.6343  0.0096
   30TAL   C15019437   8.011   7.989   3.459 -0.5474  0.0266 -0.6942
   31HTM   C15119438   7.709   7.889   3.959  0.1760 -0.0909 -0.2286
   31HTM   C15219439   7.627   7.797   3.901  0.3205 -0.1990 -0.2636
   31HTM   C15319440   7.674   7.661   3.912  0.4135 -0.1539 -0.1047
   31HTM   C15419441   7.792   7.650   3.979  0.3400 -0.0116  0.0515
   31HTM    S1619442   7.853   7.810   4.034  0.1460  0.0774  0.0097
   32TAL   C15519443   7.589   7.553   3.863  0.2198  0.6780 -1.7252
   32TAL   C15619444   7.511   7.563   3.734 -0.0177  0.3614  0.4943
   32TAL   C15719445   7.438   7.428   3.690 -0.5901 -0.7470 -0.5414
   32TAL   C15819446   7.321   7.446   3.609  0.3421  0.1635  0.6269
   32TAL   C15919447   7.356   7.471   3.462 -0.0485 -0.3072  0.2860
   32TAL   C16019448   7.231   7.503   3.378 -0.5779 -0.0064  0.5702
   33HTM   C16119449   7.881   7.538   4.014  0.0284  0.0148 -0.6141
   33HTM   C16219450   7.991   7.539   4.094  0.0217 -0.0238 -0.6045
   33HTM   C16319451   8.050   7.408   4.112 -0.2006 -0.0912 -0.3551
   33HTM   C16419452   7.984   7.309   4.046 -0.3634 -0.1039 -0.1743
   33HTM    S1719453   7.842   7.372   3.955 -0.2477 -0.0312 -0.3063
   34TAL   C16519454   8.165   7.379   4.212  0.0063  0.2034  0.3848
   34TAL   C16619455   8.161   7.444   4.349 -0.6413  1.0311 -0.6402
   34TAL   C16719456   8.274   7.393   4.444  0.0520 -0.8764  0.6767
   34TAL   C16819457   8.301   7.250   4.462 -0.5671  0.4025 -0.2300
   34TAL   C16919458   8.401   7.217   4.572 -0.4863 -0.1435  0.3883
   34TAL   C17019459   8.465   7.079   4.572  0.0942 -0.6849  1.6412
   35HTM   C17119460   8.002   7.166   4.057 -0.2381 -0.0439 -0.0465
   35HTM   C17219461   8.115   7.090   4.047 -0.0940  0.1609  0.0165
   35HTM   C17319462   8.090   6.948   4.049  0.1573  0.1143 -0.0557
   35HTM   C17419463   7.958   6.916   4.060  0.2048 -0.1261 -0.1735
   35HTM    S1819464   7.854   7.063   4.069 -0.0663 -0.3135 -0.2030
   36TAL   C17519465   8.204   6.848   4.041  0.5732 -0.1695 -0.0198
   36TAL   C17619466   8.289   6.828   4.163  0.3506 -0.3395  0.3175
   36TAL   C17719467   8.397   6.726   4.162 -0.2109  0.1029  0.7782
   36TAL   C17819468   8.475   6.692   4.292 -0.2310 -0.0240 -0.1594
   36TAL   C17919469   8.592   6.581   4.271  1.5032  0.9762 -0.3654
   36TAL   C18019470   8.699   6.560   4.378  0.2537 -0.4437  0.5477
   37HTM   C18119471   7.899   6.780   4.065  0.1446  0.0073 -0.5754
   37HTM   C18219472   7.955   6.656   4.074  0.1841  0.0025 -0.8624
   37HTM   C18319473   7.860   6.549   4.060  0.1194  0.0097 -0.4979
   37HTM   C18419474   7.732   6.591   4.041  0.0305  0.0202  0.0670
   37HTM    S1919475   7.721   6.771   4.038  0.0217  0.0218  0.1832
   38TAL   C18519476   7.899   6.403   4.066 -0.0491  0.1243 -0.1316
   38TAL   C18619477   8.023   6.344   4.142 -0.1757 -0.3299 -0.9253
   38TAL   C18719478   8.158   6.329   4.071  0.1974 -0.2075  0.9108
   38TAL   C18819479   8.251   6.246   4.152 -0.7491  0.1338 -0.2775
   38TAL   C18919480   8.324   6.288   4.288  1.0229  0.5836  0.5890
   38TAL   C19019481   8.236   6.284   4.417 -0.9405 -0.6478  0.9941
   39HTM   C19119482   7.610   6.513   4.003 -0.1583  1.0525 -1.4911
   39HTM   C19219483   7.484   6.542   4.045 -0.2189  1.0049 -1.6401
   39HTM   C19319484   7.386   6.443   4.008  0.0985  0.2428 -0.5467
   39HTM   C19419485   7.438   6.338   3.938  0.4010 -0.2910  0.4358
   39HTM    S2019486   7.616   6.357   3.913  0.3078  0.1310  0.0534
   40TAL   C19519487   7.235   6.454   4.038  0.4029  0.2561 -0.3556
   40TAL   C19619488   7.170   6.576   3.970  0.8149  0.4843 -0.2214
   40TAL   C19719489   7.023   6.585   4.012 -0.2420  0.1380 -0.4415
   40TAL   C19819490   6.968   6.716   4.006  1.0104 -1.0216 -1.1006
   40TAL   C19919491   6.812   6.707   3.996  0.2301  0.3194 -0.6933
   40TAL   C20019492   6.748   6.840   4.033  0.1527 -0.0438 -0.0876
   41HTM   C20119493   7.380   6.222   3.881  0.1447 -0.3765  0.2337
   41HTM   C20219494   7.248   6.210   3.850  0.1054  0.1904  0.1615
   41HTM   C20319495   7.212   6.083   3.794 -0.3346  0.4950 -0.2725
   41HTM   C20419496   7.318   5.997   3.782 -0.6308  0.1602 -0.5311
   41HTM    S2119497   7.471   6.072   3.841 -0.3750 -0.5711 -0.2444
   42TAL   C20519498   7.072   6.025   3.788 -0.4105 -1.3094  0.2727
   42TAL   C20619499   6.947   6.110   3.829  0.3734  0.4781  0.5474
   42TAL   C20719500   6.918   6.104   3.980  0.4159  0.2493 -0.9603
   42TAL   C20819501   6.823   6.214   4.034 -0.3222  0.7177  1.4047
   42TAL   C20919502   6.794   6.235   4.188 -0.4768 -0.4974 -0.2181
   42TAL   C21019503   6.732   6.134   4.271 -0.2132 -0.0273  0.0509
   43HTM   C21119504   7.349   5.863   3.731 -0.1801 -0.0166 -0.0793
   43HTM   C21219505   7.260   5.761   3.717 -0.1438 -0.1003  0.2770
   43HTM   C21319506   7.316   5.643   3.656 -0.1761 -0.1907  0.4201
   43HTM   C21419507   7.448   5.656   3.623 -0.2375 -0.1762  0.1729
   43HTM    S2219508   7.512   5.819   3.668 -0.2592 -0.0461 -0.2631
   44TAL   C21519509   7.232   5.516   3.647  0.5337 -1.0340 -0.6553
   44TAL   C21619510   7.126   5.488   3.534 -0.6415  0.0311  0.2760
   44TAL   C21719511   7.177   5.434   3.403  1.1837 -1.2978 -0.4870
   44TAL   C21819512   7.138   5.531   3.293 -0.4559  0.0532  0.3354
   44TAL   C21919513   7.141   5.449   3.161 -0.0589 -0.1447  0.2731
   44TAL   C22019514   7.102   5.549   3.047 -0.2274 -0.3092 -0.2366
   45HTM   C22119515   7.543   5.562   3.565  0.2422 -0.1071  0.3062
   45HTM   C22219516   7.529   5.488   3.451  0.1660  0.0079  0.2404
   45HTM   C22319517   7.651   5.424   3.408  0.2207  0.3386 -0.1048
   45HTM   C22419518   7.758   5.450   3.488  0.3387  0.4756 -0.3025
   45HTM    S2319519   7.713   5.557   3.626  0.3902  0.1957 -0.0659
   46TAL   C22519520   7.646   5.336   3.271  0.0203  0.4336  0.1703
   46TAL   C22619521   7.583   5.389   3.138  0.0337  0.3899 -1.2035
   46TAL   C22719522   7.613   5.303   3.013  0.3576  0.1422  0.0578
   46TAL   C22819523   7.554   5.367   2.892  1.3754  0.6292  1.0800
   46TAL   C22919524   7.434   5.288   2.840 -0.1663  0.5561 -0.0860
   46TAL   C23019525   7.386   5.378   2.727  0.4247 -0.0531 -0.6841
   47HTM   C23119526   7.887   5.384   3.492  0.0774  0.2341  0.1324
   47HTM   C23219527   7.986   5.409   3.583  0.0716  0.2929  0.1227
   47HTM   C23319528   8.093   5.313   3.580  0.1650  0.3999  0.0610
   47HTM   C23419529   8.077   5.215   3.486  0.2419  0.4226  0.0237
   47HTM    S2419530   7.923   5.237   3.394  0.2021  0.3097  0.0639
   48TAL   C23519531   8.202   5.333   3.686  0.5084 -0.6419  0.5091
   48TAL   C23619532   8.327   5.248   3.677  0.1853  0.6743 -0.6056
   48TAL   C23719533   8.429   5.282   3.777  0.0411 -0.5422 -0.8963
   48TAL   C23819534   8.504   5.150   3.807  0.5041 -0.1388 -0.3533
   48TAL   C23919535   8.634   5.172   3.879  0.3184  0.4512  0.3259
   48TAL   C24019536   8.758   5.238   3.806  0.0848  0.4135 -0.3283
    1HTM     C119537   4.929   6.183   1.858  0.4940  0.4175 -0.3184
    1HTM     C219538   4.798   6.213   1.835  0.5521  0.4722 -0.5860
    1HTM     C319539   4.740   6.301   1.933  0.3418  0.3588 -0.6061
    1HTM     C419540   4.827   6.339   2.031  0.1233  0.2176 -0.3538
    1HTM     S119541   4.990   6.265   2.006  0.1668  0.2170 -0.0691
    2TAL     C519542   4.583   6.331   1.915 -0.2228  0.3040 -0.5884
    2TAL     C619543   4.487   6.214   1.971 -0.2834 -0.8816 -0.0309
    2TAL     C719544   4.487   6.068   1.931  0.5831 -0.0849  0.2991
    2TAL     C819545   4.448   5.969   2.039  0.4302 -0.7207 -0.1131
    2TAL     C919546   4.474   5.822   2.010  0.4818 -0.7497  0.0939
    2TAL    C1019547   4.606   5.780   2.048  0.5998  0.5649  0.1872
    3HTM    C1119548   4.798   6.407   2.163 -0.2594  0.6491 -0.5614
    3HTM    C1219549   4.882   6.479   2.242 -0.2710  1.3337 -1.1541
    3HTM    C1319550   4.820   6.528   2.363  0.0876  1.1090 -0.8754
    3HTM    C1419551   4.689   6.493   2.375  0.3724  0.2533 -0.0702
    3HTM     S219552   4.633   6.395   2.235  0.2090 -0.3402  0.4023
    4TAL    C1519553   4.893   6.602   2.474  0.6429  1.0068 -0.5141
    4TAL    C1619554   5.005   6.537   2.554  0.7192  0.3240 -0.2423
    4TAL    C1719555   5.030   6.611   2.681 -0.1364 -0.5634  0.4152
    4TAL    C1819556   5.149   6.538   2.734 -0.4962  1.1033 -0.1296
    4TAL    C1919557   5.199   6.604   2.862 -0.0418  0.3809 -1.3001
    4TAL    C2019558   5.341   6.620   2.870  0.3831  0.0408  0.1233
    5HTM    C2119559   4.583   6.518   2.474 -0.1349  0.5139  0.5197
    5HTM    C2219560   4.452   6.547   2.451 -0.2338  0.3213  0.8289
    5HTM    C2319561   4.372   6.554   2.571 -0.0398 -0.1614  0.9902
    5HTM    C2419562   4.442   6.530   2.685  0.2071 -0.3368  0.8041
    5HTM     S319563   4.616   6.497   2.650  0.2137  0.0974  0.4074
    6TAL    C2519564   4.221   6.578   2.552  0.3048  0.1501 -0.2679
    6TAL    C2619565   4.161   6.613   2.421 -0.3091  1.0332  0.2496
    6TAL    C2719566   4.077   6.493   2.358  0.2715 -0.9968 -1.8063
    6TAL    C2819567   4.009   6.534   2.241  0.9401  0.4821  0.9991
    6TAL    C2919568   3.921   6.426   2.178  0.6150 -0.3139  0.0695
    6TAL    C3019569   3.857   6.465   2.046 -0.6862  0.5786 -0.6775
    7HTM    C3119570   4.411   6.543   2.828  0.3743 -0.1450  0.1194
    7HTM    C3219571   4.464   6.469   2.929  0.0460 -0.3991  0.1097
    7HTM    C3319572   4.393   6.483   3.054 -0.1875 -0.4884 -0.0119
    7HTM    C3419573   4.286   6.567   3.048 -0.0373 -0.3026 -0.0949
    7HTM     S419574   4.266   6.636   2.882  0.4142  0.0023 -0.0255
    8TAL    C3519575   4.459   6.418   3.170  0.6474 -0.0235  0.1728
    8TAL    C3619576   4.580   6.489   3.236  1.3149  0.1988  0.0907
    8TAL    C3719577   4.569   6.527   3.386  1.1086 -1.0484  0.6824
    8TAL    C3819578   4.639   6.670   3.414  0.0059 -0.0702  0.1430
    8TAL    C3919579   4.748   6.666   3.512  0.4340  0.4806  0.0292
    8TAL    C4019580   4.701   6.633   3.656  0.5861  0.3216  0.0304
    9HTM    C4119581   4.192   6.619   3.148  0.1195 -0.2385  0.1235
    9HTM    C4219582   4.208   6.665   3.276  0.1265  0.3304 -0.0771
    9HTM    C4319583   4.086   6.710   3.337  0.1850  0.9383 -0.3880
    9HTM    C4419584   3.977   6.698   3.257  0.2228  0.8331 -0.4246
    9HTM     S519585   4.019   6.629   3.096  0.1872 -0.0490 -0.0663
   10TAL    C4519586   4.088   6.768   3.472  1.4704 -0.3252 -0.0006
   10TAL    C4619587   4.213   6.783   3.554  0.2332 -0.3269 -0.4054
   10TAL    C4719588   4.215   6.880   3.675 -0.7006  0.1995 -0.2296
   10TAL    C4819589   4.159   7.009   3.650  0.3375  0.2626  0.7313
   10TAL    C4919590   4.207   7.100   3.765  0.4600 -0.0378 -0.5760
   10TAL    C5019591   4.142   7.238   3.733 -0.9145  1.0393 -0.3117
   11HTM    C5119592   3.844   6.689   3.315 -0.2109  0.0894 -0.1367
   11HTM    C5219593   3.788   6.781   3.398 -0.3650  0.1454 -0.3018
   11HTM    C5319594   3.648   6.760   3.422 -0.4097  0.1576 -0.5394
   11HTM    C5419595   3.597   6.651   3.359 -0.2899  0.1108 -0.5554
   11HTM     S619596   3.723   6.566   3.261 -0.1098  0.0474 -0.2694
   12TAL    C5519597   3.576   6.838   3.535 -0.7240 -1.0307  1.3785
   12TAL    C5619598   3.658   6.903   3.647 -0.7134  0.3697 -0.1722
   12TAL    C5719599   3.581   6.936   3.773 -0.6753  0.2966 -0.5435
   12TAL    C5819600   3.663   7.009   3.878  0.4935 -0.7924 -0.4029
   12TAL    C5919601   3.781   6.934   3.952 -0.4060 -0.0296 -0.0682
   12TAL    C6019602   3.722   6.818   4.041  1.0408  0.3766  0.1839
   13HTM    C6119603   3.463   6.584   3.362  0.1025 -0.8419  0.3330
   13HTM    C6219604   3.420   6.469   3.303 -0.1978 -1.2159  1.2453
   13HTM    C6319605   3.280   6.441   3.325 -0.2508 -0.7299  1.5553
   13HTM    C6419606   3.217   6.535   3.401  0.0091  0.0145  0.8794
   13HTM     S719607   3.329   6.667   3.450  0.3434  0.1607 -0.2094
   14TAL    C6519608   3.223   6.316   3.265 -0.0755 -0.0370  0.5614
   14TAL    C6619609   3.087   6.321   3.191 -0.5728 -0.0882 -0.2477
   14TAL    C6719610   3.018   6.193   3.162  0.4408  0.4230  0.1698
   14TAL    C6819611   3.099   6.074   3.105  0.1317  0.7005 -1.1022
   14TAL    C6919612   3.013   5.955   3.073  0.1563  0.4301  0.4234
   14TAL    C7019613   3.102   5.855   2.986  0.0008  0.2217  0.0177
   15HTM    C7119614   3.091   6.528   3.467 -0.4126  0.1554  0.3604
   15HTM    C7219615   3.021   6.635   3.514 -0.1099 -0.1311  1.5259
   15HTM    C7319616   2.902   6.599   3.586  0.0573 -0.5865  1.5823
   15HTM    C7419617   2.881   6.465   3.595 -0.1180 -0.6472  0.4597
   15HTM     S819618   3.011   6.372   3.511 -0.5109 -0.1299 -0.7653
   16TAL    C7519619   2.838   6.710   3.664 -0.3354  0.3946 -0.1336
   16TAL    C7619620   2.909   6.771   3.778 -0.1845 -0.0400 -0.7630
   16TAL    C7719621   2.850   6.904   3.843 -0.7029 -0.9879  0.8875
   16TAL    C7819622   2.711   6.907   3.903  0.0464  1.1156 -0.2843
   16TAL    C7919623   2.691   7.039   3.977 -0.3202 -0.1391  1.0646
   16TAL    C8019624   2.550   7.038   4.015  0.0743 -0.4103  0.3137
   17HTM    C8119625   2.774   6.372   3.651  0.3094  0.2580  0.6960
   17HTM    C8219626   2.773   6.236   3.638  0.7151  0.2149  1.0920
   17HTM    C8319627   2.656   6.174   3.692  0.6359  0.0761  0.7632
   17HTM    C8419628   2.566   6.262   3.746  0.1697  0.0135  0.1164
   17HTM     S919629   2.625   6.432   3.733 -0.2083  0.1256 -0.1295
   18TAL    C8519630   2.643   6.025   3.693 -0.4571  0.3161 -0.4557
   18TAL    C8619631   2.773   5.939   3.672 -0.1711 -0.8207  0.1233
   18TAL    C8719632   2.745   5.787   3.659 -0.7071 -0.0225  0.7173
   18TAL    C8819633   2.644   5.720   3.577  0.5216 -0.9499 -1.2026
   18TAL    C8919634   2.671   5.730   3.433 -0.0336 -0.2728  0.5897
   18TAL    C9019635   2.564   5.661   3.349 -0.6709  0.7788  0.3635
   19HTM    C9119636   2.428   6.248   3.798  0.5410 -0.2960 -0.6239
   19HTM    C9219637   2.346   6.356   3.804  0.5901 -0.1916 -1.5185
   19HTM    C9319638   2.220   6.330   3.869  0.4912  0.3459 -1.4853
   19HTM    C9419639   2.206   6.202   3.912  0.3665  0.6516 -0.5655
   19HTM    S1019640   2.352   6.103   3.874  0.3644  0.2809  0.3373
   20TAL    C9519641   2.107   6.433   3.899  0.1627 -0.6235  0.4836
   20TAL    C9619642   2.116   6.570   3.838 -0.3235  0.3895  0.6264
   20TAL    C9719643   2.013   6.661   3.897 -0.2489  0.1430 -0.0394
   20TAL    C9819644   2.087   6.793   3.941  0.3990  0.3240  0.0962
   20TAL    C9919645   2.005   6.914   3.982 -0.5316 -0.4909  0.4456
   20TAL   C10019646   1.892   6.909   4.087 -0.4156 -0.2457 -0.5367
   21HTM   C10119647   2.101   6.122   3.972 -0.1285  0.1592  0.4066
   21HTM   C10219648   2.108   6.016   4.057 -0.1848  0.0479  0.2710
   21HTM   C10319649   1.980   5.962   4.094 -0.2040 -0.1253 -0.0416
   21HTM   C10419650   1.874   6.028   4.037 -0.1625 -0.1460 -0.1440
   21HTM    S1119651   1.930   6.164   3.933 -0.0953  0.0533  0.1483
   22TAL   C10519652   1.966   5.839   4.176  0.0989  0.3821 -1.0358
   22TAL   C10619653   2.080   5.808   4.271  1.7423 -1.7037 -0.2654
   22TAL   C10719654   2.009   5.857   4.409 -0.3977  0.6183 -0.9740
   22TAL   C10819655   2.099   5.941   4.507 -0.2811 -1.0435  0.8548
   22TAL   C10919656   2.255   5.913   4.507  0.8674 -0.8185  0.8136
   22TAL   C11019657   2.332   6.024   4.433  0.4989  0.4324 -0.4646
   23HTM   C11119658   1.728   6.027   4.056 -0.0437  0.1645  0.0653
   23HTM   C11219659   1.632   6.086   3.979 -0.1386  0.3616  0.3353
   23HTM   C11319660   1.498   6.044   4.012 -0.0856  0.1466  0.2770
   23HTM   C11419661   1.493   5.953   4.113  0.0498 -0.2145 -0.0376
   23HTM    S1219662   1.657   5.913   4.175  0.1213 -0.3116 -0.2862
   24TAL   C11519663   1.371   6.077   3.931 -0.8184 -0.0580  0.0030
   24TAL   C11619664   1.355   6.226   3.895 -1.0177  0.4345 -0.5508
   24TAL   C11719665   1.228   6.254   3.820 -0.3150  0.3319 -0.1165
   24TAL   C11819666   1.222   6.388   3.747 -0.0263 -0.1995 -0.0497
   24TAL   C11919667   1.212   6.520   3.828 -0.0354 -0.5226  0.4942
   24TAL   C12019668   1.169   6.638   3.749 -0.0275  0.0448  0.8344
   25HTM   C12119669   1.383   5.867   4.168 -0.2772  0.2200 -0.2159
   25HTM   C12219670   1.399   5.740   4.216 -0.0085  0.4132  0.2142
   25HTM   C12319671   1.278   5.680   4.265  0.0780  0.2416  0.2205
   25HTM   C12419672   1.168   5.761   4.254 -0.1248 -0.0823 -0.2045
   25HTM    S1319673   1.211   5.920   4.181 -0.4433 -0.1968 -0.6493
   26TAL   C12519674   1.287   5.536   4.322  0.3226  0.0695  0.3574
   26TAL   C12619675   1.374   5.417   4.263 -0.4541  0.1305 -0.0094
   26TAL   C12719676   1.344   5.285   4.339 -0.6500  0.6021  0.3920
   26TAL   C12819677   1.427   5.189   4.258  0.2882  0.6157  0.0638
   26TAL   C12919678   1.445   5.054   4.331  0.0710 -0.3991  0.2856
   26TAL   C13019679   1.537   4.959   4.241  0.4569  0.1021 -0.3514
   27HTM   C13119680   1.025   5.738   4.275  0.2931  1.0019  0.8629
   27HTM   C13219681   0.960   5.618   4.284  1.0481  0.5795  0.8514
   27HTM   C13319682   0.817   5.629   4.273  1.0065 -0.4038  0.1516
   27HTM   C13419683   0.773   5.757   4.256  0.2199 -0.7309 -0.3705
   27HTM    S1419684   0.910   5.874   4.252 -0.5352  0.1846 -0.0161
   28TAL   C13519685   0.719   5.515   4.270 -0.9763 -0.9250 -1.1821
   28TAL   C13619686   0.708   5.442   4.143  0.4255  0.2918  0.2726
   28TAL   C13719687   0.591   5.336   4.152  0.4555 -0.5878  0.0394
   28TAL   C13819688   0.553   5.281   4.016 -0.3825  0.5765  0.2570
   28TAL   C13919689   0.432   5.178   4.000 -0.0352 -0.3278  0.2333
   28TAL   C14019690   0.454   5.057   4.084  0.2400  0.4373 -0.2095
   29HTM   C14119691   0.646   5.826   4.252 -0.1210 -0.0098  0.1545
   29HTM   C14219692   0.533   5.784   4.188 -0.2919  0.0044  0.4432
   29HTM   C14319693   0.425   5.878   4.195 -0.2238  0.0708  0.6198
   29HTM   C14419694   0.455   5.992   4.264 -0.0009  0.1071  0.4654
   29HTM    S1519695   0.624   5.988   4.326  0.1413  0.0601  0.0823
   30TAL   C14519696   0.302   5.850   4.103 -1.4452  0.4027 -0.4627
   30TAL   C14619697   0.171   5.840   4.168  0.0797 -0.2997 -0.0915
   30TAL   C14719698   0.061   5.818   4.074 -0.5826  0.6904  0.3008
   30TAL   C14819699  -0.053   5.732   4.107  0.3606  0.3078 -0.0705
   30TAL   C14919700  -0.152   5.766   4.215  0.1023 -0.1844 -0.4095
   30TAL   C15019701  -0.261   5.869   4.190  0.7977 -1.0357  0.0220
   31HTM   C15119702   0.378   6.102   4.314  0.0715  0.2795 -0.1360
   31HTM   C15219703   0.244   6.124   4.304  0.1051  0.3071 -0.5991
   31HTM   C15319704   0.201   6.247   4.364 -0.0944  0.2477 -0.6199
   31HTM   C15419705   0.302   6.320   4.419 -0.2801  0.1751 -0.1724
   31HTM    S1619706   0.461   6.238   4.399 -0.2169  0.1759  0.3139
   32TAL   C15519707   0.051   6.282   4.358 -0.1685 -0.6496 -0.9514
   32TAL   C15619708  -0.018   6.245   4.483 -0.3243 -1.0322 -0.3972
   32TAL   C15719709  -0.156   6.230   4.443 -0.3697  0.8951 -0.2813
   32TAL   C15819710  -0.271   6.197   4.546  0.3941  0.6157  0.4673
   32TAL   C15919711  -0.260   6.057   4.598 -0.8868 -0.6099  0.0301
   32TAL   C16019712  -0.396   6.007   4.637 -0.9242 -0.1766  0.0601
   33HTM   C16119713   0.300   6.439   4.486  0.3095 -0.3947 -0.6413
   33HTM   C16219714   0.353   6.472   4.607  0.4399 -0.6349 -0.6329
   33HTM   C16319715   0.333   6.609   4.644  0.2637 -0.7668 -0.2257
   33HTM   C16419716   0.264   6.682   4.551 -0.0011 -0.6269  0.0764
   33HTM    S1719717   0.219   6.581   4.409 -0.0489 -0.3153 -0.1314
   34TAL   C16519718   0.400   6.657   4.774  0.1422 -0.2608  0.8206
   34TAL   C16619719   0.315   6.675   4.901  0.2077 -0.1063  0.2855
   34TAL   C16719720   0.386   6.758   4.992 -1.4110 -0.0460 -0.4641
   34TAL   C16819721   0.315   6.764   5.130 -0.1895  0.7552 -0.3804
   34TAL   C16919722   0.348   6.880   5.226 -0.1699 -0.1266  0.1913
   34TAL   C17019723   0.237   6.895   5.330 -0.4415  0.0909  0.5740
   35HTM   C17119724   0.221   6.823   4.538 -0.7570  0.1515  0.4681
   35HTM   C17219725   0.184   6.884   4.422 -1.6308 -0.0194  0.6413
   35HTM   C17319726   0.140   7.020   4.440 -1.2968  0.0763  0.7521
   35HTM   C17419727   0.144   7.063   4.569 -0.1684  0.3202  0.6633
   35HTM    S1819728   0.203   6.933   4.680  0.5657  0.4490  0.4308
   36TAL   C17519729   0.131   7.105   4.313 -0.0092  0.3377 -0.5658
   36TAL   C17619730   0.099   7.050   4.176 -0.6524 -0.1237  0.3955
   36TAL   C17719731  -0.031   6.990   4.138  1.1426  0.0372  0.3670
   36TAL   C17819732  -0.163   7.065   4.164  0.2032 -0.3343 -1.1906
   36TAL   C17919733  -0.191   7.192   4.089  0.2377 -1.2951  0.0379
   36TAL   C18019734  -0.339   7.230   4.116  0.7080  1.2792 -0.5845
   37HTM   C18119735   0.111   7.184   4.636 -0.3777 -0.6927  0.2530
   37HTM   C18219736   0.182   7.238   4.740 -0.7486 -0.8228  0.5782
   37HTM   C18319737   0.124   7.359   4.793 -0.8994 -0.8489  0.4746
   37HTM   C18419738   0.010   7.397   4.729 -0.6434 -0.7386  0.0703
   37HTM    S1919739  -0.035   7.283   4.597 -0.1885 -0.5920 -0.2131
   38TAL   C18519740   0.185   7.415   4.915  0.2147 -0.5103  0.0388
   38TAL   C18619741   0.247   7.330   5.027 -0.3303 -0.0997 -0.9747
   38TAL   C18719742   0.174   7.357   5.161 -0.3941  0.0751  1.4457
   38TAL   C18819743   0.232   7.278   5.271 -1.4835 -0.0185  0.1125
   38TAL   C18919744   0.166   7.298   5.403  0.7701 -0.1782  0.0966
   38TAL   C19019745   0.175   7.426   5.488  0.6285  0.0060 -0.0891
   39HTM   C19119746  -0.064   7.527   4.745 -0.1537  0.5473 -0.7956
   39HTM   C19219747  -0.200   7.536   4.751 -0.2000  0.7261 -1.7246
   39HTM   C19319748  -0.248   7.661   4.803 -0.3722  0.6272 -1.6420
   39HTM   C19419749  -0.148   7.749   4.836 -0.4570  0.3729 -0.6502
   39HTM    S2019750   0.015   7.678   4.804 -0.3250  0.2376  0.2638
   40TAL   C19519751  -0.397   7.667   4.836  0.3648 -0.7228  0.4760
   40TAL   C19619752  -0.418   7.592   4.970 -0.5129  0.0150  0.1837
   40TAL   C19719753  -0.572   7.558   4.966 -1.1919 -0.2704  0.1254
   40TAL   C19819754  -0.616   7.539   5.106  0.2981  1.2080  0.0793
   40TAL   C19919755  -0.753   7.474   5.100  0.2116  1.0048  0.5954
   40TAL   C20019756  -0.771   7.335   5.170 -0.3849  0.3448 -0.1723
   41HTM   C20119757  -0.130   7.891   4.877 -0.4455 -0.4469 -0.1038
   41HTM   C20219758  -0.017   7.965   4.898 -0.2750 -0.7456  0.0527
   41HTM   C20319759  -0.041   8.089   4.967  0.0083 -0.8325  0.3119
   41HTM   C20419760  -0.172   8.110   4.999  0.0541 -0.5999  0.3528
   41HTM    S2119761  -0.276   7.973   4.944 -0.2596 -0.2505  0.0650
   42TAL   C20519762   0.089   8.150   5.037  0.1702  0.0680 -0.4468
   42TAL   C20619763   0.180   8.258   4.976  0.8906 -0.9356 -0.0328
   42TAL   C20719764   0.136   8.354   4.864 -0.7637  0.0715  1.3318
   42TAL   C20819765   0.252   8.438   4.796  0.9031 -0.5657 -0.5439
   42TAL   C20919766   0.193   8.568   4.732 -0.4775  0.5345  0.2400
   42TAL   C21019767   0.287   8.679   4.720 -1.2096 -0.2497 -0.2646
   43HTM   C21119768  -0.234   8.227   5.065 -0.2534  0.2206 -0.5229
   43HTM   C21219769  -0.180   8.335   5.129 -0.0393  0.1137 -0.5198
   43HTM   C21319770  -0.279   8.427   5.181  0.1287  0.0224 -0.0243
   43HTM   C21419771  -0.407   8.389   5.156  0.0427  0.0597  0.3504
   43HTM    S2219772  -0.414   8.233   5.065 -0.2594  0.2142  0.1045
   44TAL   C21519773  -0.240   8.561   5.237 -0.6723 -0.0037  0.1768
   44TAL   C21619774  -0.226   8.676   5.147 -0.3973 -0.8502  0.2298
   44TAL   C21719775  -0.078   8.704   5.090  0.2708 -0.4336  0.2879
   44TAL   C21819776  -0.054   8.727   4.936 -0.2738 -1.0495 -0.1389
   44TAL   C21919777  -0.149   8.657   4.840 -0.7203 -0.0899  0.1476
   44TAL   C22019778  -0.167   8.720   4.711 -0.2353  0.0067  0.0820
   45HTM   C22119779  -0.524   8.470   5.172  0.2024 -0.8716  0.0454
   45HTM   C22219780  -0.581   8.563   5.091  0.2348 -1.2035 -0.3641
   45HTM   C22319781  -0.669   8.655   5.159  0.0541 -1.0392 -0.8069
   45HTM   C22419782  -0.679   8.631   5.293 -0.1161 -0.5819 -0.7348
   45HTM    S2319783  -0.578   8.490   5.343 -0.0614 -0.3213 -0.0973
   46TAL   C22519784  -0.728   8.779   5.093  0.7029  0.0711 -0.3181
   46TAL   C22619785  -0.855   8.752   5.011  0.2480 -0.1001 -0.6219
   46TAL   C22719786  -0.901   8.882   4.940  0.5459  0.4769 -0.5576
   46TAL   C22819787  -0.798   8.956   4.858 -0.0916 -0.0817  0.4930
   46TAL   C22919788  -0.756   8.891   4.729  0.6043  0.0596  1.0305
   46TAL   C23019789  -0.628   8.958   4.666  0.6688 -0.5293  0.2885
   47HTM   C23119790  -0.748   8.710   5.396 -0.2225 -0.2591 -0.2264
   47HTM   C23219791  -0.699   8.768   5.509 -0.4351 -0.5264  0.0046
   47HTM   C23319792  -0.801   8.827   5.593 -0.5760 -0.5889 -0.1220
   47HTM   C23419793  -0.927   8.815   5.543 -0.4710 -0.3693 -0.4494
   47HTM    S2419794  -0.927   8.726   5.385 -0.1837 -0.0640 -0.6247
   48TAL   C23519795  -0.782   8.895   5.734 -0.1547  0.1920  0.8154
   48TAL   C23619796  -0.756   8.808   5.863 -0.5334  0.6450 -0.8425
   48TAL   C23719797  -0.630   8.716   5.854 -0.3495 -0.3089 -0.1948
   48TAL   C23819798  -0.589   8.625   5.970 -0.2602 -0.0857  0.1920
   48TAL   C23919799  -0.692   8.526   6.015  0.2393  0.7131  0.8884
   48TAL   C24019800  -0.653   8.422   6.119  0.1153 -0.0029  1.1602
    1HTM     C119801   1.485   4.553  21.416 -1.4814 -0.0016 -0.1346
    1HTM     C219802   1.507   4.685  21.388 -2.3817  0.2409  0.2203
    1HTM     C319803   1.486   4.720  21.250 -2.1314  0.3531  0.2093
    1HTM     C419804   1.448   4.615  21.172 -1.0402  0.1962 -0.1539
    1HTM     S119805   1.435   4.462  21.268 -0.2379 -0.1079 -0.5130
    2TAL     C519806   1.511   4.865  21.201  0.1330 -0.6337 -0.1235
    2TAL     C619807   1.454   4.975  21.290 -0.4489 -0.3321 -0.1758
    2TAL     C719808   1.490   5.116  21.236 -0.5212  0.2488  0.0018
    2TAL     C819809   1.635   5.165  21.246  0.4910  1.2600  0.7583
    2TAL     C919810   1.661   5.317  21.238 -0.4015 -0.0741  0.9196
    2TAL    C1019811   1.807   5.365  21.260  0.4150  0.2194 -0.6045
    3HTM    C1119812   1.431   4.602  21.031 -0.3203 -0.1719 -0.2857
    3HTM    C1219813   1.516   4.546  20.941 -0.5222 -0.1185 -0.5121
    3HTM    C1319814   1.467   4.548  20.806 -0.8067  0.0032 -0.4082
    3HTM    C1419815   1.345   4.607  20.793 -0.8219  0.0426 -0.1035
    3HTM     S219816   1.281   4.664  20.952 -0.4751 -0.0718  0.0784
    4TAL    C1519817   1.568   4.523  20.687  0.1855  0.1107  0.0450
    4TAL    C1619818   1.644   4.392  20.674  0.3751  0.0972 -0.1830
    4TAL    C1719819   1.734   4.395  20.556  0.4639 -0.1858 -0.1713
    4TAL    C1819820   1.792   4.263  20.513 -0.0183 -0.2243  0.3727
    4TAL    C1919821   1.808   4.231  20.363 -0.5805  0.0669 -0.5125
    4TAL    C2019822   1.831   4.083  20.329  0.1073 -0.1668  0.9707
    5HTM    C2119823   1.243   4.612  20.686  0.4164 -0.4563 -0.4898
    5HTM    C2219824   1.212   4.725  20.616  0.8940 -0.4067 -0.6280
    5HTM    C2319825   1.114   4.705  20.514  0.5783 -0.0566 -0.3982
    5HTM    C2419826   1.069   4.577  20.505 -0.1400  0.1610 -0.0849
    5HTM     S319827   1.149   4.470  20.627 -0.4761 -0.0614 -0.0551
    6TAL    C2519828   1.065   4.822  20.425 -0.3748 -0.2999 -0.2214
    6TAL    C2619829   0.918   4.869  20.420 -0.9222  0.2441 -0.4917
    6TAL    C2719830   0.886   4.932  20.292 -0.6840  0.6215  1.1831
    6TAL    C2819831   0.759   4.877  20.242  0.5907 -0.0519 -1.0023
    6TAL    C2919832   0.685   4.959  20.137  0.0835  0.1619 -0.9146
    6TAL    C3019833   0.753   4.941  20.008 -0.7126 -0.0904  0.8428
    7HTM    C3119834   0.977   4.509  20.416  0.3121 -0.0714  0.2005
    7HTM    C3219835   0.896   4.407  20.456  0.5915 -0.3107  0.1688
    7HTM    C3319836   0.815   4.352  20.351  0.2446 -0.0376  0.2880
    7HTM    C3419837   0.834   4.411  20.230 -0.2993  0.4099  0.4100
    7HTM     S419838   0.958   4.543  20.240 -0.4166  0.5218  0.3838
    8TAL    C3519839   0.710   4.239  20.385  0.1449  0.1908 -1.2495
    8TAL    C3619840   0.581   4.256  20.479  0.0669 -0.0505  0.1989
    8TAL    C3719841   0.533   4.137  20.564  0.7137  0.1208 -0.0681
    8TAL    C3819842   0.389   4.129  20.606  0.4594 -0.0305 -0.4180
    8TAL    C3919843   0.283   4.116  20.495 -0.0513  0.8101  0.2848
    8TAL    C4019844   0.141   4.158  20.523  0.5053 -0.5090 -0.3356
    9HTM    C4119845   0.761   4.401  20.110  0.3498  0.8859  0.1493
    9HTM    C4219846   0.766   4.315  20.004  0.8279  0.9674  0.0987
    9HTM    C4319847   0.674   4.348  19.899  0.6831  0.5534  0.0906
    9HTM    C4419848   0.599   4.459  19.925  0.0946  0.1560  0.1359
    9HTM     S519849   0.639   4.531  20.085 -0.3256  0.2749  0.1916
   10TAL    C4519850   0.684   4.264  19.779  1.0350  0.6748 -0.0396
   10TAL    C4619851   0.758   4.328  19.673  1.0048 -0.0582  1.1702
   10TAL    C4719852   0.828   4.236  19.567  0.2123 -1.0580 -0.4583
   10TAL    C4819853   0.924   4.301  19.466  1.1872  0.8623  0.4717
   10TAL    C4919854   0.993   4.203  19.366  0.2349 -0.6332 -0.6618
   10TAL    C5019855   1.101   4.120  19.424 -0.4349 -0.1953 -0.6458
   11HTM    C5119856   0.494   4.528  19.849  0.1357 -0.4576  0.3354
   11HTM    C5219857   0.482   4.663  19.838  0.0573 -0.4444  0.5703
   11HTM    C5319858   0.389   4.705  19.737 -0.0703 -0.3228  0.7372
   11HTM    C5419859   0.329   4.601  19.670 -0.0892 -0.2435  0.6286
   11HTM     S619860   0.388   4.442  19.732  0.0539 -0.3165  0.3056
   12TAL    C5519861   0.369   4.852  19.719  0.2352 -0.3573 -0.5680
   12TAL    C5619862   0.480   4.933  19.649 -0.1611  0.9095 -0.1061
   12TAL    C5719863   0.468   4.930  19.502  0.9198  0.0774  0.2584
   12TAL    C5819864   0.590   4.966  19.425 -1.1802 -0.2613  0.0465
   12TAL    C5919865   0.660   5.096  19.472 -0.1469 -0.1856  0.5707
   12TAL    C6019866   0.801   5.099  19.529 -0.0792 -0.4392  0.1507
   13HTM    C6119867   0.248   4.589  19.556  0.1733 -0.3585 -0.5362
   13HTM    C6219868   0.209   4.477  19.490  0.4910 -0.2108 -0.9837
   13HTM    C6319869   0.110   4.502  19.388  0.6195 -0.0492 -1.0695
   13HTM    C6419870   0.074   4.634  19.377  0.3998 -0.0738 -0.6869
   13HTM     S719871   0.164   4.736  19.495  0.0106 -0.3045 -0.1848
   14TAL    C6519872   0.053   4.379  19.318  0.1373 -0.5503 -0.0318
   14TAL    C6619873   0.094   4.348  19.173 -0.5624 -0.4374  0.0096
   14TAL    C6719874   0.015   4.243  19.096 -0.4140 -0.3912 -0.3425
   14TAL    C6819875   0.065   4.096  19.089 -0.5384  0.0097  0.6654
   14TAL    C6919876   0.048   4.027  18.949  0.3809  0.4862  0.3867
   14TAL    C7019877   0.179   3.963  18.887  1.3436 -0.5507  0.3517
   15HTM    C7119878  -0.003   4.701  19.271 -0.4454  0.2041 -0.2984
   15HTM    C7219879   0.032   4.824  19.226 -0.1565  0.1221 -0.3014
   15HTM    C7319880  -0.027   4.858  19.099  0.2048  0.1171 -0.4745
   15HTM    C7419881  -0.108   4.761  19.048  0.1914  0.1953 -0.6034
   15HTM     S819882  -0.115   4.617  19.156 -0.2822  0.2822 -0.5159
   16TAL    C7519883  -0.005   4.987  19.024 -0.0768  0.7887 -0.0289
   16TAL    C7619884   0.017   5.119  19.096  1.0802  0.2919 -0.5267
   16TAL    C7719885  -0.099   5.157  19.190  0.9084  0.0908 -0.9580
   16TAL    C7819886  -0.240   5.178  19.134  0.5298 -0.7143  0.7046
   16TAL    C7919887  -0.248   5.301  19.046  0.9336 -0.0283 -0.4000
   16TAL    C8019888  -0.194   5.434  19.111 -0.8916  1.4736 -0.6693
   17HTM    C8119889  -0.200   4.748  18.932  0.2152  0.0606 -0.0073
   17HTM    C8219890  -0.216   4.630  18.867  0.0759 -0.0793  0.2780
   17HTM    C8319891  -0.274   4.642  18.736 -0.3663 -0.3777  0.4425
   17HTM    C8419892  -0.304   4.770  18.701 -0.5643 -0.4651  0.2821
   17HTM     S919893  -0.259   4.887  18.832 -0.2047 -0.1755 -0.0915
   18TAL    C8519894  -0.288   4.517  18.641 -0.2229 -0.2354  1.4383
   18TAL    C8619895  -0.386   4.401  18.683 -1.0480 -0.4594 -0.1011
   18TAL    C8719896  -0.528   4.442  18.723  0.9380 -0.6952  0.1494
   18TAL    C8819897  -0.636   4.335  18.723  0.0815 -0.6873  0.0643
   18TAL    C8919898  -0.749   4.360  18.614 -0.5028  0.0819  0.8846
   18TAL    C9019899  -0.870   4.269  18.643  0.3399  0.3141  0.1920
   19HTM    C9119900  -0.391   4.827  18.598  0.2771 -0.3109  0.0745
   19HTM    C9219901  -0.399   4.962  18.587  0.5440 -0.3146 -0.1798
   19HTM    C9319902  -0.505   5.007  18.500  0.4349 -0.2635 -0.0210
   19HTM    C9419903  -0.578   4.906  18.445  0.0850 -0.2208  0.3541
   19HTM    S1019904  -0.518   4.745  18.499 -0.1355 -0.2421  0.5372
   20TAL    C9519905  -0.535   5.154  18.486  0.4173 -0.9021 -0.3588
   20TAL    C9619906  -0.455   5.224  18.381  0.2117  0.1722  0.2031
   20TAL    C9719907  -0.476   5.382  18.372 -0.1312  0.5777  0.0418
   20TAL    C9819908  -0.400   5.442  18.255 -0.1258 -0.3780  0.3611
   20TAL    C9919909  -0.433   5.577  18.223  0.3504 -0.0403 -0.0488
   20TAL   C10019910  -0.353   5.630  18.104  1.0306  0.8685 -0.4659
   21HTM   C10119911  -0.683   4.905  18.346  0.3322  0.7839 -0.3457
   21HTM   C10219912  -0.672   4.948  18.217 -0.4528  1.0434 -0.3371
   21HTM   C10319913  -0.798   4.978  18.156 -0.9087  0.3337  0.2093
   21HTM   C10419914  -0.905   4.959  18.237 -0.4715 -0.4669  0.6174
   21HTM    S1119915  -0.855   4.900  18.400  0.5579 -0.3860  0.3403
   22TAL   C10519916  -0.801   5.017  18.009 -0.1660 -0.3345  0.3700
   22TAL   C10619917  -0.682   5.105  17.941  0.4690 -0.5270 -0.7938
   22TAL   C10719918  -0.617   5.239  17.993  0.0207  0.2671 -0.5021
   22TAL   C10819919  -0.537   5.329  17.891  0.0736  0.6614  0.6676
   22TAL   C10919920  -0.642   5.390  17.801  0.1967  0.8140  0.4770
   22TAL   C11019921  -0.574   5.455  17.677  0.8097  0.1707 -0.7043
   23HTM   C11119922  -1.045   5.001  18.211 -0.2963  0.1452  0.1192
   23HTM   C11219923  -1.119   5.105  18.259 -0.5218  0.0095  0.0677
   23HTM   C11319924  -1.258   5.100  18.221 -0.4109 -0.0529 -0.3324
   23HTM   C11419925  -1.289   4.992  18.143 -0.1010  0.0351 -0.5861
   23HTM    S1219926  -1.145   4.888  18.113  0.0765  0.2051 -0.3370
   24TAL   C11519927  -1.348   5.213  18.256 -0.4574  0.6351 -0.3858
   24TAL   C11619928  -1.329   5.351  18.210  0.1858  0.1574  1.3167
   24TAL   C11719929  -1.385   5.389  18.073 -0.1292  0.2010  0.7038
   24TAL   C11819930  -1.327   5.372  17.929  0.2649 -0.1936 -0.6738
   24TAL   C11919931  -1.179   5.415  17.914 -0.2650 -0.7580 -0.6666
   24TAL   C12019932  -1.112   5.341  17.807  0.4034  0.5515  0.6901
   25HTM   C12119933  -1.415   4.951  18.082 -0.0762 -0.0978 -0.1760
   25HTM   C12219934  -1.437   4.916  17.952  0.0210 -0.1087 -0.1898
   25HTM   C12319935  -1.572   4.872  17.925  0.0997 -0.3252 -0.2389
   25HTM   C12419936  -1.652   4.874  18.035  0.0627 -0.4793 -0.2627
   25HTM    S1319937  -1.564   4.931  18.182 -0.0756 -0.3623 -0.2245
   26TAL   C12519938  -1.630   4.822  17.793 -0.0442 -0.9541 -0.4080
   26TAL   C12619939  -1.583   4.891  17.661 -1.0847  0.3881  0.4393
   26TAL   C12719940  -1.609   5.038  17.641 -0.4344  0.2904  0.7887
   26TAL   C12819941  -1.757   5.085  17.639  0.1589 -0.3043 -0.2116
   26TAL   C12919942  -1.765   5.239  17.624  0.3499  0.8605  0.3524
   26TAL   C13019943  -1.893   5.311  17.639 -0.1807  0.4343  0.2383
   27HTM   C13119944  -1.794   4.844  18.052 -0.6040 -0.4445  0.0741
   27HTM   C13219945  -1.837   4.719  18.085 -0.7600 -0.2189  0.7553
   27HTM   C13319946  -1.977   4.713  18.117 -0.7499  0.1405  0.8841
   27HTM   C13419947  -2.041   4.833  18.108 -0.5864  0.1889  0.2987
   27HTM    S1419948  -1.928   4.965  18.058 -0.4311 -0.2190 -0.4643
   28TAL   C13519949  -2.056   4.591  18.159 -0.1154 -0.2518 -0.0996
   28TAL   C13619950  -2.016   4.451  18.100 -1.0842 -0.7950 -0.1376
   28TAL   C13719951  -2.108   4.335  18.144  0.1364  0.5485  0.2001
   28TAL   C13819952  -2.099   4.211  18.064 -0.8323  0.6380  0.4769
   28TAL   C13919953  -2.180   4.205  17.932  0.3589 -0.1234  0.4762
   28TAL   C14019954  -2.332   4.203  17.944  0.4770 -0.8143 -0.3474
   29HTM   C14119955  -2.176   4.879  18.120  0.1048  0.2706 -0.6996
   29HTM   C14219956  -2.232   4.965  18.210  0.3279  0.7550 -1.0204
   29HTM   C14319957  -2.376   4.969  18.205  0.3005  0.5275 -0.5097
   29HTM   C14419958  -2.430   4.885  18.112  0.0564 -0.1303  0.2005
   29HTM    S1519959  -2.302   4.795  18.022 -0.1594 -0.5166  0.2802
   30TAL   C14519960  -2.460   5.062  18.293 -0.6226 -0.4219 -0.1788
   30TAL   C14619961  -2.437   5.214  18.295 -0.7346  0.3743  0.6763
   30TAL   C14719962  -2.469   5.279  18.153  1.1143 -0.6908 -0.5674
   30TAL   C14819963  -2.610   5.245  18.092 -0.7672 -0.5888 -0.5773
   30TAL   C14919964  -2.642   5.303  17.960  0.3000  0.5337  0.0094
   30TAL   C15019965  -2.573   5.231  17.840 -0.1957 -0.2853  0.0448
   31HTM   C15119966  -2.573   4.855  18.074  0.3273 -0.0678  0.3915
   31HTM   C15219967  -2.660   4.909  17.984  0.9906  0.0567 -0.1941
   31HTM   C15319968  -2.783   4.836  17.971  0.8827  0.3368 -0.8683
   31HTM   C15419969  -2.790   4.726  18.052  0.1373  0.4256 -0.7968
   31HTM    S1619970  -2.640   4.707  18.150 -0.4910  0.1606  0.1348
   32TAL   C15519971  -2.897   4.889  17.901 -0.0216 -0.1154  0.3447
   32TAL   C15619972  -2.896   4.983  17.790 -0.0086 -1.4688  0.1257
   32TAL   C15719973  -2.931   5.118  17.843 -0.7898 -0.0024  0.1995
   32TAL   C15819974  -2.937   5.222  17.740 -0.4682  0.0099  1.0043
   32TAL   C15919975  -3.017   5.348  17.782  0.0344  0.1803 -0.0272
   32TAL   C16019976  -2.935   5.458  17.844  0.2030  0.0994  0.2343
   33HTM   C16119977  -2.895   4.625  18.072 -0.5353  0.6749  0.0697
   33HTM   C16219978  -2.901   4.526  18.165 -0.3204  0.8991  0.3242
   33HTM   C16319979  -3.011   4.435  18.146 -0.0392  0.5240  0.4659
   33HTM   C16419980  -3.089   4.465  18.039 -0.0398  0.0141  0.3197
   33HTM    S1719981  -3.030   4.611  17.952 -0.3985 -0.0325 -0.0115
   34TAL   C16519982  -3.021   4.318  18.236  1.4288  0.4080 -0.8588
   34TAL   C16619983  -3.127   4.329  18.355 -1.0675 -0.3099  0.2698
   34TAL   C16719984  -3.110   4.208  18.445  0.3260  0.2209  0.1394
   34TAL   C16819985  -3.194   4.215  18.571  0.6643  0.0557  0.4546
   34TAL   C16919986  -3.217   4.093  18.655  0.1627 -0.1106  0.1626
   34TAL   C17019987  -3.357   4.028  18.622 -0.1418 -1.2470  0.3729
   35HTM   C17119988  -3.205   4.404  17.992  0.0285 -0.3486  0.1493
   35HTM   C17219989  -3.224   4.335  17.876  0.2172 -0.3953  0.1459
   35HTM   C17319990  -3.359   4.290  17.856  0.2378 -0.3583 -0.0811
   35HTM   C17419991  -3.444   4.325  17.957  0.0646 -0.2835 -0.2515
   35HTM    S1819992  -3.359   4.418  18.086 -0.1393 -0.2535 -0.1367
   36TAL   C17519993  -3.400   4.211  17.731  0.2080 -0.2622 -0.2707
   36TAL   C17619994  -3.323   4.234  17.594  0.4103  0.6431 -0.0177
   36TAL   C17719995  -3.355   4.118  17.510  0.6073 -0.1285 -0.0127
   36TAL   C17819996  -3.317   4.140  17.367  0.3320 -0.9187 -0.1540
   36TAL   C17919997  -3.342   4.024  17.271  0.0988 -0.1722 -0.7235
   36TAL   C18019998  -3.300   4.067  17.134  1.2376 -1.0940 -0.8778
   37HTM   C18119999  -3.581   4.303  17.991 -0.3669 -0.0519  0.2439
   37HTM   C18220000  -3.626   4.301  18.119 -0.5553 -0.4175  0.1740
   37HTM   C18320001  -3.765   4.266  18.131 -0.5219 -0.6512 -0.1130
   37HTM   C18420002  -3.826   4.241  18.011 -0.3082 -0.4639 -0.2626
   37HTM    S1920003  -3.711   4.260  17.874 -0.1312  0.0262 -0.0508
   38TAL   C18520004  -3.832   4.247  18.266  0.5175  0.7916  0.2853
   38TAL   C18620005  -3.905   4.350  18.353  0.1156 -0.1001 -0.5903
   38TAL   C18720006  -3.996   4.449  18.292  0.2296 -0.3543 -0.1055
   38TAL   C18820007  -4.049   4.558  18.386  0.2137 -0.7162  0.8872
   38TAL   C18920008  -4.156   4.655  18.327  0.3403 -0.8762  0.0302
   38TAL   C19020009  -4.238   4.732  18.427  0.8254 -0.0073 -0.6568
   39HTM   C19120010  -3.965   4.192  17.982 -0.1277 -0.5424  0.3507
   39HTM   C19220011  -4.081   4.257  18.010 -0.0208 -0.6150  0.9980
   39HTM   C19320012  -4.197   4.196  17.949 -0.2403 -0.3355  1.1311
   39HTM   C19420013  -4.168   4.085  17.875 -0.5146 -0.0495  0.5851
   39HTM    S2020014  -3.992   4.049  17.876 -0.5168 -0.1117 -0.1451
   40TAL   C19520015  -4.336   4.252  17.978 -1.2032  0.0732 -0.3851
   40TAL   C19620016  -4.402   4.212  18.120 -0.9482 -0.1418  0.5758
   40TAL   C19720017  -4.354   4.285  18.238  0.2423  0.2461 -0.4712
   40TAL   C19820018  -4.414   4.197  18.350 -0.1775 -1.0356  0.6398
   40TAL   C19920019  -4.451   4.283  18.477 -0.7441 -0.1116  1.4517
   40TAL   C20020020  -4.498   4.195  18.591  0.9828  0.0793  0.9647
   41HTM   C20120021  -4.250   4.014  17.782  0.3237  0.5922  0.2308
   41HTM   C20220022  -4.353   3.927  17.807  0.4905  0.4625  0.4778
   41HTM   C20320023  -4.416   3.877  17.687  0.4718  0.1362  0.6232
   41HTM   C20420024  -4.361   3.925  17.572  0.2907  0.0172  0.4863
   41HTM    S2120025  -4.225   4.039  17.605  0.1286  0.3104  0.1611
   42TAL   C20520026  -4.521   3.764  17.702 -0.5178 -0.3656  0.2754
   42TAL   C20620027  -4.473   3.624  17.652 -0.0018  0.2775  1.4941
   42TAL   C20720028  -4.354   3.566  17.730 -1.1119 -0.2836 -1.0170
   42TAL   C20820029  -4.299   3.431  17.683 -0.7631 -0.3012 -0.3989
   42TAL   C20920030  -4.225   3.443  17.546  0.6857  0.3921  0.4438
   42TAL   C21020031  -4.073   3.429  17.552 -0.6249  0.8041  0.3006
   43HTM   C21120032  -4.384   3.889  17.442  0.2055  0.2235 -0.4630
   43HTM   C21220033  -4.295   3.824  17.361  0.3962  0.5727 -0.5388
   43HTM   C21320034  -4.345   3.801  17.228  0.4088  0.4557 -0.5240
   43HTM   C21420035  -4.471   3.848  17.208  0.2277  0.0171 -0.4368
   43HTM    S2220036  -4.538   3.926  17.356  0.0258 -0.2843 -0.3670
   44TAL   C21520037  -4.264   3.714  17.144  0.0923 -1.0039  1.2355
   44TAL   C21620038  -4.294   3.563  17.150 -0.2117  0.8170 -1.3671
   44TAL   C21720039  -4.238   3.451  17.055 -0.1712 -0.6410 -0.2493
   44TAL   C21820040  -4.285   3.471  16.917  0.4054 -0.1142  0.4026
   44TAL   C21920041  -4.404   3.395  16.870  0.5093  0.8959 -0.4105
   44TAL   C22020042  -4.487   3.455  16.760 -0.8853  0.0204 -0.3845
   45HTM   C22120043  -4.559   3.864  17.097 -0.7929  0.2979  0.1418
   45HTM   C22220044  -4.695   3.861  17.104 -0.8534  0.4046 -0.7172
   45HTM   C22320045  -4.760   3.850  16.976 -0.0564  0.4274 -1.1353
   45HTM   C22420046  -4.674   3.845  16.871  0.6117  0.3380 -0.5952
   45HTM    S2320047  -4.502   3.853  16.926  0.2837  0.2174  0.4920
   46TAL   C22520048  -4.913   3.846  16.968 -0.2289 -1.3150 -0.9958
   46TAL   C22620049  -5.001   3.895  17.099  0.0516  0.4722  0.3879
   46TAL   C22720050  -5.009   4.038  17.148 -0.6394 -0.7463  1.2752
   46TAL   C22820051  -5.102   4.078  17.261 -0.0423  0.3924  0.3863
   46TAL   C22920052  -5.167   4.219  17.241 -0.4054 -0.0976  0.6438
   46TAL   C23020053  -5.265   4.258  17.344 -0.1038 -0.3225  0.1218
   47HTM   C23120054  -4.697   3.836  16.730  0.1421  0.7475 -0.6565
   47HTM   C23220055  -4.602   3.862  16.636 -0.0236  0.4313 -0.9151
   47HTM   C23320056  -4.640   3.822  16.502 -0.0576 -0.4814 -0.6456
   47HTM   C23420057  -4.764   3.766  16.495  0.0821 -0.8611 -0.1801
   47HTM    S2420058  -4.843   3.759  16.657  0.2691 -0.0895 -0.0465
   48TAL   C23520059  -4.541   3.863  16.387  0.0130  0.4303 -0.1575
   48TAL   C23620060  -4.489   3.754  16.290  0.0621 -0.4555 -0.2043
   48TAL   C23720061  -4.422   3.823  16.174 -0.6231 -0.1513 -0.0333
   48TAL   C23820062  -4.386   3.733  16.056  0.8816 -0.6718  0.4064
   48TAL   C23920063  -4.268   3.634  16.063 -0.8761 -1.1013 -0.3568
   48TAL   C24020064  -4.140   3.721  16.039 -0.7607 -0.7314 -0.0556
    1HTM     C120065   5.831   3.454  28.162 -0.4791 -0.4735 -0.0936
    1HTM     C220066   5.936   3.369  28.140 -0.9573 -1.1723  0.2446
    1HTM     C320067   6.036   3.373  28.244 -0.9205 -1.3091  0.2146
    1HTM     C420068   6.008   3.461  28.344 -0.4146 -0.7146 -0.1471
    1HTM     S120069   5.851   3.546  28.316  0.0586  0.0702 -0.4798
    2TAL     C520070   6.159   3.280  28.231  0.3143  0.0645 -0.7117
    2TAL     C620071   6.229   3.278  28.100 -0.6291 -0.3051 -0.6813
    2TAL     C720072   6.346   3.181  28.108 -0.4906 -0.7628 -0.4880
    2TAL     C820073   6.408   3.116  27.988  0.0490  0.1952 -0.0640
    2TAL     C920074   6.538   3.044  27.998  0.2877 -0.2874 -0.3010
    2TAL    C1020075   6.585   2.987  27.868  0.3030  0.0609 -0.1117
    3HTM    C1120076   6.090   3.516  28.456  0.0126  0.4021 -0.5181
    3HTM    C1220077   6.209   3.466  28.501 -0.0089  0.1428 -0.7472
    3HTM    C1320078   6.264   3.538  28.612  0.0594 -0.3461 -0.4554
    3HTM    C1420079   6.188   3.644  28.652  0.1328 -0.4597 -0.0034
    3HTM     S220080   6.039   3.660  28.552  0.1212  0.0461  0.0890
    4TAL    C1520081   6.385   3.495  28.685 -0.4383 -0.8204  0.0136
    4TAL    C1620082   6.424   3.353  28.686 -0.0415 -0.6668  0.4256
    4TAL    C1720083   6.486   3.285  28.569 -0.1430 -0.3700 -0.0626
    4TAL    C1820084   6.639   3.290  28.558 -0.2732 -0.1859  0.8607
    4TAL    C1920085   6.692   3.217  28.435  0.1764 -0.2564 -0.4649
    4TAL    C2020086   6.843   3.246  28.408 -0.0088 -0.5073 -0.7091
    5HTM    C2120087   6.193   3.731  28.771  0.0726 -0.0435 -0.1803
    5HTM    C2220088   6.084   3.767  28.844 -0.1785 -0.3191 -0.4143
    5HTM    C2320089   6.114   3.856  28.953 -0.6661 -0.0823 -0.4668
    5HTM    C2420090   6.246   3.888  28.963 -0.7868  0.3737 -0.2729
    5HTM     S320091   6.343   3.808  28.835 -0.2899  0.5408 -0.0068
    6TAL    C2520092   5.999   3.902  29.053 -0.3010  0.1124  0.1570
    6TAL    C2620093   5.910   3.807  29.126  0.5295  0.6297  1.0245
    6TAL    C2720094   5.946   3.724  29.242  0.5336  0.6322 -0.0513
    6TAL    C2820095   6.070   3.629  29.230  0.5935 -0.8991  0.0956
    6TAL    C2920096   6.140   3.564  29.348 -0.4882  0.6056 -0.6428
    6TAL    C3020097   6.047   3.476  29.417  0.4596 -0.3614 -0.1202
    7HTM    C3120098   6.309   3.978  29.055 -0.2419  0.1166  0.1048
    7HTM    C3220099   6.437   3.966  29.100 -0.3202 -0.0466  0.2887
    7HTM    C3320100   6.482   4.080  29.176 -0.2458 -0.0529  0.2542
    7HTM    C3420101   6.388   4.178  29.189 -0.1108  0.1056  0.0441
    7HTM     S420102   6.234   4.134  29.105 -0.0668  0.2762 -0.1279
    8TAL    C3520103   6.601   4.069  29.263  1.3726 -0.6924  1.0137
    8TAL    C3620104   6.726   4.098  29.191 -0.6248 -0.0877 -0.4594
    8TAL    C3720105   6.782   4.010  29.081  0.5832 -0.0503 -0.4573
    8TAL    C3820106   6.907   4.079  29.020  0.1742  0.2309 -0.5374
    8TAL    C3920107   7.031   4.124  29.111 -0.0326  0.5991  1.2678
    8TAL    C4020108   7.155   4.191  29.048 -0.4913  0.9914  0.0366
    9HTM    C4120109   6.396   4.310  29.243 -0.4230  0.1822  0.0486
    9HTM    C4220110   6.445   4.341  29.366 -0.3976 -0.1692  0.1289
    9HTM    C4320111   6.423   4.478  29.404 -0.0197 -0.1671  0.3484
    9HTM    C4420112   6.357   4.552  29.310  0.2429  0.1856  0.4356
    9HTM     S520113   6.318   4.453  29.165  0.0318  0.5455  0.2456
   10TAL    C4520114   6.479   4.537  29.532  0.7587 -0.0603 -1.0665
   10TAL    C4620115   6.411   4.510  29.663  0.2918 -0.1895 -0.0849
   10TAL    C4720116   6.486   4.540  29.791 -0.4248 -0.5521  0.5053
   10TAL    C4820117   6.402   4.459  29.891 -0.2316 -0.3282 -0.2768
   10TAL    C4920118   6.423   4.505  30.036 -0.5919  2.3765 -0.5078
   10TAL    C5020119   6.325   4.463  30.138  0.9553 -0.3437 -0.6031
   11HTM    C5120120   6.312   4.682  29.300 -0.2510 -0.4202  0.4094
   11HTM    C5220121   6.188   4.737  29.288 -0.2614 -0.5398 -0.0881
   11HTM    C5320122   6.188   4.881  29.281 -0.3457 -0.5589 -0.5117
   11HTM    C5420123   6.313   4.936  29.287 -0.3996 -0.4541 -0.3372
   11HTM     S620124   6.440   4.809  29.302 -0.3477 -0.3220  0.3813
   12TAL    C5520125   6.063   4.960  29.302 -0.1556  0.1442 -0.2960
   12TAL    C5620126   5.934   4.917  29.231 -0.1983  0.0290 -0.7110
   12TAL    C5720127   5.895   5.018  29.126  0.0453 -0.5532 -0.0139
   12TAL    C5820128   5.862   5.160  29.162  0.7033  0.3534 -1.0267
   12TAL    C5920129   5.755   5.201  29.068  0.5525  0.3115  0.6625
   12TAL    C6020130   5.721   5.341  29.090 -0.2642 -0.2941 -0.1466
   13HTM    C6120131   6.361   5.073  29.275 -0.7676 -0.2105  0.4487
   13HTM    C6220132   6.487   5.122  29.291 -0.5144 -0.7234  0.0963
   13HTM    C6320133   6.497   5.264  29.269  0.0943 -0.8290 -0.3704
   13HTM    C6420134   6.378   5.323  29.236  0.3051 -0.3965 -0.3739
   13HTM     S720135   6.244   5.202  29.231 -0.2530  0.1821  0.2166
   14TAL    C6520136   6.631   5.335  29.284  0.2361  0.3979 -0.2844
   14TAL    C6620137   6.714   5.316  29.417 -0.1318 -0.1154 -0.0884
   14TAL    C6720138   6.862   5.360  29.444  0.0797 -0.9999  0.5493
   14TAL    C6820139   6.939   5.305  29.560  0.9456 -0.2267 -0.4848
   14TAL    C6920140   6.997   5.161  29.543  1.4466  0.8553  0.5271
   14TAL    C7020141   7.093   5.151  29.421  0.7497  0.5124 -0.1676
   15HTM    C7120142   6.342   5.469  29.230  0.5163  0.6968  0.0465
   15HTM    C7220143   6.416   5.581  29.206  0.0126  1.1029  0.3592
   15HTM    C7320144   6.338   5.702  29.204 -0.6011  0.7160  0.2912
   15HTM    C7420145   6.205   5.683  29.225 -0.5653  0.0145 -0.0733
   15HTM     S820146   6.168   5.508  29.251  0.2524 -0.2133 -0.3612
   16TAL    C7520147   6.405   5.837  29.172 -0.1531  0.4106 -0.6922
   16TAL    C7620148   6.425   5.897  29.312  0.9954 -0.0582 -0.1257
   16TAL    C7720149   6.512   6.027  29.308  0.0499 -1.0706 -0.7830
   16TAL    C7820150   6.454   6.151  29.247  0.2711  0.8087  0.7606
   16TAL    C7920151   6.351   6.227  29.330 -0.0920  1.4841  0.2577
   16TAL    C8020152   6.290   6.346  29.269 -0.0739 -0.3002 -0.6600
   17HTM    C8120153   6.093   5.770  29.242  0.1293 -0.1977  0.1653
   17HTM    C8220154   5.974   5.748  29.306  0.3006 -0.1482  0.5053
   17HTM    C8320155   5.883   5.859  29.297  0.2979 -0.1324  0.7185
   17HTM    C8420156   5.931   5.965  29.226  0.1243 -0.1697  0.5411
   17HTM     S920157   6.098   5.933  29.165 -0.0502 -0.2284  0.0876
   18TAL    C8520158   5.744   5.839  29.355  0.9384 -0.3479 -0.4577
   18TAL    C8620159   5.644   5.757  29.267 -0.7175 -0.1668 -0.9679
   18TAL    C8720160   5.496   5.761  29.305  0.9198  0.4134 -0.1434
   18TAL    C8820161   5.419   5.890  29.324 -0.2108  0.7996 -0.7504
   18TAL    C8920162   5.296   5.896  29.407  0.2220  0.6019 -0.6916
   18TAL    C9020163   5.330   5.876  29.550 -0.5383  0.0563 -1.1836
   19HTM    C9120164   5.862   6.089  29.174  0.3301  0.3131 -0.1532
   19HTM    C9220165   5.924   6.183  29.098  0.6288  0.7565  0.6102
   19HTM    C9320166   5.847   6.303  29.080  0.6515  0.8163  0.9097
   19HTM    C9420167   5.726   6.301  29.143  0.3700  0.4186  0.3748
   19HTM    S1020168   5.700   6.145  29.231  0.0522 -0.0664 -0.5560
   20TAL    C9520169   5.902   6.412  28.995  0.5832 -0.2269 -0.3722
   20TAL    C9620170   5.972   6.519  29.083 -0.7947 -0.1830  0.1593
   20TAL    C9720171   6.002   6.647  29.007 -0.1823 -0.2891 -0.8496
   20TAL    C9820172   5.969   6.770  29.093 -0.5205 -0.8127  0.1010
   20TAL    C9920173   5.975   6.899  29.012  0.0696  0.3452 -0.4145
   20TAL   C10020174   6.100   6.959  28.960 -0.4141  0.2095 -0.6167
   21HTM   C10120175   5.616   6.396  29.162 -0.3830 -0.0092 -0.2742
   21HTM   C10220176   5.495   6.372  29.221 -0.3682  0.2941 -0.1171
   21HTM   C10320177   5.412   6.489  29.233 -0.0844  0.4946 -0.0599
   21HTM   C10420178   5.468   6.602  29.182  0.1175  0.3442 -0.1734
   21HTM    S1120179   5.632   6.570  29.115 -0.0367 -0.0655 -0.3627
   22TAL   C10520180   5.269   6.471  29.305 -0.6452  0.5548  1.0129
   22TAL   C10620181   5.187   6.599  29.341  0.0467 -0.0067  0.2205
   22TAL   C10720182   5.075   6.585  29.444  0.5393 -0.1848  0.7193
   22TAL   C10820183   5.124   6.547  29.583  1.0709  0.5515 -0.4075
   22TAL   C10920184   5.009   6.527  29.684 -0.1273  0.2451 -0.8618
   22TAL   C11020185   5.062   6.512  29.828 -0.0925 -0.2714  0.5517
   23HTM   C11120186   5.410   6.732  29.150  0.0296  0.0435 -0.1284
   23HTM   C11220187   5.432   6.862  29.183 -0.5261  0.1113 -0.0104
   23HTM   C11320188   5.344   6.954  29.116 -0.9053 -0.1968  0.0538
   23HTM   C11420189   5.255   6.894  29.032 -0.6387 -0.4997 -0.0152
   23HTM    S1220190   5.276   6.715  29.031  0.1178 -0.4185 -0.1678
   24TAL   C11520191   5.352   7.099  29.159  0.1353  0.3948  0.9496
   24TAL   C11620192   5.426   7.204  29.070 -0.1946  0.1314 -0.0894
   24TAL   C11720193   5.569   7.178  29.016  0.0799  0.1682  0.3036
   24TAL   C11820194   5.586   7.236  28.878  0.4593  0.8230 -0.0044
   24TAL   C11920195   5.713   7.205  28.794  0.0190 -0.1727  0.2303
   24TAL   C12020196   5.691   7.276  28.663 -0.2817  0.4446  0.3640
   25HTM   C12120197   5.138   6.947  28.963 -0.0055 -0.1361  0.1530
   25HTM   C12220198   5.130   6.990  28.834  0.2786 -0.5062  0.0079
   25HTM   C12320199   4.998   7.035  28.796  0.3749 -0.5556 -0.3925
   25HTM   C12420200   4.906   7.026  28.896  0.1641 -0.2233 -0.5527
   25HTM    S1320201   4.979   6.960  29.047 -0.1750  0.1807 -0.2077
   26TAL   C12520202   4.955   7.115  28.664  0.1270  1.4096  1.4955
   26TAL   C12620203   5.066   7.182  28.583 -0.6405  0.0454  0.3797
   26TAL   C12720204   5.072   7.153  28.427  0.0566 -0.2432 -0.9003
   26TAL   C12820205   5.059   7.272  28.352  0.4613 -0.0394  0.2152
   26TAL   C12920206   4.934   7.355  28.369 -0.6680  0.2324  0.0957
   26TAL   C13020207   4.920   7.455  28.256  0.3101 -0.0085  0.0820
   27HTM   C13120208   4.766   7.050  28.877  0.3416 -0.1111  0.2566
   27HTM   C13220209   4.661   6.964  28.862  0.3921 -0.2620  0.7340
   27HTM   C13320210   4.532   7.027  28.870  0.3469 -0.3605  0.7884
   27HTM   C13420211   4.538   7.162  28.891  0.2622 -0.2848  0.3525
   27HTM    S1420212   4.709   7.219  28.903  0.2324 -0.0817 -0.1645
   28TAL   C13520213   4.398   6.956  28.826 -1.3179  0.0982 -0.5915
   28TAL   C13620214   4.384   6.836  28.730 -0.4806  0.0889  0.0809
   28TAL   C13720215   4.485   6.810  28.624  0.3568 -0.2572  0.0943
   28TAL   C13820216   4.480   6.860  28.476 -0.3059 -0.1993  0.3850
   28TAL   C13920217   4.502   7.011  28.439 -0.7353 -0.5400 -0.8391
   28TAL   C14020218   4.381   7.104  28.433  0.2157 -0.1308  0.4039
   29HTM   C14120219   4.434   7.261  28.893  0.2839 -0.1351  0.0420
   29HTM   C14220220   4.381   7.311  29.008  0.2836 -0.2446  0.0892
   29HTM   C14320221   4.293   7.423  28.989  0.2779 -0.2302  0.1945
   29HTM   C14420222   4.278   7.459  28.858  0.2738 -0.1099  0.2277
   29HTM    S1520223   4.375   7.353  28.749  0.2768 -0.0043  0.1276
   30TAL   C14520224   4.237   7.514  29.097  0.9729  1.1368 -0.1464
   30TAL   C14620225   4.306   7.517  29.237  0.0113  0.1589  0.6017
   30TAL   C14720226   4.261   7.627  29.322 -0.0030 -0.9649 -0.0833
   30TAL   C14820227   4.340   7.683  29.444  0.5311  0.1268  1.5114
   30TAL   C14920228   4.283   7.803  29.516  0.1835  0.5840  0.0503
   30TAL   C15020229   4.367   7.828  29.629 -0.5116 -0.7619  0.2405
   31HTM   C15120230   4.197   7.563  28.798  0.8487 -0.0611  0.5371
   31HTM   C15220231   4.065   7.593  28.813  1.0008  0.2844  1.2823
   31HTM   C15320232   4.021   7.703  28.732  0.7218  0.0669  1.1357
   31HTM   C15420233   4.119   7.757  28.655  0.3571 -0.4445  0.2787
   31HTM    S1620234   4.277   7.673  28.679  0.3378 -0.6929 -0.4150
   32TAL   C15520235   3.865   7.719  28.742  0.6851  0.0469  1.3353
   32TAL   C15620236   3.790   7.686  28.617 -0.2886 -1.2374 -0.1690
   32TAL   C15720237   3.635   7.691  28.623  0.8410 -0.5102 -0.4217
   32TAL   C15820238   3.574   7.822  28.688  0.8845 -0.5602 -1.0321
   32TAL   C15920239   3.615   7.953  28.604  0.0669  0.9065 -0.6992
   32TAL   C16020240   3.529   8.067  28.624  0.1612 -0.9397 -0.1275
   33HTM   C16120241   4.109   7.868  28.560 -0.1807 -0.6251 -0.1462
   33HTM   C16220242   4.201   7.885  28.460 -0.2406 -1.1152 -0.2890
   33HTM   C16320243   4.161   7.982  28.361 -0.0491 -1.1905 -0.4406
   33HTM   C16420244   4.040   8.040  28.386  0.1566 -0.7577 -0.4136
   33HTM    S1720245   3.965   7.975  28.537  0.1244 -0.2173 -0.1916
   34TAL   C16520246   4.251   8.011  28.236  0.0237  1.4706 -0.2930
   34TAL   C16620247   4.217   7.919  28.116 -0.3187 -1.1330  0.4619
   34TAL   C16720248   4.227   7.771  28.132  0.8963  0.4614  0.7499
   34TAL   C16820249   4.348   7.704  28.176 -0.9938 -0.6519 -0.4643
   34TAL   C16920250   4.348   7.554  28.189  0.4381  0.5035 -0.3553
   34TAL   C17020251   4.449   7.474  28.276 -0.0792 -0.6504 -0.0104
   35HTM   C17120252   3.958   8.129  28.302 -0.0804  0.6092 -0.6785
   35HTM   C17220253   3.988   8.221  28.206 -0.4946  1.2262 -0.2313
   35HTM   C17320254   3.873   8.294  28.158 -0.7730  1.2131  0.3934
   35HTM   C17420255   3.756   8.258  28.218 -0.5712  0.5861  0.4219
   35HTM    S1820256   3.781   8.127  28.340 -0.0093 -0.0414 -0.3435
   36TAL   C17520257   3.879   8.394  28.044 -0.5824 -0.0491 -0.5921
   36TAL   C17620258   3.988   8.396  27.940 -0.0295 -1.3890 -0.6972
   36TAL   C17720259   4.025   8.291  27.849 -0.0378  0.9369  0.3807
   36TAL   C17820260   4.068   8.316  27.704 -0.1309 -0.3084  0.2802
   36TAL   C17920261   4.094   8.177  27.639 -0.4764  0.1763  1.4922
   36TAL   C18020262   4.131   8.192  27.493 -0.5776 -0.6904 -0.8535
   37HTM   C18120263   3.622   8.296  28.192  0.0289 -0.0712  0.1401
   37HTM   C18220264   3.505   8.226  28.193 -0.0122 -0.0030  0.3147
   37HTM   C18320265   3.388   8.309  28.186  0.0253  0.0666  0.5183
   37HTM   C18420266   3.415   8.443  28.181  0.0949  0.0515  0.4987
   37HTM    S1920267   3.593   8.474  28.184  0.1188 -0.0526  0.2190
   38TAL   C18520268   3.247   8.238  28.175  0.6714 -0.7035 -1.1963
   38TAL   C18620269   3.230   8.092  28.135 -0.9348 -1.2759 -0.5062
   38TAL   C18720270   3.251   8.066  27.975 -0.0497  0.7106 -0.7258
   38TAL   C18820271   3.184   8.162  27.881  0.1767  0.3631  0.6210
   38TAL   C18920272   3.171   8.109  27.730 -0.5619 -1.2597 -0.2089
   38TAL   C19020273   3.112   7.972  27.695  0.5407  0.0479  0.0321
   39HTM   C19120274   3.328   8.563  28.188  0.1017 -0.3896  0.7536
   39HTM   C19220275   3.205   8.581  28.134  0.2555 -0.4880  0.3681
   39HTM   C19320276   3.161   8.718  28.132  0.3490 -0.4600 -0.2074
   39HTM   C19420277   3.251   8.805  28.186  0.2663 -0.3403 -0.2602
   39HTM    S2020278   3.400   8.719  28.243  0.0625 -0.2529  0.4172
   40TAL   C19520279   3.018   8.744  28.082  0.3192 -0.6682 -0.9019
   40TAL   C19620280   2.982   8.776  27.937  0.2749 -0.4365  0.4521
   40TAL   C19720281   3.067   8.716  27.818  0.5655  0.5980 -0.3109
   40TAL   C19820282   3.205   8.759  27.787 -0.5305  0.3664 -0.4140
   40TAL   C19920283   3.260   8.694  27.662  0.3547 -0.5725  0.8048
   40TAL   C20020284   3.402   8.742  27.639  1.5328  0.0549  0.2751
   41HTM   C20120285   3.254   8.939  28.235 -0.6650 -0.5159  0.1773
   41HTM   C20220286   3.170   9.034  28.186 -1.3973 -0.8848  0.6847
   41HTM   C20320287   3.192   9.166  28.241 -1.4264 -0.7233  0.3142
   41HTM   C20420288   3.294   9.171  28.332 -0.7165 -0.2312 -0.4757
   41HTM    S2120289   3.369   9.009  28.355  0.0500  0.0687 -0.8154
   42TAL   C20520290   3.110   9.289  28.199  0.1040  0.2977 -0.3439
   42TAL   C20620291   3.129   9.335  28.056  0.4081 -0.0847  0.6059
   42TAL   C20720292   3.011   9.413  27.992  0.2206 -0.2598 -0.0454
   42TAL   C20820293   2.972   9.553  28.038  0.4735 -0.0846 -0.4549
   42TAL   C20920294   2.845   9.606  27.969 -0.5467 -0.0033  0.9165
   42TAL   C21020295   2.811   9.749  28.011  0.0166 -0.0193 -0.3858
   43HTM   C21120296   3.355   9.277  28.398 -0.3588  0.7202 -0.0682
   43HTM   C21220297   3.292   9.375  28.469  0.0238  0.8818  0.0544
   43HTM   C21320298   3.379   9.482  28.511  0.4638  0.4528  0.2551
   43HTM   C21420299   3.509   9.466  28.471  0.4165 -0.0359  0.2858
   43HTM    S2220300   3.531   9.313  28.378 -0.1918  0.0081  0.0615
   44TAL   C21520301   3.319   9.591  28.599 -0.0032  0.0852  0.0468
   44TAL   C21620302   3.285   9.728  28.548  0.0080  0.4529  0.4645
   44TAL   C21720303   3.207   9.734  28.418  0.4308 -0.1495  0.1419
   44TAL   C21820304   3.118   9.861  28.389 -0.1953  0.3097  0.7239
   44TAL   C21920305   2.975   9.815  28.420  0.4365 -0.5206 -0.3756
   44TAL   C22020306   2.858   9.913  28.400  0.1722 -0.1081  0.9462
   45HTM   C22120307   3.639   9.537  28.506  0.1061 -0.3058  0.0524
   45HTM   C22220308   3.714   9.540  28.620  0.2837 -0.5845 -0.0564
   45HTM   C22320309   3.831   9.624  28.609  0.0923 -0.2992  0.0730
   45HTM   C22420310   3.844   9.685  28.488 -0.2313  0.1971  0.2794
   45HTM    S2320311   3.709   9.641  28.376 -0.3201  0.3437  0.3283
   46TAL   C22520312   3.924   9.641  28.730 -0.8495 -0.3625  0.0023
   46TAL   C22620313   3.931   9.525  28.833 -0.4315 -0.6576 -1.2871
   46TAL   C22720314   3.924   9.570  28.981  0.7331 -0.7775  0.7724
   46TAL   C22820315   3.957   9.474  29.088  0.2274 -0.0809  0.3954
   46TAL   C22920316   4.105   9.465  29.152  0.5675 -0.9621 -0.2566
   46TAL   C23020317   4.101   9.380  29.271 -0.7645 -0.0388 -0.5485
   47HTM   C23120318   3.954   9.769  28.438  0.9257 -0.2571 -0.5250
   47HTM   C23220319   4.068   9.722  28.381  1.3841  0.4796 -0.2418
   47HTM   C23320320   4.157   9.826  28.334  0.9302  1.0603  0.1583
   47HTM   C23420321   4.109   9.952  28.355  0.1254  0.7665  0.1799
   47HTM    S2420322   3.948   9.949  28.437 -0.1233 -0.2747 -0.3074
   48TAL   C23520323   4.286   9.808  28.263  0.6405 -0.3584  0.5588
   48TAL   C23620324   4.292   9.723  28.132  0.1131  0.2530  0.0481
   48TAL   C23720325   4.287   9.561  28.140  0.0638 -0.7346 -1.1224
   48TAL   C23820326   4.370   9.486  28.248 -0.1353 -0.5645 -0.1612
   48TAL   C23920327   4.327   9.335  28.252 -0.1928 -0.6661  0.7475
   48TAL   C24020328   4.382   9.260  28.366  0.4611  0.3616  0.3038
    1HTM     C120329   4.139   2.605   2.848 -0.0937 -0.7318 -0.0695
    1HTM     C220330   4.267   2.616   2.801 -0.0800 -1.0281 -0.1087
    1HTM     C320331   4.282   2.577   2.663 -0.2749 -0.7655 -0.2047
    1HTM     C420332   4.166   2.537   2.605 -0.4373 -0.2690 -0.2387
    1HTM     S120333   4.027   2.544   2.721 -0.3558 -0.0933 -0.1514
    2TAL     C520334   4.414   2.616   2.603  0.2448  0.7006 -0.4022
    2TAL     C620335   4.517   2.501   2.630 -0.0711  0.6350  0.6821
    2TAL     C720336   4.653   2.554   2.584  0.3362  0.1802 -0.0975
    2TAL     C820337   4.739   2.435   2.544  0.0543  0.4134 -0.1975
    2TAL     C920338   4.882   2.456   2.519  0.1558  0.0211  0.1097
    2TAL    C1020339   4.942   2.326   2.470  0.0371 -0.2257  0.0762
    3HTM    C1120340   4.140   2.486   2.473 -0.8457 -0.4726 -0.2429
    3HTM    C1220341   4.038   2.520   2.388 -0.6846 -0.6247 -0.5000
    3HTM    C1320342   4.052   2.465   2.256 -0.2141 -0.5214 -0.4978
    3HTM    C1420343   4.164   2.388   2.240 -0.0164 -0.2905 -0.2389
    3HTM     S220344   4.262   2.380   2.391 -0.4123 -0.1850  0.0242
    4TAL    C1520345   3.936   2.472   2.161 -0.2988 -0.9486  0.3876
    4TAL    C1620346   3.790   2.471   2.217 -0.8281 -0.7386  0.0971
    4TAL    C1720347   3.705   2.592   2.192  1.3791  0.0705 -0.4277
    4TAL    C1820348   3.557   2.588   2.257  0.3316 -0.3603  0.2830
    4TAL    C1920349   3.533   2.540   2.400  0.2975  0.6578 -0.0460
    4TAL    C2020350   3.445   2.640   2.491 -0.1847  0.4622  0.1690
    5HTM    C2120351   4.231   2.333   2.126  0.4056 -0.2346  0.2555
    5HTM    C2220352   4.245   2.203   2.089  0.2313 -0.1844  0.0046
    5HTM    C2320353   4.321   2.184   1.968 -0.0514 -0.0373 -0.1990
    5HTM    C2420354   4.365   2.300   1.913 -0.0925  0.0247 -0.1033
    5HTM     S320355   4.314   2.443   2.009  0.2248 -0.0991  0.2542
    6TAL    C2520356   4.370   2.044   1.916  0.7027 -0.2706  0.6294
    6TAL    C2620357   4.342   1.910   1.981  0.2550 -0.5804  0.8612
    6TAL    C2720358   4.423   1.860   2.106  0.2057  0.6451 -0.1021
    6TAL    C2820359   4.365   1.737   2.185 -0.0623 -0.5848 -0.2168
    6TAL    C2920360   4.466   1.714   2.302 -0.9669  0.3480  0.5318
    6TAL    C3020361   4.490   1.565   2.337  0.1996  0.4164 -0.3897
    7HTM    C3120362   4.439   2.318   1.786 -0.3267  0.0340 -0.4455
    7HTM    C3220363   4.388   2.384   1.677  0.2891  0.4154 -0.5134
    7HTM    C3320364   4.453   2.349   1.554  0.6647  0.4739 -0.3338
    7HTM    C3420365   4.554   2.258   1.568  0.3357  0.1372 -0.1290
    7HTM     S420366   4.574   2.208   1.740 -0.4808 -0.2832 -0.1473
    8TAL    C3520367   4.398   2.407   1.424  0.3436  0.9447 -0.5687
    8TAL    C3620368   4.374   2.562   1.424  0.2793  0.0527 -0.8507
    8TAL    C3720369   4.454   2.669   1.500 -0.0600 -0.1517  0.4037
    8TAL    C3820370   4.597   2.687   1.465 -0.1741  0.5308  0.3109
    8TAL    C3920371   4.673   2.794   1.539  0.7036 -0.1411  0.5279
    8TAL    C4020372   4.692   2.789   1.685 -1.1824  0.3017 -0.1058
    9HTM    C4120373   4.649   2.222   1.471 -0.0282  0.1038 -0.1004
    9HTM    C4220374   4.735   2.298   1.397 -0.1178  0.1584 -0.1483
    9HTM    C4320375   4.849   2.225   1.347  0.0275  0.2888 -0.0065
    9HTM    C4420376   4.850   2.094   1.384  0.2281  0.3335  0.1495
    9HTM     S520377   4.707   2.052   1.484  0.2492  0.2134  0.1293
   10TAL    C4520378   4.951   2.305   1.258  0.2017  0.1190 -0.2865
   10TAL    C4620379   4.954   2.264   1.106  0.1592 -0.3424 -0.3502
   10TAL    C4720380   4.820   2.239   1.044 -0.3030  1.0196  0.8694
   10TAL    C4820381   4.735   2.359   1.051  0.3865 -0.1683  0.1248
   10TAL    C4920382   4.598   2.324   0.989 -0.6542 -0.3075  1.4390
   10TAL    C5020383   4.507   2.442   0.948  0.3145  0.7347 -0.7048
   11HTM    C5120384   4.948   1.988   1.355  0.3680  0.0612 -0.2362
   11HTM    C5220385   4.945   1.861   1.403  0.2348 -0.0954 -0.6502
   11HTM    C5320386   5.071   1.791   1.391  0.1918 -0.1509 -0.7789
   11HTM    C5420387   5.170   1.866   1.333  0.2923 -0.0366 -0.4630
   11HTM     S620388   5.111   2.031   1.290  0.4499  0.1513  0.0252
   12TAL    C5520389   5.068   1.641   1.423 -0.6048  0.3850 -0.0844
   12TAL    C5620390   4.936   1.558   1.432 -0.1733 -0.8176  0.2025
   12TAL    C5720391   4.920   1.443   1.326 -0.6307 -0.0589 -0.6320
   12TAL    C5820392   4.926   1.480   1.173 -0.0118  0.5382 -0.6572
   12TAL    C5920393   4.888   1.363   1.082 -1.4830 -0.0875  0.0187
   12TAL    C6020394   4.910   1.385   0.926  0.4917  0.6018 -0.0374
   13HTM    C6120395   5.303   1.823   1.305 -0.1921 -0.5178  0.1831
   13HTM    C6220396   5.345   1.753   1.196  0.0725 -0.8407  0.4876
   13HTM    C6320397   5.488   1.738   1.188  0.0999 -0.7730  0.8200
   13HTM    C6420398   5.555   1.797   1.291 -0.1439 -0.3985  0.7690
   13HTM     S720399   5.442   1.876   1.407 -0.4289 -0.1000  0.2934
   14TAL    C6520400   5.553   1.666   1.060 -0.2981 -0.0595  0.0034
   14TAL    C6620401   5.512   1.720   0.917  0.3741 -0.2742 -0.4307
   14TAL    C6720402   5.509   1.624   0.810 -0.3486  0.1051 -0.5394
   14TAL    C6820403   5.637   1.587   0.737 -0.0302 -0.1542 -0.6021
   14TAL    C6920404   5.635   1.461   0.646 -0.0639  0.9369 -0.1136
   14TAL    C7020405   5.767   1.392   0.686 -0.7219 -0.2132  0.2355
   15HTM    C7120406   5.691   1.784   1.328  0.1546 -0.1674 -0.4589
   15HTM    C7220407   5.804   1.791   1.254  0.2749  0.1938 -0.2463
   15HTM    C7320408   5.925   1.782   1.331  0.1619  0.4496 -0.0334
   15HTM    C7420409   5.904   1.767   1.465 -0.0446  0.2834 -0.0836
   15HTM     S820410   5.728   1.764   1.504 -0.1130 -0.2129 -0.4063
   16TAL    C7520411   6.066   1.799   1.278  0.0058  0.7089  1.2384
   16TAL    C7620412   6.075   1.812   1.122  0.1900 -0.7003  0.6641
   16TAL    C7720413   6.211   1.793   1.060  0.9916  0.3612  0.2288
   16TAL    C7820414   6.220   1.785   0.910 -0.6428  0.0509  0.4789
   16TAL    C7920415   6.221   1.638   0.868 -0.5229 -0.3279  0.5042
   16TAL    C8020416   6.341   1.561   0.899 -0.1513 -0.5163 -0.7914
   17HTM    C8120417   5.986   1.764   1.585  0.1643  0.0741  0.0896
   17HTM    C8220418   5.969   1.838   1.698  0.1558 -0.1287  0.2230
   17HTM    C8320419   6.065   1.810   1.801  0.0082 -0.4769  0.2665
   17HTM    C8420420   6.155   1.714   1.767 -0.0960 -0.5397  0.1663
   17HTM     S920421   6.126   1.651   1.600 -0.0151 -0.1609  0.0080
   18TAL    C8520422   6.070   1.887   1.934  0.8138  1.1147 -0.6798
   18TAL    C8620423   6.141   2.021   1.948  0.4394  0.2219  0.7043
   18TAL    C8720424   6.134   2.086   2.086  0.3263  0.2712  0.0527
   18TAL    C8820425   6.203   2.010   2.212 -0.5413 -0.4968  0.9760
   18TAL    C8920426   6.351   2.010   2.203  0.0301  1.1771 -0.0041
   18TAL    C9020427   6.425   1.988   2.337  0.1302 -0.2628 -0.2019
   19HTM    C9120428   6.264   1.642   1.831  0.5912 -0.0744 -0.3226
   19HTM    C9220429   6.276   1.507   1.851  0.9992 -0.0868 -0.6297
   19HTM    C9320430   6.396   1.470   1.922  0.9347  0.1524 -0.3915
   19HTM    C9420431   6.475   1.576   1.956  0.4775  0.3471  0.0972
   19HTM    S1020432   6.404   1.732   1.900  0.0899  0.2427  0.2961
   20TAL    C9520433   6.433   1.322   1.960 -0.3565 -0.5828 -0.1076
   20TAL    C9620434   6.350   1.195   1.931  0.0414 -0.5236 -0.7889
   20TAL    C9720435   6.222   1.190   2.020  0.4025 -0.3730  0.2882
   20TAL    C9820436   6.130   1.076   1.989  0.3160  0.2886  0.2886
   20TAL    C9920437   6.013   1.071   2.093  0.0522 -0.0680  0.4001
   20TAL   C10020438   6.046   1.057   2.238 -1.1329 -0.0177 -0.2773
   21HTM   C10120439   6.583   1.575   2.060 -0.0714 -0.0102 -0.2380
   21HTM   C10220440   6.581   1.660   2.167 -0.5169 -0.3921  0.0702
   21HTM   C10320441   6.688   1.637   2.261 -0.6982 -0.4977  0.2525
   21HTM   C10420442   6.771   1.534   2.226 -0.3909 -0.1964  0.0836
   21HTM    S1120443   6.720   1.458   2.071  0.1556  0.2477 -0.3222
   22TAL   C10520444   6.718   1.726   2.381  0.7900  0.0034  0.4540
   22TAL   C10620445   6.743   1.875   2.362  0.4277 -0.1636 -0.2923
   22TAL   C10720446   6.799   1.965   2.476  1.1764  0.9615  0.3146
   22TAL   C10820447   6.937   1.917   2.533  0.1603 -0.6835  0.0012
   22TAL   C10920448   6.931   1.982   2.669  1.2804  0.3160  0.6309
   22TAL   C11020449   7.048   1.972   2.753 -0.3462  0.2855  0.4182
   23HTM   C11120450   6.885   1.472   2.294 -0.1603 -0.2871 -0.3231
   23HTM   C11220451   6.892   1.369   2.383 -0.2339 -0.0159  0.0027
   23HTM   C11320452   7.026   1.333   2.420 -0.2743  0.3586  0.5418
   23HTM   C11420453   7.122   1.408   2.359 -0.2313  0.3729  0.6270
   23HTM    S1220454   7.049   1.532   2.250 -0.1360 -0.0890  0.0284
   24TAL   C11520455   7.045   1.224   2.526  0.6459 -0.6119 -0.1353
   24TAL   C11620456   7.098   1.268   2.659 -0.1567 -0.4627  0.5011
   24TAL   C11720457   7.160   1.164   2.751  0.5830  0.2814  0.5416
   24TAL   C11820458   7.199   1.196   2.893  0.2540  0.0610  0.1362
   24TAL   C11920459   7.305   1.309   2.908  0.2237 -0.2192  0.0420
   24TAL   C12020460   7.337   1.354   3.046 -0.5862  0.7623 -0.4830
   25HTM   C12120461   7.269   1.401   2.366  0.1405  0.0189  0.2181
   25HTM   C12220462   7.338   1.283   2.368 -0.0290 -0.0943 -0.3559
   25HTM   C12320463   7.481   1.299   2.353 -0.0417 -0.2591 -0.6663
   25HTM   C12420464   7.520   1.429   2.340  0.1181 -0.2716 -0.3289
   25HTM    S1320465   7.380   1.542   2.346  0.2982 -0.0747  0.4126
   26TAL   C12520466   7.572   1.171   2.343  0.4494 -0.3662  0.4211
   26TAL   C12620467   7.666   1.153   2.220  0.4776 -0.4802  0.2986
   26TAL   C12720468   7.606   1.145   2.078  0.5631  0.9017 -0.7000
   26TAL   C12820469   7.500   1.236   2.018 -0.2946  0.8754 -0.7105
   26TAL   C12920470   7.539   1.383   1.996  0.3307  0.2767  0.2284
   26TAL   C13020471   7.430   1.476   1.923 -0.0490 -0.4844 -0.2890
   27HTM   C13120472   7.651   1.489   2.333  0.2522 -0.0225 -0.1966
   27HTM   C13220473   7.760   1.466   2.411  0.4908 -0.2244 -0.5879
   27HTM   C13320474   7.877   1.538   2.368  0.4083 -0.2483 -0.8603
   27HTM   C13420475   7.857   1.616   2.258  0.1069 -0.0646 -0.6766
   27HTM    S1420476   7.687   1.604   2.199 -0.0979  0.1545 -0.1411
   28TAL   C13520477   8.006   1.526   2.451  0.3441 -0.0237  0.4072
   28TAL   C13620478   8.083   1.403   2.479 -0.1873  1.1226 -0.7181
   28TAL   C13720479   8.091   1.301   2.375  0.5029  0.0151  0.5210
   28TAL   C13820480   8.163   1.350   2.247  0.3792 -0.1732  0.8800
   28TAL   C13920481   8.214   1.242   2.157  0.1543 -0.0500  0.3100
   28TAL   C14020482   8.334   1.297   2.081 -0.8400  0.8935 -1.2721
   29HTM   C14120483   7.955   1.695   2.178 -0.0800  0.0384  0.3518
   29HTM   C14220484   7.949   1.715   2.043 -0.1977 -0.2189  0.3186
   29HTM   C14320485   8.051   1.804   1.993 -0.1598 -0.4160  0.0405
   29HTM   C14420486   8.134   1.853   2.090 -0.0132 -0.3089 -0.1384
   29HTM    S1520487   8.090   1.789   2.253  0.0891  0.0519  0.0319
   30TAL   C14520488   8.047   1.848   1.841  0.1409 -0.1691 -0.4076
   30TAL   C14620489   7.986   1.993   1.818  0.1114  0.5646 -0.0852
   30TAL   C14720490   7.832   2.017   1.853  0.3792  0.6254  0.8415
   30TAL   C14820491   7.724   1.913   1.812  0.4790  0.7492  0.5234
   30TAL   C14920492   7.688   1.927   1.657  1.2639  0.3067 -0.4857
   30TAL   C15020493   7.567   1.838   1.638  0.2497 -0.1945 -0.0537
   31HTM   C15120494   8.233   1.955   2.092  0.1336 -0.1641 -0.2777
   31HTM   C15220495   8.202   2.086   2.111  0.2506 -0.1302 -0.3222
   31HTM   C15320496   8.314   2.175   2.092  0.3334 -0.2370 -0.3380
   31HTM   C15420497   8.430   2.112   2.059  0.2795 -0.3524 -0.3056
   31HTM    S1620498   8.407   1.933   2.049  0.1188 -0.3350 -0.2520
   32TAL   C15520499   8.301   2.330   2.103  0.6314 -0.0720 -0.5251
   32TAL   C15620500   8.173   2.392   2.156  0.3202 -0.3828  0.7960
   32TAL   C15720501   8.161   2.531   2.090  0.6189 -0.0069  0.9256
   32TAL   C15820502   8.017   2.578   2.113  0.0284  0.2613  0.7658
   32TAL   C15920503   7.960   2.693   2.017 -0.2767 -0.0008 -0.3397
   32TAL   C16020504   8.064   2.808   1.992 -0.1320  0.1141 -0.7678
   33HTM   C16120505   8.569   2.150   2.065 -0.0775 -0.2442 -0.2666
   33HTM   C16220506   8.685   2.080   2.081 -0.0747 -0.2691 -0.3923
   33HTM   C16320507   8.803   2.155   2.046 -0.0679 -0.1538 -0.1236
   33HTM   C16420508   8.778   2.282   2.004 -0.0655 -0.0409  0.2071
   33HTM    S1720509   8.601   2.317   2.004 -0.0718 -0.0718  0.2046
   34TAL   C16520510   8.943   2.081   2.066  1.7248 -0.8292 -0.3719
   34TAL   C16620511   8.977   2.066   2.208  0.2702  0.0229  0.2885
   34TAL   C16720512   9.004   2.192   2.291  0.6903 -0.4696 -0.5853
   34TAL   C16820513   9.145   2.211   2.354  0.6751  0.9525  0.0082
   34TAL   C16920514   9.137   2.332   2.436  0.6656 -1.1900  0.3774
   34TAL   C17020515   9.282   2.367   2.470 -0.5210  1.2904  0.3207
   35HTM   C17120516   8.862   2.398   1.976  0.3984  0.1998 -0.1716
   35HTM   C17220517   8.821   2.501   1.897  0.5736  0.1062 -0.3880
   35HTM   C17320518   8.925   2.595   1.864  0.6783 -0.0083 -0.3811
   35HTM   C17420519   9.046   2.563   1.918  0.5828 -0.0017 -0.1594
   35HTM    S1820520   9.038   2.411   2.015  0.3515  0.1505  0.0596
   36TAL   C17520521   8.885   2.705   1.759 -0.7983  0.2976 -0.4806
   36TAL   C17620522   8.854   2.656   1.615  0.2987  0.3048  0.4398
   36TAL   C17720523   8.701   2.677   1.601 -0.8265  0.2599 -0.8792
   36TAL   C17820524   8.634   2.815   1.575 -1.1366  1.4572  0.0329
   36TAL   C17920525   8.708   2.895   1.465  0.1752  0.9311 -0.2054
   36TAL   C18020526   8.713   3.040   1.500  0.9089 -0.8134  0.3530
   37HTM   C18120527   9.173   2.622   1.889  0.1798  0.2833  0.1685
   37HTM   C18220528   9.291   2.569   1.846 -0.0497  0.3009 -0.4974
   37HTM   C18320529   9.393   2.667   1.820 -0.1066  0.2917 -0.7669
   37HTM   C18420530   9.353   2.795   1.844  0.0794  0.2672 -0.3064
   37HTM    S1920531   9.182   2.802   1.901  0.3431  0.2535  0.5096
   38TAL   C18520532   9.522   2.620   1.757  1.5246  0.3911 -0.0946
   38TAL   C18620533   9.538   2.648   1.612 -0.4862 -0.3366  1.0748
   38TAL   C18720534   9.435   2.582   1.521 -0.3678  0.1272 -0.1526
   38TAL   C18820535   9.457   2.543   1.376  0.3718  0.1114 -0.7287
   38TAL   C18920536   9.496   2.668   1.285 -0.5527  0.5960 -0.6414
   38TAL   C19020537   9.563   2.617   1.154  0.6396 -0.2143  0.8331
   39HTM   C19120538   9.419   2.920   1.831  0.0461 -0.0608  0.2506
   39HTM   C19220539   9.361   3.043   1.835  0.2083 -0.0014  1.1450
   39HTM   C19320540   9.454   3.152   1.816  0.3111  0.0058  1.6684
   39HTM   C19420541   9.583   3.111   1.798  0.2274 -0.0481  1.1731
   39HTM    S2020542   9.597   2.932   1.803  0.0104 -0.1129 -0.0020
   40TAL   C19520543   9.409   3.305   1.824 -0.1854 -0.2664 -0.5979
   40TAL   C19620544   9.341   3.387   1.719 -0.6245 -0.1008  1.2458
   40TAL   C19720545   9.195   3.350   1.718 -0.4333 -0.5325  0.4182
   40TAL   C19820546   9.116   3.401   1.603 -0.3467  0.4998  0.6710
   40TAL   C19920547   9.021   3.301   1.534  0.5557 -0.8533  0.4141
   40TAL   C20020548   8.923   3.385   1.453 -0.4865 -0.2488  0.0232
   41HTM   C20120549   9.710   3.178   1.773  0.1684  0.3655 -0.3440
   41HTM   C20220550   9.732   3.312   1.770  0.5677  0.3291  0.4743
   41HTM   C20320551   9.866   3.348   1.732  0.6950  0.1688  0.7617
   41HTM   C20420552   9.946   3.241   1.705  0.3928  0.0829  0.1626
   41HTM    S2120553   9.857   3.086   1.727 -0.0797  0.1988 -0.8187
   42TAL   C20520554   9.886   3.498   1.694  0.4656  0.8343 -0.5282
   42TAL   C20620555  10.020   3.565   1.692 -0.4535 -0.5484 -0.9616
   42TAL   C20720556  10.041   3.666   1.587  1.2217  0.6138  0.5413
   42TAL   C20820557  10.165   3.741   1.572 -0.8458 -0.2891  1.2259
   42TAL   C20920558  10.305   3.682   1.539  0.8760  0.7337  0.1516
   42TAL   C21020559  10.347   3.635   1.407  0.1173  0.3161  0.0318
   43HTM   C21120560  10.083   3.233   1.658 -0.4038 -0.2302 -0.0211
   43HTM   C21220561  10.195   3.226   1.736 -0.3797 -0.2576 -0.0584
   43HTM   C21320562  10.316   3.200   1.661 -0.3663  0.0190 -0.1378
   43HTM   C21420563  10.295   3.186   1.527 -0.3801  0.2571 -0.1611
   43HTM    S2220564  10.121   3.206   1.484 -0.4115  0.1499 -0.0838
   44TAL   C21520565  10.449   3.171   1.729  0.2710 -0.2348  0.3098
   44TAL   C21620566  10.521   3.293   1.780 -0.1504 -0.3561 -0.4405
   44TAL   C21720567  10.667   3.277   1.786 -0.6019 -0.2998 -0.0452
   44TAL   C21820568  10.726   3.414   1.782 -0.7270 -0.0927  0.4955
   44TAL   C21920569  10.885   3.410   1.744  0.5259 -0.2181 -0.4927
   44TAL   C22020570  10.896   3.383   1.594  0.0391  0.3704  0.1822
   45HTM   C22120571  10.393   3.166   1.415 -0.5309 -0.1028  0.0007
   45HTM   C22220572  10.366   3.082   1.312 -0.4012 -0.3054  0.1307
   45HTM   C22320573  10.456   3.096   1.200 -0.3250 -0.4503  0.1741
   45HTM   C22420574  10.552   3.190   1.219 -0.3967 -0.3583  0.0773
   45HTM    S2320575  10.536   3.271   1.380 -0.5672 -0.0793 -0.0775
   46TAL   C22520576  10.437   3.000   1.075  1.2927 -0.0455  0.0558
   46TAL   C22620577  10.313   3.028   0.977 -0.7824  0.6650 -0.8727
   46TAL   C22720578  10.335   2.931   0.851 -0.6960 -0.5450  0.2258
   46TAL   C22820579  10.235   2.946   0.733 -1.0093 -0.1781 -0.6624
   46TAL   C22920580  10.092   2.911   0.757 -0.4571 -0.1044  0.5492
   46TAL   C23020581  10.059   2.771   0.800  0.6428  0.0594 -0.0711
   47HTM   C23120582  10.663   3.229   1.133  0.1084  0.3785  0.2209
   47HTM   C23220583  10.686   3.191   1.004  0.3486 -0.0640  0.3877
   47HTM   C23320584  10.807   3.248   0.949  0.6606 -0.5681  0.5388
   47HTM   C23420585  10.875   3.328   1.036  0.6581 -0.5100  0.4873
   47HTM    S2420586  10.792   3.338   1.195  0.2586  0.1913  0.2420
   48TAL   C23520587  10.863   3.223   0.809 -0.4310 -1.3395  0.0055
   48TAL   C23620588  10.792   3.269   0.680  0.1851 -0.4851  0.5463
   48TAL   C23720589  10.650   3.225   0.666  1.2141 -0.4494 -0.6135
   48TAL   C23820590  10.596   3.246   0.522  0.5705 -0.5119 -0.4248
   48TAL   C23920591  10.453   3.197   0.515  0.1426 -0.0440 -0.1273
   48TAL   C24020592  10.389   3.272   0.402  0.5776 -0.8098 -0.2444
    1HTM     C120593   2.200   0.042   2.716  0.2262 -0.3687  0.1067
    1HTM     C220594   2.216  -0.090   2.682  0.1016 -0.2983 -0.2350
    1HTM     C320595   2.115  -0.138   2.592 -0.0479 -0.0139 -0.2243
    1HTM     C420596   2.023  -0.044   2.556 -0.0374  0.1323  0.1257
    1HTM     S120597   2.057   0.115   2.635  0.1637 -0.0793  0.4716
    2TAL     C520598   2.128  -0.281   2.551  0.3242  0.9064 -0.2638
    2TAL     C620599   2.099  -0.397   2.659  0.1524 -0.5885 -0.1816
    2TAL     C720600   1.951  -0.413   2.710 -0.3246  0.4398  0.5910
    2TAL     C820601   1.936  -0.551   2.782  0.4762  0.3196  0.3781
    2TAL     C920602   1.793  -0.585   2.833 -0.4093  0.6354 -0.3338
    2TAL    C1020603   1.665  -0.579   2.758  0.1434  0.3935  0.3482
    3HTM    C1120604   1.899  -0.047   2.477 -0.6568  0.4841  0.4482
    3HTM    C1220605   1.856   0.050   2.392 -1.2122  0.5050  0.7446
    3HTM    C1320606   1.723   0.026   2.340 -0.9769 -0.2511  0.4538
    3HTM    C1420607   1.666  -0.088   2.386 -0.2419 -0.8483 -0.0644
    3HTM     S220608   1.775  -0.177   2.499  0.2134 -0.4997 -0.2266
    4TAL    C1520609   1.664   0.114   2.232 -0.0495  0.6370  0.3774
    4TAL    C1620610   1.554   0.205   2.260 -0.3868 -0.0629 -0.9592
    4TAL    C1720611   1.536   0.278   2.133  0.7997  0.5731  0.1640
    4TAL    C1820612   1.421   0.378   2.142 -0.3849 -0.0815  0.0162
    4TAL    C1920613   1.405   0.470   2.021 -0.2313  0.8314 -0.4565
    4TAL    C2020614   1.355   0.409   1.893  0.1418 -0.3989 -0.3460
    5HTM    C2120615   1.530  -0.146   2.363  0.3210 -0.4739 -0.7125
    5HTM    C2220616   1.494  -0.263   2.424  0.5594 -0.6928 -0.9827
    5HTM    C2320617   1.365  -0.311   2.385  0.3451 -0.4770 -0.5525
    5HTM    C2420618   1.302  -0.231   2.294 -0.0570 -0.0934  0.0458
    5HTM     S320619   1.402  -0.088   2.250 -0.1970  0.0258  0.1127
    6TAL    C2520620   1.302  -0.424   2.455  1.0641  1.1615 -0.3832
    6TAL    C2620621   1.197  -0.370   2.558 -0.3104  0.6920  0.1955
    6TAL    C2720622   1.114  -0.479   2.624  0.3587  0.7241  1.2650
    6TAL    C2820623   1.010  -0.430   2.725  0.4450  0.2238 -0.0826
    6TAL    C2920624   0.875  -0.406   2.658  0.0642 -0.4341  0.3181
    6TAL    C3020625   0.800  -0.532   2.608 -0.0696  0.8681 -0.2168
    7HTM    C3120626   1.192  -0.272   2.205  0.0145 -0.0318  0.5711
    7HTM    C3220627   1.190  -0.262   2.069  0.0919  0.7982  0.6200
    7HTM    C3320628   1.065  -0.304   2.010  0.2544  0.7951  0.2725
    7HTM    C3420629   0.973  -0.345   2.101  0.3010 -0.0373 -0.0414
    7HTM     S420630   1.036  -0.335   2.269  0.1420 -0.8882  0.0787
    8TAL    C3520631   1.038  -0.336   1.858 -0.6147  0.4342 -0.3051
    8TAL    C3620632   1.080  -0.470   1.813 -0.0435  0.4346  0.6114
    8TAL    C3720633   1.038  -0.509   1.666 -0.2271  0.0909 -0.5287
    8TAL    C3820634   0.889  -0.532   1.650  0.1972  0.3710  0.2541
    8TAL    C3920635   0.825  -0.436   1.545 -0.3642  0.7156 -0.2745
    8TAL    C4020636   0.674  -0.464   1.558  0.8220 -0.3115 -0.7477
    9HTM    C4120637   0.836  -0.402   2.081 -0.0184 -0.1190  0.2789
    9HTM    C4220638   0.722  -0.328   2.079 -0.0877 -0.1922  1.0251
    9HTM    C4320639   0.604  -0.405   2.048 -0.1773 -0.1878  1.3528
    9HTM    C4420640   0.628  -0.538   2.027 -0.1763 -0.1113  0.8562
    9HTM     S520641   0.804  -0.576   2.044 -0.0613 -0.0384 -0.0710
   10TAL    C4520642   0.468  -0.340   2.057  0.1147 -0.6286 -0.4138
   10TAL    C4620643   0.432  -0.233   1.955 -1.3511 -0.1964  0.7215
   10TAL    C4720644   0.505  -0.228   1.818  0.4595 -1.0644  0.1862
   10TAL    C4820645   0.511  -0.079   1.751 -1.2416 -0.1431  0.8011
   10TAL    C4920646   0.450  -0.071   1.609  0.1816 -0.4728  0.1151
   10TAL    C5020647   0.303  -0.122   1.606 -0.4584 -0.6192  0.0822
   11HTM    C5120648   0.549  -0.652   1.984  0.1638 -0.0853  0.2047
   11HTM    C5220649   0.457  -0.728   2.050  0.5320 -0.2761  0.5092
   11HTM    C5320650   0.389  -0.822   1.965  0.6278 -0.5978  0.7845
   11HTM    C5420651   0.429  -0.818   1.835  0.3327 -0.6521  0.6898
   11HTM     S620652   0.557  -0.693   1.809 -0.0924 -0.2985  0.2422
   12TAL    C5520653   0.281  -0.907   2.014  0.6770  0.0304 -0.8201
   12TAL    C5620654   0.144  -0.850   2.009  1.2765 -0.0318 -1.2010
   12TAL    C5720655   0.014  -0.945   2.028 -0.1408 -0.2962 -0.7847
   12TAL    C5820656  -0.114  -0.865   2.023  0.4441  0.8049  0.4251
   12TAL    C5920657  -0.151  -0.776   1.905  0.3305  0.3172 -0.7347
   12TAL    C6020658  -0.302  -0.736   1.908 -0.4714  0.0036  0.2426
   13HTM    C6120659   0.392  -0.906   1.722 -0.4266  0.1855  0.0842
   13HTM    C6220660   0.410  -0.867   1.593 -0.5476  0.4990  0.1604
   13HTM    C6320661   0.360  -0.961   1.496 -0.0286  0.4102 -0.0280
   13HTM    C6420662   0.304  -1.072   1.551  0.4881  0.0289 -0.2478
   13HTM     S720663   0.309  -1.067   1.732  0.3583 -0.2498 -0.2339
   14TAL    C6520664   0.393  -0.946   1.352  0.2872  0.0509  0.3350
   14TAL    C6620665   0.285  -0.906   1.250 -0.4923  1.2115  0.0668
   14TAL    C6720666   0.195  -0.793   1.276 -0.0241 -0.5565 -0.9200
   14TAL    C6820667   0.076  -0.758   1.192 -0.1498  0.0240  0.0229
   14TAL    C6920668  -0.040  -0.862   1.183  1.2068  0.3541 -0.0857
   14TAL    C7020669  -0.167  -0.806   1.102 -0.3228  0.6649 -1.1899
   15HTM    C7120670   0.228  -1.180   1.488  0.4147 -0.0906 -0.3902
   15HTM    C7220671   0.104  -1.173   1.432  0.2747 -0.2637 -0.1128
   15HTM    C7320672   0.036  -1.299   1.423  0.3668 -0.3350  0.1828
   15HTM    C7420673   0.108  -1.404   1.473  0.5769 -0.2163  0.1309
   15HTM     S820674   0.268  -1.350   1.536  0.6757 -0.0034 -0.2988
   16TAL    C7520675  -0.103  -1.311   1.359  0.6620 -0.7299 -0.0573
   16TAL    C7620676  -0.212  -1.217   1.428  0.2088  0.0146  0.2143
   16TAL    C7720677  -0.351  -1.258   1.387 -0.4324  0.2186 -0.1277
   16TAL    C7820678  -0.390  -1.277   1.245 -0.0534 -0.3036 -0.6655
   16TAL    C7920679  -0.401  -1.142   1.171 -0.0756 -0.2191  1.3607
   16TAL    C8020680  -0.455  -1.151   1.027  0.3894  0.1532 -0.0320
   17HTM    C8120681   0.073  -1.549   1.488  0.2590  0.5971 -1.5631
   17HTM    C8220682  -0.051  -1.597   1.522 -0.1632  1.0445 -2.4160
   17HTM    C8320683  -0.053  -1.738   1.549 -0.6654  1.2064 -1.5336
   17HTM    C8420684   0.069  -1.798   1.536 -0.6260  0.8827 -0.0077
   17HTM     S920685   0.197  -1.680   1.489  0.0535  0.3439  0.4364
   18TAL    C8520686  -0.188  -1.806   1.576  0.7687  0.0373  0.4470
   18TAL    C8620687  -0.246  -1.783   1.721 -0.4146 -0.0427  0.1952
   18TAL    C8720688  -0.339  -1.893   1.764 -0.2876  0.1238 -0.2848
   18TAL    C8820689  -0.452  -1.837   1.830 -0.4855  0.5423  0.2524
   18TAL    C8920690  -0.520  -1.951   1.911 -0.5798 -0.8760  0.4937
   18TAL    C9020691  -0.636  -1.904   2.003  0.3533 -0.1928  0.3878
   19HTM    C9120692   0.100  -1.942   1.521  0.7333 -0.2911  1.1784
   19HTM    C9220693   0.083  -2.053   1.598  1.5825 -0.4221  1.1854
   19HTM    C9320694   0.149  -2.170   1.546  1.3605 -0.2370  0.4772
   19HTM    C9420695   0.215  -2.148   1.428  0.3420  0.0352 -0.0699
   19HTM    S1020696   0.200  -1.976   1.375 -0.4216  0.0792  0.2698
   20TAL    C9520697   0.139  -2.302   1.622  0.8568 -0.2852 -1.7564
   20TAL    C9620698   0.065  -2.422   1.565 -0.6924 -0.6578 -0.1830
   20TAL    C9720699  -0.086  -2.397   1.547 -0.9874  0.4609 -0.4844
   20TAL    C9820700  -0.170  -2.506   1.486 -0.0317 -0.0556  0.1217
   20TAL    C9920701  -0.141  -2.549   1.344  0.8301  0.8296  0.5604
   20TAL   C10020702  -0.229  -2.663   1.282 -0.1546 -1.0205  0.3983
   21HTM   C10120703   0.294  -2.242   1.349 -0.1597  0.5378 -0.1479
   21HTM   C10220704   0.429  -2.260   1.359 -0.1060  0.8147 -0.3606
   21HTM   C10320705   0.483  -2.347   1.259 -0.1002  0.8413 -0.3808
   21HTM   C10420706   0.390  -2.397   1.172 -0.1495  0.5850 -0.1836
   21HTM    S1120707   0.225  -2.336   1.211 -0.2074  0.2876  0.0448
   22TAL   C10520708   0.638  -2.364   1.254  0.0701  0.2744 -0.6138
   22TAL   C10620709   0.708  -2.246   1.179  0.0665 -0.3560 -0.5856
   22TAL   C10720710   0.859  -2.275   1.181  1.0183  0.5908 -0.6113
   22TAL   C10820711   0.909  -2.231   1.052  0.0733  0.6617 -0.6977
   22TAL   C10920712   1.040  -2.172   1.060  0.0755  0.6283  0.7269
   22TAL   C11020713   1.105  -2.172   0.926  0.6957  0.0392  0.0738
   23HTM   C11120714   0.404  -2.485   1.056 -0.0448 -0.4808  0.3530
   23HTM   C11220715   0.299  -2.555   1.005  0.1395 -0.3644 -0.2016
   23HTM   C11320716   0.338  -2.662   0.917  0.4511 -0.0104 -0.5030
   23HTM   C11420717   0.473  -2.674   0.901  0.5044  0.1431 -0.1782
   23HTM    S1220718   0.562  -2.549   0.996  0.1625 -0.1496  0.5390
   24TAL   C11520719   0.212  -2.730   0.856 -0.1428  0.9230 -0.0350
   24TAL   C11620720   0.175  -2.876   0.905 -0.3961 -0.1636  0.9716
   24TAL   C11720721   0.055  -2.929   0.823 -1.3216  1.6784  0.4977
   24TAL   C11820722   0.012  -3.063   0.878 -1.3026  1.1366  0.5090
   24TAL   C11920723  -0.107  -3.113   0.813  0.7794 -0.0010  0.5244
   24TAL   C12020724  -0.127  -3.246   0.883  0.3382  0.2426  1.1645
   25HTM   C12120725   0.546  -2.768   0.811  0.1936  0.0899  0.5282
   25HTM   C12220726   0.530  -2.903   0.792  1.0043 -0.1897  1.6056
   25HTM   C12320727   0.609  -2.955   0.683  0.9943 -0.5085  1.7487
   25HTM   C12420728   0.684  -2.860   0.619  0.1760 -0.4719  0.7805
   25HTM    S1320729   0.662  -2.697   0.693 -0.6519 -0.0286 -0.3963
   26TAL   C12520730   0.594  -3.114   0.644 -0.0811  0.2403  0.4765
   26TAL   C12620731   0.489  -3.156   0.543 -0.1411  0.6469 -0.0328
   26TAL   C12720732   0.343  -3.148   0.586  0.0837 -0.0209 -0.8808
   26TAL   C12820733   0.307  -3.223   0.711  0.0005  1.0527 -0.5578
   26TAL   C12920734   0.343  -3.369   0.723  0.6741  0.4722  0.3865
   26TAL   C13020735   0.281  -3.425   0.851  0.5990 -1.0334 -0.0096
   27HTM   C13120736   0.771  -2.861   0.502  0.3210  0.3875  0.1083
   27HTM   C13220737   0.817  -2.756   0.430  1.6551  0.2909  0.7648
   27HTM   C13320738   0.905  -2.793   0.322  1.8560 -0.0610  1.0461
   27HTM   C13420739   0.926  -2.927   0.312  0.6749 -0.2327  0.6041
   27HTM    S1420740   0.835  -3.018   0.439 -0.7940  0.0390 -0.2080
   28TAL   C13520741   0.937  -2.681   0.208 -0.1472 -0.9750 -0.0011
   28TAL   C13620742   0.816  -2.613   0.132  0.1577  0.5344 -0.0588
   28TAL   C13720743   0.831  -2.476   0.083 -0.2994 -0.1192  0.4151
   28TAL   C13820744   0.730  -2.420  -0.010  0.3796  0.2805 -0.0843
   28TAL   C13920745   0.783  -2.296  -0.070  0.8546 -0.2021  0.1412
   28TAL   C14020746   0.687  -2.219  -0.168 -0.8565 -0.2844 -0.5606
   29HTM   C14120747   1.010  -3.003   0.224  0.4991 -0.1209  0.0219
   29HTM   C14220748   0.974  -3.101   0.136  0.3187 -0.1010  0.0707
   29HTM   C14320749   1.084  -3.148   0.054  0.1925 -0.2110 -0.0367
   29HTM   C14420750   1.202  -3.085   0.080  0.2766 -0.3151 -0.1673
   29HTM    S1520751   1.185  -2.962   0.211  0.5237 -0.2815 -0.1648
   30TAL   C14520752   1.071  -3.266  -0.036  0.2150 -0.3208 -0.6521
   30TAL   C14620753   0.938  -3.345  -0.040 -0.1549  0.5882  0.8637
   30TAL   C14720754   0.831  -3.272  -0.124  0.5685  0.2756  0.1763
   30TAL   C14820755   0.697  -3.346  -0.128  0.7787  0.7626 -0.6765
   30TAL   C14920756   0.584  -3.276  -0.202 -0.4517 -0.9800  0.3835
   30TAL   C15020757   0.495  -3.201  -0.098 -0.3913  0.8305  0.8115
   31HTM   C15120758   1.336  -3.078   0.016  0.2908 -0.3343 -0.6701
   31HTM   C15220759   1.378  -3.012  -0.095  0.3457 -0.7423 -0.8931
   31HTM   C15320760   1.520  -3.025  -0.119  0.4131 -0.5711 -0.5975
   31HTM   C15420761   1.585  -3.101  -0.026  0.4096 -0.0328 -0.1487
   31HTM    S1620762   1.472  -3.162   0.100  0.3202  0.3028 -0.0641
   32TAL   C15520763   1.588  -2.999  -0.249  1.0369 -0.6567  0.3894
   32TAL   C15620764   1.612  -2.844  -0.283  0.8303 -0.0738  0.3353
   32TAL   C15720765   1.658  -2.806  -0.422  1.1207 -0.9545  0.4118
   32TAL   C15820766   1.767  -2.888  -0.489 -0.7710 -0.4116  0.3802
   32TAL   C15920767   1.760  -2.865  -0.638  0.6910  0.3277  0.5027
   32TAL   C16020768   1.818  -2.742  -0.702  0.7075 -0.3389 -0.1618
   33HTM   C16120769   1.722  -3.142  -0.012 -0.1294 -0.0870 -0.1132
   33HTM   C16220770   1.811  -3.088   0.076 -0.3130 -0.2375  0.1688
   33HTM   C16320771   1.937  -3.158   0.081 -0.3678 -0.3179  0.4010
   33HTM   C16420772   1.943  -3.266  -0.002 -0.2258 -0.2287  0.2959
   33HTM    S1720773   1.790  -3.287  -0.095 -0.0104 -0.0349 -0.1073
   34TAL   C16520774   2.047  -3.121   0.179 -0.2979  0.9236 -0.3890
   34TAL   C16620775   2.011  -3.072   0.319 -0.2069 -0.4291  0.7192
   34TAL   C16720776   1.922  -3.134   0.427 -0.7118  1.1738  1.3216
   34TAL   C16820777   1.963  -3.277   0.469 -0.5477  0.3894 -1.1558
   34TAL   C16920778   1.935  -3.421   0.407  0.6673 -1.2910  0.0938
   34TAL   C17020779   1.798  -3.435   0.334  0.8058 -1.1531  0.0267
   35HTM   C17120780   2.039  -3.371  -0.029 -0.4283 -0.8427 -0.8623
   35HTM   C17220781   2.061  -3.499   0.011 -0.3719 -0.8978 -1.0682
   35HTM   C17320782   2.174  -3.561  -0.053  0.1111 -0.4963 -0.6251
   35HTM   C17420783   2.238  -3.480  -0.142  0.4229 -0.1353 -0.0806
   35HTM    S1820784   2.161  -3.318  -0.151  0.1286 -0.2753 -0.0864
   36TAL   C17520785   2.208  -3.705  -0.019 -0.2657 -0.0501  0.6516
   36TAL   C17620786   2.138  -3.795  -0.128 -0.3288  0.3167  0.0248
   36TAL   C17720787   1.986  -3.778  -0.146 -0.7529 -0.5787  0.4468
   36TAL   C17820788   1.900  -3.826  -0.033  0.2486  0.2902  0.1139
   36TAL   C17920789   1.752  -3.791  -0.033 -0.6072  0.9383 -0.0746
   36TAL   C18020790   1.676  -3.840   0.088 -0.1242 -0.3339  0.3764
   37HTM   C18120791   2.356  -3.502  -0.229  0.0138  0.4532  0.1890
   37HTM   C18220792   2.430  -3.404  -0.287  0.2272  0.3733  0.3219
   37HTM   C18320793   2.545  -3.453  -0.359  0.1445  0.2242  0.2909
   37HTM   C18420794   2.559  -3.588  -0.355 -0.1319  0.1904  0.1334
   37HTM    S1920795   2.426  -3.665  -0.260 -0.3107  0.3455  0.0120
   38TAL   C18520796   2.629  -3.361  -0.447 -0.2160 -2.3469 -0.4430
   38TAL   C18620797   2.612  -3.203  -0.424 -0.6272  0.1415  0.0313
   38TAL   C18720798   2.736  -3.132  -0.475  0.0437 -0.1029  0.3152
   38TAL   C18820799   2.709  -3.048  -0.607 -0.4451 -0.0232 -0.5841
   38TAL   C18920800   2.716  -3.134  -0.737 -0.7355 -0.7404 -0.3560
   38TAL   C19020801   2.670  -3.048  -0.851 -0.1255  0.6861 -0.1307
   39HTM   C19120802   2.650  -3.678  -0.412 -0.5192  0.0537 -0.9644
   39HTM   C19220803   2.782  -3.667  -0.447 -0.5223  0.1090 -0.9594
   39HTM   C19320804   2.837  -3.788  -0.503 -0.2822 -0.0846 -0.3223
   39HTM   C19420805   2.748  -3.891  -0.510 -0.0960 -0.2875  0.1573
   39HTM    S2020806   2.586  -3.843  -0.447 -0.2103 -0.2494 -0.1599
   40TAL   C19520807   2.977  -3.769  -0.560  0.6398  0.4215 -0.5119
   40TAL   C19620808   3.085  -3.818  -0.468 -0.6354 -0.5635 -0.9155
   40TAL   C19720809   3.227  -3.761  -0.485 -1.1640  0.9950 -0.3757
   40TAL   C19820810   3.262  -3.612  -0.495  0.0240  0.2630 -0.0583
   40TAL   C19920811   3.184  -3.522  -0.401  0.3185  0.0637 -0.6560
   40TAL   C20020812   3.248  -3.376  -0.392  0.4594  0.3542 -0.2768
   41HTM   C20120813   2.776  -4.028  -0.543 -0.0738  0.1016 -0.4585
   41HTM   C20220814   2.733  -4.135  -0.469 -0.1399  0.2643 -0.2623
   41HTM   C20320815   2.781  -4.262  -0.516  0.0222  0.1698  0.1473
   41HTM   C20420816   2.861  -4.253  -0.627  0.2119 -0.0651  0.2636
   41HTM    S2120817   2.882  -4.081  -0.680  0.2003 -0.1860 -0.1391
   42TAL   C20520818   2.761  -4.383  -0.437  0.3530  1.2651 -0.3628
   42TAL   C20620819   2.841  -4.413  -0.303 -0.4427 -0.2727  0.0498
   42TAL   C20720820   2.965  -4.495  -0.320 -0.4502 -0.7019  0.2726
   42TAL   C20820821   3.034  -4.511  -0.179  0.0874 -0.2390  0.3625
   42TAL   C20920822   3.159  -4.592  -0.160 -0.9072  0.0414 -0.1963
   42TAL   C21020823   3.269  -4.524  -0.230 -0.2382 -0.2595 -0.0076
   43HTM   C21120824   2.891  -4.363  -0.722  0.2457 -0.0219  0.5148
   43HTM   C21220825   2.838  -4.391  -0.845 -0.4036 -0.0760  0.7982
   43HTM   C21320826   2.898  -4.504  -0.910 -0.9472 -0.2866  0.6490
   43HTM   C21420827   2.997  -4.563  -0.837 -0.7123 -0.3930  0.2510
   43HTM    S2220828   3.022  -4.479  -0.679  0.2209 -0.2343  0.0329
   44TAL   C21520829   2.848  -4.543  -1.044 -0.2096  0.1444  0.7393
   44TAL   C21620830   2.864  -4.441  -1.157  0.4904  0.8282  0.1973
   44TAL   C21720831   2.807  -4.487  -1.288 -0.3477 -0.6925 -0.4391
   44TAL   C21820832   2.651  -4.494  -1.310  0.2215  0.3994 -0.7145
   44TAL   C21920833   2.566  -4.588  -1.217 -0.3035  0.0040  1.3778
   44TAL   C22020834   2.508  -4.524  -1.098  0.5128  0.2519 -0.0417
   45HTM   C22120835   3.064  -4.692  -0.848 -0.0891 -0.1063 -0.1110
   45HTM   C22220836   3.173  -4.721  -0.771 -0.2548 -0.2677  0.0658
   45HTM   C22320837   3.227  -4.853  -0.795 -0.3502 -0.3098  0.0806
   45HTM   C22420838   3.159  -4.923  -0.890 -0.2573 -0.1806 -0.0839
   45HTM    S2320839   3.021  -4.829  -0.957 -0.0403  0.0058 -0.2722
   46TAL   C22520840   3.349  -4.899  -0.712  0.1653 -0.7637  0.7523
   46TAL   C22620841   3.318  -4.989  -0.594  0.4660  0.0086 -0.3911
   46TAL   C22720842   3.444  -5.023  -0.505  0.4695  0.4362 -0.3367
   46TAL   C22820843   3.542  -5.121  -0.562  0.2033  0.1900  0.0743
   46TAL   C22920844   3.482  -5.262  -0.550  0.2622  0.1966 -0.1127
   46TAL   C23020845   3.575  -5.371  -0.595  0.0175 -0.4391  0.5395
   47HTM   C23120846   3.177  -5.065  -0.929  0.3462  0.2391  0.0626
   47HTM   C23220847   3.082  -5.130  -1.002  0.4252  0.6731 -0.4377
   47HTM   C23320848   3.115  -5.267  -1.032  0.1867  0.6725 -0.6995
   47HTM   C23420849   3.236  -5.306  -0.983 -0.0739  0.2381 -0.3996
   47HTM    S2420850   3.318  -5.173  -0.893 -0.0383 -0.2075  0.2420
   48TAL   C23520851   3.012  -5.371  -1.084  0.8567 -0.6426  0.7047
   48TAL   C23620852   2.866  -5.335  -1.051  0.2414 -0.9148  0.7355
   48TAL   C23720853   2.771  -5.441  -1.001  0.7105 -0.9244  0.2609
   48TAL   C23820854   2.712  -5.538  -1.103  0.5705 -0.4743  0.2544
   48TAL   C23920855   2.793  -5.666  -1.123  0.6596  0.2293 -0.0025
   48TAL   C24020856   2.758  -5.737  -1.248  0.2416  0.4287  0.0209
    1HTM     C120857   0.721   2.128   7.744  0.1282  0.1374 -0.3658
    1HTM     C220858   0.840   2.130   7.678  0.2125  0.6152 -0.2035
    1HTM     C320859   0.866   2.255   7.611  0.0384  0.9021  0.2487
    1HTM     C420860   0.767   2.347   7.625 -0.1787  0.6431  0.4311
    1HTM     S120861   0.632   2.284   7.726 -0.1801  0.0117  0.0426
    2TAL     C520862   0.985   2.273   7.516 -0.7857  0.0772  0.2364
    2TAL     C620863   1.113   2.190   7.535 -0.4902 -0.3670  0.7563
    2TAL     C720864   1.215   2.247   7.632  0.6899 -0.4974  0.2280
    2TAL     C820865   1.331   2.148   7.651  0.0886  0.1094  0.6390
    2TAL     C920866   1.441   2.199   7.735  0.1044  0.0737  0.5713
    2TAL    C1020867   1.522   2.307   7.666  0.7937 -0.2282  0.8293
    3HTM    C1120868   0.758   2.485   7.569  0.3211  0.2061 -0.0249
    3HTM    C1220869   0.838   2.596   7.579  0.3338  0.2354 -0.4147
    3HTM    C1320870   0.774   2.717   7.536  0.3204  0.1060 -0.7699
    3HTM    C1420871   0.646   2.700   7.493  0.2975 -0.0220 -0.6511
    3HTM     S220872   0.595   2.527   7.504  0.2911  0.0113 -0.0769
    4TAL    C1520873   0.856   2.847   7.553 -0.9164  1.2277 -1.0788
    4TAL    C1620874   0.843   2.977   7.486 -0.5517  0.1143 -0.6771
    4TAL    C1720875   0.878   2.959   7.335 -0.6135 -0.1786  0.2321
    4TAL    C1820876   0.913   3.087   7.258 -0.0871 -0.3405  0.4387
    4TAL    C1920877   0.980   3.217   7.311  0.4719  0.1055  1.1672
    4TAL    C2020878   0.968   3.338   7.214  1.7181  0.1364 -0.5403
    5HTM    C2120879   0.545   2.792   7.431 -0.1108  0.0676  0.3076
    5HTM    C2220880   0.515   2.924   7.446 -0.2189  0.0095  0.6183
    5HTM    C2320881   0.411   2.970   7.358 -0.0948  0.1841  0.5620
    5HTM    C2420882   0.361   2.873   7.276  0.1080  0.3753  0.2081
    5HTM     S320883   0.442   2.715   7.303  0.1583  0.3494 -0.0837
    6TAL    C2520884   0.382   3.118   7.348  0.3954  0.0963  0.4423
    6TAL    C2620885   0.485   3.196   7.280  0.1829  1.1671 -1.0675
    6TAL    C2720886   0.463   3.330   7.250 -0.1376  0.0564  0.0171
    6TAL    C2820887   0.432   3.430   7.361  0.2403 -0.2460  1.3907
    6TAL    C2920888   0.398   3.573   7.316  0.0927 -0.0373  0.2391
    6TAL    C3020889   0.307   3.652   7.409 -0.7235  0.0200  0.8039
    7HTM    C3120890   0.266   2.864   7.161  0.2388  0.4557  0.0695
    7HTM    C3220891   0.196   2.968   7.107  0.5585  0.5356 -0.1969
    7HTM    C3320892   0.128   2.936   6.985  0.5832  0.4747 -0.1944
    7HTM    C3420893   0.146   2.807   6.945  0.2824  0.3485  0.0735
    7HTM     S420894   0.250   2.715   7.059 -0.0581  0.2962  0.3459
    8TAL    C3520895   0.055   3.044   6.914  0.7459 -0.0264 -0.3631
    8TAL    C3620896   0.111   3.112   6.798  0.8745 -0.8797  1.1892
    8TAL    C3720897   0.000   3.199   6.747 -0.3157 -0.9260  0.3913
    8TAL    C3820898   0.042   3.268   6.618  0.1850 -0.1897  0.0968
    8TAL    C3920899  -0.041   3.383   6.566 -0.2370 -0.1759 -0.2169
    8TAL    C4020900   0.036   3.434   6.441  0.0232  0.1460 -1.1899
    9HTM    C4120901   0.102   2.727   6.830  0.0760  0.0383  0.1998
    9HTM    C4220902   0.101   2.763   6.699  0.4142 -0.0478  0.1715
    9HTM    C4320903   0.061   2.658   6.610  0.1993  0.0259  0.1802
    9HTM    C4420904   0.031   2.541   6.673 -0.3027  0.1682  0.2151
    9HTM     S520905   0.052   2.555   6.852 -0.5449  0.2204  0.2398
   10TAL    C4520906   0.057   2.680   6.459  0.8624 -0.2159  0.1376
   10TAL    C4620907   0.138   2.786   6.391  0.5257 -0.8689 -0.1253
   10TAL    C4720908   0.153   2.767   6.238 -0.6687 -0.0553  0.0134
   10TAL    C4820909   0.270   2.839   6.163  0.9070 -0.9161 -0.3846
   10TAL    C4920910   0.394   2.775   6.227  0.7133  0.2882  0.0883
   10TAL    C5020911   0.530   2.836   6.208 -0.2332  0.6758  0.0306
   11HTM    C5120912  -0.039   2.433   6.607 -0.1195 -0.1503  0.0947
   11HTM    C5220913   0.019   2.334   6.533 -0.5820 -0.8450  0.6430
   11HTM    C5320914  -0.076   2.252   6.462 -0.9656 -0.7736  1.0582
   11HTM    C5420915  -0.206   2.289   6.481 -0.7953 -0.0244  0.8263
   11HTM     S620916  -0.219   2.431   6.591 -0.1324  0.6542  0.0594
   12TAL    C5520917  -0.027   2.150   6.353  0.3075  0.7896 -0.5470
   12TAL    C5620918   0.060   2.195   6.239  0.8373 -0.6416  0.0517
   12TAL    C5720919   0.022   2.327   6.162  0.0246  0.4509 -0.1432
   12TAL    C5820920   0.116   2.360   6.056  0.2778 -0.8046 -0.0855
   12TAL    C5920921   0.069   2.478   5.950  0.0175 -0.4278  0.9264
   12TAL    C6020922   0.165   2.544   5.855 -0.2604 -0.0991 -0.7259
   13HTM    C6120923  -0.334   2.236   6.433  0.3080 -0.4472 -0.1368
   13HTM    C6220924  -0.450   2.250   6.503  0.5541 -0.4988  0.2844
   13HTM    C6320925  -0.561   2.177   6.448  0.4288 -0.7013  0.7939
   13HTM    C6420926  -0.530   2.107   6.335  0.0870 -0.8040  0.7616
   13HTM     S720927  -0.357   2.128   6.290 -0.1044 -0.6517  0.0794
   14TAL    C6520928  -0.698   2.208   6.500  1.1100 -0.6232  0.2067
   14TAL    C6620929  -0.808   2.115   6.528  0.0703  0.5456 -0.2337
   14TAL    C6720930  -0.948   2.156   6.505 -0.8632  0.5227 -0.3450
   14TAL    C6820931  -1.033   2.028   6.536  0.7610 -0.0566 -0.5539
   14TAL    C6920932  -1.181   2.054   6.555  0.2712  0.6147 -0.1404
   14TAL    C7020933  -1.254   1.928   6.611  0.1008 -0.1612  0.9898
   15HTM    C7120934  -0.612   2.007   6.271 -0.5942  0.3040  0.0170
   15HTM    C7220935  -0.611   1.871   6.284 -0.6635  0.3141  0.1326
   15HTM    C7320936  -0.713   1.804   6.208 -0.5805  0.2891  0.0427
   15HTM    C7420937  -0.793   1.889   6.136 -0.4477  0.2600 -0.1415
   15HTM     S820938  -0.744   2.061   6.160 -0.4171  0.2619 -0.2162
   16TAL    C7520939  -0.727   1.646   6.202 -0.5353 -0.2771 -0.3164
   16TAL    C7620940  -0.682   1.567   6.329 -0.5425 -0.3944 -0.5380
   16TAL    C7720941  -0.545   1.494   6.296  0.2080  0.5765  0.4835
   16TAL    C7820942  -0.521   1.381   6.398 -0.5356 -0.7952 -0.0466
   16TAL    C7920943  -0.380   1.334   6.365 -0.4308  0.0330 -0.6262
   16TAL    C8020944  -0.329   1.216   6.450 -0.0390  0.3217  0.1942
   17HTM    C8120945  -0.905   1.866   6.051 -0.1242  0.3877 -0.1787
   17HTM    C8220946  -0.958   1.949   5.957  0.1978  0.3270 -0.4169
   17HTM    C8320947  -1.070   1.893   5.887  0.2939  0.3701 -0.6074
   17HTM    C8420948  -1.103   1.767   5.928  0.0455  0.4637 -0.5148
   17HTM     S920949  -0.994   1.709   6.059 -0.3323  0.5050 -0.1771
   18TAL    C8520950  -1.152   1.984   5.798  0.0376  0.1361  0.3171
   18TAL    C8620951  -1.116   2.013   5.652 -1.0239 -0.7804 -0.7758
   18TAL    C8720952  -1.173   2.135   5.584  0.0480 -0.8142 -0.5985
   18TAL    C8820953  -1.323   2.133   5.576  0.5654 -0.5889  0.6428
   18TAL    C8920954  -1.375   2.248   5.492 -0.9750  0.4387 -0.6613
   18TAL    C9020955  -1.411   2.357   5.587  0.0048 -0.0111 -1.0352
   19HTM    C9120956  -1.209   1.670   5.888 -0.4330 -0.4374 -0.0371
   19HTM    C9220957  -1.193   1.539   5.853 -0.5552 -0.2995 -0.6403
   19HTM    C9320958  -1.316   1.472   5.820 -0.6229 -0.0445 -0.9108
   19HTM    C9420959  -1.426   1.552   5.829 -0.5522  0.0120 -0.5141
   19HTM    S1020960  -1.383   1.719   5.881 -0.3935 -0.2545  0.2382
   20TAL    C9520961  -1.297   1.318   5.809  0.0195  0.4097  0.3582
   20TAL    C9620962  -1.205   1.236   5.895 -0.7747  0.1650 -1.1473
   20TAL    C9720963  -1.269   1.108   5.951 -0.4709  1.0158  0.0772
   20TAL    C9820964  -1.155   1.054   6.049  0.1471  0.9354  0.0503
   20TAL    C9920965  -1.171   0.898   6.075 -0.3123 -0.4430 -0.2561
   20TAL   C10020966  -1.112   0.851   6.207 -0.0207  0.5722  0.2747
   21HTM   C10120967  -1.553   1.529   5.769  0.2146 -0.0420  0.4159
   21HTM   C10220968  -1.666   1.595   5.808  0.2350 -0.1104  0.5944
   21HTM   C10320969  -1.786   1.549   5.743  0.2275  0.1329  0.4328
   21HTM   C10420970  -1.764   1.447   5.654  0.2013  0.3869  0.1313
   21HTM    S1120971  -1.590   1.402   5.647  0.1839  0.3381  0.0271
   22TAL   C10520972  -1.921   1.609   5.770  0.3453 -0.4000  0.1445
   22TAL   C10620973  -1.917   1.757   5.817 -0.0848 -0.3007  0.5806
   22TAL   C10720974  -1.903   1.869   5.710  0.4394  0.4435 -0.2000
   22TAL   C10820975  -1.883   2.016   5.750 -0.1219  0.6682  0.0574
   22TAL   C10920976  -1.766   2.045   5.847  0.1636  0.1871  0.4549
   22TAL   C11020977  -1.745   2.192   5.883 -0.5212 -0.6064  0.2639
   23HTM   C11120978  -1.865   1.367   5.591 -0.4065  0.4283  0.1931
   23HTM   C11220979  -1.928   1.370   5.470 -0.8153  1.2264  0.4141
   23HTM   C11320980  -2.031   1.270   5.456 -0.9004  1.3522  0.1270
   23HTM   C11420981  -2.047   1.191   5.567 -0.5565  0.6499 -0.3134
   23HTM    S1220982  -1.931   1.237   5.697 -0.0948 -0.2316 -0.4000
   24TAL   C11520983  -2.088   1.238   5.311 -0.9082  0.0423 -0.2512
   24TAL   C11620984  -2.240   1.216   5.281 -0.4145 -0.4630  0.0285
   24TAL   C11720985  -2.269   1.212   5.130  0.2910  0.4288 -0.2090
   24TAL   C11820986  -2.415   1.228   5.109 -0.1797 -0.0311  0.3900
   24TAL   C11920987  -2.437   1.246   4.957 -0.6631  0.1524 -0.1093
   24TAL   C12020988  -2.586   1.251   4.936  0.8213  0.1931 -0.2571
   25HTM   C12120989  -2.156   1.099   5.606 -0.1174 -0.9672 -0.2380
   25HTM   C12220990  -2.175   0.968   5.573 -0.8254 -0.8271 -0.4275
   25HTM   C12320991  -2.296   0.912   5.625 -0.9427 -0.3541 -0.1811
   25HTM   C12420992  -2.370   1.000   5.698 -0.3244 -0.1336  0.1960
   25HTM    S1320993  -2.292   1.162   5.707  0.4603 -0.5092  0.2700
   26TAL   C12520994  -2.335   0.775   5.582 -0.9850 -0.4934 -0.2057
   26TAL   C12620995  -2.274   0.648   5.633 -0.5311  0.3343  1.0696
   26TAL   C12720996  -2.262   0.620   5.787  0.2157 -0.4591 -0.5629
   26TAL   C12820997  -2.180   0.705   5.881  0.6883 -0.0329  1.2040
   26TAL   C12920998  -2.172   0.633   6.014 -1.0844 -1.1191  0.7118
   26TAL   C13020999  -2.069   0.712   6.090  0.1931 -0.8992  0.3034
   27HTM   C13121000  -2.502   0.996   5.758  0.0615  0.5345  0.1236
   27HTM   C13221001  -2.625   0.990   5.701  0.1937  0.2131 -0.1334
   27HTM   C13321002  -2.730   0.950   5.792  0.1187 -0.1569 -0.3736
   27HTM   C13421003  -2.686   0.927   5.919 -0.0706 -0.1175 -0.2998
   27HTM    S1421004  -2.508   0.952   5.933 -0.1699  0.3938  0.0818
   28TAL   C13521005  -2.874   0.943   5.728 -0.8884 -0.6091  0.0043
   28TAL   C13621006  -2.954   1.076   5.745  0.0511  0.3506  0.4268
   28TAL   C13721007  -2.878   1.201   5.718  0.0231  0.4960  1.4177
   28TAL   C13821008  -2.951   1.330   5.755 -0.2305  0.5392 -0.4481
   28TAL   C13921009  -3.082   1.385   5.691 -0.4682 -0.2661 -0.4249
   28TAL   C14021010  -3.118   1.511   5.763 -1.3224 -0.9798 -0.1404
   29HTM   C14121011  -2.747   0.900   6.049  0.1380  0.2509  0.6323
   29HTM   C14221012  -2.721   0.945   6.175 -0.5856  0.6303  0.6535
   29HTM   C14321013  -2.811   0.893   6.275 -0.6719  0.3086  0.4107
   29HTM   C14421014  -2.905   0.807   6.225 -0.0139 -0.3161  0.2042
   29HTM    S1521015  -2.887   0.787   6.047  0.7714 -0.5483  0.3014
   30TAL   C14521016  -2.796   0.959   6.410 -0.0224 -0.1401  0.3137
   30TAL   C14621017  -2.880   0.913   6.534 -0.9934 -0.5593  0.3498
   30TAL   C14721018  -2.845   0.986   6.666 -1.3376  0.9545 -0.0752
   30TAL   C14821019  -2.914   0.922   6.777  0.6167 -0.7608  0.0597
   30TAL   C14921020  -2.843   0.947   6.908 -0.8677 -0.1146 -0.0243
   30TAL   C15021021  -2.935   0.912   7.027 -0.4962  0.9719 -0.5000
   31HTM   C15121022  -3.009   0.730   6.285  0.5713  0.0414  0.6299
   31HTM   C15221023  -3.126   0.784   6.331  0.4305  0.1531  0.1574
   31HTM   C15321024  -3.220   0.686   6.377 -0.0683  0.2098 -0.6977
   31HTM   C15421025  -3.176   0.557   6.366 -0.3079  0.1413 -0.8770
   31HTM    S1621026  -3.010   0.550   6.296  0.0810 -0.0011  0.0270
   32TAL   C15521027  -3.346   0.726   6.459 -0.3481  0.4676 -0.0216
   32TAL   C15621028  -3.441   0.818   6.384  1.0339 -1.3861 -0.3500
   32TAL   C15721029  -3.544   0.754   6.290  0.0101 -0.3438  1.0038
   32TAL   C15821030  -3.629   0.633   6.339 -0.4640 -0.2835 -0.2748
   32TAL   C15921031  -3.759   0.618   6.263 -0.6268 -0.2822 -0.0077
   32TAL   C16021032  -3.833   0.495   6.303 -0.4992  0.2566  0.2372
   33HTM   C16121033  -3.233   0.427   6.393  0.2232 -0.2828 -0.2502
   33HTM   C16221034  -3.362   0.384   6.378  0.1841 -0.1944 -0.1739
   33HTM   C16321035  -3.385   0.252   6.430  0.0803 -0.1089  0.0007
   33HTM   C16421036  -3.274   0.194   6.484  0.0405 -0.1323  0.0574
   33HTM    S1721037  -3.131   0.303   6.475  0.1315 -0.2650 -0.1066
   34TAL   C16521038  -3.519   0.185   6.417 -0.0272 -1.0850 -0.7225
   34TAL   C16621039  -3.553   0.124   6.285 -1.1660  1.1341  0.5033
   34TAL   C16721040  -3.685   0.058   6.306  0.2576 -0.3723 -0.4996
   34TAL   C16821041  -3.771  -0.009   6.189  0.3966  0.4666 -0.9160
   34TAL   C16921042  -3.791   0.066   6.056  1.5437 -0.3072 -0.1398
   34TAL   C17021043  -3.832   0.211   6.042  0.0379  0.0711 -0.3140
   35HTM   C17121044  -3.237   0.069   6.554 -0.2911 -0.2003 -0.0059
   35HTM   C17221045  -3.124   0.042   6.625 -0.2908 -0.3252 -0.0544
   35HTM   C17321046  -3.124  -0.088   6.687 -0.3737 -0.3569 -0.1198
   35HTM   C17421047  -3.237  -0.160   6.664 -0.4372 -0.2560 -0.1213
   35HTM    S1821048  -3.354  -0.069   6.562 -0.3970 -0.1123 -0.0396
   36TAL   C17521049  -3.014  -0.131   6.773 -0.7390  0.4269 -0.4979
   36TAL   C17621050  -2.867  -0.075   6.786  0.0299 -0.3132 -0.3618
   36TAL   C17721051  -2.774  -0.114   6.674  0.4318  0.8107 -0.2878
   36TAL   C17821052  -2.671  -0.008   6.642 -0.3085 -0.5054 -0.6180
   36TAL   C17921053  -2.550  -0.027   6.544 -0.3083 -0.1672  0.1697
   36TAL   C18021054  -2.437   0.072   6.546  0.4788  0.2427  1.2539
   37HTM   C18121055  -3.281  -0.283   6.725  0.5204  0.2565  0.5600
   37HTM   C18221056  -3.272  -0.411   6.679  0.2443  0.2172  0.6101
   37HTM   C18321057  -3.318  -0.510   6.773 -0.3713  0.3783  0.4867
   37HTM   C18421058  -3.363  -0.458   6.891 -0.5647  0.5402  0.3427
   37HTM    S1921059  -3.350  -0.278   6.892  0.0203  0.5018  0.3516
   38TAL   C18521060  -3.315  -0.655   6.722  0.9925  0.5763  0.0270
   38TAL   C18621061  -3.366  -0.771   6.815  0.8920 -0.1080 -0.4042
   38TAL   C18721062  -3.294  -0.902   6.793 -0.2190  0.4120  0.8799
   38TAL   C18821063  -3.223  -0.961   6.909  0.1698  0.0206  0.9035
   38TAL   C18921064  -3.177  -1.101   6.882 -0.6259  0.6438  0.5484
   38TAL   C19021065  -3.040  -1.119   6.799  0.7318 -0.1808  0.5080
   39HTM   C19121066  -3.365  -0.522   7.026  0.3760 -0.6449 -0.1186
   39HTM   C19221067  -3.474  -0.564   7.097  0.3527 -0.4857 -0.0600
   39HTM   C19321068  -3.448  -0.587   7.236  0.3213 -0.2327 -0.0099
   39HTM   C19421069  -3.318  -0.564   7.272  0.3210 -0.1991 -0.0305
   39HTM    S2021070  -3.219  -0.509   7.131  0.3604 -0.4865 -0.1153
   40TAL   C19521071  -3.552  -0.622   7.337  0.2167  0.1261 -0.5415
   40TAL   C19621072  -3.598  -0.768   7.354 -0.0844 -0.2330  0.4270
   40TAL   C19721073  -3.708  -0.793   7.463 -0.9457 -0.2728 -0.1430
   40TAL   C19821074  -3.795  -0.918   7.429 -0.3457 -0.9982 -0.2228
   40TAL   C19921075  -3.735  -1.058   7.458 -0.1914 -0.1517  0.0364
   40TAL   C20021076  -3.818  -1.173   7.386  0.1259 -0.8769 -1.1169
   41HTM   C20121077  -3.258  -0.557   7.400 -0.5402  0.2005 -0.3973
   41HTM   C20221078  -3.166  -0.461   7.429 -0.9960  0.6036 -0.2599
   41HTM   C20321079  -3.121  -0.463   7.565 -0.7734  0.4363 -0.3357
   41HTM   C20421080  -3.178  -0.560   7.641 -0.1478 -0.0942 -0.5308
   41HTM    S2121081  -3.295  -0.659   7.545  0.2114 -0.4263 -0.6348
   42TAL   C20521082  -3.018  -0.363   7.610  0.7017 -0.7921 -0.0266
   42TAL   C20621083  -3.024  -0.211   7.551 -0.3826  0.0867 -0.5967
   42TAL   C20721084  -2.931  -0.100   7.609  0.0613  0.0646  0.2060
   42TAL   C20821085  -3.004   0.012   7.687 -0.6357  0.0083  0.4245
   42TAL   C20921086  -3.045  -0.008   7.838 -0.3054 -0.5409 -0.7103
   42TAL   C21021087  -3.183  -0.066   7.863  0.3025  0.1113  0.2890
   43HTM   C21121088  -3.195  -0.563   7.790  0.2530 -0.3599  0.4256
   43HTM   C21221089  -3.244  -0.460   7.865 -0.1642 -0.3531  0.1475
   43HTM   C21321090  -3.274  -0.496   8.001 -0.5511 -0.2446  0.0920
   43HTM   C21421091  -3.248  -0.626   8.030 -0.4292 -0.1689  0.3274
   43HTM    S2221092  -3.183  -0.714   7.887  0.1888 -0.2291  0.6405
   44TAL   C21521093  -3.301  -0.387   8.107 -0.0248  0.2543  0.5678
   44TAL   C21621094  -3.426  -0.304   8.077 -0.9873  0.6724  0.1569
   44TAL   C21721095  -3.512  -0.256   8.191  0.2600 -1.0730 -0.2846
   44TAL   C21821096  -3.610  -0.138   8.169 -0.6106 -0.1998  0.3731
   44TAL   C21921097  -3.572  -0.004   8.213 -0.2441 -1.1321 -0.1424
   44TAL   C22021098  -3.704   0.081   8.219 -0.4267  0.0243 -0.5126
   45HTM   C22121099  -3.274  -0.709   8.148  0.0504  0.5462 -0.2658
   45HTM   C22221100  -3.189  -0.802   8.200 -0.0566  0.1374 -0.8073
   45HTM   C22321101  -3.223  -0.844   8.334  0.1127 -0.3278 -0.9048
   45HTM   C22421102  -3.334  -0.782   8.384  0.3487 -0.2736 -0.4380
   45HTM    S2321103  -3.404  -0.666   8.265  0.3758  0.3741  0.1660
   46TAL   C22521104  -3.130  -0.937   8.420 -0.3293 -0.1495  0.3420
   46TAL   C22621105  -3.110  -1.085   8.380 -0.5222 -0.5531 -1.2480
   46TAL   C22721106  -3.242  -1.163   8.417 -0.0964  0.6183  0.2321
   46TAL   C22821107  -3.233  -1.311   8.369 -0.2241 -1.1622  0.0311
   46TAL   C22921108  -3.223  -1.415   8.478 -0.8795 -0.3190  0.8153
   46TAL   C23021109  -3.088  -1.485   8.483 -0.5230  0.5680 -0.0845
   47HTM   C23121110  -3.379  -0.766   8.519  0.1002 -0.1214 -0.6797
   47HTM   C23221111  -3.434  -0.652   8.568  0.4096  0.1247 -0.8965
   47HTM   C23321112  -3.481  -0.663   8.703  0.3906  0.5149 -0.8674
   47HTM   C23421113  -3.462  -0.787   8.758  0.0668  0.5661 -0.6279
   47HTM    S2421114  -3.382  -0.899   8.641 -0.2417  0.1225 -0.4199
   48TAL   C23521115  -3.524  -0.554   8.795  0.5873 -0.5320  0.4482
   48TAL   C23621116  -3.518  -0.405   8.742 -0.2479  0.0999  0.6079
   48TAL   C23721117  -3.389  -0.322   8.726 -0.5065  0.4516 -0.9052
   48TAL   C23821118  -3.258  -0.366   8.794  0.0728  1.6631  0.1004
   48TAL   C23921119  -3.124  -0.291   8.760 -0.2694 -0.6162 -0.8076
   48TAL   C24021120  -3.016  -0.354   8.847 -0.1620  0.1621 -0.2814
    1HTM     C121121   0.350   6.194  15.723  0.2755  0.1278  0.0632
    1HTM     C221122   0.395   6.186  15.852  0.6511 -0.1208 -0.0799
    1HTM     C321123   0.513   6.265  15.877  0.5434  0.0771 -0.1938
    1HTM     C421124   0.558   6.334  15.768  0.0858  0.4768 -0.1379
    1HTM     S121125   0.454   6.303  15.624 -0.2472  0.6351  0.0652
    2TAL     C521126   0.562   6.267  16.019 -0.0387 -0.5687  0.0834
    2TAL     C621127   0.536   6.148  16.119  0.4272 -0.2151  0.0081
    2TAL     C721128   0.609   6.020  16.093 -0.5632 -0.2704  0.0133
    2TAL     C821129   0.762   6.028  16.076 -0.7675 -0.8956  0.3879
    2TAL     C921130   0.799   5.927  15.974  0.3939 -0.2493 -0.3687
    2TAL    C1021131   0.829   5.997  15.844 -0.2022  0.1618  0.3962
    3HTM    C1121132   0.667   6.428  15.769  0.2149 -0.0284  0.2863
    3HTM    C1221133   0.670   6.552  15.714 -0.2529  0.3403  1.0617
    3HTM    C1321134   0.802   6.610  15.706 -0.4477  0.8298  1.2853
    3HTM    C1421135   0.900   6.529  15.756 -0.1284  0.8343  0.6804
    3HTM     S221136   0.832   6.372  15.816  0.4475  0.2158 -0.2256
    4TAL    C1521137   0.813   6.751  15.660 -0.1347 -0.1206 -0.2991
    4TAL    C1621138   0.702   6.821  15.585 -0.2782 -0.3101 -0.3389
    4TAL    C1721139   0.692   6.970  15.603  0.7257  0.9945 -0.8715
    4TAL    C1821140   0.619   7.016  15.732 -0.5029 -0.4066  0.5194
    4TAL    C1921141   0.475   6.967  15.760  0.7253  0.3924 -0.2082
    4TAL    C2021142   0.370   7.066  15.789  0.5597  0.3339 -0.3378
    5HTM    C2121143   1.046   6.544  15.750  0.4821 -0.9147 -0.3312
    5HTM    C2221144   1.145   6.452  15.736  0.7444 -0.7041  0.1020
    5HTM    C2321145   1.277   6.508  15.739  0.6056 -0.3793  0.3419
    5HTM    C2421146   1.280   6.643  15.754  0.2374 -0.3423  0.0916
    5HTM     S321147   1.113   6.711  15.767  0.0359 -0.7177 -0.4710
    6TAL    C2521148   1.400   6.422  15.730  0.3741  0.5129  0.1143
    6TAL    C2621149   1.414   6.322  15.850 -0.4938  0.0401 -0.4575
    6TAL    C2721150   1.553   6.320  15.929  0.1700 -0.3909  0.5019
    6TAL    C2821151   1.556   6.269  16.072 -0.3200  0.0815 -0.0733
    6TAL    C2921152   1.471   6.316  16.192 -0.7195  0.4872 -0.1215
    6TAL    C3021153   1.488   6.214  16.304 -0.2494  0.3974 -0.1941
    7HTM    C3121154   1.398   6.735  15.773 -0.3131 -0.0461  0.5960
    7HTM    C3221155   1.521   6.718  15.830 -0.6920 -0.0265  1.4515
    7HTM    C3321156   1.597   6.840  15.841 -0.5251 -0.1196  1.3463
    7HTM    C3421157   1.532   6.950  15.792 -0.0189 -0.2101  0.4104
    7HTM     S421158   1.368   6.907  15.729  0.2886 -0.1846 -0.4170
    8TAL    C3521159   1.727   6.822  15.915  0.0899 -0.0203 -1.2765
    8TAL    C3621160   1.839   6.738  15.864 -0.9081  0.3738  0.0688
    8TAL    C3721161   1.952   6.726  15.968 -0.7914  0.0581  0.1148
    8TAL    C3821162   2.074   6.653  15.917 -0.2627  0.3286 -0.0491
    8TAL    C3921163   2.178   6.634  16.028 -0.8873 -0.3816 -0.3637
    8TAL    C4021164   2.313   6.557  16.015 -0.3121 -0.1625  0.1226
    9HTM    C4121165   1.557   7.092  15.802 -0.5146  0.2774  0.2676
    9HTM    C4221166   1.489   7.194  15.743 -0.5805  0.7411  1.1232
    9HTM    C4321167   1.561   7.319  15.743 -0.2137  0.5322  1.2286
    9HTM    C4421168   1.684   7.311  15.801  0.1320 -0.0908  0.4534
    9HTM     S521169   1.719   7.145  15.861  0.0202 -0.4649 -0.4766
   10TAL    C4521170   1.496   7.445  15.703  0.7173 -0.4083  0.2097
   10TAL    C4621171   1.343   7.463  15.677  0.6500 -0.0123 -0.2349
   10TAL    C4721172   1.255   7.402  15.790  0.2636  0.9511  0.6340
   10TAL    C4821173   1.263   7.474  15.925 -0.4615  0.5115 -0.4699
   10TAL    C4921174   1.169   7.408  16.036 -0.1127  0.3322  0.2044
   10TAL    C5021175   1.066   7.502  16.097 -0.0433  0.6878 -0.6556
   11HTM    C5121176   1.790   7.402  15.811  0.1049 -0.3732  0.3256
   11HTM    C5221177   1.884   7.414  15.910  0.0391 -0.3661  0.3874
   11HTM    C5321178   1.984   7.514  15.883  0.0191 -0.3220  0.4771
   11HTM    C5421179   1.966   7.579  15.764  0.0695 -0.2955  0.4843
   11HTM     S621180   1.821   7.517  15.676  0.1469 -0.3244  0.3768
   12TAL    C5521181   2.087   7.544  15.994  0.5022 -0.9510 -0.0378
   12TAL    C5621182   2.180   7.427  16.023 -0.7593 -0.3269  0.9576
   12TAL    C5721183   2.221   7.436  16.168 -0.0872 -0.2502 -0.3824
   12TAL    C5821184   2.120   7.451  16.284 -0.2759 -0.8693 -0.0284
   12TAL    C5921185   2.025   7.343  16.329  0.0837  0.6196 -1.1664
   12TAL    C6021186   2.084   7.195  16.350  0.0795  0.0564 -0.5218
   13HTM    C6121187   2.060   7.664  15.686  0.2669 -0.1098  0.1813
   13HTM    C6221188   2.060   7.677  15.550  0.0213  0.3487  0.2224
   13HTM    C6321189   2.162   7.766  15.501 -0.1625  0.6296  0.3476
   13HTM    C6421190   2.239   7.821  15.599 -0.0571  0.3854  0.4017
   13HTM     S721191   2.189   7.763  15.763  0.2853 -0.2232  0.2983
   14TAL    C6521192   2.191   7.786  15.353 -0.2887 -0.8082 -0.0783
   14TAL    C6621193   2.089   7.864  15.280 -0.7445  0.0091  0.4928
   14TAL    C6721194   2.079   8.011  15.317  0.1597  0.1307  0.2998
   14TAL    C6821195   1.955   8.047  15.397  0.3777  0.3007  0.1704
   14TAL    C6921196   1.950   8.175  15.482  0.7961  1.1879  0.8187
   14TAL    C7021197   1.808   8.207  15.489  0.1711 -0.2605  0.5429
   15HTM    C7121198   2.341   7.917  15.608 -0.3964  0.5711 -0.3013
   15HTM    C7221199   2.324   8.051  15.592  0.2985  0.6287 -0.6444
   15HTM    C7321200   2.429   8.131  15.650  0.6292  0.2440 -0.7038
   15HTM    C7421201   2.526   8.057  15.711  0.1864 -0.1069 -0.4066
   15HTM     S821202   2.493   7.881  15.700 -0.6893  0.0223 -0.0252
   16TAL    C7521203   2.397   8.278  15.655 -0.2934  0.8446 -0.5962
   16TAL    C7621204   2.406   8.388  15.543  0.9726  0.2514 -0.1016
   16TAL    C7721205   2.320   8.368  15.421  0.3599  0.3612  0.0735
   16TAL    C7821206   2.325   8.498  15.342 -0.3137 -0.4879  0.3415
   16TAL    C7921207   2.276   8.493  15.199  0.6143  0.4831  0.2245
   16TAL    C8021208   2.312   8.603  15.094  0.7453 -0.1899 -0.6576
   17HTM    C8121209   2.632   8.098  15.798  0.6688 -0.2037  0.3564
   17HTM    C8221210   2.758   8.048  15.800  0.8245  0.1707  0.1442
   17HTM    C8321211   2.850   8.123  15.881  0.7980  0.5764 -0.1943
   17HTM    C8421212   2.794   8.231  15.942  0.6220  0.5112 -0.2405
   17HTM     S921213   2.619   8.246  15.901  0.4750 -0.0720  0.1432
   18TAL    C8521214   2.997   8.085  15.884 -0.1640 -0.2102 -0.2695
   18TAL    C8621215   3.077   8.129  15.761 -0.2079 -0.4090  0.0140
   18TAL    C8721216   3.163   8.251  15.792 -0.2106 -0.1085  0.5407
   18TAL    C8821217   3.299   8.223  15.852  0.6362 -0.7114 -0.0437
   18TAL    C8921218   3.357   8.353  15.913 -0.2360  0.3494 -0.4532
   18TAL    C9021219   3.488   8.348  15.983 -0.0002 -0.3627  0.3248
   19HTM    C9121220   2.842   8.327  16.034 -0.1461 -0.0294  0.6345
   19HTM    C9221221   2.778   8.442  16.069 -0.5994 -0.5525  1.5898
   19HTM    C9321222   2.852   8.525  16.160 -0.5907 -0.6537  1.6756
   19HTM    C9421223   2.974   8.474  16.194 -0.1307 -0.2076  0.7853
   19HTM    S1021224   3.004   8.315  16.114  0.3308  0.3792 -0.2373
   20TAL    C9521225   2.807   8.668  16.198 -0.0333  0.8582  0.6154
   20TAL    C9621226   2.682   8.670  16.283 -0.6163  0.3166 -0.0269
   20TAL    C9721227   2.595   8.785  16.240 -0.3994  0.2268 -1.0426
   20TAL    C9821228   2.456   8.805  16.311 -0.1514 -0.5458  0.2240
   20TAL    C9921229   2.393   8.936  16.266 -0.9686 -0.6926 -0.1789
   20TAL   C10021230   2.281   8.985  16.346  0.7876 -0.1409  0.1449
   21HTM   C10121231   3.084   8.539  16.268  0.6004 -0.2061  0.7645
   21HTM   C10221232   3.216   8.506  16.266  0.5824 -0.3163  1.1983
   21HTM   C10321233   3.293   8.569  16.370  0.3421 -0.1757  1.2937
   21HTM   C10421234   3.220   8.650  16.451  0.1768  0.0417  0.9327
   21HTM    S1121235   3.046   8.654  16.402  0.3129  0.0860  0.4399
   22TAL   C10521236   3.438   8.544  16.398 -1.3724  0.7502  0.9929
   22TAL   C10621237   3.543   8.621  16.317 -0.5956  0.1955 -0.3325
   22TAL   C10721238   3.681   8.566  16.341 -0.0474  0.7022 -0.2002
   22TAL   C10821239   3.789   8.617  16.255 -0.2203 -0.0014 -0.0705
   22TAL   C10921240   3.819   8.765  16.262 -0.5943  0.1314 -0.1950
   22TAL   C11021241   3.961   8.785  16.196  0.4452  0.2066  0.4745
   23HTM   C11121242   3.262   8.728  16.566 -0.2662 -0.0979  0.4578
   23HTM   C11221243   3.272   8.682  16.694  0.5956 -0.1400  0.3872
   23HTM   C11321244   3.335   8.775  16.784  0.9106 -0.0363  0.0620
   23HTM   C11421245   3.374   8.892  16.725  0.2890  0.0849 -0.1146
   23HTM    S1221246   3.332   8.893  16.549 -0.7504  0.0773  0.1171
   24TAL   C11521247   3.357   8.737  16.925 -0.3533 -0.1388 -0.2261
   24TAL   C11621248   3.331   8.840  17.034  0.2625 -0.6163  0.5579
   24TAL   C11721249   3.386   8.798  17.166 -0.7019  0.3199  0.4288
   24TAL   C11821250   3.404   8.903  17.276  0.2151 -0.2541 -0.6181
   24TAL   C11921251   3.421   8.843  17.417  1.1066 -0.4097 -0.4268
   24TAL   C12021252   3.419   8.941  17.534  0.2126  0.0650  0.3965
   25HTM   C12121253   3.434   9.012  16.786 -0.1059 -0.0128 -0.6924
   25HTM   C12221254   3.375   9.131  16.817  0.1475  0.1038 -0.6504
   25HTM   C12321255   3.465   9.227  16.876  0.2509 -0.2695 -0.1903
   25HTM   C12421256   3.592   9.181  16.890  0.0762 -0.6707  0.1178
   25HTM    S1321257   3.609   9.012  16.830 -0.2348 -0.6078 -0.1510
   26TAL   C12521258   3.402   9.364  16.907  0.1907  0.9434  0.5693
   26TAL   C12621259   3.337   9.436  16.783  0.1524  0.3768  0.2059
   26TAL   C12721260   3.425   9.539  16.718  0.7212  0.1379  0.5936
   26TAL   C12821261   3.442   9.521  16.565  0.2495  0.0557  0.3271
   26TAL   C12921262   3.553   9.420  16.530 -0.6022  0.4514 -0.6127
   26TAL   C13021263   3.647   9.449  16.410 -0.2060  0.2018  0.3916
   27HTM   C13121264   3.704   9.242  16.963 -0.4590 -0.0273  0.7333
   27HTM   C13221265   3.784   9.185  17.059 -0.0051 -0.0136  0.3724
   27HTM   C13321266   3.863   9.280  17.132  0.4442 -0.0162 -0.1001
   27HTM   C13421267   3.844   9.410  17.092  0.3329 -0.0317 -0.0997
   27HTM    S1421268   3.724   9.421  16.958 -0.3533 -0.0445  0.5024
   28TAL   C13521269   3.950   9.214  17.239 -0.6953  0.4763 -0.2182
   28TAL   C13621270   3.894   9.117  17.348  0.2714  0.4621  0.0391
   28TAL   C13721271   3.968   9.094  17.473 -0.2842  0.0313  0.0190
   28TAL   C13821272   3.894   9.050  17.589  0.9434  0.0048 -0.9079
   28TAL   C13921273   3.939   8.916  17.645 -0.0845 -0.6797 -0.8979
   28TAL   C14021274   4.068   8.898  17.728  0.3044 -0.2703  0.8554
   29HTM   C14121275   3.892   9.524  17.158 -0.1583  0.1521  0.4549
   29HTM   C14221276   3.823   9.638  17.182 -0.3802 -0.0807  0.9370
   29HTM   C14321277   3.891   9.730  17.269 -0.4105 -0.1711  1.0567
   29HTM   C14421278   4.013   9.686  17.312 -0.2119 -0.0072  0.6649
   29HTM    S1521279   4.051   9.523  17.244  0.0310  0.2763  0.1098
   30TAL   C14521280   3.822   9.855  17.314  0.0921 -0.2051  0.1021
   30TAL   C14621281   3.691   9.842  17.380  0.0604  0.1011 -1.1517
   30TAL   C14721282   3.667   9.748  17.500  0.2527 -0.4274 -0.1425
   30TAL   C14821283   3.720   9.781  17.633 -0.8241 -0.0901  0.4799
   30TAL   C14921284   3.716   9.685  17.735 -0.3564  0.3887 -0.2706
   30TAL   C15021285   3.816   9.728  17.845 -0.1444 -0.3319 -0.0370
   31HTM   C15121286   4.094   9.731  17.428  0.2237 -0.2214  0.1314
   31HTM   C15221287   4.129   9.644  17.527  0.1990 -0.0798  0.2642
   31HTM   C15321288   4.232   9.693  17.614  0.1358  0.0688  0.2542
   31HTM   C15421289   4.277   9.818  17.581  0.1124  0.0403  0.1148
   31HTM    S1621290   4.190   9.883  17.436  0.1686 -0.1779 -0.0170
   32TAL   C15521291   4.285   9.607  17.725 -0.0877 -0.0989 -1.0211
   32TAL   C15621292   4.219   9.472  17.779 -0.0088 -0.1488  0.6096
   32TAL   C15721293   4.078   9.475  17.835  0.0863  0.6382 -0.2936
   32TAL   C15821294   4.065   9.352  17.916 -0.4313  0.0310 -0.3909
   32TAL   C15921295   3.934   9.354  17.986  0.5626 -0.0994 -0.3387
   32TAL   C16021296   3.838   9.256  17.925 -0.1430  0.1570  0.3856
   33HTM   C16121297   4.392   9.894  17.640 -0.0373 -0.0119  0.3631
   33HTM   C16221298   4.383   9.992  17.735  0.2329  0.1048  0.2689
   33HTM   C16321299   4.510  10.048  17.772  0.3409  0.1593 -0.1698
   33HTM   C16421300   4.616   9.993  17.706  0.1533  0.0840 -0.4096
   33HTM    S1721301   4.562   9.865  17.590 -0.1772 -0.0626 -0.0988
   34TAL   C16521302   4.528  10.149  17.884 -0.3903 -0.2100  0.3796
   34TAL   C16621303   4.429  10.265  17.913  0.0620 -0.2642 -0.2450
   34TAL   C16721304   4.482  10.377  17.998  0.5780 -0.5990 -0.9436
   34TAL   C16821305   4.511  10.364  18.151  0.3576 -0.2767 -1.1693
   34TAL   C16921306   4.648  10.337  18.209  0.2997 -0.0581 -0.9400
   34TAL   C17021307   4.745  10.457  18.198  1.5260  0.4078  0.4641
   35HTM   C17121308   4.761  10.022  17.698 -0.3377  0.0763 -0.0803
   35HTM   C17221309   4.866   9.938  17.713 -0.6597 -0.4181 -0.5031
   35HTM   C17321310   4.994  10.003  17.702 -0.3972 -0.9566 -0.7129
   35HTM   C17421311   4.986  10.137  17.679  0.1248 -0.8728 -0.4502
   35HTM    S1821312   4.815  10.192  17.668  0.3271 -0.1012  0.0861
   36TAL   C17521313   5.137   9.938  17.702 -0.2384 -0.8839 -0.3828
   36TAL   C17621314   5.184   9.877  17.569 -0.7448 -0.0682 -1.3120
   36TAL   C17721315   5.320   9.915  17.505  0.2918  0.4236  0.6449
   36TAL   C17821316   5.442   9.913  17.586  0.0474 -0.1063 -0.2845
   36TAL   C17921317   5.565   9.882  17.500  0.3269 -0.8949  0.0721
   36TAL   C18021318   5.690   9.899  17.581  1.1137 -0.1707  1.2181
   37HTM   C18121319   5.090  10.237  17.644 -0.0009  0.3446  0.2083
   37HTM   C18221320   5.081  10.328  17.544 -0.0259  0.5069  0.3567
   37HTM   C18321321   5.192  10.420  17.539 -0.1094  0.6198  0.5779
   37HTM   C18421322   5.285  10.399  17.636 -0.1481  0.5436  0.5988
   37HTM    S1921323   5.240  10.260  17.742 -0.0815  0.3215  0.3378
   38TAL   C18521324   5.185  10.553  17.453  0.0928  0.0412  0.1053
   38TAL   C18621325   5.049  10.592  17.394  0.2221 -0.6874  0.3401
   38TAL   C18721326   5.052  10.727  17.327  0.0381 -0.4155 -0.2822
   38TAL   C18821327   4.929  10.777  17.253 -0.3025  0.4178 -0.3584
   38TAL   C18921328   4.785  10.759  17.302 -1.1273 -0.7837 -0.9472
   38TAL   C19021329   4.695  10.826  17.205 -0.3650 -0.8661  0.6446
   39HTM   C19121330   5.411  10.463  17.661 -0.2611 -0.2910  0.0179
   39HTM   C19221331   5.536  10.413  17.640 -0.1856 -0.2954  0.4587
   39HTM   C19321332   5.642  10.500  17.683 -0.3326 -0.1922  0.6104
   39HTM   C19421333   5.598  10.617  17.738 -0.5203 -0.1090  0.2842
   39HTM    S2021334   5.418  10.626  17.738 -0.5262 -0.1551 -0.2432
   40TAL   C19521335   5.786  10.464  17.667 -0.6682 -0.3660  0.0151
   40TAL   C19621336   5.832  10.327  17.711 -0.5259 -0.6165 -0.2278
   40TAL   C19721337   5.986  10.326  17.713 -0.3896  1.2852 -0.3539
   40TAL   C19821338   6.034  10.184  17.754 -0.5743  0.4641 -0.0446
   40TAL   C19921339   6.191  10.178  17.771  0.6946 -0.3415  0.0715
   40TAL   C20021340   6.254  10.271  17.876  0.0238  0.3515  0.2142
   41HTM   C20121341   5.658  10.726  17.807  0.6104  0.1965 -0.0864
   41HTM   C20221342   5.622  10.777  17.929  0.5320 -0.0907  0.0110
   41HTM   C20321343   5.700  10.891  17.969  0.3115 -0.0048  0.1974
   41HTM   C20421344   5.795  10.927  17.879  0.2215  0.3478  0.2417
   41HTM    S2121345   5.794  10.819  17.734  0.4097  0.6007  0.0503
   42TAL   C20521346   5.658  10.953  18.101 -1.9277  0.8290 -0.0494
   42TAL   C20621347   5.629  11.101  18.085  0.0858  0.5778 -0.5575
   42TAL   C20721348   5.581  11.160  18.213 -0.8525  0.3239  0.5551
   42TAL   C20821349   5.652  11.302  18.234  0.1962 -0.3010 -0.1416
   42TAL   C20921350   5.593  11.371  18.356 -0.0215  0.1354  0.6577
   42TAL   C21021351   5.442  11.430  18.367 -1.0111  0.6328 -0.2220
   43HTM   C21121352   5.905  11.020  17.886  0.1716  0.0751  0.0362
   43HTM   C21221353   5.942  11.119  17.800  0.2823  0.0863  0.0958
   43HTM   C21321354   6.032  11.216  17.857  0.2145  0.0756  0.2217
   43HTM   C21421355   6.064  11.190  17.987  0.0519  0.0561  0.2584
   43HTM    S2221356   5.982  11.042  18.048 -0.0283  0.0499  0.1358
   44TAL   C21521357   6.085  11.333  17.770  0.1309  0.0916  0.1697
   44TAL   C21621358   6.005  11.457  17.746  0.1277  0.1930 -0.8662
   44TAL   C21721359   5.937  11.527  17.867 -0.6468 -0.3073  1.1162
   44TAL   C21821360   5.850  11.645  17.823 -0.7378 -1.0469  0.2054
   44TAL   C21921361   5.752  11.698  17.932 -0.6681  0.6502  1.1263
   44TAL   C22021362   5.639  11.585  17.962 -0.6513 -0.5654  0.0448
   45HTM   C22121363   6.137  11.268  18.083 -0.0742 -0.3175  0.1467
   45HTM   C22221364   6.098  11.353  18.181 -0.2192 -0.9018  0.6061
   45HTM   C22321365   6.204  11.436  18.233 -0.3717 -0.9449  1.0004
   45HTM   C22421366   6.324  11.414  18.173 -0.3428 -0.3933  0.8403
   45HTM    S2321367   6.313  11.286  18.047 -0.1191  0.2280  0.1757
   46TAL   C22521368   6.171  11.540  18.343 -0.0898 -0.2254 -0.3702
   46TAL   C22621369   6.047  11.527  18.422  0.2135 -0.2172 -0.3800
   46TAL   C22721370   6.019  11.621  18.543  0.4169 -0.0187  0.1033
   46TAL   C22821371   5.960  11.754  18.511 -0.7270 -0.3617  0.3075
   46TAL   C22921372   5.962  11.866  18.608  0.2800 -0.2373 -1.2842
   46TAL   C23021373   6.103  11.906  18.661  0.0202 -0.3950 -1.5329
   47HTM   C23121374   6.457  11.465  18.215  0.0074 -0.1354  0.2200
   47HTM   C23221375   6.573  11.394  18.225  0.0845 -0.1622 -0.7110
   47HTM   C23321376   6.684  11.471  18.275  0.4779 -0.2276 -1.4539
   47HTM   C23421377   6.652  11.600  18.303  0.7008 -0.2503 -1.0890
   47HTM    S2421378   6.479  11.635  18.268  0.4289 -0.1906  0.2306
   48TAL   C23521379   6.817  11.403  18.315  0.5248  0.1645  0.7050
   48TAL   C23621380   6.933  11.480  18.373 -0.1795 -0.8757  0.5052
   48TAL   C23721381   7.043  11.399  18.429 -0.5037 -0.3039  0.0919
   48TAL   C23821382   7.157  11.357  18.331  0.4040 -1.4419 -0.2576
   48TAL   C23921383   7.140  11.293  18.197  1.3892 -0.1696  0.2752
   48TAL   C24021384   7.222  11.361  18.084 -0.7489  0.2571  0.1698
    1HTM     C121385   4.684   1.607  28.123 -0.8220 -0.0941 -0.0489
    1HTM     C221386   4.798   1.676  28.097 -0.4838 -0.7280 -0.2947
    1HTM     C321387   4.785   1.773  27.991 -0.0017 -1.0653 -0.6719
    1HTM     C421388   4.660   1.777  27.936  0.0275 -0.6886 -0.7141
    1HTM     S121389   4.549   1.659  28.015 -0.5559  0.1277 -0.2772
    2TAL     C521390   4.900   1.852  27.951 -0.8495  0.7809  0.9400
    2TAL     C621391   5.026   1.864  28.035 -0.0992  0.0674 -0.5576
    2TAL     C721392   5.121   1.974  27.982 -0.2466  0.9553 -0.4168
    2TAL     C821393   5.231   1.988  28.077 -0.5362 -0.0897 -0.7091
    2TAL     C921394   5.359   2.058  28.033 -0.0480 -1.0037 -0.6397
    2TAL    C1021395   5.359   2.210  27.999 -0.2982 -0.7663  1.6854
    3HTM    C1121396   4.601   1.880  27.844  0.4299 -0.1709 -0.2394
    3HTM    C1221397   4.638   2.010  27.827  0.5623 -0.2086 -0.2351
    3HTM    C1321398   4.548   2.086  27.744  0.5045 -0.0464 -0.0243
    3HTM    C1421399   4.441   2.014  27.699  0.3276  0.1148  0.1324
    3HTM     S221400   4.447   1.843  27.758  0.2199  0.0741  0.0257
    4TAL    C1521401   4.571   2.228  27.704 -0.5213 -0.0129  0.4220
    4TAL    C1621402   4.708   2.229  27.632 -0.3995 -0.9277  0.7751
    4TAL    C1721403   4.797   2.350  27.647 -0.9169 -0.4688 -0.5761
    4TAL    C1821404   4.904   2.329  27.763 -0.5818  0.1021  0.1795
    4TAL    C1921405   4.906   2.451  27.851 -0.3563 -0.0512  0.4853
    4TAL    C2021406   5.009   2.413  27.947  0.5236  0.2204  0.2793
    5HTM    C2121407   4.336   2.048  27.594  0.1188 -0.1518  0.6067
    5HTM    C2221408   4.261   1.964  27.517 -0.1374 -0.2814  0.9923
    5HTM    C2321409   4.162   2.031  27.438 -0.1456 -0.3742  0.9236
    5HTM    C2421410   4.161   2.166  27.454  0.1048 -0.3152  0.4856
    5HTM     S321411   4.286   2.220  27.572  0.3718 -0.1366  0.1234
    6TAL    C2521412   4.056   1.945  27.383  0.2148  0.2390 -0.6018
    6TAL    C2621413   4.067   1.905  27.245  0.1737  0.5965 -0.3440
    6TAL    C2721414   4.006   1.777  27.190  0.5832  0.1520  0.3809
    6TAL    C2821415   4.017   1.750  27.041  0.2846  0.8395  0.1824
    6TAL    C2921416   4.155   1.694  26.995 -0.1542  0.4869  0.1345
    6TAL    C3021417   4.158   1.646  26.850 -0.8708  0.9583  0.5388
    7HTM    C3121418   4.081   2.271  27.392  0.2610  0.4034  0.2174
    7HTM    C3221419   4.031   2.282  27.266  0.8610  0.4137 -0.0310
    7HTM    C3321420   3.958   2.404  27.243  0.8831  0.3704 -0.3338
    7HTM    C3421421   3.954   2.487  27.351  0.3000  0.3271 -0.3173
    7HTM     S421422   4.042   2.416  27.492 -0.3269  0.3378  0.0852
    8TAL    C3521423   3.905   2.423  27.101 -0.5967 -0.3954  0.4581
    8TAL    C3621424   3.767   2.382  27.055 -0.0611  0.6984  0.1668
    8TAL    C3721425   3.747   2.419  26.911 -0.2625 -0.7060 -0.3208
    8TAL    C3821426   3.849   2.364  26.802 -0.5831  0.1471  0.6426
    8TAL    C3921427   3.852   2.435  26.665  0.6271 -0.9049 -0.2588
    8TAL    C4021428   3.904   2.353  26.548 -0.4219  0.4351 -0.9374
    9HTM    C4121429   3.903   2.621  27.371  0.9295  0.6057  0.5552
    9HTM    C4221430   3.897   2.680  27.494  1.1261  1.3026  0.2351
    9HTM    C4321431   3.843   2.813  27.491  0.8317  1.1777 -0.3929
    9HTM    C4421432   3.807   2.855  27.367  0.4104  0.3855 -0.5526
    9HTM     S521433   3.839   2.729  27.242  0.3525 -0.2692  0.0842
   10TAL    C4521434   3.829   2.897  27.615 -0.3771 -0.1350  0.6111
   10TAL    C4621435   3.945   2.991  27.625  0.1646 -0.3085  0.6021
   10TAL    C4721436   4.060   2.980  27.730 -0.0808  0.4922  0.7207
   10TAL    C4821437   4.145   2.853  27.740 -0.7226  0.0132 -0.5011
   10TAL    C4921438   4.095   2.748  27.846  0.1002  0.3393  0.4002
   10TAL    C5021439   4.155   2.620  27.800  0.1578  0.4500  0.1876
   11HTM    C5121440   3.771   2.991  27.327  0.4846  0.5753 -0.5918
   11HTM    C5221441   3.843   3.090  27.266  0.0234  0.5860 -1.1339
   11HTM    C5321442   3.764   3.206  27.233 -0.3327  0.4040 -0.9360
   11HTM    C5421443   3.633   3.195  27.268 -0.1432  0.2545 -0.2430
   11HTM     S621444   3.598   3.036  27.346  0.5049  0.3325  0.2173
   12TAL    C5521445   3.834   3.326  27.169 -0.6566  0.2531  0.1946
   12TAL    C5621446   3.942   3.299  27.063 -0.1259 -0.0429  0.2141
   12TAL    C5721447   3.898   3.228  26.928  0.0706 -0.7686 -0.2743
   12TAL    C5821448   3.783   3.298  26.852 -0.0842 -1.1442 -0.0214
   12TAL    C5921449   3.821   3.403  26.754 -1.0533 -0.2726  0.0049
   12TAL    C6021450   3.752   3.378  26.624  0.4570 -0.0129 -0.6096
   13HTM    C6121451   3.532   3.295  27.251  0.4146  0.3462 -0.5924
   13HTM    C6221452   3.449   3.294  27.143  0.0085  0.1279 -0.2851
   13HTM    C6321453   3.381   3.419  27.120 -0.4560 -0.0664 -0.0024
   13HTM    C6421454   3.413   3.516  27.211 -0.4041  0.0039 -0.0934
   13HTM     S721455   3.531   3.455  27.333  0.2405  0.3232 -0.5476
   14TAL    C6521456   3.280   3.433  27.008  0.2374 -0.6467  0.3223
   14TAL    C6621457   3.338   3.458  26.867  0.4772  0.2164 -0.1501
   14TAL    C6721458   3.223   3.435  26.756 -0.0332  1.3891  0.3726
   14TAL    C6821459   3.201   3.280  26.729  0.1973  0.2605  0.4594
   14TAL    C6921460   3.325   3.194  26.703 -1.2101  0.4696 -1.0376
   14TAL    C7021461   3.294   3.042  26.710 -0.5678  0.3790 -0.2209
   15HTM    C7121462   3.376   3.647  27.240  0.3123  0.3367  0.7781
   15HTM    C7221463   3.440   3.743  27.312 -0.2493  0.8665  0.5832
   15HTM    C7321464   3.370   3.869  27.314 -0.7515  0.6142 -0.0811
   15HTM    C7421465   3.253   3.869  27.244 -0.5728 -0.1080 -0.3928
   15HTM     S821466   3.222   3.708  27.169  0.2499 -0.5287  0.1329
   16TAL    C7521467   3.431   3.984  27.379 -0.9279 -0.2095 -0.3148
   16TAL    C7621468   3.440   4.123  27.307 -0.0527 -0.1495  0.2842
   16TAL    C7721469   3.471   4.231  27.422 -0.0059  0.8830  0.6681
   16TAL    C7821470   3.502   4.366  27.367 -0.3130  0.4514 -0.0631
   16TAL    C7921471   3.550   4.462  27.474 -0.5290 -0.4628  0.5179
   16TAL    C8021472   3.596   4.594  27.424  0.3872 -1.3302 -0.1462
   17HTM    C8121473   3.147   3.961  27.224 -0.2855 -0.3705  0.2707
   17HTM    C8221474   3.072   4.012  27.326 -0.8096 -0.8847  0.1545
   17HTM    C8321475   2.969   4.103  27.281 -1.0905 -1.2630  0.0272
   17HTM    C8421476   2.966   4.120  27.145 -0.7806 -1.0373  0.0457
   17HTM     S921477   3.094   4.022  27.064 -0.1046 -0.3237  0.2275
   18TAL    C8521478   2.878   4.161  27.390  0.6008  0.1418 -0.2397
   18TAL    C8621479   2.944   4.255  27.489 -0.1701  1.0863  0.7176
   18TAL    C8721480   3.003   4.392  27.443 -0.2990 -0.2380  0.5478
   18TAL    C8821481   2.895   4.502  27.453  0.6708 -0.1778 -0.5073
   18TAL    C8921482   2.967   4.630  27.495  1.0287 -1.0827 -0.3696
   18TAL    C9021483   2.872   4.748  27.468 -0.6454 -0.2136 -0.2536
   19HTM    C9121484   2.888   4.193  27.044 -0.3677 -0.1288 -0.2181
   19HTM    C9221485   2.890   4.188  26.908 -0.8855 -0.6502 -0.2122
   19HTM    C9321486   2.802   4.282  26.845 -1.1143 -0.8814 -0.2441
   19HTM    C9421487   2.733   4.360  26.933 -0.7709 -0.5364 -0.2751
   19HTM    S1021488   2.774   4.319  27.104 -0.1271  0.1124 -0.2651
   20TAL    C9521489   2.797   4.317  26.698  0.4420  0.0023  0.1225
   20TAL    C9621490   2.921   4.305  26.606  1.6599 -0.6480 -0.6329
   20TAL    C9721491   2.919   4.382  26.470 -0.1829 -0.2354  0.3375
   20TAL    C9821492   2.918   4.539  26.480 -0.4650  2.2502  0.9243
   20TAL    C9921493   2.984   4.597  26.352 -0.6322  0.0239 -0.3073
   20TAL   C10021494   2.966   4.744  26.308  0.4721 -0.0055 -0.1461
   21HTM   C10121495   2.623   4.457  26.909 -0.0132 -0.3658 -0.5559
   21HTM   C10221496   2.546   4.518  27.003  0.2415 -0.5220 -0.2413
   21HTM   C10321497   2.451   4.612  26.949  0.4436 -0.0449  0.2141
   21HTM   C10421498   2.457   4.622  26.813  0.3430  0.4753  0.2463
   21HTM    S1121499   2.582   4.514  26.743 -0.0176  0.4021 -0.2998
   22TAL   C10521500   2.369   4.686  27.055 -0.6303  0.2059 -0.1922
   22TAL   C10621501   2.389   4.842  27.049 -0.8092 -0.4655  0.8501
   22TAL   C10721502   2.270   4.912  27.107  0.0988 -0.6763 -0.1001
   22TAL   C10821503   2.265   5.067  27.100  0.6412 -0.7715 -0.5581
   22TAL   C10921504   2.245   5.107  26.956  0.2286  0.7356 -0.4465
   22TAL   C11021505   2.302   5.240  26.927  0.5504  0.5992 -0.2958
   23HTM   C11121506   2.374   4.686  26.710 -0.5199 -0.3004 -0.2827
   23HTM   C11221507   2.402   4.686  26.577 -0.9071 -0.3306 -0.3667
   23HTM   C11321508   2.320   4.776  26.501 -0.9291 -0.1272 -0.1040
   23HTM   C11421509   2.230   4.845  26.576 -0.5585  0.0582  0.1797
   23HTM    S1221510   2.241   4.800  26.750 -0.1499 -0.0104  0.1374
   24TAL   C11521511   2.344   4.774  26.352  0.2119 -0.9751  0.4190
   24TAL   C11621512   2.469   4.731  26.286 -0.4190  0.5321  0.2421
   24TAL   C11721513   2.468   4.590  26.228  0.5288 -1.0815  0.4792
   24TAL   C11821514   2.602   4.535  26.177  0.0125 -0.0017  0.5179
   24TAL   C11921515   2.603   4.394  26.102 -0.9619 -0.7129  0.2155
   24TAL   C12021516   2.554   4.268  26.172 -0.2012 -0.3390 -0.1631
   25HTM   C12121517   2.139   4.949  26.537  0.6442  0.2534 -0.6651
   25HTM   C12221518   2.030   4.986  26.609  1.0144  0.2867 -0.1121
   25HTM   C12321519   1.945   5.081  26.542  0.6311  0.2104  0.2565
   25HTM   C12421520   1.989   5.116  26.418 -0.0313  0.1193 -0.0158
   25HTM    S1321521   2.143   5.032  26.377 -0.2240  0.1225 -0.7640
   26TAL   C12521522   1.807   5.129  26.598  0.6995 -0.0952 -0.4651
   26TAL   C12621523   1.801   5.226  26.711 -0.5938 -1.4459  1.7980
   26TAL   C12721524   1.668   5.251  26.796  0.4908 -0.1082 -0.1378
   26TAL   C12821525   1.685   5.312  26.942 -0.3872  0.9677  0.8226
   26TAL   C12921526   1.786   5.248  27.036  0.4425  0.6868  0.1978
   26TAL   C13021527   1.832   5.336  27.153  1.0250 -0.3099  0.0253
   27HTM   C13121528   1.945   5.208  26.312 -0.2968  0.0615 -0.7920
   27HTM   C13221529   2.020   5.263  26.213 -0.6773 -0.3225 -1.3037
   27HTM   C13321530   1.949   5.361  26.134 -0.8546 -0.3074 -1.1272
   27HTM   C13421531   1.820   5.379  26.173 -0.6094  0.0881 -0.4803
   27HTM    S1421532   1.778   5.275  26.314 -0.1318  0.4753 -0.0416
   28TAL   C13521533   1.999   5.438  26.013  0.4765 -0.0661 -0.2788
   28TAL   C13621534   2.134   5.389  25.964  0.3105  0.2264  0.1465
   28TAL   C13721535   2.158   5.431  25.822 -0.4769  0.5537  0.1647
   28TAL   C13821536   2.296   5.498  25.819  0.1673  0.1422  0.1062
   28TAL   C13921537   2.429   5.428  25.834 -0.6274  0.1396  0.8115
   28TAL   C14021538   2.549   5.527  25.813  0.1228  0.4207  0.2047
   29HTM   C14121539   1.721   5.468  26.126 -0.3036  0.0375 -0.3986
   29HTM   C14221540   1.645   5.456  26.014 -0.6548  0.2049 -0.1793
   29HTM   C14321541   1.549   5.563  25.997 -0.7434  0.2053  0.3009
   29HTM   C14421542   1.554   5.656  26.096 -0.4597  0.0383  0.4476
   29HTM    S1521543   1.679   5.616  26.220 -0.0555 -0.1337 -0.0127
   30TAL   C14521544   1.470   5.569  25.867  0.1835  0.4515 -0.5287
   30TAL   C14621545   1.533   5.608  25.733 -0.5343 -0.1138 -0.4324
   30TAL   C14721546   1.453   5.585  25.606 -0.0761  1.0607 -0.2772
   30TAL   C14821547   1.311   5.597  25.603  0.7217 -0.8627 -0.2661
   30TAL   C14921548   1.255   5.727  25.657 -0.1795  0.0633  0.7885
   30TAL   C15021549   1.122   5.763  25.605  0.3925 -0.4432  0.2344
   31HTM   C15121550   1.480   5.784  26.117  0.1938  0.3251  0.4137
   31HTM   C15221551   1.358   5.820  26.068 -0.2046 -0.1879  0.9990
   31HTM   C15321552   1.304   5.939  26.129 -0.4011 -0.3963  1.2350
   31HTM   C15421553   1.385   5.993  26.224 -0.1526 -0.0422  0.8292
   31HTM    S1621554   1.537   5.898  26.244  0.3529  0.5867  0.1130
   32TAL   C15521555   1.174   5.993  26.072  0.4435  0.3382  0.0229
   32TAL   C15621556   1.193   6.053  25.928  0.0636  0.5900 -0.0169
   32TAL   C15721557   1.303   6.155  25.904 -0.1419  0.7317 -0.4294
   32TAL   C15821558   1.237   6.290  25.907 -1.2538  0.0930 -0.0971
   32TAL   C15921559   1.244   6.350  26.041  0.3079 -0.0334 -0.9211
   32TAL   C16021560   1.229   6.504  26.029 -0.2031 -0.9019 -0.5062
   33HTM   C16121561   1.370   6.121  26.299 -0.6123  0.0231 -0.2298
   33HTM   C16221562   1.442   6.236  26.287 -1.0743  0.2464 -0.9723
   33HTM   C16321563   1.416   6.332  26.391 -0.7423  0.4121 -1.0395
   33HTM   C16421564   1.324   6.290  26.483 -0.0272  0.3150 -0.3488
   33HTM    S1721565   1.263   6.124  26.445  0.2849  0.0046  0.4476
   34TAL   C16521566   1.484   6.472  26.402  0.1798  1.7455  0.2086
   34TAL   C16621567   1.501   6.566  26.291 -1.9186 -0.1203  0.2232
   34TAL   C16721568   1.614   6.531  26.185  0.0035  0.1178  0.0418
   34TAL   C16821569   1.594   6.598  26.045 -0.2943  0.4646  0.2620
   34TAL   C16921570   1.697   6.574  25.940  0.0777  0.8541  0.2050
   34TAL   C17021571   1.842   6.592  25.965  0.8312  0.2238 -0.0466
   35HTM   C17121572   1.244   6.377  26.569 -0.5988 -0.1434 -0.1729
   35HTM   C17221573   1.126   6.436  26.536 -0.9656 -0.6692  0.1621
   35HTM   C17321574   1.073   6.521  26.639 -0.8110 -0.5403  0.1359
   35HTM   C17421575   1.150   6.527  26.751 -0.3264  0.0841 -0.2183
   35HTM    S1821576   1.298   6.424  26.734 -0.0253  0.5610 -0.5495
   36TAL   C17521577   0.940   6.593  26.597 -0.0263  0.0708 -0.1191
   36TAL   C17621578   0.982   6.698  26.487  0.8764  0.3121 -0.1617
   36TAL   C17721579   0.870   6.784  26.412 -0.4088  1.0869  0.0898
   36TAL   C17821580   0.754   6.846  26.499 -0.5408  0.2165 -0.1125
   36TAL   C17921581   0.808   6.939  26.605  0.2143 -0.0589  0.0587
   36TAL   C18021582   0.727   7.002  26.712 -0.1173  0.8314  0.5126
   37HTM   C18121583   1.139   6.617  26.867 -0.4421 -0.1840 -0.4550
   37HTM   C18221584   1.234   6.661  26.953 -0.1272 -0.3948 -0.6905
   37HTM   C18321585   1.184   6.750  27.055  0.3136 -0.3098 -0.5412
   37HTM   C18421586   1.050   6.773  27.046  0.3349 -0.0340 -0.1922
   37HTM    S1921587   0.976   6.683  26.908 -0.2043  0.1409 -0.0234
   38TAL   C18521588   1.269   6.821  27.166  0.1144  0.6719  0.4886
   38TAL   C18621589   1.422   6.802  27.151 -0.8573 -0.2228 -0.5386
   38TAL   C18721590   1.473   6.802  27.295 -0.3843  0.7846  0.4487
   38TAL   C18821591   1.613   6.860  27.311  0.1898 -0.5228  0.3723
   38TAL   C18921592   1.626   7.005  27.345 -0.4707 -0.2814  0.0291
   38TAL   C19021593   1.778   7.044  27.352 -0.5790 -0.4032  1.3249
   39HTM   C19121594   0.953   6.839  27.129  0.1418  0.6698 -0.0270
   39HTM   C19221595   0.842   6.912  27.099  0.4194  1.1500  0.0930
   39HTM   C19321596   0.758   6.938  27.213  0.3870  1.0545  0.0920
   39HTM   C19421597   0.805   6.885  27.330  0.0847  0.5016 -0.0305
   39HTM    S2021598   0.960   6.797  27.304 -0.1845  0.0551 -0.1536
   40TAL   C19521599   0.633   7.025  27.203  0.8285 -0.1304  0.1593
   40TAL   C19621600   0.671   7.168  27.230 -0.9085 -0.0467  1.1202
   40TAL   C19721601   0.573   7.284  27.239 -0.0251  1.4500  0.6256
   40TAL   C19821602   0.462   7.289  27.133 -0.1211 -0.4804 -0.0497
   40TAL   C19921603   0.352   7.196  27.136  0.0145  0.1883  0.5652
   40TAL   C20021604   0.266   7.207  27.014  0.8264  0.4199  0.5557
   41HTM   C20121605   0.739   6.893  27.461  0.4516 -0.7799 -0.3735
   41HTM   C20221606   0.609   6.884  27.501  0.3543 -1.0757 -0.7448
   41HTM   C20321607   0.592   6.877  27.643 -0.0491 -0.8901 -0.7796
   41HTM   C20421608   0.710   6.881  27.713 -0.2595 -0.4527 -0.4348
   41HTM    S2121609   0.851   6.893  27.602  0.0380 -0.2398 -0.0360
   42TAL   C20521610   0.446   6.888  27.708  0.1226  0.3705 -0.2700
   42TAL   C20621611   0.325   6.890  27.620 -0.8820  0.1141  0.3115
   42TAL   C20721612   0.186   6.906  27.674  0.5129 -0.2655  0.2008
   42TAL   C20821613   0.135   7.051  27.696  0.0567  0.7602  0.0916
   42TAL   C20921614   0.048   7.126  27.592  0.1553 -0.0276  0.0631
   42TAL   C21021615   0.052   7.281  27.610  0.5025  0.7175 -0.4476
   43HTM   C21121616   0.733   6.865  27.853 -0.4458  0.3654 -0.1450
   43HTM   C21221617   0.649   6.879  27.959 -0.3800  0.6180 -0.1254
   43HTM   C21321618   0.712   6.861  28.087 -0.3684  0.6042 -0.1330
   43HTM   C21421619   0.845   6.832  28.078 -0.4252  0.3408 -0.1587
   43HTM    S2221620   0.901   6.827  27.907 -0.4985  0.0881 -0.1755
   44TAL   C21521621   0.650   6.891  28.223  1.5594  0.9404  0.4583
   44TAL   C21621622   0.497   6.877  28.241  0.4881 -0.6118  0.2815
   44TAL   C21721623   0.435   6.734  28.217  0.3965 -0.7523 -0.3973
   44TAL   C21821624   0.282   6.753  28.228 -0.4627  0.1913 -0.8449
   44TAL   C21921625   0.212   6.620  28.270  0.1081 -0.8305 -0.9041
   44TAL   C22021626   0.195   6.510  28.166  0.1514 -0.5037 -0.4060
   45HTM   C22121627   0.943   6.817  28.189 -0.5732 -0.2913 -0.1814
   45HTM   C22221628   0.980   6.902  28.288 -0.5892  0.3455 -0.7091
   45HTM   C22321629   1.087   6.852  28.370 -0.1670  1.1388 -0.7529
   45HTM   C22421630   1.131   6.728  28.334  0.1709  1.1069 -0.2596
   45HTM    S2321631   1.040   6.665  28.191 -0.0194  0.0642  0.3035
   46TAL   C22521632   1.145   6.918  28.496 -0.0609  0.1048  0.4862
   46TAL   C22621633   1.119   7.061  28.532 -0.0497  0.1202  0.1693
   46TAL   C22721634   1.178   7.163  28.442 -0.4580  0.4200 -0.6013
   46TAL   C22821635   1.113   7.296  28.439 -0.2578 -0.1538  1.6236
   46TAL   C22921636   1.183   7.412  28.369  0.4956  0.4623  0.3631
   46TAL   C23021637   1.138   7.556  28.403  0.2949  0.5186  0.2671
   47HTM   C23121638   1.222   6.630  28.386  0.4575  0.3382 -0.3268
   47HTM   C23221639   1.221   6.494  28.378  0.3970  0.3338 -0.2408
   47HTM   C23321640   1.321   6.430  28.459  0.1901  0.3291  0.0153
   47HTM   C23421641   1.399   6.518  28.528  0.0927  0.3301  0.1243
   47HTM    S2421642   1.352   6.689  28.497  0.2561  0.3368 -0.0894
   48TAL   C23521643   1.351   6.278  28.465 -0.6677 -0.1106  0.2954
   48TAL   C23621644   1.428   6.224  28.589  1.7178  0.3741 -0.6021
   48TAL   C23721645   1.418   6.073  28.584  0.1701 -0.4168 -0.8110
   48TAL   C23821646   1.526   6.003  28.662 -0.4565  0.5007  0.3346
   48TAL   C23921647   1.540   5.853  28.650 -0.2300  0.5027  0.2911
   48TAL   C24021648   1.675   5.792  28.684  0.5669 -0.2605 -0.1360
    1HTM     C121649   1.732   1.720   2.315 -0.0650  0.0237 -0.7299
    1HTM     C221650   1.819   1.620   2.284 -0.2991 -0.1408 -0.8657
    1HTM     C321651   1.843   1.528   2.393  0.1679  0.1709 -0.6959
    1HTM     C421652   1.773   1.558   2.506  0.7581  0.5731 -0.4305
    1HTM     S121653   1.672   1.706   2.484  0.7699  0.5894 -0.3742
    2TAL     C521654   1.943   1.423   2.365  0.4470  0.3644 -0.3820
    2TAL     C621655   1.937   1.296   2.454  0.6157 -0.1253  0.0220
    2TAL     C721656   2.023   1.191   2.401 -0.1167  0.5868 -0.0476
    2TAL     C821657   2.024   1.072   2.488 -1.3408  0.0013 -0.3504
    2TAL     C921658   2.089   0.959   2.404 -0.3520  0.1218  0.0634
    2TAL    C1021659   2.231   0.909   2.432 -0.0213 -0.7865 -0.1713
    3HTM    C1121660   1.784   1.497   2.641  0.4558  0.6496  0.4154
    3HTM    C1221661   1.675   1.440   2.699  0.1990  0.7140  0.0096
    3HTM    C1321662   1.703   1.377   2.826 -0.2528  0.4406 -0.0200
    3HTM    C1421663   1.834   1.386   2.864 -0.3406  0.1677  0.3633
    3HTM     S221664   1.932   1.476   2.741  0.1445  0.2353  0.7948
    4TAL    C1521665   1.608   1.290   2.904  0.0735  0.3836  0.2130
    4TAL    C1621666   1.539   1.181   2.827 -0.2274 -0.1697  0.0644
    4TAL    C1721667   1.500   1.059   2.918  0.6049 -0.0471  1.3042
    4TAL    C1821668   1.411   0.961   2.838 -0.7963 -1.2098 -0.7847
    4TAL    C1921669   1.355   0.857   2.925 -0.4473  0.1485  0.1613
    4TAL    C2021670   1.248   0.787   2.846  0.1664 -0.3240  0.1062
    5HTM    C2121671   1.910   1.339   2.982  0.1062  0.1328  0.1271
    5HTM    C2221672   1.887   1.345   3.117  0.0969  0.0526  0.1292
    5HTM    C2321673   2.000   1.306   3.197  0.1038  0.0411  0.1139
    5HTM    C2421674   2.109   1.269   3.124  0.1183  0.1126  0.1001
    5HTM     S321675   2.077   1.283   2.946  0.1246  0.2006  0.1054
    6TAL    C2521676   1.991   1.256   3.339  0.6172 -0.8134 -0.5114
    6TAL    C2621677   1.953   1.105   3.352 -0.5062  0.2344 -0.8597
    6TAL    C2721678   1.820   1.071   3.282  0.1051 -0.2876 -0.7644
    6TAL    C2821679   1.824   0.926   3.297 -0.0175  0.9381 -0.0571
    6TAL    C2921680   1.698   0.853   3.256 -0.4099  0.2364  1.0037
    6TAL    C3021681   1.682   0.699   3.299  0.2325  0.2035  0.4201
    7HTM    C3121682   2.246   1.234   3.158 -0.0506  0.0567  0.5154
    7HTM    C3221683   2.313   1.284   3.266  0.2722  0.1219  0.2840
    7HTM    C3321684   2.455   1.255   3.264  0.2487  0.0186 -0.0615
    7HTM    C3421685   2.495   1.183   3.155 -0.0920 -0.1254 -0.0935
    7HTM     S421686   2.356   1.145   3.046 -0.4120 -0.1417  0.3132
    8TAL    C3521687   2.542   1.308   3.385  0.5737  1.0145 -0.4953
    8TAL    C3621688   2.612   1.447   3.389  0.2198 -0.4306  0.7715
    8TAL    C3721689   2.709   1.473   3.266  0.1852 -0.4286 -0.4310
    8TAL    C3821690   2.816   1.588   3.273  0.0980  0.4990  0.3766
    8TAL    C3921691   2.968   1.552   3.246  0.0485  0.9149 -0.9816
    8TAL    C4021692   3.013   1.413   3.293 -0.4565 -0.9221 -0.4434
    9HTM    C4121693   2.631   1.135   3.134 -0.6037 -0.3286  0.0272
    9HTM    C4221694   2.728   1.175   3.047 -0.8405 -0.1521 -0.1578
    9HTM    C4321695   2.850   1.101   3.058 -0.6630  0.1071 -0.3501
    9HTM    C4421696   2.847   1.003   3.153 -0.2910  0.1284 -0.3117
    9HTM     S521697   2.687   0.998   3.237 -0.1346 -0.1797 -0.0274
   10TAL    C4521698   2.964   1.121   2.965 -0.6187  0.1948 -0.8130
   10TAL    C4621699   2.953   1.234   2.860  0.9253  0.8677  0.1774
   10TAL    C4721700   3.054   1.227   2.748 -0.6778  0.2786  0.5327
   10TAL    C4821701   3.028   1.295   2.615  0.6760 -0.4024 -0.0144
   10TAL    C4921702   3.122   1.285   2.490  1.0244  0.9682  0.9950
   10TAL    C5021703   3.118   1.158   2.406 -0.0464  0.1039  0.4737
   11HTM    C5121704   2.946   0.913   3.221  0.4709 -0.0060 -0.1740
   11HTM    C5221705   2.910   0.806   3.297  0.4800  0.3312  0.3104
   11HTM    C5321706   3.022   0.735   3.355  0.4795  0.6851  0.7525
   11HTM    C5421707   3.143   0.789   3.323  0.4702  0.6177  0.6052
   11HTM     S621708   3.125   0.933   3.216  0.4611  0.0980 -0.1090
   12TAL    C5521709   2.985   0.609   3.433  0.1794  1.2078  0.1313
   12TAL    C5621710   2.844   0.596   3.511 -0.1195 -0.2512  0.6661
   12TAL    C5721711   2.833   0.468   3.599 -0.4760 -0.2986  0.7105
   12TAL    C5821712   2.834   0.504   3.754  0.8178 -0.4154  0.8857
   12TAL    C5921713   2.960   0.530   3.835  0.4031  0.7171  1.1296
   12TAL    C6021714   2.921   0.572   3.974  0.8021 -0.1975 -0.2934
   13HTM    C6121715   3.278   0.752   3.338 -0.1006  0.0768  0.0355
   13HTM    C6221716   3.382   0.768   3.252 -0.0761  0.2258  0.0923
   13HTM    C6321717   3.510   0.736   3.310 -0.0567  0.4486  0.1743
   13HTM    C6421718   3.503   0.696   3.440 -0.0664  0.4695  0.1801
   13HTM     S721719   3.333   0.695   3.500 -0.1010  0.2073  0.0818
   14TAL    C6521720   3.636   0.738   3.223 -0.2734 -1.4969  1.1250
   14TAL    C6621721   3.664   0.617   3.143 -0.1691  0.8532  0.0205
   14TAL    C6721722   3.765   0.525   3.197  0.1196 -0.1614  0.0964
   14TAL    C6821723   3.757   0.374   3.162  1.1500  1.0769  0.3725
   14TAL    C6921724   3.856   0.281   3.223 -0.5920 -1.0583 -0.5991
   14TAL    C7021725   3.843   0.143   3.173 -0.3150  0.2574  0.8096
   15HTM    C7121726   3.595   0.620   3.526 -0.2695 -0.2579  0.1641
   15HTM    C7221727   3.574   0.495   3.575 -0.2730 -0.1389  0.4721
   15HTM    C7321728   3.683   0.446   3.656 -0.3009  0.0801  0.6428
   15HTM    C7421729   3.786   0.534   3.669 -0.3187  0.1282  0.4648
   15HTM     S821730   3.754   0.687   3.579 -0.3014 -0.1013  0.0648
   16TAL    C7521731   3.675   0.313   3.725 -0.8671  0.7222 -1.3082
   16TAL    C7621732   3.636   0.186   3.645 -0.3084 -0.6289 -0.7136
   16TAL    C7721733   3.758   0.127   3.582 -0.1297 -0.0466  0.4397
   16TAL    C7821734   3.737  -0.012   3.525 -0.0384  0.6141  0.8635
   16TAL    C7921735   3.869  -0.081   3.490  0.1199 -0.8861 -0.3010
   16TAL    C8021736   3.857  -0.227   3.458  0.7566 -1.0165  0.2407
   17HTM    C8121737   3.919   0.520   3.729  0.5436  0.1200  0.4763
   17HTM    C8221738   3.952   0.533   3.861  1.0373  0.3426  0.3366
   17HTM    C8321739   4.092   0.517   3.887  1.1283  0.3070 -0.1513
   17HTM    C8421740   4.167   0.492   3.775  0.7040  0.0572 -0.3836
   17HTM     S921741   4.064   0.487   3.627  0.1522 -0.1541 -0.0012
   18TAL    C8521742   4.129   0.513   4.032  0.0873 -0.2545 -0.1222
   18TAL    C8621743   4.168   0.659   4.077 -0.2403  0.0572 -0.1049
   18TAL    C8721744   4.175   0.667   4.230 -0.2264 -0.6458 -0.5454
   18TAL    C8821745   4.191   0.809   4.295  0.3200  0.7382  0.3380
   18TAL    C8921746   4.206   0.808   4.443 -0.1989 -0.3574 -0.1164
   18TAL    C9021747   4.290   0.921   4.491  0.4770 -0.0509  0.4330
   19HTM    C9121748   4.309   0.488   3.758  0.2270 -0.2990 -0.0442
   19HTM    C9221749   4.374   0.526   3.645  0.2881 -0.4290 -0.0533
   19HTM    C9321750   4.517   0.517   3.654  0.2809 -0.4778  0.0130
   19HTM    C9421751   4.562   0.472   3.775  0.2141 -0.3851  0.0726
   19HTM    S1021752   4.425   0.437   3.887  0.1548 -0.2276  0.0494
   20TAL    C9521753   4.596   0.542   3.526  0.0724  0.5959 -0.0516
   20TAL    C9621754   4.587   0.671   3.447 -0.3579 -0.7881  0.1004
   20TAL    C9721755   4.614   0.799   3.531  0.7415 -0.8548  0.0283
   20TAL    C9821756   4.745   0.824   3.608 -0.1207  0.5988 -0.2850
   20TAL    C9921757   4.863   0.841   3.511 -0.6334 -0.4040 -0.8437
   20TAL   C10021758   4.994   0.833   3.594 -0.0956 -0.6881  0.1690
   21HTM   C10121759   4.696   0.439   3.815  0.0384  0.1704 -0.1545
   21HTM   C10221760   4.721   0.313   3.862 -0.0402  0.0844 -0.3455
   21HTM   C10321761   4.861   0.278   3.865 -0.0818 -0.1319 -0.7176
   21HTM   C10421762   4.943   0.378   3.821 -0.0346 -0.2108 -0.8104
   21HTM    S1121763   4.849   0.524   3.772  0.0666 -0.0165 -0.4319
   22TAL   C10521764   4.900   0.149   3.928 -0.0371 -0.6364 -0.2722
   22TAL   C10621765   4.978   0.057   3.829 -0.2480 -1.1849 -0.1574
   22TAL   C10721766   5.011  -0.083   3.871  0.7565  0.0888 -0.1009
   22TAL   C10821767   5.022  -0.181   3.752 -0.6783 -0.8135 -0.2979
   22TAL   C10921768   4.925  -0.160   3.645 -0.1470  0.4076  0.9767
   22TAL   C11021769   4.930  -0.266   3.540  0.4901 -0.2886 -0.6812
   23HTM   C11121770   5.083   0.376   3.806  0.2312  0.2020  0.0061
   23HTM   C11221771   5.164   0.381   3.696  0.1060  0.3502 -0.0799
   23HTM   C11321772   5.304   0.369   3.727  0.1407  0.3006 -0.2564
   23HTM   C11421773   5.331   0.355   3.860  0.2923  0.1145 -0.3050
   23HTM    S1221774   5.179   0.356   3.958  0.4041 -0.0135 -0.1302
   24TAL   C11521775   5.420   0.366   3.630  0.2267  0.3358 -0.2513
   24TAL   C11621776   5.388   0.352   3.481  0.1408  0.8906 -0.7044
   24TAL   C11721777   5.512   0.328   3.412 -0.4422 -0.3545  0.1330
   24TAL   C11821778   5.562   0.470   3.372 -0.6602 -0.5873  1.0906
   24TAL   C11921779   5.673   0.459   3.276 -0.2074  0.6678  2.4830
   24TAL   C12021780   5.762   0.576   3.248  0.6149 -0.4718  1.2994
   25HTM   C12121781   5.448   0.357   3.947  0.0462 -0.6187  0.0435
   25HTM   C12221782   5.561   0.280   3.943  0.1974 -0.4120  0.3130
   25HTM   C12321783   5.647   0.300   4.057  0.0131 -0.0679  0.3979
   25HTM   C12421784   5.601   0.391   4.146 -0.2786 -0.0123  0.1933
   25HTM    S1321785   5.443   0.460   4.095 -0.3438 -0.3930 -0.1252
   26TAL   C12521786   5.787   0.220   4.066  0.5317 -0.6972 -0.1008
   26TAL   C12621787   5.900   0.266   3.961  0.3963  0.6013 -0.0707
   26TAL   C12721788   5.942   0.410   3.946 -0.1012  0.2528  0.7751
   26TAL   C12821789   5.990   0.488   4.067  0.5487  0.1602 -0.9847
   26TAL   C12921790   5.976   0.633   4.044  0.6880 -0.8740  0.2664
   26TAL   C13021791   6.105   0.705   4.092 -0.7168 -0.6294  1.2640
   27HTM   C13121792   5.647   0.439   4.276 -0.4723 -0.6648  0.2133
   27HTM   C13221793   5.626   0.565   4.325 -0.6952 -0.5153 -0.2458
   27HTM   C13321794   5.698   0.591   4.448 -0.6692  0.0920 -0.3864
   27HTM   C13421795   5.773   0.486   4.491 -0.4264  0.4056 -0.0345
   27HTM    S1421796   5.759   0.344   4.380 -0.2099 -0.0453  0.5058
   28TAL   C13521797   5.682   0.732   4.515  0.0517  0.8247  0.5204
   28TAL   C13621798   5.586   0.769   4.629  1.1773  0.4536  0.5977
   28TAL   C13721799   5.574   0.919   4.642 -0.4626 -0.6668  1.8510
   28TAL   C13821800   5.692   0.987   4.716 -0.1045  0.5703 -0.3449
   28TAL   C13921801   5.749   0.919   4.846 -1.0528  0.7110 -0.6972
   28TAL   C14021802   5.871   0.989   4.909 -0.0337 -1.3823  0.3739
   29HTM   C14121803   5.858   0.468   4.611  0.3255  0.0196 -0.1333
   29HTM   C14221804   5.822   0.411   4.729  0.3721 -0.5002 -0.3659
   29HTM   C14321805   5.922   0.425   4.832  0.3918 -0.9065 -0.3276
   29HTM   C14421806   6.034   0.492   4.792  0.3603 -0.6966 -0.0658
   29HTM    S1521807   6.021   0.545   4.620  0.3028  0.0363  0.1540
   30TAL   C14521808   5.899   0.372   4.976  0.3795  0.5258  0.0227
   30TAL   C14621809   5.809   0.439   5.079 -0.0564 -0.2112 -0.5789
   30TAL   C14721810   5.844   0.583   5.094  0.0101  0.1624 -0.6705
   30TAL   C14821811   5.976   0.626   5.165 -0.3796 -0.2269 -0.6395
   30TAL   C14921812   6.028   0.550   5.295 -0.2825 -1.6232  0.5265
   30TAL   C15021813   5.937   0.537   5.416  0.0922 -0.2476  0.5070
   31HTM   C15121814   6.157   0.531   4.852  0.1533  0.5305  0.1166
   31HTM   C15221815   6.198   0.661   4.858 -0.0842  0.5736  1.0102
   31HTM   C15321816   6.306   0.683   4.950 -0.1192  0.1387  1.1613
   31HTM   C15421817   6.348   0.570   5.014  0.0916 -0.2359  0.3832
   31HTM    S1621818   6.253   0.426   4.962  0.3529 -0.0672 -0.6089
   32TAL   C15521819   6.374   0.820   4.961  0.0114 -0.2867  0.1629
   32TAL   C15621820   6.460   0.871   4.838  0.4625 -0.0289 -0.1703
   32TAL   C15721821   6.479   1.019   4.820  0.2792 -0.7392  0.4827
   32TAL   C15821822   6.341   1.098   4.795 -1.0705 -0.1682 -0.6879
   32TAL   C15921823   6.316   1.126   4.644  0.5596  0.0422 -0.1054
   32TAL   C16021824   6.214   1.231   4.598 -0.0223  0.3542  0.4936
   33HTM   C16121825   6.431   0.551   5.127  0.2634 -0.0211 -0.5960
   33HTM   C16221826   6.393   0.485   5.240  0.1425 -0.2173 -0.7509
   33HTM   C16321827   6.486   0.498   5.349 -0.2601  0.0910 -0.4359
   33HTM   C16421828   6.595   0.574   5.320 -0.4463  0.5223 -0.0411
   33HTM    S1721829   6.589   0.636   5.150 -0.1254  0.5729 -0.0363
   34TAL   C16521830   6.452   0.452   5.488 -0.6268 -0.5376 -0.0560
   34TAL   C16621831   6.531   0.351   5.566  0.2995 -0.2816 -0.1242
   34TAL   C16721832   6.520   0.216   5.497 -1.1120  0.7182  0.4322
   34TAL   C16821833   6.574   0.094   5.571  0.1210 -0.4549  0.2571
   34TAL   C16921834   6.512  -0.031   5.512 -0.0386  0.4712 -0.8968
   34TAL   C17021835   6.528  -0.149   5.598 -0.3474  0.2027  0.5832
   35HTM   C17121836   6.710   0.614   5.386  0.2983 -0.1035 -0.1299
   35HTM   C17221837   6.837   0.565   5.374  0.3101 -0.1983  0.3537
   35HTM   C17321838   6.932   0.629   5.460  0.0713 -0.1219  0.5634
   35HTM   C17421839   6.879   0.727   5.538 -0.1225  0.0311  0.2395
   35HTM    S1821840   6.702   0.747   5.508 -0.0176  0.0911 -0.3599
   36TAL   C17521841   7.089   0.606   5.448  0.7930 -0.7219  0.3168
   36TAL   C17621842   7.150   0.537   5.323  0.1897  0.4234 -0.4810
   36TAL   C17721843   7.293   0.495   5.367 -0.6960 -0.4898  0.1858
   36TAL   C17821844   7.385   0.445   5.249  0.1913 -0.1174 -0.2468
   36TAL   C17921845   7.530   0.400   5.291  1.3993 -0.1764 -0.0887
   36TAL   C18021846   7.610   0.379   5.160  0.1181 -0.1426 -0.1689
   37HTM   C18121847   6.956   0.790   5.643  0.6542 -0.6180 -0.1115
   37HTM   C18221848   7.040   0.897   5.627  0.8434 -0.8070 -0.4042
   37HTM   C18321849   7.115   0.930   5.745  0.4122 -0.2134 -0.2840
   37HTM   C18421850   7.090   0.848   5.851 -0.1061  0.4281  0.1004
   37HTM    S1921851   6.967   0.722   5.810 -0.0894  0.3316  0.3421
   38TAL   C18521852   7.200   1.059   5.731 -0.1535  0.0588  0.0291
   38TAL   C18621853   7.338   1.034   5.679  0.5361  0.1774 -0.6353
   38TAL   C18721854   7.367   0.961   5.551  0.7113 -0.5755  0.8522
   38TAL   C18821855   7.510   0.912   5.530 -0.1826 -0.7049 -0.5390
   38TAL   C18921856   7.529   0.851   5.393 -0.2906 -0.9487  0.0614
   38TAL   C19021857   7.659   0.776   5.396  0.3126  0.9671  0.2538
   39HTM   C19121858   7.147   0.838   5.985  0.1648 -0.1791  0.0184
   39HTM   C19221859   7.260   0.897   6.033  0.9146 -1.2486 -0.3581
   39HTM   C19321860   7.282   0.875   6.174  1.0915 -1.3154 -0.3948
   39HTM   C19421861   7.185   0.800   6.233  0.4766 -0.2968 -0.0463
   39HTM    S2021862   7.058   0.750   6.115 -0.3801  0.8345  0.3584
   40TAL   C19521863   7.402   0.943   6.237  0.0229  0.0229  0.1049
   40TAL   C19621864   7.526   0.878   6.184 -0.4837 -0.5851  0.4830
   40TAL   C19721865   7.661   0.940   6.218  0.0121 -0.2662  0.2493
   40TAL   C19821866   7.749   0.938   6.093 -0.2306  0.0160 -0.3247
   40TAL   C19921867   7.902   0.898   6.109  0.1513 -0.8646  0.4687
   40TAL   C20021868   7.954   0.810   6.221 -0.2260 -0.0827 -0.4224
   41HTM   C20121869   7.178   0.744   6.366 -0.5555 -0.0554  0.3267
   41HTM   C20221870   7.191   0.796   6.491 -0.5732 -0.0834  0.3401
   41HTM   C20321871   7.176   0.699   6.596 -0.3784 -0.1461  0.3102
   41HTM   C20421872   7.152   0.572   6.551 -0.2119 -0.1659  0.2738
   41HTM    S2121873   7.145   0.566   6.371 -0.2892 -0.1064  0.2746
   42TAL   C20521874   7.204   0.748   6.739 -0.1274  0.2550 -0.4367
   42TAL   C20621875   7.342   0.795   6.782  0.3497  0.2953  0.8615
   42TAL   C20721876   7.440   0.677   6.774  0.2839 -0.8395  0.2075
   42TAL   C20821877   7.449   0.582   6.896 -0.7658 -0.7881 -0.2396
   42TAL   C20921878   7.493   0.641   7.035 -1.0747  0.0735  1.4380
   42TAL   C21021879   7.642   0.692   7.032 -0.3541 -0.2322  0.5329
   43HTM   C21121880   7.124   0.449   6.630  0.5661  0.1449  0.2300
   43HTM   C21221881   7.116   0.323   6.580  0.0699  0.3109 -0.1280
   43HTM   C21321882   7.082   0.223   6.678 -0.5139  0.1856 -0.4479
   43HTM   C21421883   7.064   0.274   6.803 -0.4627 -0.0759 -0.3337
   43HTM    S2221884   7.088   0.452   6.807  0.3331 -0.1851  0.1908
   44TAL   C21521885   7.065   0.075   6.646  0.8258 -0.5785 -0.7201
   44TAL   C21621886   7.165   0.027   6.540 -0.8726 -0.1855 -0.9903
   44TAL   C21721887   7.190  -0.123   6.513  0.7078  0.4091 -0.0012
   44TAL   C21821888   7.055  -0.191   6.451  0.3711  0.1287 -0.7371
   44TAL   C21921889   7.060  -0.343   6.436  1.2814  0.4126  0.0488
   44TAL   C22021890   7.045  -0.430   6.568  0.2040  0.5704  0.3518
   45HTM   C22121891   7.043   0.203   6.933 -0.6048  0.3191  0.4394
   45HTM   C22221892   6.945   0.114   6.966 -1.1761  1.2034  1.2492
   45HTM   C22321893   6.960   0.058   7.098 -0.9223  1.5014  1.3496
   45HTM   C22421894   7.069   0.105   7.166 -0.1574  0.8443  0.6163
   45HTM    S2321895   7.162   0.224   7.067  0.3055 -0.2099 -0.2646
   46TAL   C22521896   6.865  -0.054   7.144  0.4938  0.5957  0.9057
   46TAL   C22621897   6.854  -0.187   7.056  0.3599  0.0461 -0.7491
   46TAL   C22721898   6.954  -0.297   7.072  0.0307  0.2757  0.0902
   46TAL   C22821899   7.111  -0.281   7.076  0.4735 -0.6001 -0.1684
   46TAL   C22921900   7.175  -0.174   6.993  0.4635  0.0509 -1.7303
   46TAL   C23021901   7.247  -0.227   6.869 -0.2438 -0.5561  0.3485
   47HTM   C23121902   7.104   0.082   7.301 -0.4706 -0.4373  0.0642
   47HTM   C23221903   7.050   0.125   7.419 -1.0755 -0.9632 -0.0089
   47HTM   C23321904   7.103   0.057   7.535 -1.2605 -1.0915  0.0015
   47HTM   C23421905   7.197  -0.037   7.505 -0.7968 -0.6635  0.0830
   47HTM    S2421906   7.226  -0.048   7.327 -0.0849 -0.0605  0.1530
   48TAL   C23521907   7.077   0.101   7.677 -0.2326  0.1968 -0.4791
   48TAL   C23621908   7.128   0.036   7.820 -0.0659 -0.7513  0.0182
   48TAL   C23721909   7.106  -0.119   7.846 -0.1945 -0.5684 -0.0827
   48TAL   C23821910   6.960  -0.173   7.808 -0.4282 -0.1597 -0.1543
   48TAL   C23921911   6.940  -0.319   7.859  0.2572 -1.0412  0.5594
   48TAL   C24021912   6.818  -0.390   7.785 -0.2270  0.4247  0.0227
    1HTM     C121913   1.768   6.801   9.263 -0.2560  0.2043  0.0968
    1HTM     C221914   1.635   6.823   9.241 -0.5130 -0.6155  0.7229
    1HTM     C321915   1.576   6.916   9.333 -0.7093 -1.1227  1.1184
    1HTM     C421916   1.663   6.965   9.426 -0.6019 -0.6895  0.7934
    1HTM     S121917   1.829   6.897   9.403 -0.2417  0.4011 -0.0435
    2TAL     C521918   1.433   6.941   9.318 -0.0279  0.5267 -0.8831
    2TAL     C621919   1.372   6.979   9.180  0.1692 -0.2006  0.5834
    2TAL     C721920   1.346   6.863   9.089 -0.2277  0.1508  0.1880
    2TAL     C821921   1.279   6.889   8.952  0.6785 -0.0585  0.0436
    2TAL     C921922   1.260   6.751   8.910  0.5218 -0.1495 -0.3888
    2TAL    C1021923   1.167   6.717   8.792  0.2042 -0.3263 -0.1352
    3HTM    C1121924   1.644   7.061   9.529 -0.0723  0.0054 -0.7563
    3HTM    C1221925   1.693   7.051   9.655  0.1657 -0.1150 -0.8571
    3HTM    C1321926   1.669   7.167   9.736  0.2617 -0.2168 -0.6802
    3HTM    C1421927   1.600   7.266   9.671  0.0968 -0.1741 -0.4450
    3HTM     S221928   1.562   7.219   9.502 -0.1947 -0.0006 -0.4277
    4TAL    C1521929   1.695   7.175   9.885 -0.1877  0.2859 -0.8043
    4TAL    C1621930   1.760   7.058   9.952 -0.3383 -1.0225  0.5730
    4TAL    C1721931   1.832   7.094  10.082  0.9618 -0.1939 -0.0880
    4TAL    C1821932   1.889   6.973  10.153  0.0489  0.0038 -0.3676
    4TAL    C1921933   2.017   6.918  10.087  0.1244 -0.2899  0.2571
    4TAL    C2021934   2.066   6.800  10.180  0.2284 -0.6464  0.3545
    5HTM    C2121935   1.569   7.404   9.709  0.5747  0.1459 -0.5132
    5HTM    C2221936   1.521   7.501   9.626  0.6243  0.2103 -0.4666
    5HTM    C2321937   1.512   7.631   9.687  0.1176  0.0624 -0.2139
    5HTM    C2421938   1.554   7.633   9.817 -0.3183 -0.1148 -0.0672
    5HTM     S321939   1.608   7.470   9.872 -0.1211 -0.1086 -0.2387
    6TAL    C2521940   1.472   7.745   9.594 -0.8466  0.1176 -1.0368
    6TAL    C2621941   1.338   7.789   9.546  0.1456  0.3079  0.7160
    6TAL    C2721942   1.226   7.818   9.640  0.2001  0.6739  0.1229
    6TAL    C2821943   1.084   7.829   9.578 -0.1528 -0.1908 -0.9631
    6TAL    C2921944   1.026   7.727   9.488 -0.2092  0.0459 -0.5230
    6TAL    C3021945   0.875   7.744   9.456 -0.0660 -0.1330 -0.3380
    7HTM    C3121946   1.566   7.736   9.918 -0.2202  0.1864  0.3977
    7HTM    C3221947   1.505   7.857   9.925  0.4317  0.5272  0.3920
    7HTM    C3321948   1.536   7.931  10.045  1.0766  0.5108  0.2422
    7HTM    C3421949   1.621   7.865  10.129  0.9164  0.1575  0.1344
    7HTM     S421950   1.669   7.705  10.063 -0.0691 -0.1846  0.2141
    8TAL    C3521951   1.481   8.072  10.068  0.0257  0.0693  0.4472
    8TAL    C3621952   1.359   8.082  10.158  0.4017  0.0179  0.6349
    8TAL    C3721953   1.276   8.214  10.135  0.3116  0.1120 -0.2593
    8TAL    C3821954   1.350   8.356  10.156 -0.4001  0.3841  0.9758
    8TAL    C3921955   1.261   8.487  10.180 -0.6176 -0.3460  0.0413
    8TAL    C4021956   1.141   8.517  10.091 -0.4136 -0.8485  0.6259
    9HTM    C4121957   1.682   7.901  10.249 -0.1043 -1.3287 -0.0434
    9HTM    C4221958   1.797   7.970  10.274  0.2051 -1.6575 -0.5240
    9HTM    C4321959   1.827   7.984  10.414  0.3247 -0.9339 -0.6146
    9HTM    C4421960   1.736   7.925  10.496  0.1064 -0.0533 -0.2032
    9HTM     S521961   1.603   7.847  10.403 -0.2700 -0.0698  0.3350
   10TAL    C4521962   1.930   8.075  10.467  0.2700  0.1682  0.6102
   10TAL    C4621963   1.906   8.219  10.424 -0.4342 -0.5268 -0.2832
   10TAL    C4721964   2.025   8.308  10.386 -0.5767  0.7054  1.0365
   10TAL    C4821965   1.993   8.455  10.420 -0.6887 -0.1331 -0.2396
   10TAL    C4921966   2.117   8.560  10.404  0.5310  0.9011 -0.2984
   10TAL    C5021967   2.096   8.691  10.476 -0.0431  0.0876 -0.1271
   11HTM    C5121968   1.744   7.886  10.640 -0.2409  0.2123  0.1299
   11HTM    C5221969   1.851   7.842  10.713 -0.3237  0.0202  0.1364
   11HTM    C5321970   1.816   7.792  10.843 -0.4727 -0.3224 -0.0331
   11HTM    C5421971   1.683   7.798  10.870 -0.5035 -0.3917 -0.1685
   11HTM     S621972   1.590   7.868  10.732 -0.3456 -0.0266 -0.0919
   12TAL    C5521973   1.925   7.734  10.938  0.3718  0.6625 -0.0185
   12TAL    C5621974   2.031   7.629  10.886 -0.3774 -0.2911 -0.6112
   12TAL    C5721975   2.145   7.668  10.788 -0.2030 -0.6563  0.5755
   12TAL    C5821976   2.264   7.579  10.759  0.3555 -0.2197  0.1823
   12TAL    C5921977   2.236   7.462  10.662  0.2840 -1.3376  1.6989
   12TAL    C6021978   2.227   7.516  10.520  0.5063  0.2953 -0.3123
   13HTM    C6121979   1.608   7.757  10.984  0.0217 -0.3151 -0.0477
   13HTM    C6221980   1.474   7.729  10.988 -0.0876  0.2186  0.1628
   13HTM    C6321981   1.425   7.700  11.120 -0.0388  0.6013  0.2689
   13HTM    C6421982   1.520   7.705  11.217  0.1077  0.3594  0.1393
   13HTM     S721983   1.682   7.748  11.148  0.1960 -0.3762 -0.1292
   14TAL    C6521984   1.284   7.661  11.151 -0.4434  1.0794  1.4777
   14TAL    C6621985   1.173   7.772  11.145  1.0118  0.9925 -0.1345
   14TAL    C6721986   1.040   7.701  11.167  0.2311 -1.1123 -1.0115
   14TAL    C6821987   0.908   7.790  11.156  0.8015 -0.3255  0.6538
   14TAL    C6921988   0.791   7.740  11.234  0.9544 -0.3089 -0.6674
   14TAL    C7021989   0.672   7.838  11.204  0.5378  0.4197 -0.7559
   15HTM    C7121990   1.502   7.683  11.362 -1.0675 -0.2260 -0.3547
   15HTM    C7221991   1.571   7.586  11.429 -0.9799 -0.4849 -0.8094
   15HTM    C7321992   1.551   7.589  11.571 -0.1777 -0.5243 -0.6869
   15HTM    C7421993   1.467   7.688  11.613  0.3464 -0.2955 -0.1387
   15HTM     S821994   1.406   7.785  11.474 -0.1364 -0.0103  0.2685
   16TAL    C7521995   1.594   7.460  11.656  1.1194 -0.2314  0.5709
   16TAL    C7621996   1.559   7.330  11.576  0.1979  0.3867 -0.2546
   16TAL    C7721997   1.561   7.223  11.691  0.2476 -0.1987 -0.5004
   16TAL    C7821998   1.685   7.134  11.692 -0.5212  1.0423 -0.6893
   16TAL    C7921999   1.686   7.049  11.823  0.1397  0.2217 -0.0935
   16TAL    C8022000   1.790   6.940  11.843  0.1589  0.5733 -1.1998
   17HTM    C8122001   1.428   7.736  11.740 -0.8810 -0.2461 -0.1204
   17HTM    C8222002   1.307   7.792  11.769 -0.8146 -0.2878  0.2558
   17HTM    C8322003   1.283   7.809  11.909 -0.2561 -0.0171  0.3252
   17HTM    C8422004   1.385   7.766  11.988  0.1034  0.2311  0.0017
   17HTM     S922005   1.521   7.700  11.890 -0.2383  0.1414 -0.4180
   18TAL    C8522006   1.160   7.883  11.956  0.0993  0.5976 -0.4063
   18TAL    C8622007   1.039   7.932  11.873 -0.3518 -0.2529  1.1298
   18TAL    C8722008   0.913   8.001  11.928 -0.6204 -0.6707 -0.3637
   18TAL    C8822009   0.841   8.085  11.818 -0.0917  0.9519 -0.1996
   18TAL    C8922010   0.691   8.077  11.858  0.3620  0.0237 -0.3430
   18TAL    C9022011   0.614   7.968  11.799 -0.3643 -0.3288  0.7640
   19HTM    C9122012   1.415   7.777  12.133  0.0553  0.3773  0.1839
   19HTM    C9222013   1.541   7.765  12.182 -0.1225  0.0890  0.5789
   19HTM    C9322014   1.548   7.767  12.326 -0.5977 -0.2651  0.6118
   19HTM    C9422015   1.427   7.782  12.386 -0.7824 -0.2468  0.2418
   19HTM    S1022016   1.293   7.793  12.265 -0.3672  0.2227 -0.1799
   20TAL    C9522017   1.685   7.744  12.397  0.9473  0.1367 -0.4414
   20TAL    C9622018   1.743   7.600  12.383 -1.1467 -0.6015 -0.4517
   20TAL    C9722019   1.888   7.617  12.430 -0.5688 -0.5884 -0.2494
   20TAL    C9822020   1.965   7.497  12.417  0.0486  0.3403 -0.2725
   20TAL    C9922021   2.110   7.524  12.460 -0.7272 -0.7064  0.2979
   20TAL   C10022022   2.183   7.389  12.450  0.6668  0.6648  0.1126
   21HTM   C10122023   1.389   7.786  12.522  0.0611 -0.6931  0.2379
   21HTM   C10222024   1.263   7.766  12.570  0.2033 -0.8083  0.5717
   21HTM   C10322025   1.251   7.784  12.712  0.4324 -0.2031  0.5190
   21HTM   C10422026   1.368   7.819  12.773  0.4649  0.3735  0.1451
   21HTM    S1122027   1.503   7.831  12.655  0.2066  0.1956 -0.1723
   22TAL   C10522028   1.101   7.756  12.765  0.4163 -1.2347  0.5369
   22TAL   C10622029   1.076   7.730  12.920 -0.4748 -0.7248  1.2158
   22TAL   C10722030   0.934   7.670  12.939  0.8767 -0.6159  0.1006
   22TAL   C10822031   0.943   7.523  12.953 -0.5996  0.4750  0.5213
   22TAL   C10922032   0.828   7.438  12.960  0.5293  0.3443 -0.4829
   22TAL   C11022033   0.845   7.297  13.020  0.5303 -0.8931  0.7757
   23HTM   C11122034   1.402   7.841  12.916  0.4640 -0.2102 -0.6491
   23HTM   C11222035   1.372   7.944  13.000  0.1028 -0.0170 -1.0066
   23HTM   C11322036   1.433   7.932  13.130 -0.4241  0.2912 -0.7234
   23HTM   C11422037   1.510   7.821  13.144 -0.4647  0.3330 -0.1497
   23HTM    S1222038   1.511   7.721  12.994  0.1643 -0.0164  0.0785
   24TAL   C11522039   1.404   8.027  13.241 -1.0125 -0.1413 -0.2383
   24TAL   C11622040   1.300   8.145  13.226 -0.0630  0.3661 -0.5340
   24TAL   C11722041   1.159   8.101  13.188  0.1746  0.3386 -0.5936
   24TAL   C11822042   1.048   8.173  13.250 -0.0320 -0.4043 -0.5028
   24TAL   C11922043   0.909   8.110  13.251  0.6202 -0.8142 -0.0817
   24TAL   C12022044   0.806   8.199  13.324  0.4020  0.5066  0.3777
   25HTM   C12122045   1.593   7.762  13.258  0.5158  0.0898  0.1995
   25HTM   C12222046   1.694   7.670  13.250  0.3169 -0.1584  0.4992
   25HTM   C12322047   1.739   7.623  13.379  0.0298 -0.0370  0.6456
   25HTM   C12422048   1.672   7.678  13.484  0.0097  0.3038  0.4577
   25HTM    S1322049   1.547   7.795  13.429  0.3546  0.4993  0.0781
   26TAL   C12522050   1.844   7.516  13.391 -0.2590  0.4139 -0.0606
   26TAL   C12622051   1.977   7.528  13.307 -0.2721 -0.3441 -0.4510
   26TAL   C12722052   2.072   7.644  13.318 -0.1534 -0.1480  0.0554
   26TAL   C12822053   2.125   7.676  13.459 -0.3983 -0.2330  0.1650
   26TAL   C12922054   2.185   7.558  13.545 -0.1463  0.4313  0.0799
   26TAL   C13022055   2.200   7.611  13.683 -0.3852  0.2892 -0.6380
   27HTM   C13122056   1.692   7.656  13.624  0.0713  0.0393 -0.3798
   27HTM   C13222057   1.589   7.622  13.707 -0.2244  0.5911 -0.5078
   27HTM   C13322058   1.632   7.588  13.840 -0.6413  0.9498 -0.2778
   27HTM   C13422059   1.767   7.596  13.859 -0.6634  0.6715  0.0253
   27HTM    S1422060   1.851   7.648  13.708 -0.1555 -0.0709  0.0443
   28TAL   C13522061   1.533   7.548  13.951 -0.0883  0.0479 -0.3942
   28TAL   C13622062   1.395   7.604  13.927  0.0429  0.1368  0.0059
   28TAL   C13722063   1.301   7.589  14.048 -0.4194 -0.3107  0.3576
   28TAL   C13822064   1.333   7.686  14.159 -1.2849 -0.3784  1.3775
   28TAL   C13922065   1.303   7.636  14.292  0.6160 -0.4991 -0.5367
   28TAL   C14022066   1.312   7.748  14.397 -0.2843  0.5759 -0.2351
   29HTM   C14122067   1.850   7.597  13.979  0.3760  0.1898 -0.7547
   29HTM   C14222068   1.862   7.505  14.079 -0.2680  0.0988 -0.7479
   29HTM   C14322069   1.967   7.535  14.173 -0.8005 -0.0396 -0.0947
   29HTM   C14422070   2.034   7.651  14.145 -0.5626 -0.0541  0.3975
   29HTM    S1522071   1.970   7.731  13.997  0.3596  0.1072  0.0703
   30TAL   C14522072   2.001   7.443  14.290 -0.4680 -0.4001 -0.3077
   30TAL   C14622073   1.879   7.407  14.375  0.3886  0.5794  0.2068
   30TAL   C14722074   1.909   7.366  14.524 -1.1294  0.7541  1.1800
   30TAL   C14822075   1.799   7.298  14.603 -0.4771  0.6549 -0.0800
   30TAL   C14922076   1.663   7.345  14.591 -0.0025  0.3661  0.0005
   30TAL   C15022077   1.549   7.256  14.651 -0.0246  0.2972 -0.1366
   31HTM   C15122078   2.146   7.723  14.198 -0.0805 -0.0588 -0.1784
   31HTM   C15222079   2.174   7.758  14.327 -0.6307  0.4798 -0.1981
   31HTM   C15322080   2.305   7.816  14.344 -0.7513  0.6680  0.0975
   31HTM   C15422081   2.376   7.825  14.228 -0.2929  0.2728  0.3431
   31HTM    S1622082   2.284   7.760  14.087  0.3313 -0.3726  0.2180
   32TAL   C15522083   2.347   7.858  14.484 -0.5253 -0.4547 -0.1658
   32TAL   C15622084   2.332   8.012  14.505 -0.4367  0.0847  0.6661
   32TAL   C15722085   2.317   8.077  14.637 -0.8880 -0.2975 -1.5974
   32TAL   C15822086   2.241   8.205  14.670  0.3975  0.3279  0.8010
   32TAL   C15922087   2.237   8.256  14.810  0.5609 -1.0530  0.7131
   32TAL   C16022088   2.188   8.150  14.916  0.2083 -0.5255 -0.3203
   33HTM   C16122089   2.512   7.875  14.208  0.4524 -0.5940 -0.1240
   33HTM   C16222090   2.583   7.863  14.092  0.6423  0.2573 -0.1094
   33HTM   C16322091   2.723   7.892  14.106  0.4982  0.8636  0.1650
   33HTM   C16422092   2.760   7.925  14.232  0.1985  0.4746  0.3596
   33HTM    S1722093   2.619   7.924  14.345  0.0739 -0.6967  0.2103
   34TAL   C16522094   2.831   7.865  14.003  0.0338 -1.2534  0.3926
   34TAL   C16622095   2.841   7.733  13.953 -0.6005  0.3298  0.4045
   34TAL   C16722096   2.951   7.746  13.847 -0.4334 -0.1381 -0.6221
   34TAL   C16822097   3.002   7.634  13.768  0.1509  0.1891 -0.8356
   34TAL   C16922098   2.975   7.636  13.622  0.0721 -0.6594 -0.0797
   34TAL   C17022099   3.025   7.512  13.558  0.0145  0.1753 -0.8591
   35HTM   C17122100   2.881   7.969  14.288 -0.5003 -0.0323 -0.2969
   35HTM   C17222101   2.908   8.089  14.348 -1.0766  0.2112 -0.5138
   35HTM   C17322102   3.047   8.109  14.377 -1.2223  0.7622 -0.1736
   35HTM   C17422103   3.127   8.005  14.340 -0.7570  0.9387  0.3027
   35HTM    S1822104   3.031   7.872  14.264 -0.0938  0.4188  0.3591
   36TAL   C17522105   3.085   8.237  14.442 -0.1488 -0.2396 -0.5810
   36TAL   C17622106   3.063   8.361  14.356  0.2756 -0.5071 -0.2557
   36TAL   C17722107   3.067   8.494  14.426  0.1249 -0.9441 -0.0269
   36TAL   C17822108   3.205   8.556  14.442  0.1881  0.6355  0.0172
   36TAL   C17922109   3.207   8.688  14.520 -0.4615 -0.7756 -0.0701
   36TAL   C18022110   3.325   8.778  14.507 -1.3768 -0.8329 -1.1248
   37HTM   C18122111   3.268   7.972  14.324 -0.4298  0.4271  0.6419
   37HTM   C18222112   3.331   7.854  14.344 -0.9570  0.2834  1.5781
   37HTM   C18322113   3.475   7.865  14.351 -0.9032 -0.2910  1.5278
   37HTM   C18422114   3.520   7.993  14.336 -0.3350 -0.5854  0.5532
   37HTM    S1922115   3.384   8.109  14.312  0.1802 -0.1565 -0.3840
   38TAL   C18522116   3.559   7.746  14.379 -0.1514 -0.1345  1.1089
   38TAL   C18622117   3.540   7.634  14.286  0.7281  0.7566 -0.2864
   38TAL   C18722118   3.604   7.509  14.319  0.6659  1.4144  0.1131
   38TAL   C18822119   3.540   7.391  14.238  0.6130  1.1020  0.2022
   38TAL   C18922120   3.418   7.334  14.313 -0.0162  0.4748  0.3976
   38TAL   C19022121   3.365   7.202  14.268  0.2797 -0.6180 -0.1808
   39HTM   C19122122   3.652   8.052  14.342 -0.2920  0.1073  0.1183
   39HTM   C19222123   3.752   8.024  14.431 -0.4812  0.0632  0.3204
   39HTM   C19322124   3.876   8.092  14.402 -0.2513 -0.3615  0.2885
   39HTM   C19422125   3.870   8.172  14.292  0.1132 -0.6412  0.0615
   39HTM    S2022126   3.707   8.168  14.215  0.1951 -0.3879 -0.1302
   40TAL   C19522127   4.001   8.092  14.486 -0.3066 -0.1567 -0.6077
   40TAL   C19622128   3.985   8.155  14.625 -0.0093 -0.0431  0.0143
   40TAL   C19722129   4.101   8.125  14.714 -0.5911 -0.6760  0.0623
   40TAL   C19822130   4.245   8.189  14.697  0.4639 -0.1244 -0.7064
   40TAL   C19922131   4.336   8.169  14.817  0.9516  0.0033 -0.3233
   40TAL   C20022132   4.412   8.032  14.839  0.3627  0.2202 -1.2237
   41HTM   C20122133   3.981   8.227  14.209 -0.0081  0.4039 -0.1097
   41HTM   C20222134   4.091   8.300  14.241 -0.4543  1.2204 -0.3905
   41HTM   C20322135   4.171   8.338  14.128 -0.6176  1.1664 -0.5240
   41HTM   C20422136   4.122   8.292  14.009 -0.2959  0.3087 -0.3454
   41HTM    S2122137   3.970   8.199  14.031  0.2425 -0.5037  0.0084
   42TAL   C20522138   4.306   8.401  14.139  0.4238  0.0347 -0.5696
   42TAL   C20622139   4.400   8.318  14.230 -0.3842  0.8413 -0.0445
   42TAL   C20722140   4.547   8.357  14.208  0.6773 -0.3267  0.0308
   42TAL   C20822141   4.658   8.260  14.264  0.2606 -0.5069 -0.3406
   42TAL   C20922142   4.665   8.134  14.175  0.3677  0.1785  0.5009
   42TAL   C21022143   4.757   8.015  14.200 -0.8919  0.2245 -1.3344
   43HTM   C21122144   4.159   8.296  13.867 -0.2877 -0.6197 -0.1068
   43HTM   C21222145   4.081   8.261  13.760 -0.2365 -0.7085 -0.1154
   43HTM   C21322146   4.155   8.245  13.638 -0.2272 -0.4685 -0.1416
   43HTM   C21422147   4.289   8.268  13.650 -0.2714 -0.1968 -0.1533
   43HTM    S2222148   4.333   8.312  13.819 -0.3287 -0.2231 -0.1318
   44TAL   C21522149   4.107   8.166  13.525  0.7863 -0.3791  0.1895
   44TAL   C21622150   3.967   8.194  13.463 -0.1411  0.4881  0.1226
   44TAL   C21722151   3.915   8.077  13.372 -0.9980  0.2236  0.5002
   44TAL   C21822152   3.922   7.927  13.416 -0.0579 -0.8105  0.5284
   44TAL   C21922153   3.855   7.837  13.326  0.3593 -0.1704  0.5021
   44TAL   C22022154   3.799   7.708  13.404  0.3542 -0.5087 -0.4827
   45HTM   C22122155   4.392   8.261  13.545  0.0326 -0.0423 -0.4633
   45HTM   C22222156   4.392   8.269  13.409  0.1414  0.5606 -0.4332
   45HTM   C22322157   4.524   8.274  13.351  0.1856  1.1288 -0.2961
   45HTM   C22422158   4.625   8.269  13.443  0.1110  0.9592 -0.2219
   45HTM    S2322159   4.560   8.259  13.611 -0.0225  0.0616 -0.3197
   46TAL   C22522160   4.535   8.275  13.200  0.4411 -0.6935 -0.4057
   46TAL   C22622161   4.430   8.207  13.116 -0.0772 -0.5664  0.6747
   46TAL   C22722162   4.433   8.233  12.964  0.5826  0.5459  0.2592
   46TAL   C22822163   4.575   8.232  12.903  0.1812  0.2304 -0.1635
   46TAL   C22922164   4.620   8.338  12.816 -0.9194  0.0582 -0.8277
   46TAL   C23022165   4.766   8.313  12.774 -0.1153  0.3433 -0.0437
   47HTM   C23122166   4.769   8.273  13.411  0.1073 -0.1364 -0.0053
   47HTM   C23222167   4.862   8.366  13.448  0.0200  0.0601 -0.2689
   47HTM   C23322168   4.989   8.352  13.381 -0.0325  0.1170 -0.3800
   47HTM   C23422169   4.992   8.249  13.292  0.0148 -0.0361 -0.2011
   47HTM    S2422170   4.835   8.160  13.286  0.1304 -0.2658  0.1240
   48TAL   C23522171   5.114   8.434  13.413 -0.6492  0.6676 -0.1564
   48TAL   C23622172   5.208   8.492  13.307  0.0453 -0.1508  0.5968
   48TAL   C23722173   5.160   8.564  13.184 -0.5862 -0.4337  0.2635
   48TAL   C23822174   5.091   8.487  13.069  0.2346  0.7708 -1.3756
   48TAL   C23922175   5.187   8.414  12.973  0.3043 -0.0249 -0.2178
   48TAL   C24022176   5.127   8.393  12.831  0.8362 -0.9051  0.3169
    1HTM     C122177   6.096   5.053  24.472 -0.5634  0.0391 -0.1330
    1HTM     C222178   6.043   5.119  24.366 -0.6914  0.0074 -0.0896
    1HTM     C322179   5.950   5.041  24.289 -0.7783 -0.0182  0.0405
    1HTM     C422180   5.932   4.914  24.337 -0.7164 -0.0058  0.0955
    1HTM     S122181   6.032   4.885  24.484 -0.5422  0.0392 -0.0131
    2TAL     C522182   5.874   5.104  24.179 -0.5649  0.0111  0.1789
    2TAL     C622183   5.950   5.180  24.067 -0.4372 -0.6857  0.6395
    2TAL     C722184   5.852   5.183  23.951  0.6277  0.6178  1.1678
    2TAL     C822185   5.779   5.054  23.910  0.2045  1.2700  0.4260
    2TAL     C922186   5.697   5.064  23.792 -0.2600 -0.8262 -0.4308
    2TAL    C1022187   5.615   4.956  23.738  0.8573 -0.1460  0.0168
    3HTM    C1122188   5.833   4.822  24.283  0.0886 -0.2375  0.0155
    3HTM    C1222189   5.853   4.694  24.243  0.3242  0.0756 -0.9289
    3HTM    C1322190   5.733   4.626  24.203  0.4376  0.1216 -1.3556
    3HTM    C1422191   5.621   4.703  24.212  0.2882 -0.1563 -0.7360
    3HTM     S222192   5.659   4.869  24.273 -0.0095 -0.5005  0.4434
    4TAL    C1522193   5.738   4.488  24.136 -0.5419  0.3177 -0.1474
    4TAL    C1622194   5.680   4.378  24.230  0.3139  0.2894 -0.7918
    4TAL    C1722195   5.771   4.318  24.338  0.6345 -1.3842  0.3385
    4TAL    C1822196   5.918   4.286  24.293  0.7095  0.5639 -0.0761
    4TAL    C1922197   6.021   4.210  24.371 -0.1702 -0.2278 -1.5138
    4TAL    C2022198   6.145   4.173  24.295  0.3596  0.2070  0.0601
    5HTM    C2122199   5.486   4.678  24.154 -0.0038 -0.1503  0.2467
    5HTM    C2222200   5.403   4.574  24.182 -0.2365 -0.0570 -0.0830
    5HTM    C2322201   5.281   4.575  24.106 -0.0176  0.1848 -0.4363
    5HTM    C2422202   5.271   4.680  24.020  0.3821  0.2758 -0.3760
    5HTM     S322203   5.417   4.787  24.028  0.5139  0.0613  0.1365
    6TAL    C2522204   5.172   4.465  24.124  0.9222  0.7245  0.7722
    6TAL    C2622205   5.182   4.361  24.237 -0.2784  0.2852 -0.4259
    6TAL    C2722206   5.173   4.403  24.382 -0.2683  0.4727  0.1733
    6TAL    C2822207   5.180   4.287  24.483 -0.1723  0.1967  0.7020
    6TAL    C2922208   5.150   4.329  24.627 -0.2144 -0.2859 -0.4349
    6TAL    C3022209   5.258   4.301  24.733 -0.6998 -0.2520  0.9375
    7HTM    C3122210   5.167   4.721  23.930 -0.1323  0.2915 -0.0974
    7HTM    C3222211   5.192   4.788  23.815 -0.1775  0.2484 -0.1321
    7HTM    C3322212   5.075   4.810  23.734 -0.1998  0.1707 -0.1197
    7HTM    C3422213   4.961   4.758  23.787 -0.1721  0.1544 -0.0759
    7HTM     S422214   4.992   4.678  23.946 -0.1146  0.2367 -0.0457
    8TAL    C3522215   5.081   4.870  23.588 -0.0969  0.7976  0.0659
    8TAL    C3622216   5.137   4.798  23.468 -1.0034  1.4110  0.3864
    8TAL    C3722217   5.119   4.879  23.336 -0.3642  0.0451 -0.0198
    8TAL    C3822218   5.195   5.009  23.322 -0.1845 -0.2722  0.0695
    8TAL    C3922219   5.341   5.032  23.307 -0.5275  1.1664 -1.2248
    8TAL    C4022220   5.399   5.155  23.256  0.1924 -0.4812  0.2298
    9HTM    C4122221   4.819   4.776  23.755  0.3165  0.0533  0.2643
    9HTM    C4222222   4.748   4.716  23.655  0.6803  0.0968 -0.0253
    9HTM    C4322223   4.610   4.759  23.648  0.6137 -0.1534 -0.2937
    9HTM    C4422224   4.577   4.851  23.743  0.1991 -0.3879 -0.2082
    9HTM     S522225   4.717   4.891  23.849 -0.1420 -0.3102  0.2204
   10TAL    C4522226   4.510   4.700  23.544  0.2422  1.2130  0.1086
   10TAL    C4622227   4.508   4.766  23.411  0.2597  0.4220  0.5981
   10TAL    C4722228   4.646   4.801  23.344  0.6262 -0.4351  0.5203
   10TAL    C4822229   4.640   4.920  23.259 -1.0640 -1.1955  0.1441
   10TAL    C4922230   4.608   5.073  23.316  0.1359 -0.1066  0.7099
   10TAL    C5022231   4.450   5.094  23.327 -0.3716 -0.3143 -0.5225
   11HTM    C5122232   4.465   4.950  23.743  0.0486  0.3732  0.5491
   11HTM    C5222233   4.451   5.082  23.711 -0.2263  0.5208  1.2536
   11HTM    C5322234   4.315   5.129  23.717 -0.3765  0.1113  1.1430
   11HTM    C5422235   4.225   5.033  23.752 -0.2163 -0.3486  0.3547
   11HTM     S622236   4.306   4.874  23.782  0.1393 -0.2996 -0.3151
   12TAL    C5522237   4.288   5.285  23.701 -0.7518 -0.0698 -1.2355
   12TAL    C5622238   4.313   5.354  23.565 -0.5978 -0.4904  0.9418
   12TAL    C5722239   4.328   5.508  23.560 -0.1360 -0.0294  0.6335
   12TAL    C5822240   4.470   5.565  23.583 -0.6675 -0.1072  0.0866
   12TAL    C5922241   4.572   5.543  23.466 -0.6221 -0.2613  0.6134
   12TAL    C6022242   4.713   5.530  23.525 -0.0512 -0.2723  0.4850
   13HTM    C6122243   4.083   5.036  23.740  0.5469  0.0207  0.8140
   13HTM    C6222244   4.006   5.106  23.651  1.1692  0.1745  0.3858
   13HTM    C6322245   3.865   5.081  23.664  1.0287  0.5788 -0.2823
   13HTM    C6422246   3.834   4.991  23.762  0.2993  0.7333 -0.3630
   13HTM     S722247   3.981   4.932  23.847 -0.2711  0.3773  0.4042
   14TAL    C6522248   3.762   5.145  23.578 -0.4869  0.3209 -0.4568
   14TAL    C6622249   3.744   5.301  23.610 -0.4237 -0.5407 -0.2194
   14TAL    C6722250   3.645   5.371  23.513  0.0497  0.2226 -1.6619
   14TAL    C6822251   3.599   5.308  23.383 -0.3195  0.5998  0.3848
   14TAL    C6922252   3.472   5.360  23.309 -0.5540 -0.1561 -0.0302
   14TAL    C7022253   3.480   5.500  23.266  0.6310 -0.2030  0.9454
   15HTM    C7122254   3.711   4.933  23.819 -0.2003  0.0421 -0.2648
   15HTM    C7222255   3.643   4.816  23.798 -0.2493  0.0464 -0.1307
   15HTM    C7322256   3.530   4.799  23.885 -0.1292  0.0935  0.0358
   15HTM    C7422257   3.512   4.902  23.972  0.0115  0.1249  0.0293
   15HTM     S822258   3.637   5.030  23.951  0.0030  0.0976 -0.1899
   16TAL    C7522259   3.422   4.696  23.856 -0.0069 -1.0022 -0.9108
   16TAL    C7622260   3.443   4.558  23.912 -0.3533 -0.6976  0.2103
   16TAL    C7722261   3.341   4.457  23.872 -0.1785 -0.0491  0.1145
   16TAL    C7822262   3.395   4.318  23.878 -0.3397 -0.2614 -0.7093
   16TAL    C7922263   3.291   4.225  23.935 -0.0656  0.2501 -0.0935
   16TAL    C8022264   3.344   4.174  24.070 -1.3735 -1.0293  0.8415
   17HTM    C8122265   3.408   4.924  24.071 -0.6708 -0.4496 -0.1348
   17HTM    C8222266   3.278   4.945  24.035 -0.6893 -0.4312 -0.0572
   17HTM    C8322267   3.198   5.006  24.138 -0.5381 -0.1128 -0.1273
   17HTM    C8422268   3.268   5.032  24.253 -0.4043  0.1116 -0.2580
   17HTM     S922269   3.440   4.981  24.239 -0.4593 -0.0634 -0.3032
   18TAL    C8522270   3.049   5.019  24.109 -0.5123 -0.3871  0.6128
   18TAL    C8622271   2.995   5.073  23.977 -0.9312  0.0372 -0.7625
   18TAL    C8722272   2.855   5.131  23.963  0.3640 -1.3101 -1.1890
   18TAL    C8822273   2.745   5.083  24.052  0.8697 -1.2003 -0.2645
   18TAL    C8922274   2.613   5.101  23.982  0.3924 -0.0970  1.4729
   18TAL    C9022275   2.502   5.141  24.079  0.0659  0.1003 -0.3824
   19HTM    C9122276   3.208   5.070  24.382  0.0221  0.2861  0.3705
   19HTM    C9222277   3.079   5.092  24.418  0.0773  0.8051  0.2656
   19HTM    C9322278   3.062   5.125  24.558  0.1056  0.9851  0.2275
   19HTM    C9422279   3.179   5.128  24.628  0.0719  0.6033  0.3020
   19HTM    S1022280   3.320   5.089  24.523  0.0014 -0.0181  0.4293
   20TAL    C9522281   2.919   5.145  24.605  0.6558 -0.3333 -0.2113
   20TAL    C9622282   2.845   5.016  24.607  0.5282  0.3499  0.8767
   20TAL    C9722283   2.707   5.058  24.588 -0.2056 -0.2787 -0.4421
   20TAL    C9822284   2.620   4.941  24.593  0.3184  0.3021 -0.3420
   20TAL    C9922285   2.468   4.978  24.592  0.7895 -0.1377 -0.2537
   20TAL   C10022286   2.369   4.853  24.586  0.1981 -0.4762  0.1676
   21HTM   C10122287   3.212   5.162  24.764  0.2744  0.4020  0.2462
   21HTM   C10222288   3.124   5.195  24.863  0.1742  0.3635  0.1707
   21HTM   C10322289   3.187   5.239  24.984  0.0595  0.0393  0.3505
   21HTM   C10422290   3.323   5.240  24.978  0.0724 -0.1695  0.5639
   21HTM    S1122291   3.383   5.185  24.817  0.2315  0.0288  0.5545
   22TAL   C10522292   3.115   5.281  25.112 -0.6132  0.8338 -0.1118
   22TAL   C10622293   2.971   5.258  25.123 -0.0363 -1.0416  0.8878
   22TAL   C10722294   2.909   5.272  25.258  0.7835 -1.0326 -0.4009
   22TAL   C10822295   2.780   5.190  25.290  0.8855 -0.5565  0.3621
   22TAL   C10922296   2.747   5.219  25.442  0.1176 -0.7562  0.4789
   22TAL   C11022297   2.602   5.186  25.496 -0.1107 -0.9373 -0.1298
   23HTM   C11122298   3.423   5.239  25.085 -0.2761  0.0448  0.3375
   23HTM   C11222299   3.549   5.191  25.066 -0.2670  0.3073 -0.3047
   23HTM   C11322300   3.641   5.227  25.170  0.0749  0.1076 -0.5341
   23HTM   C11422301   3.586   5.303  25.269  0.3264 -0.3073 -0.0680
   23HTM    S1222302   3.411   5.334  25.238  0.1495 -0.4794  0.7041
   24TAL   C11522303   3.789   5.180  25.175 -0.1409  0.2979  0.0672
   24TAL   C11622304   3.853   5.085  25.074  0.2865  0.5743 -0.7195
   24TAL   C11722305   3.794   4.947  25.040  0.0762 -0.1454  0.6629
   24TAL   C11822306   3.782   4.845  25.149  0.0059  0.4926  0.5939
   24TAL   C11922307   3.760   4.712  25.085  1.2202 -0.5095  0.7944
   24TAL   C12022308   3.743   4.593  25.178  0.2593  0.1136  0.3408
   25HTM   C12122309   3.649   5.371  25.376 -0.0917 -0.3493 -0.3412
   25HTM   C12222310   3.637   5.347  25.510  0.2546 -0.4416 -0.3257
   25HTM   C12322311   3.711   5.440  25.592  0.2418 -0.3283 -0.4416
   25HTM   C12422312   3.778   5.534  25.521 -0.1142 -0.1498 -0.5447
   25HTM    S1322313   3.754   5.514  25.343 -0.4638 -0.1104 -0.5036
   26TAL   C12522314   3.737   5.425  25.734 -0.2411  0.4966  0.1553
   26TAL   C12622315   3.668   5.308  25.817  0.5883 -0.5362  0.3498
   26TAL   C12722316   3.680   5.319  25.968  0.4820 -0.4443 -0.4211
   26TAL   C12822317   3.767   5.223  26.053  0.8900  0.2569  0.2919
   26TAL   C12922318   3.752   5.073  26.053 -0.3382  0.3121  0.5195
   26TAL   C13022319   3.847   4.999  26.131  0.0538 -0.5018  0.3893
   27HTM   C13122320   3.854   5.658  25.555 -0.0506 -0.6894  0.5275
   27HTM   C13222321   3.872   5.766  25.474  0.1882 -1.0740  0.0601
   27HTM   C13322322   3.965   5.863  25.526  0.5559 -1.1400 -0.4511
   27HTM   C13422323   4.017   5.829  25.648  0.5976 -0.8061 -0.3743
   27HTM    S1422324   3.953   5.671  25.706  0.1723 -0.3785  0.3563
   28TAL   C13522325   3.988   5.986  25.443  1.1766  0.4715 -0.1127
   28TAL   C13622326   4.109   5.994  25.358 -1.4113  0.3691 -0.0621
   28TAL   C13722327   4.088   5.924  25.214 -1.0583 -1.3789  0.9640
   28TAL   C13822328   4.007   6.005  25.110 -0.4365  0.8070 -0.0187
   28TAL   C13922329   4.040   6.141  25.062 -0.2992 -0.4747 -1.1494
   28TAL   C14022330   4.096   6.162  24.924  0.3029  0.3053  0.1337
   29HTM   C14122331   4.112   5.893  25.746  0.4097 -0.2438  0.1421
   29HTM   C14222332   4.094   5.897  25.881  0.1979 -0.1659  0.1116
   29HTM   C14322333   4.186   5.984  25.949 -0.0783  0.0777  0.1779
   29HTM   C14422334   4.274   6.046  25.866 -0.0770  0.1856  0.2592
   29HTM    S1522335   4.248   5.999  25.694  0.2755 -0.0135  0.2586
   30TAL   C14522336   4.170   6.013  26.097  1.2160  0.7589 -0.3630
   30TAL   C14622337   4.183   5.885  26.195 -0.3538  0.3326  0.3867
   30TAL   C14722338   4.125   5.902  26.335 -0.6545 -0.3975 -0.0575
   30TAL   C14822339   4.185   6.017  26.417  0.0449 -0.1409 -0.4225
   30TAL   C14922340   4.143   5.970  26.549  0.2207  0.0409 -0.6378
   30TAL   C15022341   4.248   6.018  26.655  0.6880 -0.2172 -0.2804
   31HTM   C15122342   4.384   6.138  25.889 -0.1156 -0.1707  0.0131
   31HTM   C15222343   4.442   6.150  26.011 -0.1755 -0.6521  0.0930
   31HTM   C15322344   4.576   6.202  26.008 -0.0163 -1.0353  0.3338
   31HTM   C15422345   4.621   6.229  25.882  0.1645 -0.8466  0.4380
   31HTM    S1622346   4.496   6.192  25.757  0.1482 -0.1645  0.2389
   32TAL   C15522347   4.651   6.242  26.128 -0.8749 -0.6747 -0.4716
   32TAL   C15622348   4.586   6.283  26.260 -0.0847 -0.4130 -0.5451
   32TAL   C15722349   4.530   6.429  26.250 -0.0725  1.2228  0.0422
   32TAL   C15822350   4.464   6.473  26.382 -0.0109  0.0870  0.6481
   32TAL   C15922351   4.552   6.492  26.507  0.3134  0.5980  0.9004
   32TAL   C16022352   4.556   6.641  26.539  0.0340  0.6139  0.1964
   33HTM   C16122353   4.739   6.295  25.821  0.4376  0.1151  0.5643
   33HTM   C16222354   4.747   6.394  25.727  0.2514 -0.2302  0.1750
   33HTM   C16322355   4.882   6.429  25.691  0.1773 -0.5865 -0.4721
   33HTM   C16422356   4.977   6.356  25.757  0.3068 -0.5129 -0.5760
   33HTM    S1722357   4.902   6.237  25.871  0.5344  0.0161  0.1406
   34TAL   C16522358   4.908   6.541  25.592 -0.2573  0.2484  0.4504
   34TAL   C16622359   4.881   6.508  25.447  0.0423  0.4481 -0.3540
   34TAL   C16722360   4.943   6.608  25.339 -0.2717 -0.5563  0.3067
   34TAL   C16822361   4.854   6.627  25.215 -0.0046  0.9463 -0.1965
   34TAL   C16922362   4.862   6.494  25.133  0.0969  0.4178 -0.0025
   34TAL   C17022363   4.787   6.454  25.013 -0.3975 -0.5963  0.6637
   35HTM   C17122364   5.123   6.364  25.754  0.1056  0.0872  0.0718
   35HTM   C17222365   5.206   6.342  25.860  0.5162 -0.5740 -0.3748
   35HTM   C17322366   5.345   6.359  25.830  0.4396 -0.8644 -0.9208
   35HTM   C17422367   5.369   6.395  25.701 -0.0294 -0.4248 -0.8902
   35HTM    S1822368   5.216   6.410  25.607 -0.4139  0.3965 -0.1653
   36TAL   C17522369   5.434   6.345  25.953  0.4829 -1.1890 -0.2140
   36TAL   C17622370   5.420   6.231  26.058 -0.7874 -0.3827 -1.3664
   36TAL   C17722371   5.558   6.208  26.126 -0.2472  0.1202 -0.8941
   36TAL   C17822372   5.625   6.309  26.231 -0.5200 -0.1724 -0.0982
   36TAL   C17922373   5.771   6.285  26.263 -0.4792  0.1044  0.6171
   36TAL   C18022374   5.820   6.347  26.393 -0.0599 -0.2953  0.3318
   37HTM   C18122375   5.498   6.405  25.630 -0.0155  0.0325 -0.2769
   37HTM   C18222376   5.508   6.377  25.497  0.1885 -0.0459 -0.2441
   37HTM   C18322377   5.640   6.399  25.443  0.2847 -0.1277 -0.0434
   37HTM   C18422378   5.730   6.444  25.535  0.1539 -0.1115  0.0768
   37HTM    S1922379   5.655   6.463  25.698 -0.1028  0.0090 -0.0551
   38TAL   C18522380   5.671   6.368  25.298 -0.1456  0.4045 -0.5483
   38TAL   C18622381   5.573   6.322  25.194 -0.5229  0.0527  1.0760
   38TAL   C18722382   5.441   6.382  25.160 -0.3006 -0.4890 -0.8135
   38TAL   C18822383   5.376   6.324  25.041  0.8736 -0.3584  1.1580
   38TAL   C18922384   5.224   6.322  25.044  0.1088 -0.2835 -0.2877
   38TAL   C19022385   5.139   6.284  24.918 -0.1736 -0.2824 -0.4434
   39HTM   C19122386   5.879   6.464  25.516  0.2375 -0.1128  0.5002
   39HTM   C19222387   5.959   6.439  25.623  0.3953  0.3527  0.4969
   39HTM   C19322388   6.099   6.454  25.595  0.3393  0.5291  0.3076
   39HTM   C19422389   6.126   6.492  25.467  0.1385  0.1976  0.1675
   39HTM    S2022390   5.975   6.510  25.370  0.0038 -0.3670  0.2634
   40TAL   C19522391   6.198   6.420  25.703  0.5495 -0.4723 -1.3536
   40TAL   C19622392   6.181   6.495  25.841  0.7361  0.1310 -0.0222
   40TAL   C19722393   6.237   6.428  25.957  0.0905 -0.3954 -0.0986
   40TAL   C19822394   6.244   6.529  26.071 -0.1837 -0.3288  0.4190
   40TAL   C19922395   6.264   6.461  26.214  1.1600 -0.3576  0.3531
   40TAL   C20022396   6.393   6.389  26.240 -0.0718 -0.6938 -0.2843
   41HTM   C20122397   6.249   6.542  25.414  1.1905 -0.3357 -0.0863
   41HTM   C20222398   6.363   6.475  25.381  1.3320  0.0328 -0.3614
   41HTM   C20322399   6.443   6.542  25.282  0.9004  0.3171 -0.5245
   41HTM   C20422400   6.390   6.660  25.239  0.4294  0.1653 -0.3742
   41HTM    S2122401   6.234   6.697  25.322  0.4952 -0.3523 -0.0118
   42TAL   C20522402   6.569   6.489  25.224 -0.3232 -0.2776 -0.0276
   42TAL   C20622403   6.618   6.349  25.207 -0.5208  0.1493  0.8754
   42TAL   C20722404   6.735   6.331  25.107  1.6436  0.1627 -0.4051
   42TAL   C20822405   6.847   6.433  25.107  0.4729  1.3146  1.6071
   42TAL   C20922406   6.968   6.387  25.185  0.6777 -0.8123 -1.0151
   42TAL   C21022407   7.089   6.468  25.188 -0.0961  0.2179 -0.0881
   43HTM   C21122408   6.423   6.755  25.133  0.2420  0.2126  0.2511
   43HTM   C21222409   6.333   6.814  25.049 -0.1231 -0.0606  0.4382
   43HTM   C21322410   6.392   6.914  24.963 -0.4712 -0.3855 -0.1969
   43HTM   C21422411   6.526   6.931  24.982 -0.3716 -0.3604 -0.8688
   43HTM    S2222412   6.589   6.821  25.111  0.1738  0.0795 -0.7500
   44TAL   C21522413   6.317   7.005  24.872 -0.2216 -0.4573  0.0481
   44TAL   C21622414   6.166   6.974  24.872  0.3345  0.5152  0.5131
   44TAL   C21722415   6.084   7.038  24.754 -0.5708 -0.3588 -0.3946
   44TAL   C21822416   5.949   6.976  24.752  0.0289  0.1138  0.3233
   44TAL   C21922417   5.820   7.046  24.797 -0.6829 -0.1844  0.3910
   44TAL   C22022418   5.687   6.984  24.766  0.6643  0.3041 -0.1645
   45HTM   C22122419   6.630   7.033  24.941 -0.5527 -0.1994 -0.7991
   45HTM   C22222420   6.633   7.166  24.974 -1.2463 -0.1435 -0.9274
   45HTM   C22322421   6.735   7.240  24.905 -1.2867  0.2170 -0.6065
   45HTM   C22422422   6.810   7.164  24.820 -0.6239  0.4360 -0.2343
   45HTM    S2322423   6.757   6.992  24.820  0.1084  0.2022 -0.2596
   46TAL   C22522424   6.741   7.388  24.925 -0.8198 -0.0469 -0.9903
   46TAL   C22622425   6.618   7.468  24.959  1.2058  0.4737  0.7023
   46TAL   C22722426   6.494   7.470  24.865  0.2703  0.4990  0.3642
   46TAL   C22822427   6.497   7.519  24.716 -0.0306  0.7050 -0.5316
   46TAL   C22922428   6.502   7.664  24.734 -0.6232  0.0843  0.6350
   46TAL   C23022429   6.493   7.730  24.598  0.4251 -0.1404 -0.0327
   47HTM   C23122430   6.932   7.195  24.742  0.0336 -0.2131  0.5837
   47HTM   C23222431   6.993   7.315  24.726  0.0176 -0.1723  0.8235
   47HTM   C23322432   7.113   7.310  24.647 -0.1152  0.0376  0.6032
   47HTM   C23422433   7.144   7.185  24.603 -0.2005  0.1565  0.1958
   47HTM    S2422434   7.023   7.063  24.659 -0.1191  0.0118  0.0572
   48TAL   C23522435   7.175   7.446  24.613  0.4600 -0.2244  0.3725
   48TAL   C23622436   7.233   7.480  24.479  0.7106  0.0864 -0.2712
   48TAL   C23722437   7.247   7.636  24.489  0.0852 -1.0448 -0.2415
   48TAL   C23822438   7.351   7.708  24.405 -0.0504  0.3625  0.2305
   48TAL   C23922439   7.344   7.856  24.391 -0.9891  0.4321  0.2186
   48TAL   C24022440   7.266   7.911  24.282 -0.4355  0.3498  0.5521
    1HTM     C122441   2.636   0.210  13.304 -0.2117 -0.0839  0.1532
    1HTM     C222442   2.697   0.325  13.263  0.2549 -0.2061  0.4904
    1HTM     C322443   2.662   0.440  13.342  0.5463 -0.2499  0.6871
    1HTM     C422444   2.574   0.413  13.443  0.3018 -0.1610  0.5005
    1HTM     S122445   2.529   0.239  13.446 -0.3204 -0.0141  0.0576
    2TAL     C522446   2.725   0.576  13.314 -0.3972  0.0582  1.0267
    2TAL     C622447   2.625   0.678  13.258 -0.0955 -0.1014 -0.3163
    2TAL     C722448   2.563   0.650  13.115 -0.0149  0.0699 -0.0417
    2TAL     C822449   2.634   0.588  12.995  0.2072 -0.3452  0.3781
    2TAL     C922450   2.600   0.663  12.856  0.6780 -0.0703 -0.0442
    2TAL    C1022451   2.710   0.673  12.765 -0.1395  0.3330 -0.3960
    3HTM    C1122452   2.510   0.493  13.545  0.5219 -0.6186  0.6443
    3HTM    C1222453   2.392   0.559  13.525  0.4075 -0.9156  0.3211
    3HTM    C1322454   2.354   0.643  13.635  0.0387 -0.7845  0.0951
    3HTM    C1422455   2.442   0.642  13.739 -0.1280 -0.3876  0.2458
    3HTM     S222456   2.582   0.533  13.705  0.1701 -0.1467  0.6882
    4TAL    C1522457   2.221   0.721  13.636  0.4859  0.1846  0.6775
    4TAL    C1622458   2.102   0.634  13.681 -0.1075  0.2484  1.0419
    4TAL    C1722459   1.968   0.699  13.687 -0.4472  0.7381  0.2862
    4TAL    C1822460   1.879   0.638  13.795 -0.1434  0.3822 -1.3381
    4TAL    C1922461   1.735   0.694  13.810  0.2033 -0.2965 -0.2853
    4TAL    C2022462   1.654   0.729  13.682  0.7320  0.0042  0.2416
    5HTM    C2122463   2.425   0.709  13.869 -0.2864 -0.2767  0.0597
    5HTM    C2222464   2.317   0.718  13.952 -0.1899 -0.3685  0.1931
    5HTM    C2322465   2.340   0.802  14.067 -0.2418 -0.0533 -0.0257
    5HTM    C2422466   2.464   0.857  14.071 -0.3779  0.2788 -0.3260
    5HTM     S322467   2.563   0.807  13.929 -0.4514  0.2188 -0.3562
    6TAL    C2522468   2.223   0.825  14.164  0.0968 -0.7348  0.6722
    6TAL    C2622469   2.119   0.714  14.168  0.6753  0.0272  0.1763
    6TAL    C2722470   1.987   0.741  14.246  0.1412  0.1671 -0.2683
    6TAL    C2822471   1.916   0.636  14.340 -0.3966  0.3829 -0.2983
    6TAL    C2922472   1.792   0.682  14.408  0.3429 -0.7333  0.1672
    6TAL    C3022473   1.727   0.573  14.486 -0.2886 -0.1508 -0.6350
    7HTM    C3122474   2.521   0.940  14.180  0.4676  0.1627 -0.5818
    7HTM    C3222475   2.573   1.066  14.169  0.3142  0.2385 -0.4499
    7HTM    C3322476   2.606   1.126  14.296  0.0269  0.2375 -0.3734
    7HTM    C3422477   2.579   1.047  14.403 -0.0386  0.1609 -0.4465
    7HTM     S422478   2.509   0.888  14.352  0.2595  0.0834 -0.6190
    8TAL    C3522479   2.657   1.266  14.294 -0.7843 -0.2831  0.2343
    8TAL    C3622480   2.793   1.278  14.215 -0.7403  0.7569  0.3439
    8TAL    C3722481   2.859   1.410  14.217 -0.1736 -0.0901 -0.6536
    8TAL    C3822482   2.989   1.420  14.143 -0.7601  0.6614  0.1130
    8TAL    C3922483   3.060   1.558  14.139  0.3245  0.7582  0.7791
    8TAL    C4022484   3.207   1.547  14.111 -0.1994  0.1412 -0.2832
    9HTM    C4122485   2.603   1.059  14.540 -0.0360  0.0709 -0.5987
    9HTM    C4222486   2.631   0.960  14.630  0.2317 -0.0723 -0.8345
    9HTM    C4322487   2.671   1.010  14.760  0.1711 -0.2724 -0.7379
    9HTM    C4422488   2.674   1.146  14.768 -0.1428 -0.2818 -0.4282
    9HTM     S522489   2.625   1.223  14.612 -0.3881 -0.0368 -0.2331
   10TAL    C4522490   2.732   0.906  14.864  0.5681  1.1076 -0.0591
   10TAL    C4622491   2.648   0.864  14.988  0.1929 -0.2367  0.0389
   10TAL    C4722492   2.732   0.774  15.068  0.8672 -0.6788  0.7844
   10TAL    C4822493   2.732   0.759  15.229  1.6908  0.4454  0.0397
   10TAL    C4922494   2.590   0.745  15.306  0.4786  0.5758 -0.4082
   10TAL    C5022495   2.505   0.631  15.289 -0.1178  1.0297  0.9804
   11HTM    C5122496   2.712   1.239  14.875  0.4261 -0.5676  0.2383
   11HTM    C5222497   2.680   1.242  15.007  1.0294 -0.8888  0.4013
   11HTM    C5322498   2.723   1.361  15.076  0.7080 -0.7212  0.3173
   11HTM    C5422499   2.789   1.449  14.995 -0.1403 -0.2722  0.0902
   11HTM     S622500   2.801   1.388  14.826 -0.6027 -0.0243 -0.0360
   12TAL    C5522501   2.709   1.398  15.220  1.2220  0.0091  0.5349
   12TAL    C5622502   2.620   1.300  15.298 -0.4686  0.1950 -0.0816
   12TAL    C5722503   2.653   1.283  15.450 -0.5386 -1.2153 -0.3925
   12TAL    C5822504   2.653   1.413  15.538  0.1896 -0.3416 -0.4768
   12TAL    C5922505   2.649   1.382  15.686 -1.4702  0.0964 -0.2733
   12TAL    C6022506   2.772   1.325  15.770  1.0883 -0.2383  0.3067
   13HTM    C6122507   2.853   1.581  15.019  0.3983 -0.0288  0.8494
   13HTM    C6222508   2.979   1.618  14.984  0.6028 -0.4410  1.1353
   13HTM    C6322509   3.013   1.752  15.022  0.7510 -0.3523  0.7005
   13HTM    C6422510   2.912   1.818  15.086  0.6593  0.1275  0.0824
   13HTM     S722511   2.766   1.714  15.103  0.3767  0.5075  0.0016
   14TAL    C6522512   3.157   1.779  14.993  0.9288  0.1387  0.4878
   14TAL    C6622513   3.194   1.827  14.852  0.6377 -0.2376 -0.2624
   14TAL    C6722514   3.330   1.766  14.830 -0.3998  1.0977  0.1478
   14TAL    C6822515   3.399   1.794  14.694  0.3008  0.3598  0.2165
   14TAL    C6922516   3.522   1.706  14.678 -0.6352  0.5903 -0.1362
   14TAL    C7022517   3.580   1.705  14.540  0.1446 -0.3582  0.0295
   15HTM    C7122518   2.904   1.959  15.138 -0.2608 -0.3895  0.7543
   15HTM    C7222519   3.002   2.032  15.200 -0.3756 -0.6136  1.2100
   15HTM    C7322520   2.960   2.164  15.240 -0.2444 -0.4921  0.9530
   15HTM    C7422521   2.830   2.191  15.209 -0.0297 -0.1752  0.3010
   15HTM     S822522   2.750   2.052  15.126  0.0240 -0.0045 -0.0410
   16TAL    C7522523   3.043   2.243  15.332  0.2378  0.6524 -0.4963
   16TAL    C7622524   3.110   2.166  15.452  1.3748  0.7593 -0.2785
   16TAL    C7722525   3.160   2.272  15.554  0.9672 -0.0701 -0.4613
   16TAL    C7822526   3.217   2.207  15.666  0.4521 -0.6586  0.0526
   16TAL    C7922527   3.247   2.319  15.773 -0.8555 -0.5198  0.8949
   16TAL    C8022528   3.319   2.259  15.887 -0.6882  1.2706 -0.5465
   17HTM    C8122529   2.756   2.315  15.237  0.3579 -0.1871 -0.7050
   17HTM    C8222530   2.803   2.442  15.250  0.7570 -0.3247 -0.7825
   17HTM    C8322531   2.700   2.542  15.264  1.0698 -0.0127 -0.6490
   17HTM    C8422532   2.574   2.490  15.261  0.9091  0.3627 -0.4702
   17HTM     S922533   2.576   2.311  15.240  0.3457  0.3513 -0.4557
   18TAL    C8522534   2.721   2.690  15.286 -0.4304 -0.9792  0.2322
   18TAL    C8622535   2.851   2.776  15.311 -0.2038  0.6765  0.1080
   18TAL    C8722536   2.951   2.798  15.192  0.8639 -0.5132 -0.2940
   18TAL    C8822537   2.880   2.852  15.067 -0.5404  0.2063 -0.1402
   18TAL    C8922538   2.975   2.940  14.996 -0.4610 -0.4773  0.4850
   18TAL    C9022539   2.906   3.029  14.892 -0.0499 -0.7596 -0.0946
   19HTM    C9122540   2.444   2.557  15.269 -0.1955 -0.1615  0.4312
   19HTM    C9222541   2.404   2.675  15.214 -0.1014 -0.1264  0.4375
   19HTM    C9322542   2.264   2.703  15.232 -0.1449 -0.1623  0.1767
   19HTM    C9422543   2.197   2.607  15.302 -0.2721 -0.2248 -0.0287
   19HTM    S1022544   2.307   2.472  15.350 -0.3475 -0.2434  0.0928
   20TAL    C9522545   2.187   2.815  15.163 -0.8981 -0.8402  0.6408
   20TAL    C9622546   2.176   2.953  15.237 -0.7330  0.3017 -0.5134
   20TAL    C9722547   2.045   3.015  15.275  0.2478 -0.3010  1.1231
   20TAL    C9822548   2.068   3.118  15.380 -0.8605 -0.0283 -0.5784
   20TAL    C9922549   1.941   3.193  15.404 -0.1173 -0.1402  0.6232
   20TAL   C10022550   1.909   3.240  15.549  0.2312 -0.0821 -0.0446
   21HTM   C10122551   2.061   2.580  15.337 -0.0804 -0.3123 -0.6799
   21HTM   C10222552   1.968   2.529  15.252 -0.6023  0.3648 -0.5383
   21HTM   C10322553   1.841   2.501  15.314 -0.5442  0.8001 -0.2193
   21HTM   C10422554   1.838   2.532  15.447  0.0221  0.4548 -0.1177
   21HTM    S1122555   1.996   2.598  15.504  0.5297 -0.4538 -0.4195
   22TAL   C10522556   1.731   2.446  15.234  0.7803  0.5523  0.7618
   22TAL   C10622557   1.592   2.520  15.234  0.1608  0.2005 -0.1158
   22TAL   C10722558   1.591   2.671  15.251  0.3456 -0.3661  1.0503
   22TAL   C10822559   1.666   2.736  15.133 -0.6925 -0.5275  0.4024
   22TAL   C10922560   1.614   2.729  14.990  1.2622  0.0154  0.6296
   22TAL   C11022561   1.709   2.792  14.885 -1.5728 -0.0965 -0.4989
   23HTM   C11122562   1.750   2.478  15.554  0.5192 -0.1379 -0.0555
   23HTM   C11222563   1.614   2.474  15.551  0.4983  0.4902 -0.1500
   23HTM   C11322564   1.555   2.411  15.667  0.1325  0.6164 -0.2632
   23HTM   C11422565   1.647   2.367  15.757 -0.1254  0.0843 -0.2549
   23HTM    S1222566   1.815   2.401  15.703  0.0752 -0.6227 -0.1025
   24TAL   C11522567   1.409   2.376  15.675  1.1949 -0.5282  0.0640
   24TAL   C11622568   1.309   2.490  15.690  0.3727  0.1561 -0.0425
   24TAL   C11722569   1.155   2.464  15.698  0.3664  0.3415 -0.0224
   24TAL   C11822570   1.096   2.327  15.752 -0.2607  1.1986  0.2815
   24TAL   C11922571   0.949   2.317  15.721 -0.5683  0.2718 -0.2125
   24TAL   C12022572   0.920   2.192  15.642 -0.2080  0.0257  0.5457
   25HTM   C12122573   1.628   2.280  15.879 -0.5182  0.2027  0.5103
   25HTM   C12222574   1.517   2.212  15.920 -0.3082 -0.0581  0.6514
   25HTM   C12322575   1.543   2.115  16.023  0.1429 -0.3776  0.2441
   25HTM   C12422576   1.674   2.109  16.061  0.2767 -0.3605 -0.2079
   25HTM    S1322577   1.775   2.227  15.968 -0.1599  0.0638 -0.1531
   26TAL   C12522578   1.421   2.051  16.083 -0.3903  0.4404 -0.0932
   26TAL   C12622579   1.310   1.987  15.999 -0.2188  0.8398 -0.6075
   26TAL   C12722580   1.361   1.866  15.933  0.1135 -0.8361  0.8677
   26TAL   C12822581   1.272   1.807  15.811 -0.1298 -0.1533  0.2083
   26TAL   C12922582   1.114   1.812  15.824 -0.1366  0.0674  0.8430
   26TAL   C13022583   1.064   1.678  15.778  1.5394  0.0383 -0.3644
   27HTM   C13122584   1.741   2.034  16.167  0.5839  0.3494  0.4026
   27HTM   C13222585   1.851   2.073  16.237  0.3114 -0.0632  1.0796
   27HTM   C13322586   1.879   1.990  16.352 -0.5558 -0.3192  1.1215
   27HTM   C13422587   1.790   1.888  16.369 -0.9446 -0.1018  0.4774
   27HTM    S1422588   1.663   1.888  16.241 -0.2401  0.4475 -0.2396
   28TAL   C13522589   2.008   2.018  16.426  0.5255 -0.2558 -0.5837
   28TAL   C13622590   2.136   2.010  16.334  0.4161 -0.8240  0.5090
   28TAL   C13722591   2.274   2.007  16.398  1.6131  0.2487 -0.1252
   28TAL   C13822592   2.302   2.136  16.465 -0.3301  0.4807  0.6482
   28TAL   C13922593   2.373   2.250  16.386  0.6443  0.2609 -0.6940
   28TAL   C14022594   2.434   2.332  16.482 -0.6411 -0.1960 -0.5906
   29HTM   C14122595   1.767   1.799  16.486  0.1657 -0.3296  0.1010
   29HTM   C14222596   1.856   1.759  16.582  0.0679 -0.6874  0.0453
   29HTM   C14322597   1.805   1.657  16.669 -0.2179 -0.6245 -0.0463
   29HTM   C14422598   1.677   1.619  16.640 -0.3382 -0.2188 -0.0614
   29HTM    S1522599   1.611   1.710  16.499 -0.0979  0.1179  0.0414
   30TAL   C14522600   1.913   1.571  16.745  0.2579 -0.3694 -0.5131
   30TAL   C14622601   2.043   1.634  16.803 -1.4685  0.5791 -0.0154
   30TAL   C14722602   2.166   1.544  16.772 -0.2593  0.1222 -0.1307
   30TAL   C14822603   2.291   1.631  16.753  0.2632  0.6301  0.7910
   30TAL   C14922604   2.413   1.543  16.759 -0.4605 -0.3568 -0.1741
   30TAL   C15022605   2.415   1.447  16.646 -0.8897  0.6108  0.2576
   31HTM   C15122606   1.587   1.526  16.695  0.3943  0.5736  0.7134
   31HTM   C15222607   1.469   1.487  16.639 -0.0499  1.5110  0.9565
   31HTM   C15322608   1.393   1.398  16.722 -0.1452  1.3775  0.7257
   31HTM   C15422609   1.452   1.368  16.841  0.2264  0.3382  0.3062
   31HTM    S1622610   1.611   1.452  16.857  0.7294 -0.5595  0.1691
   32TAL   C15522611   1.253   1.339  16.681  0.8133  0.7423 -1.4554
   32TAL   C15622612   1.217   1.310  16.542  1.0402  0.5583  0.9850
   32TAL   C15722613   1.089   1.225  16.528  0.2028  0.1639 -0.2961
   32TAL   C15822614   1.029   1.248  16.397  0.2265  0.4361  0.0420
   32TAL   C15922615   0.891   1.170  16.382 -1.1187  0.2027 -0.1358
   32TAL   C16022616   0.841   1.180  16.241  0.7587  0.7753  1.4808
   33HTM   C16122617   1.405   1.276  16.948 -0.2127 -0.3244  0.4294
   33HTM   C16222618   1.352   1.303  17.070 -0.0707 -0.4056  0.5097
   33HTM   C16322619   1.291   1.190  17.135 -0.1359 -0.4133  0.4349
   33HTM   C16422620   1.298   1.075  17.061 -0.3277 -0.3379  0.2971
   33HTM    S1722621   1.383   1.102  16.904 -0.4417 -0.2507  0.2517
   34TAL   C16522622   1.223   1.205  17.265 -0.1424 -0.4286  0.3782
   34TAL   C16622623   1.289   1.221  17.404 -0.3020  0.8253  0.3960
   34TAL   C16722624   1.422   1.160  17.445 -0.3824 -0.0144 -1.0686
   34TAL   C16822625   1.528   1.276  17.457  1.2269  0.4172  0.1478
   34TAL   C16922626   1.584   1.304  17.598 -0.3399  0.3491  0.0487
   34TAL   C17022627   1.472   1.334  17.707 -0.4534 -0.5763  0.2810
   35HTM   C17122628   1.255   0.938  17.091 -0.3707 -0.3693  0.5176
   35HTM   C17222629   1.223   0.882  17.211 -0.2204 -0.7303  0.3934
   35HTM   C17322630   1.193   0.742  17.203  0.2503 -0.8192  0.0887
   35HTM   C17422631   1.202   0.690  17.077  0.4589 -0.5260 -0.0183
   35HTM    S1822632   1.249   0.817  16.958  0.0740 -0.1117  0.2585
   36TAL   C17522633   1.141   0.676  17.332  0.2027 -0.6243  1.0880
   36TAL   C17622634   1.258   0.638  17.421  0.1780  0.0745  0.2794
   36TAL   C17722635   1.213   0.561  17.543 -0.4361  1.0631 -0.0339
   36TAL   C17822636   1.173   0.641  17.678  0.0837  0.6664 -0.0513
   36TAL   C17922637   1.118   0.782  17.669 -0.3364 -0.0745 -0.0066
   36TAL   C18022638   1.076   0.814  17.815 -0.7909 -0.3032 -0.9392
   37HTM   C18122639   1.169   0.556  17.016 -0.2819  0.1215  0.1645
   37HTM   C18222640   1.148   0.545  16.881 -0.5965  0.2889  0.1993
   37HTM   C18322641   1.103   0.414  16.841 -0.1574  0.1764  0.0734
   37HTM   C18422642   1.091   0.325  16.944  0.4920 -0.0768 -0.0568
   37HTM    S1922643   1.135   0.401  17.101  0.6002 -0.1936 -0.0305
   38TAL   C18522644   1.088   0.383  16.694  0.1514 -0.2991 -0.2471
   38TAL   C18622645   1.192   0.423  16.587 -0.1615 -0.0250 -0.6115
   38TAL   C18722646   1.157   0.401  16.439 -0.5636 -0.2001 -0.9534
   38TAL   C18822647   1.280   0.443  16.360 -0.2977  0.3809  0.0924
   38TAL   C18922648   1.253   0.458  16.207  0.0535 -0.8428  0.8339
   38TAL   C19022649   1.374   0.524  16.142 -0.6156  0.0691 -0.1192
   39HTM   C19122650   1.049   0.190  16.948  0.1123 -0.3833 -0.4816
   39HTM   C19222651   1.088   0.110  17.052  0.5067 -0.2572 -0.5269
   39HTM   C19322652   1.050  -0.028  17.037  0.5452 -0.2977 -0.2699
   39HTM   C19422653   0.983  -0.054  16.921  0.1800 -0.4547 -0.0287
   39HTM    S2022654   0.962   0.095  16.821 -0.2440 -0.5644 -0.1073
   40TAL   C19522655   1.071  -0.136  17.146  0.1073 -0.0814  0.5919
   40TAL   C19622656   1.094  -0.092  17.283 -0.7232  0.6633 -0.5766
   40TAL   C19722657   1.219  -0.024  17.322  0.4982 -0.6928  0.3324
   40TAL   C19822658   1.247  -0.037  17.469  0.5525  0.1438  0.0709
   40TAL   C19922659   1.358   0.031  17.532  0.1535  0.5787  0.5280
   40TAL   C20022660   1.503   0.012  17.478  0.3700  1.4122 -0.0370
   41HTM   C20122661   0.938  -0.183  16.856  0.2762  0.4429 -0.2453
   41HTM   C20222662   0.972  -0.313  16.878  0.2889  0.4618 -0.1540
   41HTM   C20322663   0.904  -0.407  16.792  0.0048  0.3624  0.1721
   41HTM   C20422664   0.818  -0.348  16.704 -0.2244  0.2677  0.3308
   41HTM    S2122665   0.816  -0.168  16.723 -0.0984  0.2969  0.0771
   42TAL   C20522666   0.942  -0.556  16.818  0.2340  0.1036 -0.5794
   42TAL   C20622667   1.039  -0.604  16.706  0.6249  0.7121 -0.2611
   42TAL   C20722668   1.173  -0.535  16.674  0.5386 -0.2222 -0.0804
   42TAL   C20822669   1.272  -0.508  16.792  0.2241  0.0408 -0.3461
   42TAL   C20922670   1.352  -0.632  16.834  0.0020  0.3517  0.0778
   42TAL   C21022671   1.456  -0.587  16.931  0.8597  0.5066  0.1305
   43HTM   C21122672   0.744  -0.413  16.588  1.0333 -0.6276 -0.2379
   43HTM   C21222673   0.748  -0.369  16.459  1.3026 -0.9967 -0.3581
   43HTM   C21322674   0.676  -0.454  16.367  0.4589 -0.6157 -0.0644
   43HTM   C21422675   0.617  -0.562  16.426 -0.4537  0.0440  0.2791
   43HTM    S2222676   0.649  -0.565  16.604 -0.3172  0.2369  0.2589
   44TAL   C21522677   0.682  -0.424  16.215 -0.1127  1.1104 -0.6602
   44TAL   C21622678   0.787  -0.499  16.132  0.1447  0.0867  0.9614
   44TAL   C21722679   0.834  -0.432  15.994  0.0000  1.4128 -0.4762
   44TAL   C21822680   0.983  -0.428  15.971 -1.0936  0.0048  0.2075
   44TAL   C21922681   1.058  -0.335  16.061 -0.1311  0.5015  0.0418
   44TAL   C22022682   1.200  -0.308  16.004  0.6195 -0.1198 -0.3078
   45HTM   C22122683   0.525  -0.657  16.372 -0.1447  0.0429  0.2665
   45HTM   C22222684   0.404  -0.683  16.428 -0.0495 -0.3551  0.2885
   45HTM   C22322685   0.312  -0.748  16.338  0.1352 -0.6368  0.2990
   45HTM   C22422686   0.363  -0.770  16.214  0.1808 -0.4534  0.2842
   45HTM    S2322687   0.533  -0.711  16.201 -0.0076  0.0933  0.2566
   46TAL   C22522688   0.169  -0.784  16.379  0.8600 -0.7498 -0.2396
   46TAL   C22622689   0.056  -0.675  16.371 -0.1778  0.2383  0.4278
   46TAL   C22722690  -0.065  -0.713  16.447 -0.0911 -0.2739 -0.3840
   46TAL   C22822691  -0.079  -0.732  16.601  0.9401 -0.5400  0.9495
   46TAL   C22922692  -0.229  -0.758  16.642 -0.4941 -0.1481  0.3982
   46TAL   C23022693  -0.286  -0.891  16.602 -0.7299 -0.1750  1.4727
   47HTM   C23122694   0.307  -0.821  16.094 -0.7512  0.6995  0.1896
   47HTM   C23222695   0.330  -0.776  15.967 -0.7366  0.9807  0.2916
   47HTM   C23322696   0.248  -0.841  15.867 -0.0054  0.4628  0.0122
   47HTM   C23422697   0.164  -0.935  15.918  0.5374 -0.2134 -0.3025
   47HTM    S2422698   0.180  -0.949  16.097  0.1644 -0.2488 -0.2704
   48TAL   C23522699   0.253  -0.800  15.717  0.7309  0.3563 -0.0489
   48TAL   C23622700   0.118  -0.728  15.680  0.0478  0.7389 -0.8365
   48TAL   C23722701   0.099  -0.711  15.526 -0.0650 -0.1203 -0.6217
   48TAL   C23822702  -0.023  -0.625  15.489 -1.1249  0.0213  0.3533
   48TAL   C23922703  -0.028  -0.584  15.333  0.5417  0.4472 -0.4106
   48TAL   C24022704  -0.155  -0.505  15.321 -1.0491 -1.0980 -0.9627
    1HTM     C122705   0.707   0.578   2.903 -0.0587  0.2881 -0.6796
    1HTM     C222706   0.727   0.489   3.005 -0.2136 -0.0547 -0.9420
    1HTM     C322707   0.807   0.542   3.112 -0.3845 -0.4091 -0.6360
    1HTM     C422708   0.848   0.671   3.092 -0.3598 -0.3365 -0.1404
    1HTM     S122709   0.788   0.736   2.935 -0.1170  0.1891 -0.0207
    2TAL     C522710   0.867   0.461   3.239  0.0829  0.0198 -0.1631
    2TAL     C622711   0.948   0.343   3.194  0.1563  0.4303 -0.2203
    2TAL     C722712   1.004   0.243   3.293 -0.4725 -0.2443 -1.2066
    2TAL     C822713   1.052   0.113   3.239 -0.2201  0.1266 -0.1296
    2TAL     C922714   1.159   0.016   3.305 -0.9577 -0.3874  0.2187
    2TAL    C1022715   1.128  -0.039   3.444 -0.0529 -0.4144 -0.5033
    3HTM    C1122716   0.938   0.760   3.164 -0.5234  0.0886  0.1953
    3HTM    C1222717   1.020   0.734   3.269 -1.4724  0.2044  0.9989
    3HTM    C1322718   1.120   0.836   3.291 -1.1740 -0.1449  1.2906
    3HTM    C1422719   1.113   0.940   3.203  0.0026 -0.5270  0.7094
    3HTM     S222720   0.979   0.916   3.084  0.8313 -0.4749 -0.2590
    4TAL    C1522721   1.223   0.811   3.406  0.7538  0.1685 -0.0247
    4TAL    C1622722   1.289   0.670   3.420 -0.5762  0.5083 -0.7366
    4TAL    C1722723   1.313   0.626   3.568  0.1877 -0.3255 -1.2687
    4TAL    C1822724   1.398   0.500   3.595 -0.2035  0.4363 -0.1002
    4TAL    C1922725   1.360   0.377   3.515  0.9367 -0.5833 -0.0285
    4TAL    C2022726   1.440   0.357   3.379  0.7644 -0.5194 -0.2429
    5HTM    C2122727   1.199   1.059   3.200  0.3423 -0.1726 -0.0905
    5HTM    C2222728   1.159   1.178   3.149  0.2791 -0.0982  0.1290
    5HTM    C2322729   1.248   1.287   3.179  0.1770 -0.0889  0.4019
    5HTM    C2422730   1.356   1.251   3.253  0.1623 -0.1562  0.3904
    5HTM     S322731   1.354   1.074   3.292  0.2771 -0.2371  0.0313
    6TAL    C2522732   1.208   1.429   3.141  0.0199 -0.8085  0.6405
    6TAL    C2622733   1.096   1.510   3.222  0.6522  0.0489 -0.9757
    6TAL    C2722734   1.145   1.568   3.362 -0.2095  0.8250 -0.9570
    6TAL    C2822735   1.195   1.713   3.352 -0.1573 -0.0920  0.0042
    6TAL    C2922736   1.115   1.817   3.273 -0.3198 -0.1038  0.4470
    6TAL    C3022737   1.179   1.952   3.299 -0.4711 -0.6074 -0.2063
    7HTM    C3122738   1.459   1.333   3.323  0.2486 -0.0635 -0.2314
    7HTM    C3222739   1.523   1.301   3.440 -0.0789  0.3661  0.0696
    7HTM    C3322740   1.625   1.396   3.477 -0.5159  0.7672  0.2716
    7HTM    C3422741   1.639   1.499   3.389 -0.5216  0.6434  0.1246
    7HTM     S422742   1.524   1.485   3.251  0.0288  0.0057 -0.2834
    8TAL    C3522743   1.702   1.374   3.613 -0.8038  0.9675  0.4496
    8TAL    C3622744   1.652   1.269   3.723  0.2231 -0.4581 -0.2256
    8TAL    C3722745   1.661   1.308   3.874 -0.4593  1.2342  0.8648
    8TAL    C3822746   1.804   1.338   3.931 -0.7135  1.0819 -0.1203
    8TAL    C3922747   1.814   1.375   4.081 -1.1936 -0.0854 -0.7820
    8TAL    C4022748   1.960   1.349   4.136  0.9740  0.5047  0.4632
    9HTM    C4122749   1.714   1.621   3.407  0.1474 -0.8450  0.4050
    9HTM    C4222750   1.668   1.743   3.447 -0.1495 -0.7541 -0.1944
    9HTM    C4322751   1.771   1.843   3.457 -0.3707 -0.4857 -0.5556
    9HTM    C4422752   1.896   1.797   3.424 -0.2425 -0.3720 -0.2316
    9HTM     S522753   1.892   1.623   3.379  0.1708 -0.5969  0.5610
   10TAL    C4522754   1.727   1.991   3.502 -0.1331  0.4650  0.7325
   10TAL    C4622755   1.737   2.107   3.397 -1.8353  0.1379 -1.3449
   10TAL    C4722756   1.694   2.226   3.480 -0.1407 -0.1023 -0.3095
   10TAL    C4822757   1.658   2.352   3.410 -0.8305 -1.1093 -0.1913
   10TAL    C4922758   1.758   2.424   3.310 -0.3592 -0.6581 -0.9773
   10TAL    C5022759   1.690   2.548   3.256  0.0158 -0.0420  0.4374
   11HTM    C5122760   2.029   1.859   3.414  0.6640 -0.3156  0.4410
   11HTM    C5222761   2.140   1.800   3.362  0.8307  0.0669  0.3526
   11HTM    C5322762   2.253   1.889   3.349  0.4312  0.5312 -0.0021
   11HTM    C5422763   2.228   2.016   3.391 -0.0398  0.5027 -0.1843
   11HTM     S622764   2.059   2.034   3.451 -0.0155 -0.1175  0.0804
   12TAL    C5522765   2.386   1.841   3.294 -0.5459  0.0197  0.1325
   12TAL    C5622766   2.387   1.705   3.215 -0.2683 -0.0843 -0.4608
   12TAL    C5722767   2.456   1.694   3.081 -0.1303 -1.0403 -0.1154
   12TAL    C5822768   2.450   1.572   2.999 -0.4810 -0.9681  0.2985
   12TAL    C5922769   2.530   1.583   2.866  0.0595 -0.3607 -0.3435
   12TAL    C6022770   2.510   1.468   2.770  0.4319 -0.0487 -0.6852
   13HTM    C6122771   2.310   2.137   3.401  0.2291 -0.1227 -0.5522
   13HTM    C6222772   2.442   2.157   3.376  0.2273  0.0271 -0.4424
   13HTM    C6322773   2.485   2.293   3.395  0.1423 -0.0026 -0.0253
   13HTM    C6422774   2.385   2.377   3.435  0.0792 -0.1752  0.1830
   13HTM     S722775   2.228   2.289   3.451  0.1227 -0.3146 -0.1340
   14TAL    C6522776   2.633   2.333   3.371 -0.0393  0.5049  0.9406
   14TAL    C6622777   2.719   2.256   3.269 -0.2288  0.5952  0.5787
   14TAL    C6722778   2.855   2.321   3.272 -0.1760 -0.1217 -0.0171
   14TAL    C6822779   2.972   2.243   3.211 -0.3139 -0.8882  0.3024
   14TAL    C6922780   3.014   2.117   3.276  0.3753 -0.0722 -0.0969
   14TAL    C7022781   3.117   2.037   3.196  0.9622  0.7708 -0.0573
   15HTM    C7122782   2.372   2.522   3.458 -0.2294  0.1270  0.2331
   15HTM    C7222783   2.262   2.601   3.445 -0.0589  0.3473  0.1122
   15HTM    C7322784   2.287   2.740   3.471  0.1935  0.2995  0.1270
   15HTM    C7422785   2.417   2.767   3.503  0.2155  0.0428  0.2593
   15HTM     S822786   2.518   2.618   3.504 -0.0832 -0.1599  0.3762
   16TAL    C7522787   2.177   2.844   3.437 -0.4915  0.8018  0.3571
   16TAL    C7622788   2.137   2.828   3.287  0.9148 -0.6920  0.4512
   16TAL    C7722789   2.002   2.888   3.268  0.6137 -0.3571  0.3778
   16TAL    C7822790   2.002   3.038   3.239 -0.4145 -1.2275  0.7725
   16TAL    C7922791   1.897   3.107   3.156  0.0109  0.7816 -1.1084
   16TAL    C8022792   1.755   3.073   3.194 -0.5977 -0.9219 -0.3542
   17HTM    C8122793   2.491   2.892   3.533 -0.2709  0.5365  0.0761
   17HTM    C8222794   2.606   2.908   3.603 -0.1990  0.3018  0.0120
   17HTM    C8322795   2.653   3.044   3.608  0.0671  0.2120  0.0077
   17HTM    C8422796   2.573   3.132   3.542  0.1982  0.3783  0.0687
   17HTM     S922797   2.431   3.049   3.468 -0.0059  0.6634  0.1366
   18TAL    C8522798   2.789   3.071   3.672  0.6404  0.1251  0.0435
   18TAL    C8622799   2.868   2.959   3.740 -0.4155 -0.1782 -0.2515
   18TAL    C8722800   3.017   2.989   3.763  0.0660 -0.2322 -0.2524
   18TAL    C8822801   3.100   3.044   3.645 -0.2329  0.7050  0.3995
   18TAL    C8922802   3.254   3.048   3.652  0.0395 -0.5970  0.6191
   18TAL    C9022803   3.322   3.094   3.529  0.2728 -0.9122 -0.2485
   19HTM    C9122804   2.576   3.277   3.535 -0.3578  0.1814 -0.1671
   19HTM    C9222805   2.482   3.371   3.565 -0.5048  0.2196 -0.7362
   19HTM    C9322806   2.526   3.506   3.541 -0.4029  0.1880 -0.7272
   19HTM    C9422807   2.654   3.515   3.494 -0.1783  0.1258 -0.1512
   19HTM    S1022808   2.728   3.352   3.475 -0.0772  0.1020  0.4290
   20TAL    C9522809   2.441   3.627   3.590  0.0682 -0.1783  1.5171
   20TAL    C9622810   2.287   3.645   3.544  0.0568 -0.1059 -0.0572
   20TAL    C9722811   2.249   3.791   3.493  0.7700 -0.0674  0.1262
   20TAL    C9822812   2.233   3.897   3.596  0.7723 -0.3145  0.4067
   20TAL    C9922813   2.190   4.031   3.524  0.1054 -0.4857  0.3764
   20TAL   C10022814   2.200   4.159   3.615  0.6405 -0.3753 -0.3952
   21HTM   C10122815   2.731   3.633   3.464 -0.0978 -0.1174 -0.0074
   21HTM   C10222816   2.866   3.641   3.447  0.0296  0.3449  1.0557
   21HTM   C10322817   2.913   3.773   3.413 -0.1380  0.5236  1.5068
   21HTM   C10422818   2.814   3.866   3.404 -0.3932  0.1976  0.7878
   21HTM    S1122819   2.652   3.793   3.438 -0.4420 -0.3647 -0.5251
   22TAL   C10522820   3.063   3.801   3.394 -0.4087 -0.1434  0.1040
   22TAL   C10622821   3.126   3.745   3.262 -0.1364  0.0383 -0.7970
   22TAL   C10722822   3.121   3.847   3.153  0.6016  0.4805  0.7553
   22TAL   C10822823   3.179   3.766   3.034 -0.3709  0.1157  0.6864
   22TAL   C10922824   3.186   3.852   2.901  0.5416  0.4425 -0.3241
   22TAL   C11022825   3.229   3.774   2.778 -0.4249  0.5054  0.4021
   23HTM   C11122826   2.813   4.009   3.389  0.5083  0.1330  0.1974
   23HTM   C11222827   2.700   4.082   3.410  0.3297 -0.0662 -0.0570
   23HTM   C11322828   2.719   4.224   3.394  0.0876 -0.0411 -0.1259
   23HTM   C11422829   2.846   4.259   3.361  0.0814  0.1770  0.0761
   23HTM    S1222830   2.953   4.115   3.346  0.3835  0.3693  0.3711
   24TAL   C11522831   2.596   4.318   3.381  0.3724  0.2231  0.1692
   24TAL   C11622832   2.561   4.384   3.514  0.7909 -0.0624 -0.0340
   24TAL   C11722833   2.417   4.445   3.490  0.3706 -0.2395 -0.0508
   24TAL   C11822834   2.345   4.539   3.591  0.1612  1.1589 -0.3100
   24TAL   C11922835   2.425   4.653   3.641  0.1492 -0.2144 -0.7278
   24TAL   C12022836   2.365   4.726   3.763 -0.2271  0.2191 -0.0043
   25HTM   C12122837   2.915   4.390   3.341 -0.0827  0.1119 -0.0360
   25HTM   C12222838   3.046   4.420   3.368 -0.0415  0.0812 -0.1971
   25HTM   C12322839   3.081   4.557   3.341 -0.0213  0.0523 -0.3172
   25HTM   C12422840   2.977   4.632   3.293 -0.0473  0.0612 -0.2475
   25HTM    S1322841   2.826   4.534   3.278 -0.0996  0.1070 -0.0232
   26TAL   C12522842   3.221   4.613   3.390  0.6020  0.3784 -0.1127
   26TAL   C12622843   3.341   4.611   3.303 -0.0968 -0.8983 -0.1621
   26TAL   C12722844   3.481   4.645   3.361  0.3036  1.1876 -0.1836
   26TAL   C12822845   3.598   4.620   3.263 -0.9366  0.3993  0.4636
   26TAL   C12922846   3.613   4.472   3.203 -0.4664  0.2028 -0.3200
   26TAL   C13022847   3.745   4.438   3.143 -0.8314  0.2170 -0.1725
   27HTM   C13122848   2.974   4.762   3.243  0.3784  0.0209 -0.4313
   27HTM   C13222849   2.908   4.871   3.293  0.4064  0.0781 -0.5176
   27HTM   C13322850   2.954   4.996   3.239  0.6580  0.0470 -0.3787
   27HTM   C13422851   3.055   4.984   3.148  0.8218 -0.0341 -0.1864
   27HTM    S1422852   3.100   4.811   3.124  0.6698 -0.0773 -0.1657
   28TAL   C13522853   2.899   5.135   3.275  0.3272 -0.3094  0.2227
   28TAL   C13622854   2.759   5.136   3.325 -0.2336 -0.1535  0.0212
   28TAL   C13722855   2.744   5.109   3.476 -0.4909 -0.6698  0.5288
   28TAL   C13822856   2.609   5.064   3.504 -0.0473 -0.3541 -0.8049
   28TAL   C13922857   2.583   5.140   3.640  0.3685  0.9362  0.5693
   28TAL   C14022858   2.438   5.127   3.688  0.8442 -0.1345  0.3783
   29HTM   C14122859   3.131   5.079   3.067  0.0583  0.6090  0.3498
   29HTM   C14222860   3.109   5.128   2.942 -0.3341  1.2492  0.6593
   29HTM   C14322861   3.197   5.237   2.907 -0.3676  1.3545  0.8999
   29HTM   C14422862   3.284   5.271   3.005 -0.0006  0.7945  0.7739
   29HTM    S1522863   3.264   5.167   3.151  0.4189  0.0854  0.3382
   30TAL   C14522864   3.171   5.293   2.772  1.0053  0.5699  0.9906
   30TAL   C14622865   3.074   5.403   2.758  1.5849 -0.3058 -0.0713
   30TAL   C14722866   3.035   5.425   2.612  0.3338 -0.6170  0.9590
   30TAL   C14822867   2.906   5.511   2.590  0.7369 -0.5453  0.1969
   30TAL   C14922868   2.871   5.529   2.442 -0.1136 -0.1132 -0.3553
   30TAL   C15022869   2.773   5.644   2.416 -0.1988  0.0911  0.2952
   31HTM   C15122870   3.384   5.365   3.003  0.1268  0.0826  0.0894
   31HTM   C15222871   3.413   5.465   3.091  0.0662  0.0883  0.1031
   31HTM   C15322872   3.533   5.538   3.058  0.1501  0.0147  0.2419
   31HTM   C15422873   3.595   5.493   2.945  0.2745 -0.0473  0.3339
   31HTM    S1622874   3.506   5.355   2.871  0.2956 -0.0170  0.2519
   32TAL   C15522875   3.578   5.657   3.134  0.0210  0.2168  0.5767
   32TAL   C15622876   3.504   5.786   3.106  0.8314 -0.2877  0.2603
   32TAL   C15722877   3.540   5.918   3.176 -0.2912  0.2452  0.1153
   32TAL   C15822878   3.510   5.936   3.327 -0.6589  0.0601 -0.2611
   32TAL   C15922879   3.359   5.940   3.357 -0.2952  0.7048 -0.2562
   32TAL   C16022880   3.324   5.947   3.506 -0.6907 -0.6667  0.0614
   33HTM   C16122881   3.713   5.539   2.883 -0.4813 -1.2293 -0.9644
   33HTM   C16222882   3.751   5.667   2.856 -1.3749 -1.0616 -1.4896
   33HTM   C16322883   3.889   5.679   2.816 -1.2981 -0.2046 -1.0073
   33HTM   C16422884   3.956   5.561   2.813 -0.3460  0.2812 -0.1141
   33HTM    S1722885   3.850   5.423   2.861  0.5343 -0.3106  0.1893
   34TAL   C16522886   3.943   5.820   2.780  0.7689 -0.0828  0.4370
   34TAL   C16622887   3.993   5.829   2.635  0.0483  0.0265 -0.4753
   34TAL   C16722888   4.088   5.944   2.599 -0.1585  0.8135 -0.0809
   34TAL   C16822889   4.163   5.914   2.470 -0.6370 -0.8474  0.3019
   34TAL   C16922890   4.255   6.040   2.445 -0.2748 -0.7965  1.1032
   34TAL   C17022891   4.408   6.026   2.461 -0.2446  0.3857  0.4135
   35HTM   C17122892   4.101   5.532   2.788  0.1290 -0.4479  0.1572
   35HTM   C17222893   4.167   5.443   2.709  0.6509 -0.7653  0.9257
   35HTM   C17322894   4.310   5.458   2.711  0.5956 -0.2260  1.1736
   35HTM   C17422895   4.354   5.559   2.791  0.0315  0.5027  0.5939
   35HTM    S1822896   4.216   5.643   2.871 -0.4776  0.5647 -0.3168
   36TAL   C17522897   4.388   5.364   2.628  0.5584  0.0380 -0.4079
   36TAL   C17622898   4.477   5.417   2.511  0.5430  0.1960 -0.1323
   36TAL   C17722899   4.600   5.331   2.476  0.0079  0.5125  1.0400
   36TAL   C17822900   4.673   5.370   2.352  0.3764  0.3378 -0.8155
   36TAL   C17922901   4.601   5.367   2.216 -0.5162  0.1683 -0.0035
   36TAL   C18022902   4.700   5.381   2.104 -0.0447  0.5214 -0.0017
   37HTM   C18122903   4.482   5.612   2.812  0.5886 -0.1587 -0.2607
   37HTM   C18222904   4.547   5.726   2.776  0.8229 -0.2757 -0.2087
   37HTM   C18322905   4.686   5.728   2.815  0.7699 -0.4815 -0.0054
   37HTM   C18422906   4.726   5.615   2.880  0.4950 -0.5216  0.0974
   37HTM    S1922907   4.591   5.497   2.898  0.2799 -0.3005 -0.0555
   38TAL   C18522908   4.768   5.843   2.764 -0.1063  0.8963  1.0623
   38TAL   C18622909   4.768   5.976   2.830 -0.6385 -0.3595  0.8475
   38TAL   C18722910   4.820   6.086   2.739 -0.8817 -0.0214 -0.7856
   38TAL   C18822911   4.773   6.228   2.772  0.4907 -0.1060  0.1140
   38TAL   C18922912   4.856   6.319   2.857 -0.4429  0.6483  0.0412
   38TAL   C19022913   4.819   6.328   3.001 -0.3597 -0.2809 -0.6836
   39HTM   C19122914   4.863   5.596   2.924  0.2819  0.1054 -0.3714
   39HTM   C19222915   4.977   5.550   2.866  0.2456 -0.2036 -0.2033
   39HTM   C19322916   5.085   5.528   2.959  0.1228 -0.2730 -0.0762
   39HTM   C19422917   5.053   5.558   3.088  0.0657 -0.0169 -0.1475
   39HTM    S2022918   4.883   5.616   3.103  0.1631  0.3345 -0.3824
   40TAL   C19522919   5.205   5.451   2.896  0.3698 -1.0113  0.6821
   40TAL   C19622920   5.314   5.373   2.959 -0.5646  0.8727  0.5967
   40TAL   C19722921   5.278   5.233   2.988  0.5842 -0.2006  0.7476
   40TAL   C19822922   5.395   5.155   3.036 -0.3539 -0.5351 -0.5362
   40TAL   C19922923   5.349   5.039   3.129 -0.5528  0.5198 -0.4074
   40TAL   C20022924   5.455   4.995   3.232 -0.5053  0.6239 -0.0493
   41HTM   C20122925   5.138   5.569   3.199  0.1108 -0.0389  0.1339
   41HTM   C20222926   5.168   5.468   3.286  0.4768 -0.0110  0.0439
   41HTM   C20322927   5.243   5.511   3.401  0.7292  0.0732 -0.1493
   41HTM   C20422928   5.270   5.645   3.402  0.5557  0.1094 -0.2066
   41HTM    S2122929   5.203   5.727   3.256  0.0562  0.0397 -0.0195
   42TAL   C20522930   5.285   5.421   3.510 -0.0063 -0.1338 -0.3627
   42TAL   C20622931   5.286   5.269   3.481 -0.4297  0.0723  0.7349
   42TAL   C20722932   5.388   5.196   3.568  0.1651 -1.4803  0.2441
   42TAL   C20822933   5.343   5.070   3.626 -0.0444  0.2478 -0.3807
   42TAL   C20922934   5.255   5.082   3.751 -0.3068 -0.1568 -0.0337
   42TAL   C21022935   5.248   4.942   3.806 -0.4904 -0.1094  0.1057
   43HTM   C21122936   5.325   5.736   3.506 -0.5587  0.3410  0.8594
   43HTM   C21222937   5.292   5.867   3.528 -0.4174  0.3556  0.9927
   43HTM   C21322938   5.377   5.933   3.623  0.1106  0.3728  0.5192
   43HTM   C21422939   5.475   5.854   3.674  0.3718  0.3710  0.0248
   43HTM    S2222940   5.467   5.687   3.605 -0.0320  0.3478  0.1197
   44TAL   C21522941   5.348   6.091   3.657 -0.1857  0.6848 -0.9743
   44TAL   C21622942   5.225   6.126   3.738  0.7748  0.2379 -0.1701
   44TAL   C21722943   5.194   6.041   3.858 -0.4670  0.3211 -0.7409
   44TAL   C21822944   5.306   6.081   3.969 -0.2175  0.1566  0.7966
   44TAL   C21922945   5.278   6.015   4.103 -0.0488 -0.3050  0.2471
   44TAL   C22022946   5.351   6.098   4.207  0.3685  0.5026  0.1020
   45HTM   C22122947   5.579   5.878   3.770 -0.1073 -0.0390 -0.0140
   45HTM   C22222948   5.569   5.847   3.903 -0.1258  0.3657  0.0825
   45HTM   C22322949   5.696   5.848   3.972 -0.1113  0.3992  0.0560
   45HTM   C22422950   5.802   5.880   3.892 -0.0818  0.0201 -0.0607
   45HTM    S2322951   5.750   5.911   3.722 -0.0699 -0.4121 -0.1467
   46TAL   C22522952   5.729   5.811   4.117  0.2737 -0.8785  0.5241
   46TAL   C22622953   5.612   5.803   4.217 -0.2681  0.6418 -0.5020
   46TAL   C22722954   5.648   5.786   4.363  0.4005 -0.4763 -0.0029
   46TAL   C22822955   5.550   5.680   4.430 -0.5700 -0.5767  0.9030
   46TAL   C22922956   5.582   5.534   4.424 -0.0371  0.7699  0.0580
   46TAL   C23022957   5.476   5.464   4.504 -0.1349 -0.0874 -0.8331
   47HTM   C23122958   5.944   5.881   3.920 -0.0490  0.2666 -0.8240
   47HTM   C23222959   6.022   5.983   3.965  0.0029  0.7824 -1.9979
   47HTM   C23322960   6.161   5.947   3.981  0.0672  1.0265 -1.9985
   47HTM   C23422961   6.188   5.817   3.947  0.0645  0.6966 -0.8251
   47HTM    S2422962   6.039   5.730   3.893 -0.0205  0.0472  0.3811
   48TAL   C23522963   6.270   6.045   4.023  0.8929  0.5625 -0.9785
   48TAL   C23622964   6.271   6.066   4.180 -0.1727  0.6978 -0.8322
   48TAL   C23722965   6.158   6.152   4.236 -0.5344  1.1948 -0.3904
   48TAL   C23822966   6.174   6.207   4.378  0.0923  0.6761  0.2243
   48TAL   C23922967   6.052   6.213   4.463  0.5633  0.6047  0.2885
   48TAL   C24022968   6.078   6.269   4.607  0.4193  0.5384 -0.0870
    1HTM     C122969   5.221   6.143  18.250  0.1328  0.1918 -0.0636
    1HTM     C222970   5.254   6.238  18.342 -0.3177  0.4749 -0.1822
    1HTM     C322971   5.325   6.350  18.287 -0.3392  0.4642 -0.2317
    1HTM     C422972   5.346   6.341  18.153  0.0950  0.1731 -0.1509
    1HTM     S122973   5.277   6.189  18.085  0.5683 -0.1126 -0.0046
    2TAL     C522974   5.364   6.466  18.379  0.2700 -0.3074  1.0604
    2TAL     C622975   5.257   6.565  18.397 -0.1276 -0.4766  0.1810
    2TAL     C722976   5.250   6.678  18.300 -0.4381  0.9497  0.9462
    2TAL     C822977   5.129   6.756  18.299  0.2395 -0.3984 -0.5647
    2TAL     C922978   4.999   6.681  18.305 -0.1222 -1.0186  0.9803
    2TAL    C1022979   4.939   6.683  18.445  0.5976 -0.1760 -0.2397
    3HTM    C1122980   5.408   6.439  18.058  0.2599 -0.0366  0.0543
    3HTM    C1222981   5.541   6.463  18.040  0.2350  0.0077 -0.0701
    3HTM    C1322982   5.571   6.532  17.917  0.0889  0.0988 -0.0548
    3HTM    C1422983   5.461   6.561  17.842  0.0025  0.1242  0.0814
    3HTM     S222984   5.310   6.503  17.921  0.0995  0.0340  0.2009
    4TAL    C1522985   5.711   6.584  17.887 -0.1197  0.2105  0.0097
    4TAL    C1622986   5.810   6.468  17.847 -0.3950  0.2103 -0.0104
    4TAL    C1722987   5.952   6.505  17.830 -0.8982 -0.8424  0.6536
    4TAL    C1822988   6.047   6.560  17.949 -0.4708  0.4762 -0.3178
    4TAL    C1922989   6.149   6.661  17.884  0.4543 -0.0838 -0.4330
    4TAL    C2022990   6.283   6.694  17.959 -0.4242 -0.2528  0.3469
    5HTM    C2122991   5.453   6.631  17.716 -0.1905 -0.0322  0.1097
    5HTM    C2222992   5.541   6.630  17.611 -0.0472 -0.1054  0.2303
    5HTM    C2322993   5.498   6.708  17.498  0.2491  0.0666  0.2332
    5HTM    C2422994   5.377   6.768  17.516  0.3321  0.2708  0.1142
    5HTM     S322995   5.308   6.731  17.679  0.0399  0.2620 -0.0112
    6TAL    C2522996   5.597   6.727  17.382 -1.2990 -0.6862 -0.0223
    6TAL    C2622997   5.632   6.604  17.303 -0.2032  0.6183  0.3082
    6TAL    C2722998   5.746   6.619  17.203 -0.3490  0.1999  0.1437
    6TAL    C2822999   5.730   6.699  17.075 -1.1137 -0.2963 -0.5450
    6TAL    C2923000   5.660   6.644  16.953 -0.7403  0.0585  0.0279
    6TAL    C3023001   5.519   6.582  16.969 -0.6148  0.1459  0.1904
    7HTM    C3123002   5.290   6.843  17.426 -0.5736 -0.2932  0.0672
    7HTM    C3223003   5.253   6.973  17.436 -1.0682 -0.4429  0.2189
    7HTM    C3323004   5.186   7.024  17.319 -0.7980 -0.4158  0.0768
    7HTM    C3423005   5.173   6.931  17.219 -0.0974 -0.2457 -0.1835
    7HTM     S423006   5.245   6.772  17.266  0.2785 -0.1053 -0.2699
    8TAL    C3523007   5.139   7.169  17.303  0.2347 -0.3303  0.4242
    8TAL    C3623008   5.145   7.266  17.419  0.0536 -0.5621  0.8894
    8TAL    C3723009   5.052   7.254  17.544 -0.9579  1.0997 -0.4153
    8TAL    C3823010   4.951   7.361  17.550  0.2288  0.2289  0.3048
    8TAL    C3923011   4.866   7.370  17.682  0.3024 -1.2141  0.2833
    8TAL    C4023012   4.752   7.464  17.655  0.6004 -0.0035 -0.0162
    9HTM    C4123013   5.144   6.947  17.076 -0.3188 -0.1349 -0.4769
    9HTM    C4223014   5.052   7.027  17.015 -0.2609 -0.1661 -0.6056
    9HTM    C4323015   5.044   7.007  16.872  0.0390 -0.0740 -0.6366
    9HTM    C4423016   5.130   6.913  16.825  0.2096  0.0275 -0.5315
    9HTM     S523017   5.228   6.840  16.957  0.0033  0.0146 -0.3844
   10TAL    C4523018   4.928   7.065  16.801 -0.1771  0.2707  0.5000
   10TAL    C4623019   4.802   6.982  16.804  0.2541 -0.9151  0.0747
   10TAL    C4723020   4.705   6.986  16.908 -0.0778 -0.7967 -0.0276
   10TAL    C4823021   4.637   6.854  16.898  0.2061 -0.4521 -0.4448
   10TAL    C4923022   4.490   6.851  16.848 -1.1627 -0.0816  0.2907
   10TAL    C5023023   4.425   6.718  16.852 -0.6338 -0.4053  0.2103
   11HTM    C5123024   5.149   6.859  16.695  0.2946 -0.2616 -0.2319
   11HTM    C5223025   5.216   6.745  16.662  0.2940 -0.1950 -0.4649
   11HTM    C5323026   5.207   6.711  16.522  0.1625  0.0049 -0.5059
   11HTM    C5423027   5.133   6.799  16.449  0.0627  0.0907 -0.3035
   11HTM     S623028   5.069   6.933  16.552  0.1277 -0.0758 -0.0441
   12TAL    C5523029   5.271   6.582  16.470  0.2789  0.2269 -0.3082
   12TAL    C5623030   5.394   6.524  16.529 -0.7729 -0.1063  1.1074
   12TAL    C5723031   5.512   6.605  16.473  0.2590 -1.1995  0.5343
   12TAL    C5823032   5.642   6.568  16.541 -0.4053  1.3294  0.7885
   12TAL    C5923033   5.742   6.652  16.463 -0.0931  0.4795 -0.2546
   12TAL    C6023034   5.874   6.670  16.530 -0.4631  0.4579  0.3698
   13HTM    C6123035   5.098   6.793  16.312  0.2470  0.2682  0.3537
   13HTM    C6223036   5.177   6.766  16.204  0.5170  0.8581  0.3972
   13HTM    C6323037   5.111   6.784  16.078  0.5810  0.7640  0.3495
   13HTM    C6423038   4.981   6.825  16.089  0.3598  0.1028  0.2694
   13HTM     S723039   4.933   6.843  16.262  0.0511 -0.4572  0.2479
   14TAL    C6523040   5.173   6.743  15.944 -0.0714 -0.5369 -0.6325
   14TAL    C6623041   5.300   6.824  15.912  0.3373  0.7216  0.8615
   14TAL    C6723042   5.426   6.802  15.993  2.2964  0.2093 -0.7217
   14TAL    C6823043   5.561   6.855  15.959 -0.1025 -0.8456  0.4922
   14TAL    C6923044   5.562   6.994  15.912 -0.0981  0.1403  0.7832
   14TAL    C7023045   5.699   7.046  15.870 -0.4067 -0.3570  0.4455
   15HTM    C7123046   4.872   6.830  15.988 -0.2441 -0.3650  0.4934
   15HTM    C7223047   4.758   6.906  15.990 -0.2527 -0.3759  0.4141
   15HTM    C7323048   4.675   6.888  15.874  0.0303 -0.0800  0.1621
   15HTM    C7423049   4.725   6.799  15.783  0.2548  0.1566  0.0494
   15HTM     S823050   4.882   6.730  15.839  0.1250  0.0230  0.2546
   16TAL    C7523051   4.559   6.978  15.866 -0.2504  0.5761 -0.5112
   16TAL    C7623052   4.433   6.941  15.944  0.6952  0.4407  0.0906
   16TAL    C7723053   4.387   6.810  15.901  0.2642  0.3315 -0.1737
   16TAL    C7823054   4.246   6.759  15.939 -0.0373  0.2437 -0.0420
   16TAL    C7923055   4.221   6.640  15.842 -0.2953 -0.0741  0.7814
   16TAL    C8023056   4.073   6.604  15.824  0.2013 -0.7513  0.0443
   17HTM    C8123057   4.670   6.755  15.657  0.0396 -0.3966 -0.3546
   17HTM    C8223058   4.725   6.657  15.580 -0.3959 -0.6713 -0.3223
   17HTM    C8323059   4.657   6.637  15.454 -0.5845 -0.5230 -0.2449
   17HTM    C8423060   4.550   6.720  15.436 -0.2927 -0.1352 -0.2180
   17HTM     S923061   4.527   6.831  15.576  0.2469  0.0744 -0.2894
   18TAL    C8523062   4.707   6.536  15.352 -0.2448 -0.4094  0.2708
   18TAL    C8623063   4.810   6.436  15.414 -0.8543 -0.6472 -0.8440
   18TAL    C8723064   4.868   6.322  15.325  0.5211 -0.2332  0.1107
   18TAL    C8823065   4.935   6.363  15.189  0.5561 -0.0686  0.2853
   18TAL    C8923066   5.081   6.340  15.168 -1.8946  0.5217 -0.8068
   18TAL    C9023067   5.161   6.385  15.044 -0.3185  0.1682  0.1603
   19HTM    C9123068   4.448   6.720  15.334  0.7325  0.0766 -0.1917
   19HTM    C9223069   4.318   6.756  15.353  0.9706  0.8101  0.1400
   19HTM    C9323070   4.236   6.743  15.235  0.5709  1.1503  0.3734
   19HTM    C9423071   4.305   6.698  15.126  0.0276  0.6761  0.2199
   19HTM    S1023072   4.478   6.667  15.164 -0.0211 -0.2438 -0.2351
   20TAL    C9523073   4.086   6.778  15.238  0.0219 -0.8111  2.2588
   20TAL    C9623074   3.986   6.688  15.302 -0.0448  0.1065  0.0108
   20TAL    C9723075   3.890   6.772  15.393 -0.3732 -0.2708  0.4282
   20TAL    C9823076   3.946   6.894  15.469 -0.2388 -0.7255 -0.1915
   20TAL    C9923077   3.843   6.981  15.554  1.1884 -0.0850 -0.1127
   20TAL   C10023078   3.803   6.922  15.683  1.2187  1.2279 -0.1005
   21HTM   C10123079   4.250   6.646  14.999 -0.3172 -0.4346  0.0664
   21HTM   C10223080   4.280   6.532  14.931 -0.7375 -0.5008 -0.0184
   21HTM   C10323081   4.207   6.516  14.808 -0.8068 -0.1458 -0.0255
   21HTM   C10423082   4.121   6.618  14.782 -0.4391  0.1912  0.0536
   21HTM    S1123083   4.125   6.743  14.912  0.0266  0.0851  0.1443
   22TAL   C10523084   4.235   6.389  14.713  0.9121  0.4070 -0.2975
   22TAL   C10623085   4.127   6.287  14.675 -0.7621 -0.4483  0.3600
   22TAL   C10723086   4.084   6.192  14.788 -0.5835  1.4969 -0.1505
   22TAL   C10823087   3.976   6.088  14.761  0.2437 -0.5657 -0.0356
   22TAL   C10923088   4.017   5.962  14.685 -0.2781  0.5937  0.5050
   22TAL   C11023089   3.897   5.869  14.667 -0.1624 -0.4737  0.1216
   23HTM   C11123090   4.035   6.638  14.663  0.4535 -0.1770  0.0731
   23HTM   C11223091   3.899   6.620  14.659  0.5013 -0.5835  0.1941
   23HTM   C11323092   3.840   6.653  14.532  0.2964 -0.8341  0.2224
   23HTM   C11423093   3.930   6.697  14.439  0.0924 -0.6188  0.1230
   23HTM    S1223094   4.098   6.699  14.505  0.1437 -0.0785 -0.0150
   24TAL   C11523095   3.696   6.623  14.504 -0.2665  0.5179  0.1901
   24TAL   C11623096   3.655   6.472  14.477 -0.8839 -0.1787  0.3053
   24TAL   C11723097   3.749   6.383  14.388 -0.3184 -0.7665 -0.8695
   24TAL   C11823098   3.718   6.240  14.361 -0.2969 -1.0045 -1.0593
   24TAL   C11923099   3.835   6.164  14.323  0.3280  1.1480  0.4868
   24TAL   C12023100   3.770   6.043  14.250  0.2550  0.3596 -0.5947
   25HTM   C12123101   3.903   6.757  14.312 -0.6548  0.3830 -0.2774
   25HTM   C12223102   3.868   6.884  14.278 -0.8973  0.1744 -0.8371
   25HTM   C12323103   3.851   6.904  14.137 -0.7004 -0.4185 -0.9489
   25HTM   C12423104   3.873   6.792  14.063 -0.3077 -0.6621 -0.4747
   25HTM    S1323105   3.917   6.651  14.167 -0.1549 -0.1577  0.1547
   26TAL   C12523106   3.803   7.036  14.088 -0.3473 -0.2849  0.4782
   26TAL   C12623107   3.870   7.162  14.142 -0.0215  0.0867 -0.8003
   26TAL   C12723108   3.996   7.218  14.098 -0.0537  0.7698 -0.2751
   26TAL   C12823109   4.082   7.302  14.195  0.0080  0.0086 -0.4272
   26TAL   C12923110   4.109   7.252  14.330 -0.0948 -0.2342 -0.3107
   26TAL   C13023111   4.247   7.284  14.389 -0.5777  0.2664 -0.4470
   27HTM   C13123112   3.849   6.786  13.923 -0.5361 -0.5917  0.4172
   27HTM   C13223113   3.952   6.775  13.834 -0.4417 -0.7082  0.5410
   27HTM   C13323114   3.910   6.765  13.697 -0.2841 -0.5432  0.4802
   27HTM   C13423115   3.774   6.769  13.681 -0.2586 -0.3009  0.3099
   27HTM    S1423116   3.689   6.785  13.839 -0.4327 -0.2619  0.2124
   28TAL   C13523117   4.012   6.742  13.582  0.8679  0.1051  1.4668
   28TAL   C13623118   4.140   6.836  13.584  0.9667  0.0680  0.5674
   28TAL   C13723119   4.245   6.780  13.487  0.5145  0.1324  0.1411
   28TAL   C13823120   4.382   6.832  13.484 -0.1395 -0.4771  0.2102
   28TAL   C13923121   4.359   6.967  13.438  0.5722  0.0656  0.8411
   28TAL   C14023122   4.471   7.063  13.451 -0.7478  0.2384  0.2374
   29HTM   C14123123   3.680   6.771  13.564  0.0032 -0.1666 -0.1261
   29HTM   C14223124   3.557   6.714  13.566 -0.0477 -0.0764 -0.4935
   29HTM   C14323125   3.485   6.726  13.442  0.2478  0.1544 -0.6447
   29HTM   C14423126   3.554   6.793  13.345  0.5240  0.2405 -0.3926
   29HTM    S1523127   3.716   6.845  13.403  0.4317  0.0351  0.0590
   30TAL   C14523128   3.345   6.669  13.431  0.3855 -0.8938 -0.8265
   30TAL   C14623129   3.271   6.615  13.556 -0.4659 -0.7331  0.2251
   30TAL   C14723130   3.198   6.684  13.670  0.4477  0.7023 -0.7101
   30TAL   C14823131   3.262   6.809  13.743 -0.7073  0.4835  0.3146
   30TAL   C14923132   3.183   6.883  13.849 -0.0724  0.5244 -0.5339
   30TAL   C15023133   3.221   6.839  13.996  0.7871 -0.2395 -0.2762
   31HTM   C15123134   3.516   6.832  13.212  0.7369 -0.5039  0.3264
   31HTM   C15223135   3.549   6.951  13.152  0.8444 -0.3939  0.6001
   31HTM   C15323136   3.491   6.968  13.021  0.7964 -0.0048  0.6690
   31HTM   C15423137   3.415   6.862  12.981  0.6524  0.1819  0.4478
   31HTM    S1623138   3.410   6.732  13.106  0.5656 -0.1218  0.1331
   32TAL   C15523139   3.546   7.088  12.941 -0.0125  0.4899  0.2427
   32TAL   C15623140   3.589   7.070  12.794  0.0336 -0.0663 -0.8568
   32TAL   C15723141   3.688   7.176  12.752 -0.6237  0.0293  0.3599
   32TAL   C15823142   3.705   7.159  12.590 -0.0334  0.2760 -0.4853
   32TAL   C15923143   3.798   7.048  12.541 -0.0981 -0.2883 -0.6340
   32TAL   C16023144   3.947   7.082  12.515 -0.7182  0.9158  0.6091
   33HTM   C16123145   3.331   6.829  12.869  0.1881 -0.4253  0.1911
   33HTM   C16223146   3.270   6.914  12.782  0.4938 -0.2149  0.1795
   33HTM   C16323147   3.210   6.849  12.668  0.5772  0.0216 -0.0019
   33HTM   C16423148   3.226   6.713  12.668  0.3353 -0.0081 -0.1283
   33HTM    S1723149   3.318   6.658  12.813 -0.0195 -0.3398 -0.0277
   34TAL   C16523150   3.139   6.925  12.551  0.2603  0.6526 -0.2425
   34TAL   C16623151   3.193   7.060  12.500 -0.3325 -0.0886 -0.5891
   34TAL   C16723152   3.350   7.083  12.477  0.3245 -0.3811 -0.5658
   34TAL   C16823153   3.432   6.994  12.380  0.2912  0.3194  0.5619
   34TAL   C16923154   3.384   7.015  12.232 -0.0914  0.2633  0.1329
   34TAL   C17023155   3.449   6.907  12.149 -0.5266 -0.2628  0.3334
   35HTM   C17123156   3.174   6.618  12.578  0.0421  0.6706  0.0220
   35HTM   C17223157   3.242   6.564  12.473 -0.0122  0.6665 -0.0119
   35HTM   C17323158   3.167   6.467  12.397 -0.0658  0.6945  0.0060
   35HTM   C17423159   3.040   6.448  12.444 -0.0524  0.7200  0.0534
   35HTM    S1823160   3.006   6.551  12.588  0.0297  0.7106  0.0795
   36TAL   C17523161   3.215   6.425  12.258  0.4321 -0.4566 -0.5302
   36TAL   C17623162   3.342   6.335  12.245  0.3903 -0.6009 -0.0245
   36TAL   C17723163   3.416   6.262  12.358 -0.2193 -1.4860 -0.7874
   36TAL   C17823164   3.338   6.159  12.448 -0.1125 -0.7923  0.4888
   36TAL   C17923165   3.240   6.062  12.373 -0.1633 -0.3050  0.4539
   36TAL   C18023166   3.188   5.957  12.472  0.0745  0.7573  0.0506
   37HTM   C18123167   2.933   6.357  12.405 -0.1462  0.2350 -0.9755
   37HTM   C18223168   2.807   6.402  12.376  0.0289  0.5664 -1.2343
   37HTM   C18323169   2.720   6.299  12.324 -0.4082  0.5729 -0.5431
   37HTM   C18423170   2.780   6.177  12.314 -0.9166  0.2466  0.2432
   37HTM    S1923171   2.951   6.182  12.370 -0.8824 -0.0971  0.1709
   38TAL   C18523172   2.573   6.326  12.293  0.2925 -0.4349 -0.2401
   38TAL   C18623173   2.487   6.384  12.411  0.2550  0.5823  0.2484
   38TAL   C18723174   2.511   6.522  12.454 -0.1730 -0.4943  0.3097
   38TAL   C18823175   2.496   6.639  12.365 -0.2249 -0.4966  0.7724
   38TAL   C18923176   2.356   6.667  12.311 -0.0844 -0.2409 -0.4174
   38TAL   C19023177   2.374   6.781  12.211  0.0524 -1.1341  0.3320
   39HTM   C19123178   2.727   6.048  12.266  0.8449 -0.5956  0.3615
   39HTM   C19223179   2.771   5.977  12.158  0.6737 -0.5761  0.2782
   39HTM   C19323180   2.704   5.851  12.140  0.1321 -0.2493 -0.0629
   39HTM   C19423181   2.609   5.825  12.234 -0.1094 -0.0195 -0.2407
   39HTM    S2023182   2.597   5.959  12.354  0.3317 -0.1995  0.0119
   40TAL   C19523183   2.754   5.757  12.044  0.5991  0.2482  0.2528
   40TAL   C19623184   2.860   5.659  12.092 -0.1497 -0.5602 -0.5272
   40TAL   C19723185   2.884   5.533  12.013  0.1008 -0.3028  0.0320
   40TAL   C19823186   2.957   5.416  12.088  0.8300  0.4135 -0.1012
   40TAL   C19923187   3.001   5.298  12.000  0.8057  0.1480 -0.9060
   40TAL   C20023188   2.900   5.192  11.952 -0.0245 -0.4938 -0.0249
   41HTM   C20123189   2.513   5.715  12.254  0.0219 -0.5625  0.0727
   41HTM   C20223190   2.415   5.713  12.350  0.1876 -0.5001  0.2441
   41HTM   C20323191   2.335   5.594  12.349 -0.0511 -0.3418  0.2193
   41HTM   C20423192   2.372   5.504  12.253 -0.3988 -0.2833  0.0288
   41HTM    S2123193   2.511   5.564  12.155 -0.4521 -0.4248 -0.1353
   42TAL   C20523194   2.231   5.572  12.459  0.1701 -0.3046  0.1432
   42TAL   C20623195   2.285   5.584  12.600  0.5813 -0.2451 -0.6452
   42TAL   C20723196   2.396   5.479  12.634  0.8125 -0.5970 -0.0474
   42TAL   C20823197   2.452   5.509  12.775  0.1819  0.0492 -0.2494
   42TAL   C20923198   2.575   5.440  12.825 -0.4565  0.2028 -0.5160
   42TAL   C21023199   2.591   5.467  12.974  0.0876 -0.1665  0.6263
   43HTM   C21123200   2.306   5.383  12.208  0.5433  0.0543 -0.2292
   43HTM   C21223201   2.179   5.337  12.227  0.6270 -0.0130  0.1929
   43HTM   C21323202   2.146   5.223  12.145  0.4078 -0.0178  0.2863
   43HTM   C21423203   2.248   5.183  12.064  0.1569  0.0460 -0.0650
   43HTM    S2223204   2.394   5.286  12.085  0.1783  0.1174 -0.5445
   44TAL   C21523205   2.010   5.160  12.170  0.5663 -1.1712 -0.5270
   44TAL   C21623206   1.984   5.079  12.294 -0.1756 -0.3731  0.4638
   44TAL   C21723207   2.020   4.930  12.293  0.3237 -0.2210 -0.3387
   44TAL   C21823208   2.154   4.873  12.351  0.1646 -0.4150  0.0621
   44TAL   C21923209   2.165   4.724  12.380  0.4530 -0.8615 -0.1588
   44TAL   C22023210   2.189   4.639  12.255 -0.5870  0.3416  0.6749
   45HTM   C22123211   2.258   5.087  11.956 -0.0101  0.2573  0.2710
   45HTM   C22223212   2.372   5.063  11.884  0.3022  0.2921  0.7424
   45HTM   C22323213   2.358   4.957  11.788  0.6678  0.4317  0.5331
   45HTM   C22423214   2.235   4.899  11.787  0.6342  0.5034 -0.0982
   45HTM    S2323215   2.125   4.975  11.908  0.1344  0.3994 -0.4797
   46TAL   C22523216   2.487   4.915  11.718  0.0768  0.5717  0.7180
   46TAL   C22623217   2.580   5.020  11.658  0.2058 -0.4854 -0.2557
   46TAL   C22723218   2.692   4.974  11.568 -0.2883 -0.9472 -0.0696
   46TAL   C22823219   2.771   5.099  11.511  0.5749 -0.7139 -0.1271
   46TAL   C22923220   2.842   5.181  11.617 -0.6726 -0.1453  0.4955
   46TAL   C23023221   2.933   5.284  11.550 -0.3368  0.2304  0.1386
   47HTM   C23123222   2.181   4.798  11.704  0.4440 -0.3640  0.5109
   47HTM   C23223223   2.052   4.802  11.659  0.2714 -0.6447  0.9761
   47HTM   C23323224   2.028   4.718  11.545  0.1174 -0.4586  0.8707
   47HTM   C23423225   2.139   4.650  11.502  0.1723 -0.0359  0.3253
   47HTM    S2423226   2.283   4.688  11.604  0.4250  0.1613 -0.1010
   48TAL   C23523227   1.888   4.697  11.481 -0.9051 -0.3040 -0.3601
   48TAL   C23623228   1.770   4.785  11.528  0.1734 -0.0310  0.2209
   48TAL   C23723229   1.776   4.936  11.486 -0.6041  0.2743 -0.0173
   48TAL   C23823230   1.684   5.044  11.545  0.4729  0.1326 -0.4464
   48TAL   C23923231   1.678   5.033  11.701 -0.2474  0.2945  1.0249
   48TAL   C24023232   1.644   5.158  11.775 -0.0416  0.3847 -0.0219
    1HTM     C123233   7.056   0.211  12.738 -0.6224  0.2123 -0.3836
    1HTM     C223234   7.187   0.221  12.775 -0.8755  0.3286  0.5381
    1HTM     C323235   7.263   0.101  12.756 -0.6762  0.3273  1.2805
    1HTM     C423236   7.190  -0.003  12.705 -0.2707  0.2102  0.9247
    1HTM     S123237   7.018   0.045  12.677 -0.1085  0.0914 -0.3855
    2TAL     C523238   7.420   0.119  12.766  1.2626 -0.2725  0.0802
    2TAL     C623239   7.470   0.126  12.901 -0.9043  0.7773  0.2356
    2TAL     C723240   7.631   0.143  12.889 -0.1037  0.2434 -0.7211
    2TAL     C823241   7.698   0.241  12.795  0.1608  0.6740 -0.0653
    2TAL     C923242   7.851   0.231  12.803  0.2565 -1.0990 -0.0992
    2TAL    C1023243   7.918   0.315  12.681  1.1996  1.1144 -0.0723
    3HTM    C1123244   7.226  -0.132  12.657  0.1845 -0.0467  0.2627
    3HTM    C1223245   7.216  -0.255  12.715  0.7670 -0.0139  0.4513
    3HTM    C1323246   7.259  -0.363  12.631  0.9447  0.0305  0.4847
    3HTM    C1423247   7.303  -0.323  12.508  0.4978  0.0316  0.3217
    3HTM     S223248   7.292  -0.144  12.489 -0.1877 -0.0239  0.1118
    4TAL    C1523249   7.246  -0.511  12.660  0.8138  0.4377 -0.2616
    4TAL    C1623250   7.273  -0.569  12.798  0.5779 -0.2246 -0.0063
    4TAL    C1723251   7.244  -0.713  12.827  0.1515 -0.2821  0.7870
    4TAL    C1823252   7.094  -0.753  12.834 -0.6629  0.8799  0.0285
    4TAL    C1923253   7.083  -0.899  12.862  0.1603 -0.0821 -0.6385
    4TAL    C2023254   6.937  -0.945  12.849  0.1446 -0.3526 -0.6706
    5HTM    C2123255   7.359  -0.391  12.389  0.0971 -0.2580 -0.4611
    5HTM    C2223256   7.310  -0.390  12.262  0.0175 -0.6381 -0.4349
    5HTM    C2323257   7.391  -0.463  12.168  0.1392 -0.6353 -0.3326
    5HTM    C2423258   7.501  -0.520  12.224  0.3117 -0.2533 -0.2803
    5HTM     S323259   7.512  -0.485  12.401  0.3340  0.1357 -0.3572
    6TAL    C2523260   7.363  -0.458  12.024 -0.5477 -0.1857  0.0774
    6TAL    C2623261   7.218  -0.422  11.987 -1.2327 -0.9785 -0.2723
    6TAL    C2723262   7.182  -0.424  11.844  0.2570  0.3644 -0.1052
    6TAL    C2823263   7.043  -0.359  11.819  0.3102 -0.5684  0.2550
    6TAL    C2923264   7.007  -0.337  11.675  0.7223  0.4997  0.5822
    6TAL    C3023265   7.097  -0.273  11.570 -0.2282  0.5599 -0.8063
    7HTM    C3123266   7.608  -0.593  12.158 -0.1971 -0.3573 -0.1590
    7HTM    C3223267   7.620  -0.663  12.041 -0.0992 -0.5784 -0.0179
    7HTM    C3323268   7.747  -0.731  12.028  0.0750 -0.2679  0.0355
    7HTM    C3423269   7.830  -0.713  12.134  0.1100  0.1901 -0.0652
    7HTM     S423270   7.755  -0.608  12.260 -0.0759  0.2653 -0.2365
    8TAL    C3523271   7.788  -0.803  11.899 -0.9768 -0.4720  0.3986
    8TAL    C3623272   7.887  -0.716  11.814 -0.9640  0.0636 -0.2395
    8TAL    C3723273   7.906  -0.729  11.667 -0.0097 -0.2564 -0.2763
    8TAL    C3823274   7.930  -0.867  11.611  0.6894  0.3396 -0.0057
    8TAL    C3923275   7.983  -0.881  11.465  0.6676  0.6328  0.1865
    8TAL    C4023276   7.980  -1.006  11.384 -0.7611  0.8728  0.2792
    9HTM    C4123277   7.959  -0.776  12.165 -0.2060 -0.4607  0.3818
    9HTM    C4223278   8.038  -0.856  12.087 -0.5556 -0.8615  0.4265
    9HTM    C4323279   8.160  -0.896  12.152 -0.3347 -0.6549  0.1431
    9HTM    C4423280   8.174  -0.847  12.279  0.1835 -0.0965 -0.1184
    9HTM     S523281   8.032  -0.746  12.326  0.4345  0.2140 -0.0258
   10TAL    C4523282   8.254  -0.985  12.083 -0.3130  0.4723 -0.0750
   10TAL    C4623283   8.361  -0.939  11.987  0.8559  0.2897  0.0349
   10TAL    C4723284   8.317  -0.838  11.879  0.0188 -0.3561  1.3442
   10TAL    C4823285   8.263  -0.900  11.739 -0.8074  0.5851  0.1548
   10TAL    C4923286   8.383  -0.925  11.646 -1.0114 -0.2738  0.5162
   10TAL    C5023287   8.357  -0.878  11.509  0.4232  0.4199  0.6708
   11HTM    C5123288   8.278  -0.871  12.376  0.3470  0.1678 -0.2282
   11HTM    C5223289   8.377  -0.797  12.434  0.4919  0.0174 -0.2811
   11HTM    C5323290   8.461  -0.872  12.523  0.4280 -0.1127 -0.3302
   11HTM    C5423291   8.427  -1.004  12.533  0.2344 -0.0615 -0.3152
   11HTM     S623292   8.284  -1.043  12.429  0.1169  0.1565 -0.2371
   12TAL    C5523293   8.580  -0.816  12.598 -0.8124  0.2757  0.3515
   12TAL    C5623294   8.523  -0.751  12.731  0.5048  0.5703 -0.0535
   12TAL    C5723295   8.625  -0.656  12.792  0.1821 -1.1271  0.1468
   12TAL    C5823296   8.579  -0.553  12.906 -0.4392 -0.7765  1.1417
   12TAL    C5923297   8.457  -0.461  12.908  0.1844 -0.4589  0.0223
   12TAL    C6023298   8.451  -0.338  12.813 -0.2108 -0.3321 -0.5725
   13HTM    C6123299   8.491  -1.116  12.590  0.9924  0.5728 -0.5207
   13HTM    C6223300   8.564  -1.210  12.524  1.5892  0.9131 -0.3631
   13HTM    C6323301   8.629  -1.305  12.610  1.4860  0.9577 -0.2360
   13HTM    C6423302   8.606  -1.284  12.743  0.8105  0.6514 -0.2964
   13HTM     S723303   8.499  -1.141  12.769  0.2480  0.2801 -0.5209
   14TAL    C6523304   8.710  -1.422  12.551 -0.9392 -0.5297 -0.0443
   14TAL    C6623305   8.702  -1.453  12.401 -0.3742  0.5238 -0.2394
   14TAL    C6723306   8.822  -1.532  12.347 -0.9748  0.7275  0.4219
   14TAL    C6823307   8.859  -1.671  12.408 -0.2967 -0.8639  0.9323
   14TAL    C6923308   8.944  -1.755  12.314 -0.9054  0.0560 -0.3257
   14TAL    C7023309   8.889  -1.829  12.190 -0.5031 -0.5060  0.4060
   15HTM    C7123310   8.663  -1.345  12.860  0.1975  0.2419 -0.0324
   15HTM    C7223311   8.689  -1.289  12.982  0.2059  0.2543 -0.0403
   15HTM    C7323312   8.759  -1.376  13.072  0.0802  0.2104  0.0162
   15HTM    C7423313   8.787  -1.498  13.019 -0.0241  0.1645  0.0667
   15HTM     S823314   8.726  -1.513  12.850  0.0289  0.1734  0.0471
   16TAL    C7523315   8.780  -1.333  13.201 -0.0844  0.3859 -0.9141
   16TAL    C7623316   8.901  -1.272  13.261 -0.4574 -0.4295  0.0659
   16TAL    C7723317   8.892  -1.289  13.403  0.0243 -0.5738 -0.9142
   16TAL    C7823318   9.026  -1.270  13.468 -0.0995 -0.0542 -1.4984
   16TAL    C7923319   9.018  -1.278  13.623 -0.7456 -0.5532 -0.8427
   16TAL    C8023320   9.154  -1.220  13.688  1.4247 -0.5249  0.1277
   17HTM    C8123321   8.837  -1.625  13.075  0.0101 -0.4641  0.0193
   17HTM    C8223322   8.783  -1.749  13.065  0.3110 -0.6350  0.4370
   17HTM    C8323323   8.850  -1.849  13.144  0.5321 -0.2024  0.8016
   17HTM    C8423324   8.956  -1.800  13.215  0.3998  0.2984  0.6621
   17HTM     S923325   8.978  -1.623  13.187 -0.0175  0.2624  0.0545
   18TAL    C8523326   8.789  -1.983  13.135  0.1891  0.2272 -0.4584
   18TAL    C8623327   8.666  -2.040  13.218  0.2209 -0.2985  0.4946
   18TAL    C8723328   8.530  -1.980  13.184  0.6965  1.2052  0.4715
   18TAL    C8823329   8.423  -2.022  13.283 -0.3707  0.1781  0.5824
   18TAL    C8923330   8.285  -1.959  13.287 -0.1608  0.0529 -0.2860
   18TAL    C9023331   8.178  -2.067  13.318  1.3572 -0.4568  0.2812
   19HTM    C9123332   9.054  -1.860  13.305  0.0745  0.4619 -0.1924
   19HTM    C9223333   9.047  -1.978  13.373 -0.3111  0.3713 -0.3805
   19HTM    C9323334   9.160  -2.002  13.460 -0.4953 -0.0306 -0.2439
   19HTM    C9423335   9.252  -1.902  13.458 -0.2501 -0.2468  0.0483
   19HTM    S1023336   9.204  -1.769  13.345  0.2362  0.0430  0.1744
   20TAL    C9523337   9.171  -2.132  13.550  0.4008 -0.3470  0.9331
   20TAL    C9623338   9.174  -2.132  13.699  0.0872 -0.5607  0.1879
   20TAL    C9723339   9.080  -2.042  13.779 -1.4018  0.8323 -0.2432
   20TAL    C9823340   8.930  -2.066  13.774 -0.3854  0.0780 -0.1897
   20TAL    C9923341   8.866  -2.209  13.743  0.0207 -0.0076  0.0127
   20TAL   C10023342   8.791  -2.240  13.600 -0.4067  1.1048 -0.3163
   21HTM   C10123343   9.377  -1.876  13.524 -0.1280  0.3844 -0.8005
   21HTM   C10223344   9.478  -1.963  13.552 -0.4196  0.2131 -0.2556
   21HTM   C10323345   9.595  -1.900  13.608 -0.6201  0.0101  0.4091
   21HTM   C10423346   9.583  -1.765  13.623 -0.4816  0.0269  0.3711
   21HTM    S1123347   9.422  -1.706  13.567 -0.0839  0.3021 -0.5139
   22TAL   C10523348   9.711  -1.987  13.641 -0.0036  0.9173 -0.6037
   22TAL   C10623349   9.689  -2.116  13.714 -0.9634  0.5898 -0.2735
   22TAL   C10723350   9.818  -2.183  13.772  0.9669  0.0660  0.6096
   22TAL   C10823351   9.898  -2.106  13.881  0.3496 -0.5632 -0.7818
   22TAL   C10923352  10.035  -2.144  13.926  0.3964 -0.0172 -0.1454
   22TAL   C11023353  10.146  -2.184  13.830  0.0950  0.1708  0.4626
   23HTM   C11123354   9.684  -1.677  13.686 -0.0955 -0.0288  0.3334
   23HTM   C11223355   9.654  -1.545  13.705 -0.0597  0.0304 -0.0086
   23HTM   C11323356   9.755  -1.473  13.778  0.0243  0.2269 -0.3157
   23HTM   C11423357   9.862  -1.549  13.815  0.0525  0.3175 -0.2080
   23HTM    S1223358   9.843  -1.720  13.760 -0.0254  0.1608  0.2939
   24TAL   C11523359   9.742  -1.328  13.828  0.4550  0.7568 -0.3780
   24TAL   C11623360   9.632  -1.240  13.780 -0.3511 -0.7006 -0.3804
   24TAL   C11723361   9.626  -1.155  13.659  0.0009 -0.3375 -0.3286
   24TAL   C11823362   9.685  -1.023  13.653  0.3296 -0.0716 -0.3970
   24TAL   C11923363   9.833  -1.002  13.645 -0.6886  1.4067  0.7896
   24TAL   C12023364   9.903  -0.873  13.605 -0.0311  0.4062 -0.6944
   25HTM   C12123365   9.980  -1.520  13.899  0.1310 -0.0988  0.3106
   25HTM   C12223366  10.099  -1.586  13.890  0.0381 -0.2935  0.4966
   25HTM   C12323367  10.192  -1.555  13.995  0.0238 -0.2464  0.4952
   25HTM   C12423368  10.144  -1.464  14.085  0.1058 -0.0159  0.3072
   25HTM    S1323369   9.977  -1.411  14.043  0.2083  0.1611  0.1171
   26TAL   C12523370  10.327  -1.624  13.992 -0.7254 -0.1905 -0.0180
   26TAL   C12623371  10.398  -1.643  14.121 -0.8343  0.2138 -1.0169
   26TAL   C12723372  10.549  -1.636  14.114 -0.8141 -0.2007 -1.1080
   26TAL   C12823373  10.623  -1.526  14.033  0.0554 -1.0036 -0.5061
   26TAL   C12923374  10.722  -1.567  13.929 -1.2580  0.4566  0.0317
   26TAL   C13023375  10.862  -1.610  13.973  0.6735  0.2198 -0.3150
   27HTM   C13123376  10.205  -1.390  14.191  0.1386  0.8464  0.0435
   27HTM   C13223377  10.275  -1.274  14.177  0.3159  0.7774  0.3390
   27HTM   C13323378  10.317  -1.216  14.302  0.4525  0.3687  0.4859
   27HTM   C13423379  10.279  -1.288  14.412  0.3792  0.1260  0.3021
   27HTM    S1423380  10.187  -1.435  14.365  0.1301  0.3970 -0.0728
   28TAL   C13523381  10.417  -1.091  14.312 -0.0305 -0.1972 -0.4386
   28TAL   C13623382  10.506  -1.045  14.201 -0.6139 -1.0288  0.3720
   28TAL   C13723383  10.611  -1.151  14.179 -0.1241 -0.7768  0.6803
   28TAL   C13823384  10.723  -1.151  14.071  0.0154  0.3355  0.5769
   28TAL   C13923385  10.830  -1.036  14.075  1.6270  0.3041 -0.9111
   28TAL   C14023386  10.787  -0.904  14.015  0.9328  0.0872 -0.0351
   29HTM   C14123387  10.308  -1.257  14.551  0.1347  0.4601  0.3445
   29HTM   C14223388  10.249  -1.168  14.636  0.6848  0.7408  0.4404
   29HTM   C14323389  10.311  -1.161  14.766  1.0647  0.6175  0.2673
   29HTM   C14423390  10.418  -1.245  14.780  0.8042  0.2426  0.0390
   29HTM    S1523391  10.447  -1.340  14.630  0.0530  0.0144  0.0257
   30TAL   C14523392  10.246  -1.063  14.861  0.5506  0.2578 -1.0606
   30TAL   C14623393  10.239  -0.920  14.823 -0.1872  0.2791 -0.1627
   30TAL   C14723394  10.365  -0.858  14.763  0.0724 -0.0294 -0.0437
   30TAL   C14823395  10.485  -0.825  14.844  0.3866 -0.5376 -0.5877
   30TAL   C14923396  10.608  -0.780  14.757  0.2306  0.1152  0.7611
   30TAL   C15023397  10.728  -0.719  14.828  0.6767  0.3297 -0.4172
   31HTM   C15123398  10.486  -1.274  14.903  0.7337  0.0360  0.1077
   31HTM   C15223399  10.605  -1.220  14.942  0.8694 -0.5602  0.5579
   31HTM   C15323400  10.639  -1.246  15.080  0.3134 -0.8975  0.6354
   31HTM   C15423401  10.545  -1.320  15.146 -0.2460 -0.5587  0.2447
   31HTM    S1623402  10.407  -1.363  15.039 -0.1132  0.2188 -0.2556
   32TAL   C15523403  10.773  -1.193  15.123 -0.4662 -0.2405  0.3587
   32TAL   C15623404  10.793  -1.048  15.164  0.5141 -0.2554  0.7861
   32TAL   C15723405  10.925  -1.009  15.236  0.0732 -0.1795 -0.3508
   32TAL   C15823406  11.069  -1.025  15.178 -0.7968 -0.0281  0.3525
   32TAL   C15923407  11.123  -0.953  15.059  0.0022 -0.1685 -0.0909
   32TAL   C16023408  11.073  -0.997  14.921 -0.4166 -0.2057 -1.0078
   33HTM   C16123409  10.533  -1.329  15.293 -0.6821  0.1343 -0.3114
   33HTM   C16223410  10.435  -1.399  15.357 -0.2877 -0.4067 -0.2823
   33HTM   C16323411  10.453  -1.406  15.500  0.0778 -0.7826 -0.3424
   33HTM   C16423412  10.565  -1.341  15.544 -0.0378 -0.5279 -0.4174
   33HTM    S1723413  10.657  -1.266  15.408 -0.6218  0.2119 -0.4175
   34TAL   C16523414  10.354  -1.470  15.588  0.9274 -0.0701 -0.2684
   34TAL   C16623415  10.302  -1.621  15.568 -0.9900  0.3386  0.6520
   34TAL   C16723416  10.219  -1.684  15.682 -0.8910 -0.7508  0.1157
   34TAL   C16823417  10.206  -1.832  15.692  0.7129 -0.6197  0.7619
   34TAL   C16923418  10.102  -1.856  15.803 -0.4320  0.9986  0.0993
   34TAL   C17023419  10.078  -2.015  15.800  0.6897 -0.4128 -0.3689
   35HTM   C17123420  10.622  -1.330  15.673 -0.2431  0.5565 -0.3918
   35HTM   C17223421  10.753  -1.309  15.702 -0.2068  0.6090 -0.5929
   35HTM   C17323422  10.781  -1.298  15.843  0.0968 -0.0460 -0.5922
   35HTM   C17423423  10.670  -1.310  15.921  0.2921 -0.5980 -0.3909
   35HTM    S1823424  10.522  -1.336  15.823  0.1061 -0.3313 -0.1850
   36TAL   C17523425  10.931  -1.266  15.874  0.2552  0.3282 -0.0888
   36TAL   C17623426  11.024  -1.378  15.918 -0.2791 -0.8337  0.5361
   36TAL   C17723427  11.009  -1.505  15.839 -0.0868 -0.9870  0.0583
   36TAL   C17823428  11.137  -1.599  15.845 -0.0938 -0.6361  0.0499
   36TAL   C17923429  11.189  -1.669  15.971 -0.6030 -0.0223 -0.1422
   36TAL   C18023430  11.276  -1.781  15.925 -0.2499 -0.6342 -0.8562
   37HTM   C18123431  10.671  -1.334  16.068  0.4620 -0.5544  0.0570
   37HTM   C18223432  10.695  -1.445  16.143  0.4154 -0.2986  0.4525
   37HTM   C18323433  10.703  -1.419  16.285  0.0038  0.1332  0.3977
   37HTM   C18423434  10.684  -1.288  16.317 -0.2635  0.2068 -0.0394
   37HTM    S1923435  10.655  -1.187  16.170 -0.0141 -0.2673 -0.4188
   38TAL   C18523436  10.721  -1.520  16.396 -0.0776  0.6980  0.0378
   38TAL   C18623437  10.877  -1.534  16.424 -0.8274  0.4368 -0.1696
   38TAL   C18723438  10.941  -1.658  16.489 -0.2951 -0.8062  0.2888
   38TAL   C18823439  10.908  -1.798  16.447 -0.0378  0.6558  0.8442
   38TAL   C18923440  10.927  -1.823  16.300 -0.6920 -1.3923 -0.1438
   38TAL   C19023441  10.871  -1.953  16.265  0.4357  0.0399  0.1977
   39HTM   C19123442  10.662  -1.220  16.448  0.2716  0.2629  0.1281
   39HTM   C19223443  10.747  -1.173  16.543  0.0103  0.5212  0.2360
   39HTM   C19323444  10.682  -1.098  16.647 -0.3801  0.1394  0.2728
   39HTM   C19423445  10.547  -1.088  16.630 -0.4164 -0.4099  0.1931
   39HTM    S2023446  10.491  -1.173  16.481  0.0431 -0.4882  0.0635
   40TAL   C19523447  10.748  -1.023  16.760  0.1537 -0.2829 -0.4148
   40TAL   C19623448  10.887  -1.081  16.799 -0.5130 -0.6294 -0.4700
   40TAL   C19723449  11.010  -1.005  16.740 -0.2977  0.0325 -0.1996
   40TAL   C19823450  11.027  -0.865  16.783  0.3637 -0.3720  0.4112
   40TAL   C19923451  11.132  -0.776  16.728 -0.4059  0.1504  0.1132
   40TAL   C20023452  11.110  -0.629  16.765  1.1366 -0.1634  0.5034
   41HTM   C20123453  10.454  -1.014  16.719 -0.6316  0.1258  0.0562
   41HTM   C20223454  10.352  -1.068  16.791 -0.8117  0.2902 -0.0734
   41HTM   C20323455  10.295  -0.977  16.887 -0.7823  0.3797 -0.1392
   41HTM   C20423456  10.353  -0.854  16.888 -0.5799  0.2834 -0.0608
   41HTM    S2123457  10.486  -0.843  16.767 -0.4093  0.0707  0.1047
   42TAL   C20523458  10.185  -1.015  16.985  1.1376 -0.0795 -0.4747
   42TAL   C20623459  10.064  -1.096  16.926 -0.3369 -1.3267  0.0371
   42TAL   C20723460   9.929  -1.108  17.010 -1.1955 -1.0248 -0.4682
   42TAL   C20823461   9.946  -1.151  17.162 -0.3816 -0.1221  0.3179
   42TAL   C20923462   9.837  -1.124  17.253  0.0772 -0.6316  0.7312
   42TAL   C21023463   9.683  -1.118  17.234 -0.3753 -0.1796  0.2912
   43HTM   C21123464  10.329  -0.737  16.970 -0.5047 -0.3929  0.8609
   43HTM   C21223465  10.359  -0.702  17.098 -0.3844 -0.1986  0.7792
   43HTM   C21323466  10.306  -0.573  17.137  0.3923  0.2614  0.3533
   43HTM   C21423467  10.236  -0.511  17.038  0.8643  0.4178  0.1108
   43HTM    S2223468  10.231  -0.610  16.887  0.3603 -0.0069  0.4026
   44TAL   C21523469  10.326  -0.535  17.280 -0.0029 -0.6094 -0.7710
   44TAL   C21623470  10.378  -0.624  17.404  0.0753 -0.2371  0.6142
   44TAL   C21723471  10.286  -0.737  17.436  0.6395  0.8629 -0.2025
   44TAL   C21823472  10.346  -0.860  17.500  0.3166 -0.1731 -0.2899
   44TAL   C21923473  10.302  -0.997  17.447 -0.6245 -0.7116  0.7788
   44TAL   C22023474  10.362  -1.117  17.524  0.1401  0.8384 -0.3337
   45HTM   C22123475  10.160  -0.385  17.028 -0.6584  0.0236  0.7366
   45HTM   C22223476  10.032  -0.369  16.982 -0.5264  0.1757  0.4201
   45HTM   C22323477   9.984  -0.234  16.993 -0.1736  0.3679 -0.2770
   45HTM   C22423478  10.074  -0.147  17.047 -0.0367  0.3623 -0.4927
   45HTM    S2323479  10.228  -0.230  17.089 -0.3451  0.1118  0.1739
   46TAL   C22523480   9.857  -0.187  16.931 -0.7245 -0.0773 -0.0271
   46TAL   C22623481   9.753  -0.293  16.907  0.3567 -0.2196  0.0461
   46TAL   C22723482   9.623  -0.236  16.849  0.6718  0.5076  0.7584
   46TAL   C22823483   9.536  -0.366  16.827 -0.3850 -0.3910 -0.0252
   46TAL   C22923484   9.392  -0.349  16.785 -0.2976  0.0953 -0.6281
   46TAL   C23023485   9.300  -0.474  16.809 -0.1772  0.8972 -0.0789
   47HTM   C23123486  10.083  -0.003  17.079  0.3191  0.0847  0.5051
   47HTM   C23223487  10.190   0.081  17.061  0.2371  0.1415  0.2756
   47HTM   C23323488  10.158   0.220  17.080  0.0086  0.2004 -0.5026
   47HTM   C23423489  10.027   0.243  17.111 -0.0838  0.1884 -0.8675
   47HTM    S2423490   9.933   0.089  17.120  0.1122  0.1010 -0.2507
   48TAL   C23523491  10.264   0.323  17.057 -0.0022  1.2852  0.0024
   48TAL   C23623492  10.222   0.471  17.075 -0.8894  0.1502  0.3043
   48TAL   C23723493  10.299   0.566  16.979  0.7111  0.2384  0.1800
   48TAL   C23823494  10.416   0.634  17.029  0.0779 -0.5320 -0.0173
   48TAL   C23923495  10.397   0.784  17.003 -0.1487  0.5085  0.8301
   48TAL   C24023496  10.514   0.860  17.053  0.0828 -0.1373  0.1329
    1HTM     C123497   4.683   6.907   6.552  0.0678 -0.3718 -0.1832
    1HTM     C223498   4.643   6.917   6.681  0.1055 -0.1525 -0.1881
    1HTM     C323499   4.751   6.928   6.776  0.1314  0.0838 -0.2432
    1HTM     C423500   4.874   6.925   6.718  0.1134  0.0445 -0.2803
    1HTM     S123501   4.863   6.910   6.539  0.0620 -0.2964 -0.2484
    2TAL     C523502   4.731   6.924   6.929  0.7327 -0.1740 -0.1319
    2TAL     C623503   4.621   6.826   6.991  0.1030 -0.2189 -0.1719
    2TAL     C723504   4.614   6.673   6.960  0.0864 -0.2853  0.4583
    2TAL     C823505   4.740   6.602   6.913  0.4625 -0.3898 -1.1094
    2TAL     C923506   4.717   6.454   6.905  0.0213 -0.4588  0.9946
    2TAL    C1023507   4.651   6.396   7.038 -1.1861  0.5789  1.1391
    3HTM    C1123508   5.006   6.941   6.783  0.0789  0.7993  0.1740
    3HTM    C1223509   5.044   7.022   6.885  0.4855  0.6044  0.1806
    3HTM    C1323510   5.187   7.031   6.902  0.5406  0.1358 -0.0141
    3HTM    C1423511   5.257   6.956   6.812  0.1758 -0.0263 -0.1692
    3HTM     S223512   5.148   6.868   6.699 -0.2687  0.4034 -0.0807
    4TAL    C1523513   5.251   7.130   6.995 -1.1352 -0.1373 -0.5132
    4TAL    C1623514   5.257   7.280   6.957 -0.2463  0.3216 -0.3653
    4TAL    C1723515   5.322   7.312   6.819  0.3152  0.1440  1.0409
    4TAL    C1823516   5.317   7.449   6.756 -0.5360  0.0369 -1.0585
    4TAL    C1923517   5.394   7.460   6.630 -0.4025 -0.6589 -0.2039
    4TAL    C2023518   5.425   7.603   6.601 -0.4991  0.1136 -0.1325
    5HTM    C2123519   5.401   6.949   6.791 -0.0672 -0.1029 -0.3099
    5HTM    C2223520   5.499   6.908   6.876 -0.2100 -0.8827 -0.5090
    5HTM    C2323521   5.632   6.931   6.827 -0.1231 -1.2721 -0.4650
    5HTM    C2423522   5.635   6.990   6.704  0.0857 -0.7892 -0.2323
    5HTM     S323523   5.469   7.022   6.641  0.1897  0.2025 -0.0493
    6TAL    C2523524   5.752   6.905   6.907  0.2933 -0.3401  0.4461
    6TAL    C2623525   5.787   6.770   6.938 -0.0169  0.9786 -0.4681
    6TAL    C2723526   5.806   6.672   6.812 -0.5364  0.6943 -0.3040
    6TAL    C2823527   5.950   6.696   6.744  0.7304 -0.5794 -0.2944
    6TAL    C2923528   6.074   6.627   6.806 -0.2228  0.2954  0.3372
    6TAL    C3023529   6.198   6.716   6.784  0.0312  0.0005 -0.2032
    7HTM    C3123530   5.747   7.054   6.626 -0.1785  0.3800 -0.3318
    7HTM    C3223531   5.860   6.993   6.581 -0.6653  0.0625 -1.1798
    7HTM    C3323532   5.939   7.076   6.494 -0.9816 -0.0886 -1.6153
    7HTM    C3423533   5.886   7.200   6.472 -0.7360  0.1139 -1.0996
    7HTM     S423534   5.730   7.221   6.561 -0.0812  0.5140 -0.0154
    8TAL    C3523535   6.071   7.044   6.432 -0.6326  0.0832 -0.4689
    8TAL    C3623536   6.182   6.995   6.536  0.0821 -0.5561 -0.3971
    8TAL    C3723537   6.321   6.970   6.466  1.1864  0.2077 -0.2459
    8TAL    C3823538   6.436   6.949   6.569  0.1306  0.1905  0.8141
    8TAL    C3923539   6.543   6.858   6.514 -0.6085  0.9941 -0.3461
    8TAL    C4023540   6.672   6.868   6.607  0.0973  0.4899 -0.2433
    9HTM    C4123541   5.940   7.311   6.404 -0.1075 -0.0740  0.2840
    9HTM    C4223542   5.855   7.410   6.365  0.0569  0.0702  0.2923
    9HTM    C4323543   5.918   7.512   6.286  0.2122 -0.0594  0.2483
    9HTM    C4423544   6.051   7.491   6.264  0.1665 -0.3022  0.2061
    9HTM     S523545   6.107   7.338   6.342 -0.0780 -0.3869  0.2190
   10TAL    C4523546   5.840   7.636   6.234  0.3554 -1.0928 -0.7167
   10TAL    C4623547   5.696   7.652   6.286  0.2295  0.7943 -0.0847
   10TAL    C4723548   5.623   7.728   6.186  1.2645  0.2622  0.4435
   10TAL    C4823549   5.464   7.704   6.185 -0.4432 -0.3098 -0.0166
   10TAL    C4923550   5.418   7.571   6.143  0.0917  0.2661 -0.3612
   10TAL    C5023551   5.274   7.561   6.095 -0.4469 -1.2423  0.1346
   11HTM    C5123552   6.154   7.560   6.198 -0.5791 -0.1909  0.2477
   11HTM    C5223553   6.153   7.604   6.069 -0.9017  0.1449  0.3592
   11HTM    C5323554   6.283   7.643   6.020 -1.0364  0.3497  0.1615
   11HTM    C5423555   6.383   7.629   6.112 -0.8167  0.1701 -0.1006
   11HTM     S623556   6.320   7.566   6.268 -0.4193 -0.2752 -0.1186
   12TAL    C5523557   6.308   7.677   5.876 -0.3529 -0.1017  0.2066
   12TAL    C5623558   6.232   7.804   5.820  1.1271  0.8489 -1.2707
   12TAL    C5723559   6.310   7.933   5.791 -0.7931  0.0214  1.0726
   12TAL    C5823560   6.227   8.045   5.724 -0.2877  0.0234  0.4244
   12TAL    C5923561   6.289   8.172   5.662  1.0895 -0.4278 -1.3658
   12TAL    C6023562   6.191   8.280   5.617  0.8668  0.3242 -0.3543
   13HTM    C6123563   6.525   7.659   6.108 -0.1287  0.0244 -0.3120
   13HTM    C6223564   6.596   7.715   6.211 -0.2831 -0.2664 -0.0427
   13HTM    C6323565   6.734   7.741   6.178 -0.1274 -0.5486  0.3775
   13HTM    C6423566   6.768   7.705   6.051  0.1455 -0.4728  0.4285
   13HTM     S723567   6.628   7.635   5.962  0.2281 -0.0359 -0.0538
   14TAL    C6523568   6.823   7.825   6.270  0.4619  1.1088 -0.9478
   14TAL    C6623569   6.760   7.881   6.401 -0.0714 -0.3492 -0.3313
   14TAL    C6723570   6.782   8.033   6.440 -0.3802 -0.2688 -0.0212
   14TAL    C6823571   6.661   8.093   6.501  0.2612 -0.2904  0.4041
   14TAL    C6923572   6.655   8.246   6.526 -0.4827  0.1669  0.6305
   14TAL    C7023573   6.521   8.290   6.578 -0.5931  0.6193 -0.0666
   15HTM    C7123574   6.904   7.676   5.997  0.0268  0.0019  0.0133
   15HTM    C7223575   6.924   7.614   5.878  0.0824 -0.2320  0.1427
   15HTM    C7323576   7.062   7.606   5.838  0.0861 -0.1578  0.1409
   15HTM    C7423577   7.148   7.663   5.928  0.0334  0.1329  0.0105
   15HTM     S823578   7.060   7.730   6.070 -0.0253  0.3368 -0.1215
   16TAL    C7523579   7.102   7.551   5.695  1.1628 -0.4570 -0.4889
   16TAL    C7623580   7.008   7.602   5.572 -0.5847 -0.3882 -0.7225
   16TAL    C7723581   7.047   7.542   5.434 -1.4561  0.1315  0.0499
   16TAL    C7823582   7.048   7.397   5.411  0.8358  0.1516  0.1582
   16TAL    C7923583   7.047   7.352   5.263  0.2239  0.6443 -0.4289
   16TAL    C8023584   7.189   7.355   5.192  0.0330 -0.1032 -0.3892
   17HTM    C8123585   7.289   7.707   5.937 -0.2627 -0.0447  0.0217
   17HTM    C8223586   7.357   7.778   6.031 -0.6717  1.0496 -0.4754
   17HTM    C8323587   7.499   7.778   6.012 -0.6762  1.9999 -0.6192
   17HTM    C8423588   7.540   7.706   5.904 -0.2704  1.6302 -0.2318
   17HTM     S923589   7.401   7.633   5.816  0.1521  0.0408  0.3494
   18TAL    C8523590   7.583   7.841   6.123  0.1175 -0.5234  0.8716
   18TAL    C8623591   7.637   7.756   6.238  0.5799 -0.2795 -0.3171
   18TAL    C8723592   7.751   7.826   6.300 -0.3901  0.6617  0.0197
   18TAL    C8823593   7.723   7.933   6.415  0.5577  0.5809  0.0449
   18TAL    C8923594   7.636   7.895   6.530  0.0036 -0.1380 -0.4430
   18TAL    C9023595   7.706   7.796   6.619 -1.0242  0.2853  0.5745
   19HTM    C9123596   7.669   7.719   5.834  0.2499 -0.4332  0.2099
   19HTM    C9223597   7.796   7.752   5.871 -0.0248  0.6924  0.2142
   19HTM    C9323598   7.886   7.771   5.761 -0.1420  1.3727  0.2216
   19HTM    C9423599   7.829   7.751   5.639  0.0433  0.7659  0.2232
   19HTM    S1023600   7.654   7.708   5.654  0.3828 -0.7235  0.2150
   20TAL    C9523601   8.036   7.791   5.777  0.3246 -0.5797  0.6006
   20TAL    C9623602   8.127   7.680   5.810 -0.7506 -0.1501  0.3292
   20TAL    C9723603   8.226   7.717   5.923  0.2072  0.7401  0.6077
   20TAL    C9823604   8.214   7.636   6.052 -0.2323  0.2453  0.1298
   20TAL    C9923605   8.193   7.483   6.063 -0.3876  0.1563 -0.4699
   20TAL   C10023606   8.277   7.390   5.980  0.0418 -0.9011  0.0624
   21HTM   C10123607   7.901   7.756   5.505 -0.4132 -0.1942 -0.0285
   21HTM   C10223608   7.950   7.872   5.455 -0.9766  0.1246  0.1370
   21HTM   C10323609   8.031   7.855   5.336 -1.0115  0.7006  0.0228
   21HTM   C10423610   8.043   7.725   5.297 -0.4747  0.8211 -0.2299
   21HTM    S1123611   7.952   7.614   5.406  0.1213  0.2116 -0.3439
   22TAL   C10523612   8.104   7.965   5.264  0.2417 -0.0636  0.3370
   22TAL   C10623613   8.055   8.115   5.276  0.1670 -0.6999 -0.1409
   22TAL   C10723614   8.110   8.202   5.163 -0.6743 -0.2440 -0.5614
   22TAL   C10823615   8.086   8.157   5.017  0.7768 -0.3245  0.9843
   22TAL   C10923616   7.941   8.141   4.967  0.5375 -0.8152 -0.6147
   22TAL   C11023617   7.930   8.089   4.825  0.2929 -0.2388 -1.2455
   23HTM   C11123618   8.133   7.651   5.205  0.3850  0.5681  0.4857
   23HTM   C11223619   8.136   7.515   5.197  0.1318  0.5256  1.0093
   23HTM   C11323620   8.243   7.465   5.114 -0.2238  0.0244  0.8489
   23HTM   C11423621   8.320   7.562   5.059 -0.2419 -0.3152  0.2032
   23HTM    S1223622   8.265   7.727   5.108  0.1923 -0.0262 -0.2561
   24TAL   C11523623   8.272   7.317   5.100  0.4342  0.0472  0.8462
   24TAL   C11623624   8.188   7.220   5.181 -1.1526 -0.6473 -0.2263
   24TAL   C11723625   8.166   7.074   5.137 -0.2734  1.0635  0.4198
   24TAL   C11823626   8.282   6.977   5.171  0.3844 -0.0502  0.3465
   24TAL   C11923627   8.273   6.829   5.133 -0.2394 -0.5599 -0.3222
   24TAL   C12023628   8.401   6.746   5.120  0.0923  0.0774  0.6115
   25HTM   C12123629   8.442   7.548   4.977  0.3039 -0.5600  0.1755
   25HTM   C12223630   8.571   7.508   4.996 -0.0067 -1.7785 -0.1364
   25HTM   C12323631   8.651   7.511   4.877 -0.1350 -2.0924 -0.2352
   25HTM   C12423632   8.584   7.555   4.767  0.0776 -1.1133  0.0011
   25HTM    S1323633   8.413   7.595   4.805  0.4595  0.2921  0.3696
   26TAL   C12523634   8.794   7.472   4.874  0.0896  0.1695 -0.9812
   26TAL   C12623635   8.846   7.343   4.938  0.0727  0.0462 -1.4110
   26TAL   C12723636   8.781   7.213   4.900  1.1976  0.1484 -0.3290
   26TAL   C12823637   8.834   7.087   4.950 -0.2566  0.5311  0.4497
   26TAL   C12923638   8.716   7.006   4.991  0.3506 -0.6733 -0.5631
   26TAL   C13023639   8.747   6.860   5.006 -0.0517  0.3576  0.8151
   27HTM   C13123640   8.625   7.583   4.623  0.1104  0.9432  0.0667
   27HTM   C13223641   8.553   7.651   4.529  0.4729  0.9963 -0.1756
   27HTM   C13323642   8.602   7.633   4.395  0.4560  0.3486 -0.1028
   27HTM   C13423643   8.711   7.552   4.387  0.0805 -0.1983  0.1951
   27HTM    S1423644   8.761   7.491   4.549 -0.2837  0.0642  0.4084
   28TAL   C13523645   8.544   7.716   4.280  0.1083 -0.5569  0.0814
   28TAL   C13623646   8.512   7.651   4.149 -0.3344 -1.0720  0.3635
   28TAL   C13723647   8.429   7.753   4.063  0.0266  0.4115  0.4514
   28TAL   C13823648   8.421   7.720   3.912 -0.1758  0.4370 -0.1884
   28TAL   C13923649   8.369   7.836   3.840 -0.7447 -0.1564  0.1285
   28TAL   C14023650   8.393   7.842   3.692 -0.4913  0.3171  0.3246
   29HTM   C14123651   8.779   7.481   4.281 -0.2716 -0.8662  1.2166
   29HTM   C14223652   8.905   7.509   4.238 -0.2345 -0.5073  1.5436
   29HTM   C14323653   8.949   7.425   4.129 -0.1349  0.3508  0.9003
   29HTM   C14423654   8.856   7.333   4.090 -0.0961  0.6463  0.0825
   29HTM    S1523655   8.705   7.346   4.187 -0.1831 -0.1425  0.0615
   30TAL   C14523656   9.094   7.441   4.066  0.0086 -0.5434 -0.0269
   30TAL   C14623657   9.202   7.352   4.139  0.2309 -0.1890  0.3352
   30TAL   C14723658   9.331   7.341   4.066 -0.4920 -1.1092 -0.3069
   30TAL   C14823659   9.343   7.326   3.908  0.0797  0.5512  0.1598
   30TAL   C14923660   9.484   7.285   3.877  0.5224  0.3868 -0.4682
   30TAL   C15023661   9.531   7.303   3.733 -0.1882  0.7627  0.2882
   31HTM   C15123662   8.860   7.226   3.991 -0.4117  0.1060  0.4563
   31HTM   C15223663   8.968   7.151   3.955 -0.3903 -0.0306  0.7995
   31HTM   C15323664   8.942   7.061   3.846 -0.1276  0.0802  0.6449
   31HTM   C15423665   8.815   7.067   3.798  0.0513  0.3015  0.1837
   31HTM    S1623666   8.716   7.188   3.889 -0.0993  0.3875 -0.0930
   32TAL   C15523667   9.052   6.976   3.786  0.6268 -0.6699 -0.0965
   32TAL   C15623668   9.127   7.046   3.672 -0.7598 -1.1610  0.2115
   32TAL   C15723669   9.225   6.956   3.601  0.5238  0.5807 -0.1279
   32TAL   C15823670   9.286   7.020   3.483  0.0040  0.1933  0.5066
   32TAL   C15923671   9.410   6.940   3.424  0.4373 -0.2541  0.0881
   32TAL   C16023672   9.483   7.007   3.306  0.0283 -0.5837  0.0239
   33HTM   C16123673   8.748   7.002   3.690 -0.2587  0.2867  0.2286
   33HTM   C16223674   8.798   6.961   3.570  0.1372  0.7327  0.2357
   33HTM   C16323675   8.697   6.944   3.468  0.4342  0.8194 -0.0777
   33HTM   C16423676   8.570   6.971   3.511  0.2647  0.4397 -0.3238
   33HTM    S1723677   8.569   7.022   3.684 -0.2874 -0.0608 -0.1777
   34TAL   C16523678   8.737   6.888   3.338  0.5322  0.0811 -0.0314
   34TAL   C16623679   8.865   6.931   3.267  0.2261  0.1955 -0.4869
   34TAL   C16723680   8.835   6.981   3.126  1.1259  0.4241 -0.3453
   34TAL   C16823681   8.747   7.116   3.133 -0.6309  0.9072  0.1811
   34TAL   C16923682   8.725   7.140   2.989  0.2146  0.8190  0.0498
   34TAL   C17023683   8.656   7.276   2.975 -0.0082  0.7373 -0.2505
   35HTM   C17123684   8.439   6.956   3.448  0.3986 -0.0200 -0.0982
   35HTM   C17223685   8.321   7.003   3.496  0.6498  0.2507  0.2683
   35HTM   C17323686   8.208   6.974   3.411  0.3113  0.4569  0.6396
   35HTM   C17423687   8.241   6.905   3.298 -0.1980  0.3434  0.5562
   35HTM    S1823688   8.418   6.871   3.290 -0.2904 -0.0358 -0.0021
   36TAL   C17523689   8.063   6.997   3.443  0.7900  0.8731  0.6143
   36TAL   C17623690   8.026   7.038   3.588 -0.5722 -0.5365  0.9245
   36TAL   C17723691   7.879   7.066   3.567 -0.0944 -0.4707 -0.2846
   36TAL   C17823692   7.813   7.142   3.685 -0.1248  0.8694 -0.4855
   36TAL   C17923693   7.662   7.135   3.681 -0.2342  0.5395 -0.3846
   36TAL   C18023694   7.607   6.997   3.711 -0.9693  0.7475  1.3278
   37HTM   C18123695   8.158   6.878   3.176 -0.1664  0.2990 -0.2238
   37HTM   C18223696   8.154   6.755   3.118 -0.6893 -0.0284  0.4641
   37HTM   C18323697   8.043   6.737   3.028 -1.0159 -0.2239  0.9037
   37HTM   C18423698   7.962   6.846   3.019 -0.7421 -0.0456  0.5510
   37HTM    S1923699   8.020   6.981   3.123 -0.0450  0.3864 -0.3710
   38TAL   C18523700   8.032   6.610   2.946  0.6589  1.0677  0.2419
   38TAL   C18623701   8.165   6.550   2.915 -0.1743 -0.2388  0.8154
   38TAL   C18723702   8.158   6.418   2.848 -0.1552  0.7714  0.3439
   38TAL   C18823703   8.296   6.358   2.821 -0.4431  0.0913  0.3005
   38TAL   C18923704   8.364   6.379   2.685  0.9435  0.6461  0.6738
   38TAL   C19023705   8.364   6.515   2.615  0.7780 -0.2682 -0.2367
   39HTM   C19123706   7.857   6.873   2.923  0.1183  0.1039 -0.2447
   39HTM   C19223707   7.859   6.980   2.840  0.0387 -0.1324 -0.5556
   39HTM   C19323708   7.752   6.980   2.743 -0.0591 -0.4057 -0.4498
   39HTM   C19423709   7.670   6.872   2.752 -0.0541 -0.3777 -0.0583
   39HTM    S2023710   7.720   6.762   2.885  0.0756 -0.0012  0.2092
   40TAL   C19523711   7.736   7.094   2.652  0.9061 -0.3399  0.7888
   40TAL   C19623712   7.826   7.076   2.535 -0.3550 -0.1084  0.8099
   40TAL   C19723713   7.789   6.961   2.431 -0.1653 -0.1167  0.1889
   40TAL   C19823714   7.649   6.960   2.370  0.3296 -0.3096 -0.5640
   40TAL   C19923715   7.619   6.837   2.274  0.4494 -0.6336 -1.4410
   40TAL   C20023716   7.478   6.881   2.221  0.2165 -0.8328 -0.2173
   41HTM   C20123717   7.558   6.836   2.678  0.1031 -0.0469 -0.1936
   41HTM   C20223718   7.536   6.709   2.633  0.1494  0.0418 -0.4705
   41HTM   C20323719   7.401   6.687   2.586  0.1118  0.0484 -0.3651
   41HTM   C20423720   7.321   6.796   2.596  0.0369 -0.0356 -0.0078
   41HTM    S2123721   7.409   6.937   2.665  0.0077 -0.1300  0.2251
   42TAL   C20523722   7.339   6.564   2.527  1.3483  0.8909 -0.3293
   42TAL   C20623723   7.429   6.438   2.521 -0.7378 -0.3962 -0.4037
   42TAL   C20723724   7.360   6.337   2.432 -0.1181  0.0484 -0.1586
   42TAL   C20823725   7.463   6.230   2.401  0.6101  0.3051 -0.6996
   42TAL   C20923726   7.411   6.100   2.331 -0.2354 -0.6797  0.5785
   42TAL   C21023727   7.524   6.013   2.300 -0.8680  0.3533 -0.1552
   43HTM   C21123728   7.182   6.824   2.585 -0.0219  0.0586  0.0882
   43HTM   C21223729   7.109   6.844   2.471 -0.0423 -0.0393  0.0840
   43HTM   C21323730   6.968   6.853   2.495 -0.0274  0.1125  0.1192
   43HTM   C21423731   6.932   6.839   2.626  0.0045  0.3266  0.1502
   43HTM    S2223732   7.077   6.814   2.731  0.0183  0.3528  0.1373
   44TAL   C21523733   6.866   6.872   2.385  0.3502  0.3138  0.3178
   44TAL   C21623734   6.935   6.896   2.248  0.0739  1.4213  0.0282
   44TAL   C21723735   6.848   6.902   2.125  0.0777  0.2490  0.6658
   44TAL   C21823736   6.759   7.021   2.097  0.1721 -0.4929  0.3574
   44TAL   C21923737   6.664   7.013   1.981  0.2747  0.0059 -0.5031
   44TAL   C22023738   6.706   6.935   1.850 -0.5853  0.0323  0.0851
   45HTM   C22123739   6.802   6.850   2.693 -0.2071  0.9485  0.3290
   45HTM   C22223740   6.771   6.814   2.820 -0.0778  1.1859  0.4290
   45HTM   C22323741   6.631   6.829   2.852 -0.1402  0.7319  0.3726
   45HTM   C22423742   6.556   6.875   2.748 -0.3170  0.1483  0.2295
   45HTM    S2323743   6.657   6.905   2.601 -0.4192  0.1267  0.1545
   46TAL   C22523744   6.584   6.788   2.990  0.2482 -0.6080  0.3921
   46TAL   C22623745   6.554   6.639   3.007 -0.4492  0.5434  0.6611
   46TAL   C22723746   6.557   6.612   3.158 -0.1554 -0.3251  0.6751
   46TAL   C22823747   6.589   6.481   3.213 -0.4571  0.1068  0.3074
   46TAL   C22923748   6.729   6.422   3.215  1.0994 -0.5863 -0.0670
   46TAL   C23023749   6.757   6.297   3.291 -0.4825 -0.6955 -1.4882
   47HTM   C23123750   6.415   6.905   2.747  0.0755 -0.8444  0.1958
   47HTM   C23223751   6.338   6.925   2.636  0.0392 -0.9540  0.2018
   47HTM   C23323752   6.204   6.970   2.666  0.1973 -0.4652  0.1795
   47HTM   C23423753   6.180   6.985   2.799  0.3541  0.0171  0.1563
   47HTM    S2423754   6.325   6.943   2.898  0.3143 -0.1097  0.1610
   48TAL   C23523755   6.102   6.982   2.554  0.2941 -1.1957 -0.7573
   48TAL   C23623756   5.958   7.010   2.597  0.0706  1.0082  0.2996
   48TAL   C23723757   5.869   7.059   2.487 -0.9698 -0.3463 -1.1054
   48TAL   C23823758   5.902   7.194   2.423  0.4901  0.2749 -0.0623
   48TAL   C23923759   5.837   7.201   2.291  0.2203 -0.8352 -0.0408
   48TAL   C24023760   5.850   7.346   2.221 -0.2746  0.9321 -0.4908
    1HTM     C123761   1.187   5.158  23.435 -0.3048  0.4799  0.2068
    1HTM     C223762   1.234   5.031  23.417 -0.0238  0.6642 -0.4063
    1HTM     C323763   1.133   4.929  23.432  0.2508  0.3521 -0.6452
    1HTM     C423764   1.009   4.979  23.461  0.1792 -0.0700 -0.2144
    1HTM     S123765   1.011   5.159  23.473 -0.2438 -0.1068  0.5327
    2TAL     C523766   1.154   4.779  23.409 -0.5454 -0.4741 -0.4822
    2TAL     C623767   1.180   4.746  23.256 -0.7783 -0.3790  0.3988
    2TAL     C723768   1.094   4.634  23.198  0.2818  0.6390 -0.0543
    2TAL     C823769   1.167   4.587  23.073 -0.3085 -0.6169 -0.4410
    2TAL     C923770   1.093   4.458  23.011 -0.4587 -0.1843  0.9270
    2TAL    C1023771   1.146   4.393  22.881  0.1616 -0.1259  0.4179
    3HTM    C1123772   0.886   4.921  23.493  0.2276  0.1715  1.0560
    3HTM    C1223773   0.768   4.990  23.493  0.1960  0.1198  1.4515
    3HTM    C1323774   0.658   4.915  23.548  0.1918 -0.3124  0.8702
    3HTM    C1423775   0.691   4.789  23.589  0.2203 -0.5900  0.0315
    3HTM     S223776   0.866   4.755  23.561  0.2548 -0.3252 -0.0895
    4TAL    C1523777   0.517   4.981  23.532 -1.7861  1.0426  0.2070
    4TAL    C1623778   0.442   4.942  23.414 -0.7631  0.4228  1.0915
    4TAL    C1723779   0.304   5.010  23.408  1.1542 -0.0535 -0.5940
    4TAL    C1823780   0.210   4.982  23.289  0.0705  0.5612 -0.0993
    4TAL    C1923781   0.127   4.846  23.308  0.1558  0.0400  0.2241
    4TAL    C2023782   0.052   4.836  23.177  0.1422 -0.3692  0.8614
    5HTM    C2123783   0.624   4.690  23.661 -0.0158 -0.1271 -0.1441
    5HTM    C2223784   0.608   4.558  23.634 -0.0366 -0.0839 -0.3476
    5HTM    C2323785   0.524   4.489  23.728  0.0586 -0.2432 -0.3777
    5HTM    C2423786   0.476   4.569  23.828  0.1519 -0.4078 -0.1973
    5HTM     S323787   0.533   4.739  23.809  0.1267 -0.3742  0.0266
    6TAL    C2523788   0.498   4.338  23.717  0.0362 -1.4475  0.1832
    6TAL    C2623789   0.372   4.285  23.642  0.9337  0.0723 -1.0364
    6TAL    C2723790   0.366   4.133  23.663  0.3715  0.7708 -0.0304
    6TAL    C2823791   0.481   4.045  23.617 -0.4869  0.0398  0.0537
    6TAL    C2923792   0.541   3.946  23.704  0.9690 -0.0702  0.1947
    6TAL    C3023793   0.591   4.017  23.839 -0.2751  1.1601  0.7390
    7HTM    C3123794   0.399   4.535  23.947  0.4543  0.2336  0.1363
    7HTM    C3223795   0.415   4.440  24.043  1.2108  1.0513  0.8554
    7HTM    C3323796   0.320   4.450  24.151  1.3245  1.2814  0.9365
    7HTM    C3423797   0.232   4.553  24.137  0.6547  0.6391  0.2790
    7HTM     S423798   0.261   4.646  23.986 -0.1780 -0.3134 -0.4985
    8TAL    C3523799   0.301   4.344  24.253  0.7670 -0.0702  0.5165
    8TAL    C3623800   0.354   4.202  24.228 -0.7611 -0.3756 -0.4885
    8TAL    C3723801   0.491   4.180  24.294 -0.2597 -0.7980  0.5324
    8TAL    C3823802   0.507   4.191  24.443 -0.4685 -0.1955 -0.4140
    8TAL    C3923803   0.442   4.070  24.522  0.8688  0.1776 -0.2619
    8TAL    C4023804   0.525   4.033  24.649 -0.3681  0.2155 -0.0491
    9HTM    C4123805   0.121   4.590  24.228  0.3306 -0.0021 -0.2044
    9HTM    C4223806   0.049   4.705  24.212  0.2957 -0.0356 -0.2866
    9HTM    C4323807  -0.060   4.719  24.305  0.4712  0.1372 -0.1054
    9HTM    C4423808  -0.071   4.615  24.392  0.6402  0.3027  0.1151
    9HTM     S523809   0.057   4.490  24.363  0.5900  0.2523  0.1114
   10TAL    C4523810  -0.162   4.835  24.301 -0.7821 -0.6439  0.3496
   10TAL    C4623811  -0.100   4.962  24.226 -0.0820  0.2822  1.1840
   10TAL    C4723812  -0.186   5.082  24.215  0.9071 -0.2345 -0.6386
   10TAL    C4823813  -0.334   5.054  24.169 -0.3775 -0.4776 -0.6186
   10TAL    C4923814  -0.394   5.188  24.110 -0.6493 -0.5510 -0.5282
   10TAL    C5023815  -0.399   5.172  23.962  0.0794  0.3384  0.2696
   11HTM    C5123816  -0.173   4.576  24.485  0.8684 -0.2458  0.5202
   11HTM    C5223817  -0.265   4.655  24.547  1.0563 -0.0820  0.5941
   11HTM    C5323818  -0.343   4.585  24.646  0.7921 -0.0279  0.4282
   11HTM    C5423819  -0.309   4.454  24.660  0.4029 -0.1504  0.2277
   11HTM     S623820  -0.176   4.407  24.547  0.3392 -0.3452  0.2320
   12TAL    C5523821  -0.442   4.669  24.727 -0.6793 -0.4234 -0.0620
   12TAL    C5623822  -0.391   4.749  24.848 -1.1068  1.1658  0.5339
   12TAL    C5723823  -0.449   4.882  24.876  0.2384 -0.9451 -0.5980
   12TAL    C5823824  -0.397   4.954  25.003  0.2348  0.6346 -0.6047
   12TAL    C5923825  -0.383   4.864  25.130 -0.1173  0.2807 -0.0928
   12TAL    C6023826  -0.414   4.933  25.259  0.0934 -0.6072 -0.0161
   13HTM    C6123827  -0.360   4.357  24.757 -0.2999  0.0787  0.0499
   13HTM    C6223828  -0.378   4.359  24.892  0.2275 -0.5865  0.1421
   13HTM    C6323829  -0.439   4.239  24.944  0.3877 -0.8254 -0.2189
   13HTM    C6423830  -0.466   4.146  24.848 -0.0176 -0.3425 -0.5859
   13HTM     S723831  -0.417   4.203  24.684 -0.6379  0.4579 -0.5042
   14TAL    C6523832  -0.476   4.222  25.088 -0.3986 -0.3989  0.2101
   14TAL    C6623833  -0.531   4.342  25.165  0.0673  0.0776  0.0179
   14TAL    C6723834  -0.576   4.321  25.310 -0.2861  0.1967 -0.0210
   14TAL    C6823835  -0.645   4.185  25.349  0.1740  1.0156 -0.4867
   14TAL    C6923836  -0.652   4.165  25.498  0.3883 -0.1071  0.7549
   14TAL    C7023837  -0.717   4.032  25.521  0.3204 -0.3151 -0.4515
   15HTM    C7123838  -0.538   4.023  24.863 -0.3903 -0.4145 -0.3696
   15HTM    C7223839  -0.670   3.999  24.837 -0.1484 -1.0405 -1.0972
   15HTM    C7323840  -0.714   3.869  24.880  0.1181 -1.0700 -0.9060
   15HTM    C7423841  -0.617   3.794  24.939  0.0793 -0.4668 -0.0326
   15HTM     S823842  -0.460   3.883  24.944 -0.2998  0.1907  0.6205
   16TAL    C7523843  -0.866   3.822  24.865  0.0923  0.2687 -0.2485
   16TAL    C7623844  -0.921   3.752  24.751 -0.2992  0.0133  0.8470
   16TAL    C7723845  -0.821   3.654  24.680 -0.6640 -0.0193  0.1485
   16TAL    C7823846  -0.883   3.597  24.551 -0.7017 -0.8911 -0.0906
   16TAL    C7923847  -0.900   3.440  24.532 -0.3816 -0.3206 -0.5895
   16TAL    C8023848  -0.775   3.366  24.493  0.4885 -0.4674  0.0969
   17HTM    C8123849  -0.623   3.655  24.977 -0.5061  0.5971  0.7830
   17HTM    C8223850  -0.616   3.554  24.886 -0.0064  0.9972  0.3629
   17HTM    C8323851  -0.576   3.428  24.943  0.4293  0.9083 -0.1206
   17HTM    C8423852  -0.553   3.433  25.078  0.2617  0.4402 -0.0699
   17HTM     S923853  -0.580   3.599  25.143 -0.4649  0.0728  0.5979
   18TAL    C8523854  -0.591   3.301  24.862  0.6762 -1.0705  1.4112
   18TAL    C8623855  -0.468   3.268  24.780 -0.0068 -0.8632  0.6339
   18TAL    C8723856  -0.472   3.132  24.715 -0.3423  0.8776  1.0082
   18TAL    C8823857  -0.327   3.085  24.664  0.5322 -1.4330  0.3147
   18TAL    C8923858  -0.278   3.164  24.538 -0.8657 -0.0158  0.4661
   18TAL    C9023859  -0.187   3.083  24.443 -0.0350  0.1877 -0.8529
   19HTM    C9123860  -0.528   3.328  25.175  0.5624  0.4286 -0.1505
   19HTM    C9223861  -0.565   3.336  25.306  0.3855  0.4068 -0.1974
   19HTM    C9323862  -0.531   3.219  25.383 -0.2472  0.1519 -0.2995
   19HTM    C9423863  -0.470   3.122  25.310 -0.5528 -0.0209 -0.3307
   19HTM    S1023864  -0.449   3.170  25.138 -0.0612  0.1263 -0.2327
   20TAL    C9523865  -0.557   3.218  25.530  0.5834 -0.1015  0.0308
   20TAL    C9623866  -0.519   3.332  25.617 -0.4842  0.9724 -0.5234
   20TAL    C9723867  -0.555   3.334  25.776 -0.6195  0.8375  0.3416
   20TAL    C9823868  -0.707   3.335  25.809 -0.1541 -0.0266 -0.1773
   20TAL    C9923869  -0.762   3.381  25.946  1.0932  0.5407  0.1837
   20TAL   C10023870  -0.680   3.346  26.072  0.9065 -0.3039  0.1498
   21HTM   C10123871  -0.403   2.994  25.354  0.9595  0.0357 -0.2138
   21HTM   C10223872  -0.308   2.919  25.292  1.6388  0.1760  0.6132
   21HTM   C10323873  -0.276   2.796  25.361  1.3279  0.2941  0.9723
   21HTM   C10423874  -0.347   2.778  25.476  0.4113  0.2440  0.4189
   21HTM    S1123875  -0.460   2.915  25.506 -0.1341  0.0420 -0.6063
   22TAL   C10523876  -0.192   2.684  25.290  0.1119 -0.4023  0.7778
   22TAL   C10623877  -0.233   2.656  25.142  1.0247 -0.4951 -1.3615
   22TAL   C10723878  -0.140   2.718  25.045  1.3605  0.8777 -0.2871
   22TAL   C10823879  -0.200   2.732  24.904  0.4252 -0.0984  0.4606
   22TAL   C10923880  -0.203   2.632  24.787 -0.7570 -0.5744 -0.5724
   22TAL   C11023881  -0.252   2.705  24.657  0.0533  0.3874 -0.2071
   23HTM   C11123882  -0.347   2.675  25.575 -0.1340 -0.1226 -0.5908
   23HTM   C11223883  -0.244   2.602  25.627 -0.1758 -0.2998 -0.7558
   23HTM   C11323884  -0.287   2.486  25.700 -0.2772 -0.0319 -0.3848
   23HTM   C11423885  -0.423   2.470  25.704 -0.3126  0.3494  0.0628
   23HTM    S1223886  -0.507   2.603  25.615 -0.2199  0.4001  0.0509
   24TAL   C11523887  -0.191   2.393  25.768  1.0002 -0.3949 -0.5759
   24TAL   C11623888  -0.117   2.282  25.704 -0.0880  0.5962  0.2465
   24TAL   C11723889  -0.030   2.299  25.583 -0.6093 -0.4977  0.3213
   24TAL   C11823890   0.074   2.423  25.594  0.3990  0.7789  0.6605
   24TAL   C11923891   0.207   2.405  25.656 -0.1067 -0.9753 -0.2690
   24TAL   C12023892   0.206   2.338  25.793 -0.1813 -0.6612 -1.0717
   25HTM   C12123893  -0.517   2.378  25.770 -0.1100 -0.0603  0.4458
   25HTM   C12223894  -0.635   2.418  25.825 -0.1835 -0.3499  0.5002
   25HTM   C12323895  -0.705   2.313  25.895 -0.1671 -0.6630  0.0520
   25HTM   C12423896  -0.640   2.193  25.892 -0.0812 -0.6123 -0.3445
   25HTM    S1323897  -0.485   2.204  25.802 -0.0134 -0.1616 -0.1819
   26TAL   C12523898  -0.843   2.349  25.954  0.0766  0.3475  0.3342
   26TAL   C12623899  -0.842   2.400  26.101 -0.3949 -0.1288 -0.1947
   26TAL   C12723900  -0.967   2.358  26.173 -0.6770 -0.8155  0.4216
   26TAL   C12823901  -0.974   2.410  26.319  0.2526 -0.0405  0.2489
   26TAL   C12923902  -1.014   2.555  26.347 -0.1814 -0.4132  0.6555
   26TAL   C13023903  -0.943   2.628  26.455  0.3233  0.4560  0.0188
   27HTM   C13123904  -0.655   2.067  25.963 -0.0933 -0.1211 -0.4624
   27HTM   C13223905  -0.557   1.976  25.992  0.0124  0.0044 -0.4249
   27HTM   C13323906  -0.600   1.870  26.079  0.2708  0.2605  0.0215
   27HTM   C13423907  -0.731   1.880  26.117  0.3619  0.3302  0.3248
   27HTM    S1423908  -0.810   2.025  26.044  0.1265  0.0759  0.0670
   28TAL   C13523909  -0.508   1.769  26.140  0.4897  0.3359 -0.0376
   28TAL   C13623910  -0.421   1.687  26.046 -0.7029 -0.1000  0.0449
   28TAL   C13723911  -0.273   1.663  26.103 -0.4586 -0.7908  0.2984
   28TAL   C13823912  -0.199   1.559  26.021  0.2136 -0.5847  0.6468
   28TAL   C13923913  -0.254   1.416  26.030 -0.3606  1.1704 -0.8652
   28TAL   C14023914  -0.241   1.317  25.911  0.2456 -0.1889  0.3109
   29HTM   C14123915  -0.827   1.798  26.201 -0.1221 -0.4621 -0.3461
   29HTM   C14223916  -0.958   1.825  26.227 -0.2421 -0.5075 -0.8779
   29HTM   C14323917  -1.027   1.720  26.297 -0.3945 -0.3843 -0.8407
   29HTM   C14423918  -0.948   1.612  26.325 -0.3904 -0.2449 -0.2798
   29HTM    S1523919  -0.780   1.636  26.263 -0.1923 -0.2586  0.2488
   30TAL   C14523920  -1.168   1.725  26.330  0.6447 -0.0719  0.1480
   30TAL   C14623921  -1.217   1.809  26.450  0.2787 -0.2639  0.6392
   30TAL   C14723922  -1.367   1.849  26.464  0.3144 -0.0643  0.2067
   30TAL   C14823923  -1.441   1.930  26.357  0.6204  0.2761 -0.1116
   30TAL   C14923924  -1.556   2.002  26.427  0.5257 -1.4855 -0.4321
   30TAL   C15023925  -1.610   2.121  26.338 -1.2901 -0.3768 -0.8244
   31HTM   C15123926  -0.978   1.483  26.381  0.6688  0.1963  0.3695
   31HTM   C15223927  -0.964   1.362  26.319  1.0996  0.0634  0.7176
   31HTM   C15323928  -1.034   1.255  26.385  0.7445  0.1803  0.5331
   31HTM   C15423929  -1.102   1.294  26.497  0.0428  0.4024  0.0444
   31HTM    S1623930  -1.082   1.471  26.528 -0.2259  0.4817 -0.2222
   32TAL   C15523931  -1.030   1.115  26.321 -0.4944 -0.2796  0.0955
   32TAL   C15623932  -1.139   1.007  26.335  1.0670 -0.0505 -0.7244
   32TAL   C15723933  -1.268   0.996  26.252  0.9132 -0.0010  0.3765
   32TAL   C15823934  -1.376   1.095  26.297  0.5002 -0.4585  0.1087
   32TAL   C15923935  -1.485   1.075  26.201 -0.5608 -0.3273 -1.0058
   32TAL   C16023936  -1.584   0.961  26.219  0.3112  0.7983  1.3067
   33HTM   C16123937  -1.178   1.221  26.598 -0.5366 -1.0826 -0.5171
   33HTM   C16223938  -1.137   1.111  26.667 -1.4445 -1.6491 -0.8345
   33HTM   C16323939  -1.223   1.077  26.778 -1.3723 -0.8178 -0.5035
   33HTM   C16423940  -1.330   1.160  26.792 -0.4097  0.3827  0.0663
   33HTM    S1723941  -1.330   1.290  26.666  0.4877  0.5576  0.2301
   34TAL   C16523942  -1.199   0.959  26.858 -0.0884  0.6228 -1.0493
   34TAL   C16623943  -1.147   0.837  26.783 -0.6827 -0.0068 -0.6729
   34TAL   C16723944  -1.242   0.778  26.692  0.2177 -0.2341  0.7781
   34TAL   C16823945  -1.391   0.751  26.726  0.5507 -0.1675  0.2534
   34TAL   C16923946  -1.477   0.780  26.599 -0.3020  0.2250  0.5237
   34TAL   C17023947  -1.625   0.741  26.605 -0.3072  0.4677  0.2158
   35HTM   C17123948  -1.433   1.163  26.889 -0.2104  0.4325 -0.0727
   35HTM   C17223949  -1.420   1.193  27.021 -0.2698  0.5528 -0.0939
   35HTM   C17323950  -1.532   1.150  27.102 -0.1425  0.3015 -0.0491
   35HTM   C17423951  -1.630   1.088  27.031  0.0139 -0.0104  0.0058
   35HTM    S1823952  -1.589   1.078  26.855  0.0126 -0.0109  0.0060
   36TAL   C17523953  -1.524   1.142  27.253 -0.0002  0.0117  0.1372
   36TAL   C17623954  -1.454   1.010  27.305  0.8050  0.6818  0.0252
   36TAL   C17723955  -1.499   0.970  27.445  0.3980 -0.5905 -0.6910
   36TAL   C17823956  -1.423   0.843  27.480 -0.5256 -0.0636 -0.5400
   36TAL   C17923957  -1.455   0.781  27.624 -0.1487 -0.3897  0.0737
   36TAL   C18023958  -1.325   0.743  27.695 -0.3865  0.8110  0.6208
   37HTM   C18123959  -1.739   1.020  27.080  0.2704  0.6533  0.2101
   37HTM   C18223960  -1.789   0.907  27.021  0.3479  1.0078 -0.5565
   37HTM   C18323961  -1.900   0.849  27.093  0.1122  0.6787 -1.1759
   37HTM   C18423962  -1.934   0.917  27.206 -0.1452  0.0732 -0.8829
   37HTM    S1923963  -1.828   1.061  27.231 -0.1093 -0.1298  0.2071
   38TAL   C18523964  -1.955   0.717  27.050 -1.0811  0.6571  0.4118
   38TAL   C18623965  -2.028   0.712  26.919  0.3415 -0.6068 -0.6380
   38TAL   C18723966  -2.154   0.622  26.905 -0.7352 -0.4918  0.1738
   38TAL   C18823967  -2.257   0.608  27.010  0.4906  0.4208  1.3758
   38TAL   C18923968  -2.345   0.739  26.993  0.8058  0.6675  0.5353
   38TAL   C19023969  -2.392   0.802  27.124 -0.3780  1.1143  0.9212
   39HTM   C19123970  -2.031   0.894  27.313 -0.3243 -0.3584  0.1927
   39HTM   C19223971  -2.075   0.781  27.374 -0.5604 -0.2393  0.2427
   39HTM   C19323972  -2.164   0.806  27.484 -0.6473 -0.0103  0.1202
   39HTM   C19423973  -2.188   0.938  27.506 -0.4774  0.0453 -0.0231
   39HTM    S2023974  -2.099   1.042  27.389 -0.1926 -0.1891 -0.0153
   40TAL   C19523975  -2.230   0.693  27.568  0.9279  0.7531  0.6377
   40TAL   C19623976  -2.141   0.589  27.643 -0.3280  0.3596 -0.2742
   40TAL   C19723977  -2.083   0.478  27.555  0.3094  0.4939 -0.1099
   40TAL   C19823978  -2.190   0.374  27.515 -1.0470 -0.5460  0.0755
   40TAL   C19923979  -2.128   0.273  27.421  1.3038 -0.7025  0.1250
   40TAL   C20023980  -2.075   0.329  27.294 -0.3352 -0.0189  0.9146
   41HTM   C20123981  -2.275   1.006  27.604  0.6037  0.2536  1.0595
   41HTM   C20223982  -2.286   1.141  27.619  0.5627  0.2255  1.2956
   41HTM   C20323983  -2.377   1.181  27.723  0.0994  0.0188  0.9785
   41HTM   C20423984  -2.435   1.077  27.788 -0.2126 -0.1108  0.5006
   41HTM    S2123985  -2.380   0.918  27.722  0.0566  0.0193  0.4125
   42TAL   C20523986  -2.387   1.323  27.777  0.7770  0.6819 -0.2307
   42TAL   C20623987  -2.402   1.454  27.695 -0.3520  0.4926 -0.0823
   42TAL   C20723988  -2.518   1.472  27.595 -0.6816 -0.1737 -0.2251
   42TAL   C20823989  -2.485   1.566  27.485 -0.5300 -0.7228  1.7906
   42TAL   C20923990  -2.509   1.716  27.530  0.0271  0.1638 -0.1166
   42TAL   C21023991  -2.512   1.820  27.426  0.2225 -0.1805  1.0970
   43HTM   C21123992  -2.530   1.064  27.900 -0.1209 -0.8253  0.4937
   43HTM   C21223993  -2.520   0.982  28.008 -0.7360 -0.6422  0.7019
   43HTM   C21323994  -2.624   1.000  28.105 -0.9331 -0.0227  0.3858
   43HTM   C21423995  -2.715   1.096  28.071 -0.4683  0.2665 -0.0637
   43HTM    S2223996  -2.675   1.172  27.912  0.2599 -0.2249 -0.1232
   44TAL   C21523997  -2.629   0.926  28.240 -0.5122 -0.2736  0.4334
   44TAL   C21623998  -2.507   0.851  28.306  0.9666 -0.2480 -0.8220
   44TAL   C21723999  -2.568   0.773  28.424 -1.4268  0.7129 -0.4910
   44TAL   C21824000  -2.464   0.680  28.491  0.8277 -0.4489 -0.5055
   44TAL   C21924001  -2.326   0.739  28.530  0.0140 -0.4947  0.0799
   44TAL   C22024002  -2.331   0.815  28.670  0.0230 -0.4261  0.2766
   45HTM   C22124003  -2.835   1.138  28.144  0.0443 -0.0759  0.2106
   45HTM   C22224004  -2.877   1.267  28.152  0.0834 -0.0353 -0.1998
   45HTM   C22324005  -3.004   1.282  28.219 -0.0473  0.1892 -0.4930
   45HTM   C22424006  -3.058   1.165  28.262 -0.1861  0.3200 -0.3065
   45HTM    S2324007  -2.952   1.024  28.221 -0.1623  0.1684  0.2588
   46TAL   C22524008  -3.070   1.420  28.251 -0.6371  0.2337  0.1798
   46TAL   C22624009  -3.188   1.467  28.155  0.7588 -0.0972 -0.6140
   46TAL   C22724010  -3.163   1.458  28.002  0.1823 -0.1616 -0.3300
   46TAL   C22824011  -3.256   1.506  27.887 -1.0601 -1.6008 -0.1494
   46TAL   C22924012  -3.181   1.457  27.765  0.1686  0.7735  0.6784
   46TAL   C23024013  -3.245   1.514  27.630 -0.1866 -0.4182 -0.7039
   47HTM   C23124014  -3.173   1.130  28.336  0.0980 -0.0075 -0.1105
   47HTM   C23224015  -3.168   1.066  28.456  0.1470  0.6279  0.2279
   47HTM   C23324016  -3.291   1.073  28.531  0.1062  0.8284  0.1435
   47HTM   C23424017  -3.390   1.141  28.467  0.0264  0.3458 -0.2590
   47HTM    S2424018  -3.335   1.203  28.306 -0.0039 -0.4051 -0.5660
   48TAL   C23524019  -3.299   0.974  28.655  0.3357  0.8104  0.6687
   48TAL   C23624020  -3.431   0.944  28.712  1.1355 -0.1959 -0.7004
   48TAL   C23724021  -3.463   0.811  28.789 -0.0550  0.0032  0.8491
   48TAL   C23824022  -3.390   0.796  28.913 -0.3582  1.2837 -1.3443
   48TAL   C23924023  -3.476   0.706  29.013 -0.6818 -0.1511  0.3279
   48TAL   C24024024  -3.420   0.690  29.154  0.5616 -0.0778  0.0852
    1HTM     C124025   2.036   2.450  17.739 -0.1455  0.0509 -0.5620
    1HTM     C224026   2.058   2.579  17.776 -0.0973  0.0110 -0.4539
    1HTM     C324027   2.152   2.649  17.693  0.1406 -0.0377 -0.2294
    1HTM     C424028   2.202   2.572  17.591  0.2739 -0.0349 -0.1671
    1HTM     S124029   2.133   2.406  17.593  0.1077  0.0298 -0.3886
    2TAL     C524030   2.188   2.803  17.716  0.4579  1.0334 -0.0400
    2TAL     C624031   2.165   2.872  17.848 -0.4864  0.5387  0.6369
    2TAL     C724032   2.237   3.000  17.884  0.3290 -0.0251 -0.8883
    2TAL     C824033   2.361   2.964  17.972 -0.9318 -0.4686 -0.2322
    2TAL     C924034   2.474   3.073  17.968  0.5942  1.4107  0.1019
    2TAL    C1024035   2.605   3.025  18.031 -0.3563 -0.3096 -0.4568
    3HTM    C1124036   2.319   2.585  17.503 -0.3651 -0.4714 -0.6239
    3HTM    C1224037   2.352   2.691  17.424 -0.8991 -0.4994 -0.8936
    3HTM    C1324038   2.477   2.675  17.354 -0.5931  0.1205 -0.5116
    3HTM    C1424039   2.539   2.556  17.379  0.1743  0.6210  0.0497
    3HTM     S224040   2.444   2.455  17.494  0.5730  0.3461  0.1402
    4TAL    C1524041   2.534   2.786  17.278 -0.8716  0.0044  0.1639
    4TAL    C1624042   2.602   2.894  17.365  0.6047  0.5140 -0.5618
    4TAL    C1724043   2.703   2.842  17.465 -0.1622  0.1397  0.6266
    4TAL    C1824044   2.676   2.916  17.594 -0.2613  1.0041 -0.2342
    4TAL    C1924045   2.785   2.888  17.700 -0.6589  0.2149  0.8855
    4TAL    C2024046   2.874   3.000  17.723 -0.8913 -0.1601  0.1793
    5HTM    C2124047   2.650   2.498  17.308 -0.0484 -0.5242 -0.1708
    5HTM    C2224048   2.779   2.475  17.343 -0.1096 -1.2541 -0.4072
    5HTM    C2324049   2.861   2.429  17.234 -0.5040 -1.4614 -0.6194
    5HTM    C2424050   2.794   2.417  17.116 -0.7438 -0.8897 -0.5453
    5HTM     S324051   2.621   2.464  17.133 -0.4879 -0.0384 -0.1987
    6TAL    C2524052   3.008   2.394  17.249 -0.1510  0.9222  0.0984
    6TAL    C2624053   3.121   2.499  17.256  0.6248 -0.1168  0.1117
    6TAL    C2724054   3.141   2.544  17.395 -0.3387 -0.8446  0.0747
    6TAL    C2824055   3.256   2.646  17.391  0.0757 -0.0207 -0.6146
    6TAL    C2924056   3.309   2.679  17.538  0.2641 -0.3813 -0.1470
    6TAL    C3024057   3.245   2.794  17.608 -0.0508 -1.4454 -1.4711
    7HTM    C3124058   2.835   2.349  16.996  0.3477 -0.0323 -0.1190
    7HTM    C3224059   2.827   2.392  16.866  1.1469  0.1919 -0.1068
    7HTM    C3324060   2.873   2.295  16.770  1.2287  0.1462 -0.0210
    7HTM    C3424061   2.917   2.178  16.827  0.4919 -0.1130  0.0317
    7HTM     S424062   2.902   2.182  17.007 -0.3693 -0.3209 -0.0224
    8TAL    C3524063   2.869   2.337  16.616 -0.4746 -0.3645  0.2129
    8TAL    C3624064   2.964   2.450  16.577  0.1499  0.5867 -0.4354
    8TAL    C3724065   3.116   2.446  16.589 -0.4071  0.4599  0.1005
    8TAL    C3824066   3.162   2.593  16.595  0.5891  0.2151  0.4506
    8TAL    C3924067   3.287   2.637  16.530 -0.0120 -0.4448 -0.1700
    8TAL    C4024068   3.302   2.614  16.383 -0.0595 -0.3455  0.5011
    9HTM    C4124069   2.950   2.049  16.758  0.5392  0.7262  0.0884
    9HTM    C4224070   2.954   1.922  16.806  0.0903  0.8061  0.3524
    9HTM    C4324071   2.990   1.824  16.707 -0.6629  0.4123  0.4463
    9HTM    C4424072   3.014   1.877  16.584 -0.7883  0.0321  0.2548
    9HTM     S524073   2.992   2.056  16.583  0.0416  0.1428 -0.0623
   10TAL    C4524074   2.992   1.667  16.719 -0.2525  0.4059 -0.0086
   10TAL    C4624075   2.862   1.605  16.760 -0.1313  1.0786 -0.2893
   10TAL    C4724076   2.818   1.449  16.766  0.6090  0.7742  0.7544
   10TAL    C4824077   2.910   1.346  16.851 -0.1541  0.3334  0.5253
   10TAL    C4924078   2.891   1.196  16.816  0.3842 -0.9058 -0.3676
   10TAL    C5024079   2.965   1.135  16.698  0.2925  0.0085 -0.2381
   11HTM    C5124080   3.066   1.833  16.452  0.2773 -0.1664  0.2039
   11HTM    C5224081   3.016   1.742  16.364  0.2133  0.0791 -0.0153
   11HTM    C5324082   3.097   1.724  16.246  0.2517  0.2306 -0.0124
   11HTM    C5424083   3.209   1.801  16.245  0.3448  0.1006  0.2092
   11HTM     S624084   3.221   1.903  16.393  0.3918 -0.2257  0.4334
   12TAL    C5524085   3.074   1.605  16.153  0.4406 -0.6176 -0.4329
   12TAL    C5624086   2.929   1.568  16.110  0.0195 -0.1260  0.5127
   12TAL    C5724087   2.887   1.661  15.996 -0.1621  0.2169  0.1941
   12TAL    C5824088   2.740   1.669  15.971 -0.0170 -0.1220  0.9358
   12TAL    C5924089   2.692   1.811  16.011  0.2455  0.7243  0.1559
   12TAL    C6024090   2.564   1.851  15.935  0.3936  0.1080 -1.2204
   13HTM    C6124091   3.317   1.785  16.149  0.4172  0.0653  0.5058
   13HTM    C6224092   3.308   1.827  16.020  0.1624 -0.1025  0.4673
   13HTM    C6324093   3.434   1.832  15.952  0.0074 -0.3763  0.1507
   13HTM    C6424094   3.540   1.795  16.029  0.1440 -0.4173 -0.0539
   13HTM     S724095   3.487   1.749  16.196  0.4818 -0.1108  0.1408
   14TAL    C6524096   3.425   1.878  15.811  0.4578 -0.1653 -1.0913
   14TAL    C6624097   3.452   1.784  15.697  1.1337  0.3470 -0.1288
   14TAL    C6724098   3.468   1.849  15.569 -0.8944 -0.7620  0.3677
   14TAL    C6824099   3.610   1.898  15.516  0.2152 -0.4569 -0.4632
   14TAL    C6924100   3.717   1.789  15.481  0.6464 -0.7053 -0.6497
   14TAL    C7024101   3.687   1.704  15.355  0.2570 -0.4204  0.0653
   15HTM    C7124102   3.678   1.784  16.002  0.0795  0.2432  0.7207
   15HTM    C7224103   3.755   1.884  15.949  0.2064  0.2040  0.8309
   15HTM    C7324104   3.879   1.837  15.893  0.0532  0.0792  0.5922
   15HTM    C7424105   3.896   1.702  15.903 -0.1905  0.0232  0.3002
   15HTM     S824106   3.756   1.623  15.985 -0.2458  0.1245  0.3038
   16TAL    C7524107   3.972   1.920  15.808  0.9481  0.0085 -0.1705
   16TAL    C7624108   3.921   2.057  15.744 -0.9640  0.2487 -0.2555
   16TAL    C7724109   4.024   2.138  15.662  0.3916 -0.5529 -0.7358
   16TAL    C7824110   4.152   2.195  15.723  0.5490  0.0938 -0.1294
   16TAL    C7924111   4.141   2.277  15.857  0.5637  0.8440  0.4596
   16TAL    C8024112   4.268   2.298  15.939 -0.3353 -0.5323  0.7259
   17HTM    C8124113   4.004   1.623  15.857 -0.0504 -0.2193  0.4422
   17HTM    C8224114   4.008   1.532  15.756 -0.1167 -0.2933  0.5064
   17HTM    C8324115   4.133   1.461  15.746 -0.0199 -0.0968  0.2983
   17HTM    C8424116   4.225   1.499  15.841  0.1202  0.1271  0.0760
   17HTM     S924117   4.159   1.627  15.949  0.1407  0.1069  0.1122
   18TAL    C8524118   4.169   1.378  15.632  0.2495  0.2497  0.0532
   18TAL    C8624119   4.144   1.419  15.494  0.3369  0.2528  0.3149
   18TAL    C8724120   4.172   1.564  15.444  0.3534 -0.8247  0.8276
   18TAL    C8824121   4.103   1.582  15.306  0.1047 -0.2409  1.1185
   18TAL    C8924122   4.112   1.720  15.245 -0.1775  0.1085  0.4578
   18TAL    C9024123   4.244   1.801  15.237  0.0972 -0.6885  1.1592
   19HTM    C9124124   4.370   1.461  15.867 -0.8449 -0.4897  0.3651
   19HTM    C9224125   4.484   1.534  15.849 -1.1072  0.0274  0.7625
   19HTM    C9324126   4.605   1.459  15.871 -0.8360  0.4378  0.6833
   19HTM    C9424127   4.584   1.329  15.905 -0.3671  0.2335  0.2256
   19HTM    S1024128   4.408   1.290  15.913 -0.2305 -0.4986 -0.1436
   20TAL    C9524129   4.746   1.513  15.860 -0.2464 -0.8137  0.1079
   20TAL    C9624130   4.767   1.635  15.955  0.1628  0.1924 -1.1821
   20TAL    C9724131   4.910   1.678  16.000  0.0003  0.2184 -0.2757
   20TAL    C9824132   4.993   1.556  16.043 -0.7687  0.6124 -0.7436
   20TAL    C9924133   5.117   1.619  16.112  0.2479 -0.3986  0.3825
   20TAL   C10024134   5.225   1.523  16.125  0.1193 -0.0311 -0.0109
   21HTM   C10124135   4.672   1.213  15.927  0.4406 -0.2268 -0.2024
   21HTM   C10224136   4.733   1.190  16.047  0.4927 -0.5465 -0.2875
   21HTM   C10324137   4.820   1.075  16.047  0.1338 -0.8237 -0.4992
   21HTM   C10424138   4.826   1.010  15.927 -0.1921 -0.7156 -0.5756
   21HTM    S1124139   4.721   1.090  15.804 -0.0697 -0.2514 -0.3842
   22TAL   C10524140   4.908   1.032  16.168 -0.1371  1.0779  0.2751
   22TAL   C10624141   5.051   1.080  16.162  0.0145 -1.2255  0.4254
   22TAL   C10724142   5.120   1.106  16.300 -0.4036  0.7915  0.4325
   22TAL   C10824143   5.268   1.124  16.310  0.6102  0.3832 -0.2269
   22TAL   C10924144   5.325   1.082  16.442  0.2880  0.0461  0.3202
   22TAL   C11024145   5.303   0.941  16.504 -0.9093 -0.5904 -0.0225
   23HTM   C11124146   4.898   0.899  15.887  0.0794  0.6137  1.0903
   23HTM   C11224147   4.848   0.775  15.861 -0.5292  0.7347  1.6277
   23HTM   C11324148   4.948   0.679  15.823 -1.0974  0.3114  1.1618
   23HTM   C11424149   5.075   0.730  15.820 -0.9221 -0.1324  0.2688
   23HTM    S1224150   5.077   0.904  15.866 -0.0188 -0.0494 -0.0552
   24TAL   C11524151   4.909   0.541  15.773  0.1372  0.1251  0.2520
   24TAL   C11624152   4.874   0.462  15.904  0.1569  0.5921  0.1685
   24TAL   C11724153   4.855   0.315  15.877  0.4076  1.2469 -0.0485
   24TAL   C11824154   4.951   0.226  15.789 -0.7202 -0.9478 -0.1644
   24TAL   C11924155   4.923   0.078  15.790  0.5944  0.4893  0.5746
   24TAL   C12024156   5.046   0.004  15.748 -0.3561 -0.6616  0.1336
   25HTM   C12124157   5.200   0.673  15.772 -0.0944 -0.1618 -0.5702
   25HTM   C12224158   5.302   0.741  15.712 -0.1998 -0.4198 -1.0552
   25HTM   C12324159   5.413   0.657  15.675 -0.2400 -0.5760 -0.8302
   25HTM   C12424160   5.396   0.526  15.706 -0.1654 -0.4371 -0.1734
   25HTM    S1324161   5.237   0.497  15.786 -0.0376 -0.0957  0.2148
   26TAL   C12524162   5.520   0.740  15.610 -0.9768  0.0847  0.1862
   26TAL   C12624163   5.561   0.683  15.476  0.2828  0.3415 -0.2455
   26TAL   C12724164   5.683   0.759  15.402  0.6820  0.4394 -0.1561
   26TAL   C12824165   5.814   0.766  15.476  0.1514 -0.2670 -0.2086
   26TAL   C12924166   5.927   0.820  15.379  0.5156 -0.4621  0.0442
   26TAL   C13024167   6.064   0.768  15.420 -0.0333 -0.4042  0.3343
   27HTM   C13124168   5.493   0.411  15.701 -0.1352 -0.1996 -0.7790
   27HTM   C13224169   5.450   0.284  15.723 -0.0960 -0.1923 -0.6604
   27HTM   C13324170   5.550   0.184  15.695  0.0761 -0.1666 -0.1645
   27HTM   C13424171   5.669   0.236  15.651  0.1681 -0.1544  0.0957
   27HTM    S1424172   5.663   0.416  15.642  0.0436 -0.1745 -0.2690
   28TAL   C13524173   5.531   0.035  15.720 -0.0933  0.6317 -0.2014
   28TAL   C13624174   5.398  -0.032  15.707  1.1657 -0.4073 -0.4733
   28TAL   C13724175   5.392  -0.182  15.666 -0.3657 -0.3414  0.1510
   28TAL   C13824176   5.254  -0.235  15.623  0.1192  0.1781 -0.1155
   28TAL   C13924177   5.254  -0.374  15.563  0.4210  0.4674 -0.0061
   28TAL   C14024178   5.119  -0.427  15.544  0.8979  0.7030 -0.1170
   29HTM   C14124179   5.779   0.178  15.581 -0.2938  0.5556 -0.0778
   29HTM   C14224180   5.831   0.052  15.593 -0.5963  0.4169 -0.2043
   29HTM   C14324181   5.952   0.031  15.517 -0.4860  0.2926  0.0010
   29HTM   C14424182   5.992   0.141  15.447 -0.0994  0.3365  0.2843
   29HTM    S1524183   5.879   0.280  15.472  0.1572  0.5398  0.3136
   30TAL   C14524184   6.020  -0.100  15.529 -1.2556  0.4210 -1.2750
   30TAL   C14624185   6.088  -0.147  15.659  0.2536 -0.4084  0.2565
   30TAL   C14724186   6.121  -0.294  15.661 -0.3745 -0.5333 -0.0597
   30TAL   C14824187   6.262  -0.340  15.697  0.1497  0.4754 -0.7857
   30TAL   C14924188   6.385  -0.317  15.604  0.4679 -0.6054  0.2127
   30TAL   C15024189   6.428  -0.180  15.554 -1.3430 -0.3651  0.5296
   31HTM   C15124190   6.106   0.142  15.349  0.3774 -0.2771 -0.3992
   31HTM   C15224191   6.112   0.207  15.229  0.3451 -0.3879 -0.4606
   31HTM   C15324192   6.245   0.212  15.173  0.3686 -0.2461 -0.3932
   31HTM   C15424193   6.339   0.151  15.250  0.4190 -0.0272 -0.2803
   31HTM    S1624194   6.268   0.082  15.400  0.4407  0.0173 -0.2498
   32TAL   C15524195   6.275   0.254  15.031  0.0438 -0.9585  0.1311
   32TAL   C15624196   6.291   0.156  14.914 -0.3368 -1.1310  0.9931
   32TAL   C15724197   6.187   0.049  14.918  0.1733  0.0784  0.0269
   32TAL   C15824198   6.071   0.065  14.829 -0.7923 -0.1197  0.2747
   32TAL   C15924199   5.956  -0.029  14.869  0.3410 -0.1378  0.0778
   32TAL   C16024200   5.835  -0.027  14.773 -0.5700  0.6561 -1.0380
   33HTM   C16124201   6.480   0.136  15.231  0.1263 -0.4373  0.6793
   33HTM   C16224202   6.554   0.028  15.191  0.0199 -0.5543  0.7968
   33HTM   C16324203   6.693   0.058  15.169 -0.0418 -0.6082  0.3126
   33HTM   C16424204   6.726   0.188  15.192  0.0173 -0.5322 -0.1746
   33HTM    S1724205   6.582   0.284  15.244  0.1568 -0.3856 -0.0580
   34TAL   C16524206   6.771  -0.066  15.135  0.1871 -0.3903  0.4668
   34TAL   C16624207   6.885  -0.086  15.239  0.2070  0.6587 -0.0618
   34TAL   C16724208   6.871  -0.045  15.386  0.2316  0.2381  0.7786
   34TAL   C16824209   6.885  -0.167  15.470 -0.3487 -0.5192 -0.5754
   34TAL   C16924210   7.014  -0.265  15.475 -0.1403 -0.2747  0.9084
   34TAL   C17024211   7.141  -0.182  15.511  0.5508  0.5373  0.1587
   35HTM   C17124212   6.853   0.264  15.164 -0.7971  0.0714 -0.7483
   35HTM   C17224213   6.971   0.218  15.114 -1.1507 -0.2324 -1.3273
   35HTM   C17324214   7.070   0.321  15.098 -0.6931 -0.6168 -1.0090
   35HTM   C17424215   7.028   0.445  15.135  0.0093 -0.6061 -0.1878
   35HTM    S1824216   6.858   0.442  15.195  0.1485 -0.1059  0.2513
   36TAL   C17524217   7.207   0.289  15.044  0.8064 -1.5628  0.1407
   36TAL   C17624218   7.271   0.157  15.070 -0.0632 -0.0318  0.2444
   36TAL   C17724219   7.290   0.080  14.942 -0.2209 -0.2486  0.7179
   36TAL   C17824220   7.354  -0.049  14.987  0.0956 -0.6239  1.1900
   36TAL   C17924221   7.380  -0.121  14.854  0.1407  0.0793  0.5223
   36TAL   C18024222   7.420  -0.271  14.877  0.4496 -0.3251  0.5505
   37HTM   C18124223   7.111   0.568  15.113  0.1944 -0.4316 -0.8525
   37HTM   C18224224   7.226   0.614  15.171  0.1006 -0.6399 -0.4940
   37HTM   C18324225   7.258   0.750  15.137  0.1243 -0.4920  0.1080
   37HTM   C18424226   7.167   0.809  15.054  0.2362 -0.1709  0.2092
   37HTM    S1924227   7.033   0.695  15.011  0.3209 -0.0294 -0.4537
   38TAL   C18524228   7.374   0.820  15.203 -0.3491 -0.0990 -0.2035
   38TAL   C18624229   7.510   0.746  15.236 -0.2138 -0.4645  0.9841
   38TAL   C18724230   7.644   0.830  15.243 -0.4619 -0.4046  0.0740
   38TAL   C18824231   7.641   0.974  15.285  0.0712 -0.8031 -0.2523
   38TAL   C18924232   7.583   1.016  15.421 -0.1961 -0.4435 -0.2272
   38TAL   C19024233   7.653   0.949  15.538  0.3794  0.6355  0.3308
   39HTM   C19124234   7.168   0.948  15.008  0.4462 -0.4117  0.5333
   39HTM   C19224235   7.063   1.011  14.948  0.1625 -0.7632  0.6573
   39HTM   C19324236   7.095   1.141  14.896 -0.2913 -0.7254  0.4637
   39HTM   C19424237   7.224   1.178  14.916 -0.3537 -0.3450  0.1912
   39HTM    S2024238   7.317   1.050  15.003  0.1599 -0.0024  0.1587
   40TAL   C19524239   6.981   1.231  14.843 -0.2779 -0.1563 -0.5877
   40TAL   C19624240   6.889   1.159  14.746 -0.7038 -0.0203 -0.1988
   40TAL   C19724241   6.760   1.237  14.726 -0.7778 -0.0690 -0.9846
   40TAL   C19824242   6.665   1.188  14.617  0.7855 -0.4590 -0.1888
   40TAL   C19924243   6.726   1.181  14.482 -0.3749 -0.2305  0.4153
   40TAL   C20024244   6.609   1.184  14.382  0.6596 -0.1512 -0.1442
   41HTM   C20124245   7.294   1.304  14.895 -0.3497 -0.0353 -0.5036
   41HTM   C20224246   7.407   1.348  14.957 -0.5013 -0.1990 -0.1051
   41HTM   C20324247   7.437   1.487  14.933 -0.4030 -0.1506  0.2820
   41HTM   C20424248   7.346   1.549  14.852 -0.1765  0.0501  0.1791
   41HTM    S2124249   7.215   1.436  14.800 -0.0688  0.1947 -0.4194
   42TAL   C20524250   7.565   1.550  14.965 -0.7149  0.1118 -0.2158
   42TAL   C20624251   7.629   1.524  15.102  0.9215 -0.5394 -1.0578
   42TAL   C20724252   7.753   1.598  15.151 -0.4659 -0.1746 -0.3321
   42TAL   C20824253   7.735   1.747  15.184  0.1146  0.0154  0.8163
   42TAL   C20924254   7.871   1.829  15.210  1.3905 -0.2694 -0.2116
   42TAL   C21024255   7.834   1.963  15.268 -0.1717 -0.4176 -0.7131
   43HTM   C21124256   7.333   1.691  14.802 -0.2305 -0.3721  0.5143
   43HTM   C21224257   7.326   1.743  14.677 -1.1145 -0.9789  0.2933
   43HTM   C21324258   7.293   1.883  14.673 -1.4912 -1.0746 -0.1750
   43HTM   C21424259   7.274   1.938  14.797 -0.8942 -0.5408 -0.3104
   43HTM    S2224260   7.297   1.816  14.928  0.1983  0.1294  0.1453
   44TAL   C21524261   7.284   1.969  14.548 -0.0710 -0.2630 -0.0794
   44TAL   C21624262   7.233   1.922  14.415 -0.2113  0.1947 -0.2482
   44TAL   C21724263   7.266   1.798  14.331  0.1514  0.4248  0.4118
   44TAL   C21824264   7.191   1.791  14.197  0.7241  0.3538  0.6870
   44TAL   C21924265   7.212   1.890  14.087  0.2738 -0.6093  0.7570
   44TAL   C22024266   7.143   1.847  13.957  0.3760  0.8327  0.5919
   45HTM   C22124267   7.247   2.074  14.850 -0.3906  0.0195 -0.5264
   45HTM   C22224268   7.224   2.100  14.982  0.2365 -0.0960 -0.3874
   45HTM   C22324269   7.184   2.236  15.008  0.7385 -0.0133 -0.0241
   45HTM   C22424270   7.177   2.314  14.896  0.4940  0.1653  0.1136
   45HTM    S2324271   7.220   2.221  14.748 -0.3958  0.2434 -0.2074
   46TAL   C22524272   7.155   2.268  15.159  0.3179  0.3424  0.6582
   46TAL   C22624273   7.039   2.177  15.225  0.2886 -1.0984 -0.5336
   46TAL   C22724274   6.891   2.202  15.180  0.4089  0.0070 -1.0484
   46TAL   C22824275   6.810   2.297  15.281 -0.7072  0.1143 -0.0376
   46TAL   C22924276   6.837   2.447  15.303 -0.7762  0.0516 -0.5416
   46TAL   C23024277   6.754   2.498  15.416  0.0279  0.0688 -0.1177
   47HTM   C23124278   7.126   2.451  14.882  0.1955 -0.1476  0.3256
   47HTM   C23224279   7.088   2.517  14.768 -0.3169 -0.4566  0.3128
   47HTM   C23324280   7.045   2.652  14.791 -0.7844 -0.5856  0.2098
   47HTM   C23424281   7.050   2.690  14.922 -0.6284 -0.3750  0.1441
   47HTM    S2424282   7.110   2.556  15.027  0.1267  0.0057  0.2080
   48TAL   C23524283   6.971   2.743  14.693 -0.3915 -0.7795  0.6508
   48TAL   C23624284   7.039   2.876  14.683  0.0409  0.4505  0.5944
   48TAL   C23724285   7.157   2.880  14.591  0.2506  0.3057 -0.9585
   48TAL   C23824286   7.228   3.020  14.607 -0.1177  0.7128 -0.4070
   48TAL   C23924287   7.340   3.040  14.508  1.1821 -0.1715 -0.1851
   48TAL   C24024288   7.426   3.145  14.550  0.6054 -0.6121 -0.6323
    1HTM     C124289   7.393   3.910   4.867  0.2717 -0.0764  0.4194
    1HTM     C224290   7.338   3.915   4.742  0.0328 -0.4317  0.5066
    1HTM     C324291   7.436   3.919   4.636 -0.1680 -0.7752  0.3026
    1HTM     C424292   7.565   3.918   4.681 -0.0820 -0.6817  0.0597
    1HTM     S124293   7.573   3.911   4.861  0.2618 -0.1486  0.0698
    2TAL     C524294   7.397   3.924   4.489  1.1659  0.6905  0.6175
    2TAL     C624295   7.314   3.811   4.434 -0.9945  0.3398  0.2292
    2TAL     C724296   7.369   3.749   4.298 -0.2350  0.1715  0.6495
    2TAL     C824297   7.362   3.838   4.171 -1.0739  0.4915 -0.7869
    2TAL     C924298   7.385   3.766   4.034 -0.2918  0.5687 -0.8115
    2TAL    C1024299   7.405   3.851   3.915 -0.3697 -0.2700  0.5852
    3HTM    C1124300   7.694   3.921   4.609  0.0651  0.2758  0.2160
    3HTM    C1224301   7.762   4.024   4.552  0.1409 -0.0026 -0.1974
    3HTM    C1324302   7.881   3.982   4.481 -0.0123 -0.3973 -0.2260
    3HTM    C1424303   7.902   3.848   4.485 -0.2050 -0.4197  0.1657
    3HTM     S224304   7.774   3.763   4.579 -0.2079  0.0596  0.6043
    4TAL    C1524305   7.971   4.083   4.399  0.2707  0.0228 -0.7447
    4TAL    C1624306   7.967   4.236   4.421 -0.0540 -0.7528  0.4978
    4TAL    C1724307   7.833   4.288   4.351 -0.2110  0.1929 -0.6171
    4TAL    C1824308   7.840   4.444   4.329  0.7030  0.9668  1.2720
    4TAL    C1924309   7.899   4.548   4.425  0.4523  0.0190  0.7049
    4TAL    C2024310   7.800   4.602   4.531 -0.7341 -0.0373  1.0096
    5HTM    C2124311   8.009   3.763   4.429  0.1210  0.1504  0.1315
    5HTM    C2224312   7.996   3.631   4.399  0.0915  0.0298  0.6530
    5HTM    C2324313   8.117   3.570   4.350  0.0623 -0.1745  0.8343
    5HTM    C2424314   8.223   3.656   4.344  0.0695 -0.2099  0.4510
    5HTM     S324315   8.177   3.821   4.398  0.1140  0.0140 -0.1735
    6TAL    C2524316   8.116   3.423   4.306 -1.1654 -0.2390  0.4371
    6TAL    C2624317   7.993   3.361   4.255  0.8118  0.5623 -0.6527
    6TAL    C2724318   7.943   3.391   4.110 -0.5906  0.4683  0.4652
    6TAL    C2824319   7.793   3.369   4.107 -0.5566 -0.6174  0.0493
    6TAL    C2924320   7.712   3.503   4.127  0.1750  0.5004 -0.8480
    6TAL    C3024321   7.730   3.596   4.009  0.4320 -0.1410 -0.0640
    7HTM    C3124322   8.361   3.644   4.292  0.1421  0.2396 -0.5683
    7HTM    C3224323   8.384   3.605   4.163  0.0319  0.6948 -0.7292
    7HTM    C3324324   8.515   3.641   4.114  0.0371  0.7556 -0.6709
    7HTM    C3424325   8.591   3.707   4.206  0.1512  0.3469 -0.4657
    7HTM     S424326   8.504   3.729   4.362  0.2619 -0.1504 -0.3291
    8TAL    C3524327   8.550   3.595   3.978  0.4637  1.0854 -0.4970
    8TAL    C3624328   8.604   3.441   3.964 -0.0875 -0.6346  0.1116
    8TAL    C3724329   8.626   3.396   3.820 -0.7144 -0.0927 -0.0160
    8TAL    C3824330   8.511   3.437   3.723  0.4842  0.0419 -0.4425
    8TAL    C3924331   8.552   3.460   3.581 -0.0234 -1.7215  0.5815
    8TAL    C4024332   8.430   3.475   3.486 -0.4848  0.0589 -0.7168
    9HTM    C4124333   8.732   3.740   4.211 -0.2959 -0.3264  0.6367
    9HTM    C4224334   8.834   3.663   4.164 -0.4505 -0.5645  0.6849
    9HTM    C4324335   8.965   3.714   4.198 -0.3330 -0.3972  0.0178
    9HTM    C4424336   8.961   3.829   4.271 -0.0887 -0.0316 -0.5389
    9HTM     S524337   8.792   3.883   4.302  0.0126  0.1311 -0.2616
   10TAL    C4524338   9.091   3.645   4.152  0.4652  0.6240  0.3120
   10TAL    C4624339   9.089   3.568   4.016 -0.2814 -0.0079 -0.5904
   10TAL    C4724340   9.130   3.644   3.890 -0.4215  0.5091  0.0175
   10TAL    C4824341   9.169   3.563   3.771 -0.6330 -0.1729 -0.4461
   10TAL    C4924342   9.058   3.546   3.686  0.8998  0.0363 -0.4221
   10TAL    C5024343   9.084   3.472   3.559 -0.0652 -0.6323 -0.4407
   11HTM    C5124344   9.073   3.894   4.339  0.1691 -0.1744  0.0979
   11HTM    C5224345   9.062   3.963   4.457  0.1168 -0.3442  0.1929
   11HTM    C5324346   9.188   4.001   4.514  0.0796  0.1261 -0.0253
   11HTM    C5424347   9.296   3.961   4.441  0.1035  0.6547 -0.2864
   11HTM     S624348   9.246   3.872   4.292  0.1755  0.5986 -0.2772
   12TAL    C5524349   9.213   4.064   4.647 -0.5451  0.9494 -0.2034
   12TAL    C5624350   9.239   3.971   4.771 -0.0397 -1.0095 -0.3256
   12TAL    C5724351   9.220   4.047   4.894 -0.4484  0.0594 -0.1170
   12TAL    C5824352   9.219   3.975   5.028  0.5492 -0.0640  0.8006
   12TAL    C5924353   9.074   3.934   5.068 -0.4532 -0.0598 -0.6590
   12TAL    C6024354   9.067   3.847   5.193  0.3950 -0.9290 -0.1231
   13HTM    C6124355   9.442   3.976   4.457 -0.2884  0.0290  0.3139
   13HTM    C6224356   9.510   4.094   4.469 -0.4812  0.1258  0.4591
   13HTM    C6324357   9.653   4.080   4.457 -0.4603  0.3822  0.3971
   13HTM    C6424358   9.693   3.952   4.435 -0.2515  0.4808  0.2044
   13HTM     S724359   9.554   3.838   4.428 -0.0637  0.2558  0.0855
   14TAL    C6524360   9.741   4.205   4.464 -0.8197 -0.0466 -0.8877
   14TAL    C6624361   9.738   4.309   4.356 -0.5928  0.0284 -0.1793
   14TAL    C6724362   9.800   4.452   4.379 -0.8541 -1.0216  0.4249
   14TAL    C6824363   9.954   4.451   4.426  0.5912  0.7183  0.4103
   14TAL    C6924364  10.063   4.392   4.334 -0.1593  0.2836  0.7047
   14TAL    C7024365  10.044   4.309   4.203 -0.4263  0.8528  0.3878
   15HTM    C7124366   9.824   3.890   4.416  0.1808  0.0953  0.2309
   15HTM    C7224367   9.856   3.770   4.360  0.2760  0.0739  0.3293
   15HTM    C7324368   9.995   3.758   4.324  0.3416  0.0516  0.5877
   15HTM    C7424369  10.069   3.868   4.353  0.2965  0.0560  0.6865
   15HTM     S824370   9.968   3.997   4.429  0.1666  0.0890  0.4588
   16TAL    C7524371  10.063   3.640   4.259 -0.5537 -1.0396  0.1841
   16TAL    C7624372   9.995   3.514   4.260  0.6448 -0.0282 -0.3688
   16TAL    C7724373  10.079   3.388   4.254 -0.6035  0.9932  0.2028
   16TAL    C7824374  10.194   3.352   4.160 -0.0022 -0.2496 -0.1798
   16TAL    C7924375  10.175   3.371   4.012 -0.1076  0.1805  0.5699
   16TAL    C8024376  10.287   3.293   3.943 -0.3081 -0.4977  0.3062
   17HTM    C8124377  10.213   3.894   4.335  0.1461 -0.0699 -0.0356
   17HTM    C8224378  10.304   3.868   4.237  0.1337  0.2490 -0.1353
   17HTM    C8324379  10.432   3.931   4.258  0.0103  0.5073 -0.1546
   17HTM    C8424380  10.438   4.006   4.372 -0.0714  0.3854 -0.0699
   17HTM     S924381  10.282   4.002   4.462  0.0019 -0.0685  0.0421
   18TAL    C8524382  10.545   3.917   4.170 -0.6442 -0.2470 -0.1434
   18TAL    C8624383  10.630   3.795   4.197 -0.4492 -0.0542  0.7429
   18TAL    C8724384  10.753   3.804   4.117 -0.6656  0.0864  0.6178
   18TAL    C8824385  10.829   3.680   4.076  0.3995 -0.0272  0.5990
   18TAL    C8924386  10.785   3.628   3.933 -1.3733  0.0402 -0.0222
   18TAL    C9024387  10.872   3.509   3.888  0.0279  0.0609  0.3188
   19HTM    C9124388  10.543   4.091   4.427 -0.0562  0.2915  0.4355
   19HTM    C9224389  10.597   4.191   4.352 -0.2085  0.3595  0.4165
   19HTM    C9324390  10.681   4.281   4.426 -0.2136  0.4058  0.3667
   19HTM    C9424391  10.691   4.250   4.559 -0.0653  0.3727  0.3475
   19HTM    S1024392  10.594   4.103   4.599  0.0936  0.2802  0.3917
   20TAL    C9524393  10.747   4.397   4.364 -0.2508 -0.0234 -0.4150
   20TAL    C9624394  10.849   4.375   4.246  0.2762 -0.6346 -0.6616
   20TAL    C9724395  10.980   4.298   4.274  0.5505  0.2132  0.0543
   20TAL    C9824396  11.031   4.261   4.131  0.3899 -0.5026 -0.1452
   20TAL    C9924397  11.134   4.153   4.123 -0.2570  0.3558 -0.1896
   20TAL   C10024398  11.075   4.022   4.191  0.4604  0.3126 -0.0458
   21HTM   C10124399  10.736   4.320   4.673 -0.1239 -0.1123 -0.3272
   21HTM   C10224400  10.685   4.312   4.799 -0.3916  0.1066 -0.4194
   21HTM   C10324401  10.750   4.400   4.893 -0.5344  0.2074 -0.4132
   21HTM   C10424402  10.851   4.474   4.838 -0.3757  0.0653 -0.3161
   21HTM    S1124403  10.871   4.439   4.663 -0.0308 -0.2088 -0.2243
   22TAL   C10524404  10.700   4.397   5.040 -0.1516 -0.1903  0.7581
   22TAL   C10624405  10.759   4.293   5.131 -0.4897  0.3952  0.1962
   22TAL   C10724406  10.696   4.278   5.267 -0.2852  0.6700  0.2474
   22TAL   C10824407  10.670   4.381   5.385  0.5337 -0.3045  0.7809
   22TAL   C10924408  10.776   4.472   5.428  0.0430  0.4731  0.7113
   22TAL   C11024409  10.920   4.410   5.443  0.0332  0.3781  0.2233
   23HTM   C11124410  10.939   4.575   4.890 -0.8649  0.2619 -0.2306
   23HTM   C11224411  11.001   4.676   4.824 -0.8900  0.3250 -0.1589
   23HTM   C11324412  11.076   4.765   4.909 -0.4274 -0.0588 -0.1582
   23HTM   C11424413  11.070   4.731   5.041 -0.0495 -0.4146 -0.2295
   23HTM    S1224414  10.970   4.584   5.068 -0.2502 -0.2916 -0.3033
   24TAL   C11524415  11.148   4.883   4.851 -0.9338  0.0264  0.3844
   24TAL   C11624416  11.299   4.868   4.818 -0.2101 -0.3843  0.5215
   24TAL   C11724417  11.338   5.005   4.761  0.0950 -0.7102  0.0349
   24TAL   C11824418  11.475   5.005   4.695 -0.4686  0.0555  0.8574
   24TAL   C11924419  11.524   4.881   4.612 -0.6377 -0.2950  0.0303
   24TAL   C12024420  11.488   4.918   4.463  0.6534 -1.2657 -0.0743
   25HTM   C12124421  11.110   4.800   5.159  0.5284  0.5248  0.1288
   25HTM   C12224422  11.213   4.886   5.181  0.6911  0.2003  0.7054
   25HTM   C12324423  11.224   4.933   5.317  0.2937 -0.1059  0.8427
   25HTM   C12424424  11.128   4.881   5.399 -0.1722 -0.0150  0.3709
   25HTM    S1324425  11.017   4.770   5.311 -0.1448  0.4683 -0.2886
   26TAL   C12524426  11.332   5.028   5.340  0.0222 -0.5852 -0.0786
   26TAL   C12624427  11.413   5.107   5.231  0.3041  0.4341  0.3738
   26TAL   C12724428  11.330   5.193   5.133  0.1935  0.3623  0.4404
   26TAL   C12824429  11.353   5.343   5.136 -0.2484 -0.1645 -0.5733
   26TAL   C12924430  11.502   5.387   5.111 -0.3314  0.3743 -0.6981
   26TAL   C13024431  11.515   5.531   5.146 -0.2652 -0.2735  0.3159
   27HTM   C13124432  11.104   4.895   5.544 -0.2192 -0.6226 -0.1634
   27HTM   C13224433  11.032   4.806   5.619  0.4799 -0.8279  0.2891
   27HTM   C13324434  11.016   4.846   5.756  0.9243 -0.6971  0.3041
   27HTM   C13424435  11.077   4.964   5.787  0.5643 -0.3924 -0.1368
   27HTM    S1424436  11.158   5.036   5.643 -0.3714 -0.2456 -0.6088
   28TAL   C13524437  10.933   4.753   5.832  0.5229  0.4545 -0.7327
   28TAL   C13624438  10.842   4.790   5.956 -0.4586  0.3267  0.2195
   28TAL   C13724439  10.762   4.666   6.000  0.8083  0.2946 -0.0598
   28TAL   C13824440  10.659   4.621   5.908  0.3986 -0.4541  0.0207
   28TAL   C13924441  10.563   4.512   5.942  0.5117  1.0880  0.2120
   28TAL   C14024442  10.604   4.381   5.881 -0.0454 -0.0153 -0.0159
   29HTM   C14124443  11.098   5.037   5.914 -0.2545  0.3550 -0.4246
   29HTM   C14224444  11.035   5.019   6.033 -0.1990  0.3060 -0.4027
   29HTM   C14324445  11.070   5.118   6.132 -0.3082  0.3844 -0.4424
   29HTM   C14424446  11.159   5.211   6.088 -0.4472  0.4932 -0.4943
   29HTM    S1524447  11.206   5.181   5.916 -0.4509  0.5051 -0.4975
   30TAL   C14524448  10.999   5.116   6.272 -0.0773 -0.8019  0.6311
   30TAL   C14624449  10.869   5.040   6.287 -0.1073  0.6648 -0.3499
   30TAL   C14724450  10.800   5.036   6.423  1.6242  0.7567  0.9197
   30TAL   C14824451  10.816   4.901   6.480  0.9298 -0.1990 -0.0640
   30TAL   C14924452  10.946   4.843   6.521 -0.4682 -0.0628 -0.7105
   30TAL   C15024453  10.970   4.878   6.662  0.0782 -0.0256 -0.4650
   31HTM   C15124454  11.242   5.310   6.156  0.0375 -0.2713  0.1381
   31HTM   C15224455  11.361   5.358   6.109 -0.0045 -0.4525 -0.1585
   31HTM   C15324456  11.417   5.462   6.190  0.2042 -0.3204 -0.4700
   31HTM   C15424457  11.341   5.494   6.299  0.4056 -0.0385 -0.4108
   31HTM    S1624458  11.192   5.394   6.307  0.3466  0.0829  0.0465
   32TAL   C15524459  11.557   5.513   6.178 -0.1415 -0.9010  0.1496
   32TAL   C15624460  11.654   5.443   6.088 -0.7472  0.5855  0.1249
   32TAL   C15724461  11.793   5.496   6.133  0.3584 -0.3156 -0.5693
   32TAL   C15824462  11.926   5.415   6.113 -0.1802  0.3176 -0.2696
   32TAL   C15924463  11.950   5.386   5.963 -0.0639 -0.1787  0.5772
   32TAL   C16024464  12.037   5.272   5.930 -0.7543 -0.3232 -1.1544
   33HTM   C16124465  11.364   5.586   6.415 -0.0830  0.0357 -0.0403
   33HTM   C16224466  11.417   5.712   6.414  0.4114 -0.1663  0.2102
   33HTM   C16324467  11.422   5.774   6.543  0.5194 -0.3814  0.3115
   33HTM   C16424468  11.371   5.696   6.643  0.1073 -0.3433  0.1384
   33HTM    S1724469  11.315   5.537   6.581 -0.4536 -0.0303 -0.1686
   34TAL   C16524470  11.479   5.909   6.558  0.4804 -0.0555  1.5199
   34TAL   C16624471  11.401   6.013   6.472 -0.8401 -0.2972 -0.0699
   34TAL   C16724472  11.449   6.153   6.516  0.4772  0.2394 -0.8834
   34TAL   C16824473  11.589   6.203   6.472  0.1477  1.0556  0.2325
   34TAL   C16924474  11.603   6.347   6.477 -0.6725  0.0181 -0.1736
   34TAL   C17024475  11.738   6.378   6.419  0.1185 -0.7979  0.2170
   35HTM   C17124476  11.360   5.712   6.793  0.7639 -0.5888  0.7266
   35HTM   C17224477  11.301   5.628   6.882  0.7403 -0.4286  0.8632
   35HTM   C17324478  11.301   5.677   7.018  0.2387  0.0498  0.6942
   35HTM   C17424479  11.360   5.800   7.031 -0.1201  0.2545  0.4289
   35HTM    S1824480  11.420   5.862   6.873  0.1498 -0.1442  0.3714
   36TAL   C17524481  11.222   5.601   7.123 -0.5147  0.2848  1.0827
   36TAL   C17624482  11.280   5.458   7.136 -0.0398 -0.4508 -0.1401
   36TAL   C17724483  11.182   5.369   7.214  0.1244  0.0550  0.2845
   36TAL   C17824484  11.272   5.265   7.283 -0.4716  0.1654  0.4940
   36TAL   C17924485  11.175   5.194   7.380 -0.6411 -0.6266  1.3011
   36TAL   C18024486  11.226   5.063   7.406  0.2960  0.7167 -0.9347
   37HTM   C18124487  11.369   5.896   7.140 -0.0039  0.4992 -0.1606
   37HTM   C18224488  11.271   5.924   7.231 -0.1143  1.0104 -0.4306
   37HTM   C18324489  11.321   5.970   7.358 -0.2282  0.9340 -0.3575
   37HTM   C18424490  11.456   5.978   7.364 -0.2046  0.3644 -0.0315
   37HTM    S1924491  11.533   5.927   7.209 -0.0356 -0.1234  0.2101
   38TAL   C18524492  11.215   5.978   7.480 -0.4608 -0.1385  0.4041
   38TAL   C18624493  11.171   5.848   7.530  0.6383  0.5393  0.2456
   38TAL   C18724494  11.123   5.873   7.678 -0.4444 -0.9854 -0.3763
   38TAL   C18824495  11.098   5.750   7.759 -0.7798 -0.1951 -0.0035
   38TAL   C18924496  11.053   5.766   7.896  0.4198 -0.8239  0.2577
   38TAL   C19024497  10.990   5.637   7.953  0.8147 -0.3242 -0.8537
   39HTM   C19124498  11.545   6.030   7.475 -0.4225  0.5098  0.3761
   39HTM   C19224499  11.550   5.999   7.608 -0.3386  0.3506  0.3361
   39HTM   C19324500  11.660   6.061   7.677 -0.0398 -0.0784  0.2521
   39HTM   C19424501  11.739   6.139   7.597  0.1041 -0.2461  0.2282
   39HTM    S2024502  11.679   6.140   7.427 -0.1283  0.1276  0.3106
   40TAL   C19524503  11.675   6.045   7.826 -0.2569  0.1354 -0.8150
   40TAL   C19624504  11.577   5.964   7.913  1.1038 -0.6005  0.7135
   40TAL   C19724505  11.611   5.918   8.049 -0.4044 -1.0374 -0.1107
   40TAL   C19824506  11.730   5.831   8.080  0.2947  0.0701 -0.1984
   40TAL   C19924507  11.706   5.696   8.018  0.3695 -0.5010  0.0219
   40TAL   C20024508  11.794   5.583   8.088 -0.4651 -1.1255  0.1060
   41HTM   C20124509  11.855   6.225   7.620  0.2959 -0.1876 -0.0492
   41HTM   C20224510  11.966   6.232   7.542  0.3613 -0.2022  0.0418
   41HTM   C20324511  12.062   6.330   7.584  0.2941 -0.1451  0.0621
   41HTM   C20424512  12.024   6.399   7.696  0.1772 -0.0868 -0.0133
   41HTM    S2124513  11.863   6.344   7.756  0.1429 -0.0997 -0.1166
   42TAL   C20524514  12.201   6.325   7.515  0.5797  0.1575 -0.3984
   42TAL   C20624515  12.259   6.184   7.459  0.0266  0.4724  0.1702
   42TAL   C20724516  12.401   6.203   7.405  0.6476 -0.5004  0.1863
   42TAL   C20824517  12.456   6.079   7.328  0.2500 -0.2812 -0.1549
   42TAL   C20924518  12.408   6.055   7.195 -0.0631  0.4083  1.3878
   42TAL   C21024519  12.509   6.124   7.107  0.8408 -0.1648 -0.0805
   43HTM   C21124520  12.098   6.513   7.757  0.1722  0.2970 -0.1620
   43HTM   C21224521  12.232   6.533   7.768  0.1609  0.3865 -0.1886
   43HTM   C21324522  12.267   6.646   7.851  0.1136  0.1125  0.2105
   43HTM   C21424523  12.160   6.711   7.903  0.0886 -0.1858  0.5415
   43HTM    S2224524  12.004   6.635   7.851  0.1233 -0.1434  0.3734
   44TAL   C21524525  12.413   6.678   7.880 -0.4000  0.2374  0.1759
   44TAL   C21624526  12.500   6.561   7.954  0.1405  0.7424 -1.4189
   44TAL   C21724527  12.644   6.586   8.000  0.3684 -0.1477 -0.0960
   44TAL   C21824528  12.720   6.683   7.906 -0.0871 -0.3263 -0.8584
   44TAL   C21924529  12.861   6.726   7.951  0.3911  0.8395  0.2718
   44TAL   C22024530  12.941   6.794   7.842 -0.5578 -0.3355  0.1441
   45HTM   C22124531  12.156   6.830   7.987  0.1328 -0.2650  0.0168
   45HTM   C22224532  12.234   6.865   8.093 -0.0277 -0.6300  0.2561
   45HTM   C22324533  12.205   6.995   8.148  0.1178 -0.6748  0.4447
   45HTM   C22424534  12.104   7.060   8.083  0.3891 -0.3440  0.3488
   45HTM    S2324535  12.038   6.961   7.947  0.4827  0.0527  0.0110
   46TAL   C22524536  12.292   7.052   8.267 -0.2801  0.1680  0.0305
   46TAL   C22624537  12.416   6.959   8.317  0.3159 -0.4403 -0.1933
   46TAL   C22724538  12.461   7.011   8.449  0.4536 -0.6654  0.0311
   46TAL   C22824539  12.562   6.919   8.516  0.7757  0.4303 -0.7905
   46TAL   C22924540  12.710   6.917   8.480  0.2869  0.2433  0.0871
   46TAL   C23024541  12.796   6.810   8.538 -0.1532  0.1827 -0.1426
   47HTM   C23124542  12.037   7.181   8.109 -1.0380  0.2081 -0.3521
   47HTM   C23224543  11.917   7.199   8.172 -1.0699  0.8183 -0.5732
   47HTM   C23324544  11.880   7.338   8.188 -0.3620  1.0154 -0.5810
   47HTM   C23424545  11.972   7.425   8.138  0.2099  0.5555 -0.3660
   47HTM    S2424546  12.112   7.339   8.065 -0.1037 -0.1676 -0.1351
   48TAL   C23524547  11.770   7.393   8.277  0.1607  0.5433  0.4721
   48TAL   C23624548  11.775   7.383   8.436 -0.7551 -0.4173  0.3878
   48TAL   C23724549  11.636   7.415   8.471 -0.8265  0.1714 -0.5026
   48TAL   C23824550  11.593   7.552   8.427  1.0847 -0.2586 -1.2510
   48TAL   C23924551  11.487   7.613   8.521  0.3938 -0.4168  1.0655
   48TAL   C24024552  11.454   7.745   8.475  0.3160 -0.3019 -0.0874
    1HTM     C124553   4.346   4.675   6.249  0.3697 -0.6284 -0.0344
    1HTM     C224554   4.345   4.795   6.314  0.5200 -0.9686  0.6025
    1HTM     C324555   4.458   4.878   6.283  0.4759 -0.8259  0.8236
    1HTM     C424556   4.545   4.823   6.194  0.2921 -0.3769  0.3553
    1HTM     S124557   4.490   4.659   6.142  0.1593 -0.0975 -0.4074
    2TAL     C524558   4.482   5.005   6.357 -0.5550 -0.1247 -0.9621
    2TAL     C624559   4.465   4.992   6.511 -0.5058  0.2772 -0.3697
    2TAL     C724560   4.540   4.872   6.581  0.3884  0.1244 -0.4449
    2TAL     C824561   4.471   4.840   6.719  0.0753 -0.1496  0.0188
    2TAL     C924562   4.558   4.841   6.844  0.5162  0.6710  0.5440
    2TAL    C1024563   4.505   4.822   6.983 -0.1677  1.3003 -0.1594
    3HTM    C1124564   4.669   4.862   6.140 -0.2790 -0.3350  0.7587
    3HTM    C1224565   4.755   4.791   6.062 -0.6670 -1.2631  1.1531
    3HTM    C1324566   4.884   4.851   6.047 -0.4017 -1.9380  0.6075
    3HTM    C1424567   4.898   4.969   6.114  0.1885 -1.5246 -0.2029
    3HTM     S224568   4.747   5.013   6.202  0.4572 -0.2407 -0.3409
    4TAL    C1524569   4.978   4.810   5.930 -0.1270  0.3757 -0.0130
    4TAL    C1624570   4.945   4.697   5.832 -0.1447  0.1331  0.1286
    4TAL    C1724571   5.076   4.667   5.755  0.6069  1.5978 -0.0161
    4TAL    C1824572   5.056   4.535   5.679 -0.3262 -0.6127  0.2880
    4TAL    C1924573   5.097   4.398   5.731  0.2638 -0.4196 -0.5399
    4TAL    C2024574   5.247   4.372   5.729  0.3962 -0.1033 -0.5258
    5HTM    C2124575   5.001   5.068   6.118 -0.4752  0.2123 -0.0058
    5HTM    C2224576   4.991   5.204   6.121 -0.1481  0.2383 -0.0215
    5HTM    C2324577   5.118   5.272   6.113  0.0030 -0.0632 -0.2167
    5HTM    C2424578   5.225   5.187   6.104 -0.2089 -0.3192 -0.3497
    5HTM     S324579   5.173   5.015   6.104 -0.6187 -0.1981 -0.2380
    6TAL    C2524580   5.133   5.427   6.138 -0.5330  0.1415 -1.1020
    6TAL    C2624581   5.025   5.532   6.183 -0.1980 -0.0840 -0.8290
    6TAL    C2724582   4.947   5.486   6.306 -0.1813 -0.2547  1.5921
    6TAL    C2824583   4.844   5.581   6.370 -0.3859  0.0679 -0.4354
    6TAL    C2924584   4.759   5.492   6.459  0.0403 -0.0709 -0.1947
    6TAL    C3024585   4.651   5.559   6.546 -0.2934 -0.8879 -0.2863
    7HTM    C3124586   5.367   5.213   6.107  0.3497  0.2910  0.1392
    7HTM    C3224587   5.454   5.121   6.158  0.5362  0.2986 -0.1638
    7HTM    C3324588   5.592   5.164   6.156  0.5004  0.4034 -0.4311
    7HTM    C3424589   5.609   5.289   6.104  0.2867  0.4754 -0.3319
    7HTM     S424590   5.452   5.362   6.053  0.1126  0.4161  0.1101
    8TAL    C3524591   5.701   5.087   6.213 -0.4928  1.2086  1.0804
    8TAL    C3624592   5.707   4.933   6.166 -0.1891 -0.6450 -0.4111
    8TAL    C3724593   5.812   4.862   6.253  0.2261 -0.1693 -0.0683
    8TAL    C3824594   5.856   4.724   6.192  0.0691 -0.2275 -1.1009
    8TAL    C3924595   5.939   4.737   6.070 -0.5693 -0.1690 -0.3872
    8TAL    C4024596   5.953   4.610   5.983 -0.0933  0.1388 -0.9182
    9HTM    C4124597   5.735   5.357   6.079 -0.4611  0.1545  0.6365
    9HTM    C4224598   5.847   5.385   6.151 -0.6962  0.8042  0.7578
    9HTM    C4324599   5.944   5.463   6.079 -0.9853  1.2130  0.8016
    9HTM    C4424600   5.906   5.494   5.951 -0.9706  0.8751  0.7139
    9HTM     S524601   5.744   5.426   5.913 -0.5876  0.0074  0.5679
   10TAL    C4524602   6.083   5.486   6.151  1.2550  0.9427  0.5014
   10TAL    C4624603   6.171   5.361   6.211 -0.1312 -0.9579 -0.1393
   10TAL    C4724604   6.234   5.277   6.100 -0.1412  0.0947  0.1311
   10TAL    C4824605   6.322   5.168   6.148  0.2459 -0.3885  0.1406
   10TAL    C4924606   6.384   5.093   6.037 -0.2343  0.0144  0.0119
   10TAL    C5024607   6.488   4.996   6.091 -0.5226 -1.1608 -0.1600
   11HTM    C5124608   5.991   5.557   5.842  0.1626  0.0576  0.5419
   11HTM    C5224609   5.936   5.578   5.719 -0.1744  0.1560  0.7064
   11HTM    C5324610   6.031   5.623   5.620 -0.4125  0.0840  0.4443
   11HTM    C5424611   6.158   5.636   5.667 -0.2572 -0.0689  0.0796
   11HTM     S624612   6.168   5.593   5.842  0.2055 -0.1348  0.0390
   12TAL    C5524613   5.987   5.638   5.471  0.1279 -0.1958 -1.8479
   12TAL    C5624614   5.935   5.510   5.407 -0.1705 -0.2357  0.1156
   12TAL    C5724615   5.871   5.540   5.280  0.2257  0.3633 -0.4437
   12TAL    C5824616   5.725   5.497   5.285 -0.0148 -0.1257  0.9273
   12TAL    C5924617   5.642   5.499   5.144 -0.7210  0.1364 -0.9253
   12TAL    C6024618   5.496   5.508   5.175 -0.5693 -0.1641  0.1677
   13HTM    C6124619   6.279   5.696   5.612 -0.0788  0.5072  0.6285
   13HTM    C6224620   6.397   5.724   5.674  0.1220  0.2973  0.3484
   13HTM    C6324621   6.503   5.761   5.584  0.0449 -0.1278  0.0744
   13HTM    C6424622   6.466   5.762   5.453 -0.2145 -0.2423  0.1453
   13HTM     S724623   6.292   5.716   5.433 -0.3828  0.1813  0.5672
   14TAL    C6524624   6.650   5.802   5.622  0.6089 -0.2289 -0.8861
   14TAL    C6624625   6.713   5.762   5.763  0.1581 -0.7015 -0.3314
   14TAL    C6724626   6.708   5.617   5.794 -0.8776  0.3292  0.2636
   14TAL    C6824627   6.824   5.580   5.894  0.3169 -0.4034  0.4267
   14TAL    C6924628   6.809   5.436   5.929  0.4111 -0.4733 -0.0325
   14TAL    C7024629   6.948   5.369   5.962  0.1613 -0.3736 -0.7847
   15HTM    C7124630   6.533   5.808   5.328  0.4507 -0.3493 -0.0352
   15HTM    C7224631   6.664   5.797   5.292  0.3508 -0.3835 -0.3982
   15HTM    C7324632   6.690   5.832   5.155  0.0319 -0.0530 -0.3772
   15HTM    C7424633   6.578   5.869   5.086 -0.1111  0.2332  0.0020
   15HTM     S824634   6.431   5.863   5.190  0.1476  0.1065  0.3647
   16TAL    C7524635   6.826   5.813   5.106  0.9736 -0.4619  0.6519
   16TAL    C7624636   6.914   5.919   5.186  1.3360  1.0793 -0.1300
   16TAL    C7724637   7.064   5.905   5.180 -0.8588 -0.0795  0.3576
   16TAL    C7824638   7.137   6.004   5.269  0.4874 -0.4491  0.5456
   16TAL    C7924639   7.283   6.045   5.268  0.4577 -0.3182 -0.2503
   16TAL    C8024640   7.325   6.119   5.147  0.2482  0.2437 -0.8130
   17HTM    C8124641   6.565   5.930   4.948 -0.2357  0.3789 -0.1150
   17HTM    C8224642   6.549   5.872   4.825 -0.5400  0.2246 -0.0038
   17HTM    C8324643   6.555   5.965   4.716 -0.3722  0.0275 -0.1640
   17HTM    C8424644   6.576   6.094   4.755  0.0598  0.0318 -0.3972
   17HTM     S924645   6.589   6.108   4.934  0.2903  0.2868 -0.4331
   18TAL    C8524646   6.530   5.920   4.572 -0.1055  0.2605 -0.3954
   18TAL    C8624647   6.414   5.837   4.552  0.1360  0.9571 -0.7754
   18TAL    C8724648   6.274   5.872   4.586  0.0313 -0.1670  0.4120
   18TAL    C8824649   6.168   5.771   4.541  0.1414 -0.7247  0.4134
   18TAL    C8924650   6.149   5.770   4.386  0.2497  0.6569 -1.4857
   18TAL    C9024651   6.052   5.662   4.357 -0.1806  0.7546 -0.0969
   19HTM    C9124652   6.573   6.220   4.673 -0.1904  0.8396  0.4094
   19HTM    C9224653   6.638   6.338   4.695 -0.4196  1.0508 -0.0317
   19HTM    C9324654   6.618   6.435   4.590 -0.2699  0.4750 -0.6101
   19HTM    C9424655   6.538   6.391   4.489  0.0736 -0.1755 -0.6097
   19HTM    S1024656   6.481   6.222   4.518  0.2359 -0.1105  0.1263
   20TAL    C9524657   6.658   6.579   4.599  0.2465 -0.4314  0.5436
   20TAL    C9624658   6.791   6.647   4.634 -0.2720 -0.7659  0.8174
   20TAL    C9724659   6.882   6.624   4.508 -0.7273  0.0721 -0.7171
   20TAL    C9824660   7.031   6.658   4.548 -0.5542 -0.4946 -0.1449
   20TAL    C9924661   7.135   6.603   4.439  0.8496 -0.5390 -0.1429
   20TAL   C10024662   7.169   6.686   4.325  0.6041  0.2051 -0.4666
   21HTM   C10124663   6.491   6.456   4.367 -0.0583 -0.7669 -0.3541
   21HTM   C10224664   6.527   6.419   4.240 -0.5436 -0.7465 -0.5044
   21HTM   C10324665   6.458   6.491   4.137 -0.4433 -0.2381 -0.2222
   21HTM   C10424666   6.370   6.584   4.184  0.1183  0.1293  0.1433
   21HTM    S1124667   6.366   6.586   4.364  0.5677 -0.1406  0.1595
   22TAL   C10524668   6.478   6.458   3.995  0.0814 -0.0687  0.8655
   22TAL   C10624669   6.473   6.322   3.928  1.1618  0.3865  0.1683
   22TAL   C10724670   6.505   6.320   3.773 -1.2222 -1.1225 -0.2519
   22TAL   C10824671   6.478   6.196   3.680  1.3617 -1.0890  0.9013
   22TAL   C10924672   6.338   6.137   3.692  0.6566 -0.0411 -1.1157
   22TAL   C11024673   6.231   6.204   3.601  0.3203 -0.3946 -0.3417
   23HTM   C11124674   6.279   6.675   4.111  0.6811  0.2317  0.0967
   23HTM   C11224675   6.177   6.634   4.030  0.8863 -0.0067 -0.0430
   23HTM   C11324676   6.075   6.734   4.011  0.6535 -0.2638 -0.1426
   23HTM   C11424677   6.098   6.850   4.078  0.2708 -0.2219 -0.0789
   23HTM    S1224678   6.252   6.843   4.171  0.1737  0.1490  0.1131
   24TAL   C11524679   5.953   6.701   3.927  0.1286 -0.3074  0.1791
   24TAL   C11624680   5.868   6.569   3.950  0.7910 -0.6743  1.0706
   24TAL   C11724681   5.826   6.523   4.099 -0.7149 -0.6311 -0.2656
   24TAL   C11824682   5.774   6.382   4.120  0.0610  0.2004 -0.0488
   24TAL   C11924683   5.753   6.360   4.266 -0.4076  0.7726  0.1138
   24TAL   C12024684   5.707   6.215   4.300 -0.3732 -0.8209  0.5100
   25HTM   C12124685   6.021   6.968   4.103  0.2322  0.2839 -0.7407
   25HTM   C12224686   6.063   7.077   4.174  0.6603  0.6684 -1.5502
   25HTM   C12324687   5.963   7.181   4.186  0.5627  0.5342 -1.1460
   25HTM   C12424688   5.846   7.151   4.123  0.0599  0.0476 -0.0281
   25HTM    S1324689   5.852   6.989   4.045 -0.3318 -0.2816  0.6052
   26TAL   C12524690   5.983   7.322   4.249 -0.4500  0.2211  0.4988
   26TAL   C12624691   6.031   7.317   4.402  0.0781 -0.0133  0.3511
   26TAL   C12724692   6.025   7.458   4.469 -0.3208 -0.3347 -0.6544
   26TAL   C12824693   6.103   7.480   4.595 -0.9298  0.0306 -0.1351
   26TAL   C12924694   6.052   7.422   4.729 -0.1755  0.5030  0.7455
   26TAL   C13024695   6.164   7.479   4.823  0.0970  0.1861  0.0296
   27HTM   C13124696   5.726   7.224   4.122  0.1239  0.2493  0.0367
   27HTM   C13224697   5.648   7.262   4.017 -0.0091 -0.2420 -0.0439
   27HTM   C13324698   5.518   7.309   4.056 -0.1144 -0.4550 -0.1329
   27HTM   C13424699   5.497   7.308   4.190 -0.0617 -0.1263 -0.1203
   27HTM    S1424700   5.641   7.246   4.279  0.1268  0.4828  0.0063
   28TAL   C13524701   5.412   7.354   3.958  0.0928 -0.3031  0.9398
   28TAL   C13624702   5.418   7.277   3.812  0.4233 -1.7629  0.3718
   28TAL   C13724703   5.343   7.346   3.696 -0.2722 -0.0630  0.0536
   28TAL   C13824704   5.351   7.272   3.553  0.1344 -0.1775 -0.4375
   28TAL   C13924705   5.314   7.127   3.549  0.2176  0.5324  0.0395
   28TAL   C14024706   5.292   7.074   3.406  0.6870  0.4890  0.2059
   29HTM   C14124707   5.381   7.345   4.276 -0.2044 -0.6152 -0.4013
   29HTM   C14224708   5.335   7.269   4.379 -0.3089 -0.4746 -0.3430
   29HTM   C14324709   5.211   7.316   4.436 -0.1631 -0.1694 -0.2731
   29HTM   C14424710   5.163   7.428   4.375  0.0530 -0.0775 -0.2779
   29HTM    S1524711   5.270   7.484   4.241  0.0889 -0.3715 -0.3720
   30TAL   C14524712   5.139   7.272   4.571 -0.6673 -0.5207 -0.1359
   30TAL   C14624713   5.083   7.128   4.549  0.0894 -0.6051 -0.8728
   30TAL   C14724714   4.971   7.072   4.647 -0.1057 -0.0776  0.5076
   30TAL   C14824715   4.845   7.147   4.692 -0.7520  0.2727 -0.1497
   30TAL   C14924716   4.725   7.058   4.757  0.2083  0.5731  0.0350
   30TAL   C15024717   4.645   7.152   4.840  0.9385 -0.1766 -0.8728
   31HTM   C15124718   5.031   7.491   4.375 -0.4737  0.1396 -0.8302
   31HTM   C15224719   5.002   7.602   4.302 -0.8526 -0.0824 -1.0235
   31HTM   C15324720   4.873   7.659   4.330 -0.7524 -0.0598 -0.6045
   31HTM   C15424721   4.803   7.591   4.426 -0.2975  0.1794 -0.0916
   31HTM    S1624722   4.896   7.449   4.487  0.0426  0.3964 -0.0981
   32TAL   C15524723   4.841   7.796   4.277 -0.8931  0.4091 -0.3482
   32TAL   C15624724   4.951   7.899   4.306  0.1694  0.0800  1.3890
   32TAL   C15724725   4.963   8.013   4.188  0.8651  0.9241  0.3686
   32TAL   C15824726   5.103   8.066   4.183  0.0192 -0.5390  0.5165
   32TAL   C15924727   5.128   8.137   4.050 -0.0548  1.4384  0.2826
   32TAL   C16024728   5.250   8.219   4.019 -0.6758  0.2205  0.7678
   33HTM   C16124729   4.670   7.596   4.471 -0.3626  0.6668  0.3768
   33HTM   C16224730   4.562   7.578   4.391 -0.5577  1.6518  0.4028
   33HTM   C16324731   4.436   7.577   4.462 -0.4799  1.9130  0.5451
   33HTM   C16424732   4.450   7.594   4.597 -0.2256  1.1272  0.6279
   33HTM    S1724733   4.623   7.612   4.644 -0.0634 -0.0126  0.5314
   34TAL   C16524734   4.305   7.545   4.403  0.7515 -0.0812  0.4642
   34TAL   C16624735   4.253   7.653   4.306 -0.8618  0.0469  0.6690
   34TAL   C16724736   4.106   7.626   4.291  0.3909 -0.4894 -0.5754
   34TAL   C16824737   4.012   7.702   4.385  0.6811  0.5742  0.0334
   34TAL   C16924738   3.885   7.627   4.402 -0.0992 -0.3167 -1.0628
   34TAL   C17024739   3.810   7.708   4.513 -0.3025 -0.5828  0.3378
   35HTM   C17124740   4.363   7.575   4.714  0.2800  0.1829  0.5464
   35HTM   C17224741   4.245   7.642   4.727  0.6174  0.7747  0.6613
   35HTM   C17324742   4.179   7.618   4.853  0.4927  0.8905  0.6187
   35HTM   C17424743   4.248   7.534   4.936  0.0605  0.3870  0.4713
   35HTM    S1824744   4.401   7.477   4.860 -0.2249 -0.2777  0.3743
   36TAL   C17524745   4.060   7.709   4.874 -0.4374 -0.2395  1.1127
   36TAL   C17624746   4.083   7.835   4.961  0.3197  0.3486  0.2534
   36TAL   C17724747   4.186   7.933   4.914  0.6833  0.0401  0.0374
   36TAL   C17824748   4.323   7.916   4.986 -0.4639 -0.4618 -1.4925
   36TAL   C17924749   4.323   7.910   5.139  0.0019  0.7875  0.5539
   36TAL   C18024750   4.439   7.972   5.213 -0.1829  0.1579  0.2337
   37HTM   C18124751   4.219   7.475   5.064  0.2289 -0.1696 -0.0904
   37HTM   C18224752   4.204   7.537   5.184  0.0365  0.1444 -0.2733
   37HTM   C18324753   4.167   7.448   5.291  0.0428  0.3931 -0.0615
   37HTM   C18424754   4.155   7.318   5.252  0.2399  0.2686  0.2828
   37HTM    S1924755   4.188   7.298   5.076  0.4343 -0.1755  0.3671
   38TAL   C18524756   4.154   7.494   5.436  0.1595 -0.7216  0.0079
   38TAL   C18624757   4.024   7.561   5.494 -0.0296  1.1876  0.2882
   38TAL   C18724758   3.988   7.679   5.415 -0.3185 -1.0374  0.4251
   38TAL   C18824759   4.069   7.811   5.431  0.9226  0.8159 -0.7689
   38TAL   C18924760   4.001   7.939   5.388 -1.8709 -0.8547 -0.6221
   38TAL   C19024761   4.095   8.063   5.383  0.9792 -0.7089 -0.3400
   39HTM   C19124762   4.102   7.194   5.315 -0.6575 -0.3180 -0.0774
   39HTM   C19224763   4.112   7.072   5.256 -0.7967 -0.3989  0.0678
   39HTM   C19324764   4.041   6.968   5.327 -0.7434 -0.2756  0.3042
   39HTM   C19424765   3.978   7.012   5.439 -0.5636 -0.1009  0.3394
   39HTM    S2024766   4.002   7.189   5.465 -0.4467 -0.0782  0.0744
   40TAL   C19524767   4.053   6.827   5.279  0.5395 -0.6625 -0.1981
   40TAL   C19624768   4.179   6.740   5.294 -0.3158  0.3291 -0.3585
   40TAL   C19724769   4.154   6.590   5.331  0.4350  1.0043  0.4821
   40TAL   C19824770   4.082   6.562   5.470 -0.3599  0.8545 -0.5879
   40TAL   C19924771   3.966   6.460   5.455  0.2527  0.6407  0.1528
   40TAL   C20024772   3.945   6.436   5.601 -0.4631  0.7023 -0.0067
   41HTM   C20124773   3.907   6.932   5.537 -1.1954  0.0050  0.4017
   41HTM   C20224774   3.792   6.860   5.527 -1.0172 -0.3763  0.9481
   41HTM   C20324775   3.760   6.783   5.644 -0.1789 -0.5338  1.0806
   41HTM   C20424776   3.852   6.795   5.744  0.2821 -0.2722  0.6353
   41HTM    S2124777   3.986   6.907   5.698 -0.3115  0.1966  0.0094
   42TAL   C20524778   3.646   6.686   5.643  0.4013 -0.3125  0.2853
   42TAL   C20624779   3.583   6.645   5.509  0.8019  0.0424  0.1778
   42TAL   C20724780   3.453   6.728   5.479  0.1685  0.3076 -0.5260
   42TAL   C20824781   3.374   6.660   5.368  0.8169 -0.4790 -0.3104
   42TAL   C20924782   3.247   6.748   5.357 -0.9224 -0.5279  0.2936
   42TAL   C21024783   3.133   6.692   5.282  0.4650 -0.1137  0.7340
   43HTM   C21124784   3.866   6.727   5.869 -0.7500 -0.0741 -0.5232
   43HTM   C21224785   3.975   6.648   5.889 -0.6865 -0.0681 -0.8457
   43HTM   C21324786   3.961   6.557   5.999 -0.4104 -0.1690 -0.8940
   43HTM   C21424787   3.842   6.566   6.064 -0.2634 -0.2523 -0.6078
   43HTM    S2224788   3.736   6.692   5.990 -0.4638 -0.2088 -0.2528
   44TAL   C21524789   4.080   6.482   6.072  0.3172 -0.1516  0.9695
   44TAL   C21624790   4.225   6.506   6.011 -0.4940 -0.5087 -1.3168
   44TAL   C21724791   4.271   6.464   5.875  0.1404  0.7346  0.0492
   44TAL   C21824792   4.413   6.509   5.842 -0.8280 -1.6151 -0.3143
   44TAL   C21924793   4.461   6.664   5.828 -0.2187  0.9670 -0.0717
   44TAL   C22024794   4.610   6.681   5.793  0.9736  0.1222 -0.8574
   45HTM   C22124795   3.774   6.488   6.164 -0.2256 -0.0473  0.2491
   45HTM   C22224796   3.768   6.493   6.300 -0.7706  0.1073  0.2248
   45HTM   C22324797   3.680   6.396   6.359 -0.6568 -0.1312  0.0037
   45HTM   C22424798   3.618   6.316   6.267 -0.0249 -0.4678 -0.1407
   45HTM    S2324799   3.667   6.358   6.099  0.4793 -0.5097 -0.0075
   46TAL   C22524800   3.690   6.366   6.513  0.1339 -0.9014  0.5058
   46TAL   C22624801   3.663   6.487   6.605 -0.3700 -0.3711  0.6990
   46TAL   C22724802   3.664   6.437   6.739 -0.2656 -0.3362 -0.1511
   46TAL   C22824803   3.649   6.545   6.840  0.3529 -0.6807  0.8541
   46TAL   C22924804   3.646   6.486   6.974  1.0717  0.1519  0.3813
   46TAL   C23024805   3.748   6.397   7.048  0.5679  0.9686  0.3910
   47HTM   C23124806   3.505   6.231   6.294 -0.3042  0.3424 -0.4120
   47HTM   C23224807   3.450   6.177   6.406 -0.4246  1.0295 -0.1291
   47HTM   C23324808   3.339   6.088   6.379 -0.3300  0.7817  0.2863
   47HTM   C23424809   3.310   6.075   6.247 -0.1373 -0.0947  0.3201
   47HTM    S2424810   3.421   6.174   6.145 -0.0599 -0.6791 -0.1737
   48TAL   C23524811   3.276   5.991   6.483 -0.2594  0.0501 -0.0183
   48TAL   C23624812   3.133   6.010   6.535  0.0877 -0.3685  0.6353
   48TAL   C23724813   3.026   6.058   6.430  1.0313 -0.0216 -0.7130
   48TAL   C23824814   2.960   5.942   6.364  0.0334  0.1608 -0.7230
   48TAL   C23924815   2.847   6.001   6.278 -0.6061  0.2242  0.6796
   48TAL   C24024816   2.784   5.881   6.205 -0.0763  0.3689 -1.0042
    1HTM     C124817   1.641   5.982  28.017  0.0022  0.1359  0.0615
    1HTM     C224818   1.690   5.872  27.953  0.1417  0.2804 -0.0811
    1HTM     C324819   1.679   5.751  28.030  0.3001  0.1670 -0.2360
    1HTM     C424820   1.622   5.769  28.153  0.2814 -0.0637 -0.2109
    1HTM     S124821   1.576   5.941  28.180  0.0605 -0.1566  0.0115
    2TAL     C524822   1.742   5.615  27.989  0.4063  0.1548 -0.5819
    2TAL     C624823   1.733   5.598  27.837  0.1909  0.5551  0.2128
    2TAL     C724824   1.799   5.471  27.785 -0.3835  0.9067 -0.3830
    2TAL     C824825   1.858   5.473  27.642  0.4965  0.3809 -0.0223
    2TAL     C924826   1.780   5.466  27.516 -0.2264 -0.1741 -0.3739
    2TAL    C1024827   1.672   5.356  27.502 -0.1156 -0.6007  0.2359
    3HTM    C1124828   1.599   5.683  28.264 -0.2237 -0.4244  0.1829
    3HTM    C1224829   1.478   5.630  28.299 -0.0851 -0.3859  0.7386
    3HTM    C1324830   1.487   5.523  28.395  0.2948 -0.2011  0.9170
    3HTM    C1424831   1.614   5.493  28.432  0.4458 -0.0988  0.4967
    3HTM     S224832   1.734   5.599  28.350  0.1174 -0.2287 -0.1614
    4TAL    C1524833   1.359   5.449  28.427 -0.8172  0.5333 -0.3987
    4TAL    C1624834   1.224   5.538  28.427 -0.7428  1.7490 -0.0440
    4TAL    C1724835   1.094   5.461  28.411  0.7314  0.1496  0.1437
    4TAL    C1824836   1.051   5.355  28.519 -0.6294  0.0130 -0.4479
    4TAL    C1924837   1.116   5.219  28.525  0.1889 -0.4604  0.1275
    4TAL    C2024838   1.133   5.129  28.408 -1.1452 -0.9464  0.0520
    5HTM    C2124839   1.664   5.409  28.542  0.7071 -0.9320  0.2851
    5HTM    C2224840   1.769   5.440  28.623  0.3819 -1.2496  0.8423
    5HTM    C2324841   1.783   5.352  28.737 -0.6937 -1.0722  1.1263
    5HTM    C2424842   1.687   5.255  28.742 -1.1887 -0.6193  0.7857
    5HTM     S324843   1.572   5.266  28.604 -0.3280 -0.3800  0.0746
    6TAL    C2524844   1.908   5.371  28.832 -0.1313 -0.9540  0.2085
    6TAL    C2624845   2.043   5.296  28.808  0.6875 -0.8248 -0.0176
    6TAL    C2724846   2.141   5.384  28.882 -0.0134  0.0058 -0.3089
    6TAL    C2824847   2.281   5.311  28.872  0.4386 -1.1907 -0.8224
    6TAL    C2924848   2.400   5.413  28.905 -0.0893 -0.2858  0.6939
    6TAL    C3024849   2.508   5.396  28.802  0.1939  0.4686 -0.3555
    7HTM    C3124850   1.666   5.148  28.837  0.2705  0.5166  0.1154
    7HTM    C3224851   1.668   5.014  28.812  0.8973  0.5790 -0.1911
    7HTM    C3324852   1.670   4.932  28.930  0.8722  0.3128 -0.3732
    7HTM    C3424853   1.669   5.004  29.046  0.2263  0.0477 -0.2055
    7HTM     S424854   1.666   5.181  29.015 -0.4053  0.1140  0.1985
    8TAL    C3524855   1.675   4.779  28.925  0.7924 -1.2244 -0.6679
    8TAL    C3624856   1.543   4.725  28.865 -0.8126 -0.5013 -1.7865
    8TAL    C3724857   1.497   4.581  28.888 -0.1528 -0.5221 -0.4591
    8TAL    C3824858   1.546   4.497  29.003 -0.5176  0.5817 -0.4459
    8TAL    C3924859   1.532   4.542  29.152  0.4064 -0.2753  0.6939
    8TAL    C4024860   1.541   4.438  29.256  0.2056  0.3779 -0.5661
    9HTM    C4124861   1.678   4.956  29.187  0.0554  0.1452  0.2117
    9HTM    C4224862   1.780   4.981  29.274 -0.2043  0.0583  0.5434
    9HTM    C4324863   1.749   4.947  29.410 -0.6472  0.0079  0.4333
    9HTM    C4424864   1.623   4.896  29.427 -0.7253  0.0561  0.0176
    9HTM     S524865   1.534   4.887  29.271 -0.2417  0.1703 -0.2693
   10TAL    C4524866   1.857   4.963  29.505 -0.4012  0.2370 -0.9592
   10TAL    C4624867   1.841   5.080  29.615  0.6134  0.4248 -0.2072
   10TAL    C4724868   1.847   5.230  29.574 -0.5459 -0.2067 -0.0693
   10TAL    C4824869   1.887   5.329  29.694  1.1423  0.9547  0.8968
   10TAL    C4924870   1.757   5.401  29.740 -0.2320 -0.1905  0.8718
   10TAL    C5024871   1.774   5.482  29.872  0.3233  0.0364 -0.0561
   11HTM    C5124872   1.553   4.848  29.535  0.3211  0.3684 -0.4547
   11HTM    C5224873   1.501   4.722  29.545  0.9202  0.1411 -0.0794
   11HTM    C5324874   1.406   4.706  29.652  1.1783 -0.0622  0.1218
   11HTM    C5424875   1.385   4.820  29.724  0.7760  0.0096 -0.1001
   11HTM     S624876   1.485   4.957  29.662  0.0342  0.3429 -0.5842
   12TAL    C5524877   1.321   4.581  29.664 -0.5604  0.2352  0.0244
   12TAL    C5624878   1.408   4.456  29.709 -0.1470  0.1926  0.7521
   12TAL    C5724879   1.481   4.457  29.852  0.8083 -0.2038 -0.0432
   12TAL    C5824880   1.403   4.462  29.983 -0.3080  0.2172  0.3547
   12TAL    C5924881   1.302   4.352  30.024  0.9015  0.1890 -0.2298
   12TAL    C6024882   1.349   4.209  30.011  0.3000  0.5195  0.1920
   13HTM    C6124883   1.303   4.836  29.845 -0.0168  0.3707  0.2167
   13HTM    C6224884   1.349   4.851  29.973 -0.2439  0.9452  0.2391
   13HTM    C6324885   1.249   4.824  30.074 -0.2498  0.7507  0.1832
   13HTM    C6424886   1.128   4.790  30.023 -0.0273  0.0280  0.1182
   13HTM     S724887   1.129   4.788  29.842  0.2088 -0.4671  0.1226
   14TAL    C6524888   1.281   4.838  30.221  1.0979 -0.1809  1.0227
   14TAL    C6624889   1.418   4.827  30.257 -1.1970  0.5202  0.3025
   14TAL    C6724890   1.421   4.855  30.403 -0.7911 -0.0515 -0.7297
   14TAL    C6824891   1.561   4.879  30.463  0.4937  0.2470 -0.0935
   14TAL    C6924892   1.667   4.768  30.442 -1.4422 -1.0742  0.2738
   14TAL    C7024893   1.801   4.805  30.512  0.4316 -0.3676 -0.2455
   15HTM    C7124894   1.008   4.742  30.097 -0.0962 -0.0451  0.0791
   15HTM    C7224895   0.900   4.802  30.156 -0.1370 -0.0936  0.0544
   15HTM    C7324896   0.804   4.709  30.210 -0.0831 -0.1369  0.0762
   15HTM    C7424897   0.839   4.578  30.192 -0.0011 -0.1213  0.1175
   15HTM     S824898   0.996   4.562  30.105  0.0144 -0.0502  0.1323
   16TAL    C7524899   0.685   4.765  30.287 -0.3566 -0.0918 -0.1456
   16TAL    C7624900   0.551   4.744  30.222 -0.4759 -0.5496  0.2949
   16TAL    C7724901   0.430   4.807  30.288 -0.9268 -0.3393  0.2928
   16TAL    C7824902   0.336   4.714  30.357  0.0804 -0.2270 -0.6392
   16TAL    C7924903   0.270   4.602  30.262  0.0790  1.0248 -0.0153
   16TAL    C8024904   0.115   4.594  30.271 -0.2608  0.0754  0.8993
   17HTM    C8124905   0.768   4.454  30.225  0.1564  0.0635  0.0355
   17HTM    C8224906   0.732   4.356  30.137  0.4505 -0.0967  0.0926
   17HTM    C8324907   0.660   4.248  30.198  0.3674 -0.0523  0.0729
   17HTM    C8424908   0.640   4.263  30.332  0.0100  0.1417  0.0008
   17HTM     S924909   0.712   4.417  30.392 -0.2514  0.2846 -0.0483
   18TAL    C8524910   0.629   4.130  30.111 -0.5601 -0.0453  0.6052
   18TAL    C8624911   0.564   4.139  29.971  0.3430  0.3625  0.3014
   18TAL    C8724912   0.535   4.014  29.881  0.0798  0.6866  0.3815
   18TAL    C8824913   0.461   3.880  29.934  0.4528 -0.9524 -0.0934
   18TAL    C8924914   0.334   3.912  30.017  0.1318 -0.4276  0.2240
   18TAL    C9024915   0.206   3.843  29.970 -0.2065  0.0154  0.1550
   19HTM    C9124916   0.565   4.167  30.420  0.0961 -0.5815 -0.0028
   19HTM    C9224917   0.531   4.037  30.401 -0.1669 -0.5195  0.0387
   19HTM    C9324918   0.468   3.976  30.516 -0.1279 -0.4066  0.1205
   19HTM    C9424919   0.454   4.061  30.622  0.1649 -0.3822  0.1414
   19HTM    S1024920   0.520   4.224  30.585  0.4159 -0.5012  0.0587
   20TAL    C9524921   0.422   3.838  30.505  0.4072 -0.5259 -0.4255
   20TAL    C9624922   0.291   3.809  30.428 -0.3485  0.7986  0.8358
   20TAL    C9724923   0.300   3.663  30.376 -0.0117 -0.2910 -1.1536
   20TAL    C9824924   0.180   3.589  30.420 -0.6833  0.6139  0.6432
   20TAL    C9924925   0.177   3.438  30.380 -0.3026  0.0141 -0.2571
   20TAL   C10024926   0.285   3.335  30.411  0.8506  1.1065  0.1231
   21HTM   C10124927   0.395   4.042  30.751 -0.5676 -0.3418 -0.4837
   21HTM   C10224928   0.337   4.138  30.829 -0.9246 -0.3330 -0.7594
   21HTM   C10324929   0.297   4.091  30.959 -0.5434 -0.0541 -0.5391
   21HTM   C10424930   0.326   3.960  30.981  0.1044  0.1495 -0.0956
   21HTM    S1124931   0.405   3.884  30.838  0.2845  0.0038  0.0797
   22TAL   C10524932   0.273   4.199  31.062  1.2363  0.2610  0.4658
   22TAL   C10624933   0.168   4.187  31.181  0.3374 -0.8866  0.4053
   22TAL   C10724934   0.021   4.190  31.125  0.2407  1.4124  0.6870
   22TAL   C10824935  -0.087   4.154  31.221 -0.1954  0.2818 -0.4118
   22TAL   C10924936  -0.140   4.258  31.333  0.5089  0.2558 -0.0388
   22TAL   C11024937  -0.282   4.253  31.370 -0.1390 -0.2524 -0.4313
   23HTM   C11124938   0.312   3.877  31.100 -0.3455  0.3165  0.8913
   23HTM   C11224939   0.400   3.861  31.203 -0.0720 -0.3183  0.5723
   23HTM   C11324940   0.367   3.754  31.293  0.2621 -0.9925 -0.0788
   23HTM   C11424941   0.252   3.688  31.259  0.2434 -0.8719 -0.2563
   23HTM    S1224942   0.178   3.756  31.110 -0.2011  0.1102  0.3900
   24TAL   C11524943   0.451   3.742  31.422 -0.4323  0.6528  0.2472
   24TAL   C11624944   0.440   3.861  31.513  0.4449 -0.5161  0.0112
   24TAL   C11724945   0.549   3.874  31.610 -0.6297  0.1083 -1.3630
   24TAL   C11824946   0.508   3.991  31.702 -0.0501  0.2528 -0.2019
   24TAL   C11924947   0.599   4.036  31.815  0.8370  0.6521 -0.3401
   24TAL   C12024948   0.539   4.156  31.887 -0.1219  0.2857  0.7873
   25HTM   C12124949   0.182   3.582  31.330 -0.2427  0.1996  0.2133
   25HTM   C12224950   0.240   3.472  31.386 -0.0089  0.3100  0.1903
   25HTM   C12324951   0.146   3.370  31.424  0.2035  0.1217  0.2136
   25HTM   C12424952   0.016   3.402  31.396  0.1316 -0.1323  0.2541
   25HTM    S1324953   0.003   3.564  31.319 -0.2125 -0.1535  0.2664
   26TAL   C12524954   0.182   3.238  31.494 -0.2645  0.4707 -0.7923
   26TAL   C12624955   0.297   3.169  31.421  0.3627 -0.6982 -0.1385
   26TAL   C12724956   0.391   3.097  31.503 -0.3410  0.0487 -0.1343
   26TAL   C12824957   0.517   3.096  31.411 -0.3517  1.1777  0.0910
   26TAL   C12924958   0.652   3.048  31.479 -0.4779  0.2628 -0.8024
   26TAL   C13024959   0.776   3.044  31.411 -0.0162 -0.3655 -0.5486
   27HTM   C13124960  -0.102   3.320  31.402 -0.1622  0.0384  0.0135
   27HTM   C13224961  -0.160   3.257  31.297 -0.7844  0.3805  0.1438
   27HTM   C13324962  -0.285   3.192  31.329 -0.7907  0.6018  0.5720
   27HTM   C13424963  -0.321   3.206  31.460 -0.1733  0.4285  0.7682
   27HTM    S1424964  -0.200   3.303  31.553  0.4690 -0.0313  0.4247
   28TAL   C13524965  -0.352   3.129  31.208  1.1471 -0.2613 -0.1338
   28TAL   C13624966  -0.323   2.985  31.180  0.3456  0.7039 -0.6773
   28TAL   C13724967  -0.182   2.963  31.135  0.6966 -0.0201 -0.7233
   28TAL   C13824968  -0.173   2.830  31.081 -1.0015  0.4227 -1.2843
   28TAL   C13924969  -0.035   2.788  31.075 -0.9497  0.7081  0.5429
   28TAL   C14024970  -0.024   2.649  31.016  0.6214 -0.7760  0.3420
   29HTM   C14124971  -0.434   3.149  31.538  0.2036 -0.2792  0.4278
   29HTM   C14224972  -0.449   3.150  31.674  0.0316 -0.6576  0.4143
   29HTM   C14324973  -0.564   3.077  31.720 -0.2069 -0.5231  0.0430
   29HTM   C14424974  -0.637   3.021  31.620 -0.2165 -0.0423 -0.2267
   29HTM    S1524975  -0.566   3.056  31.458  0.0770  0.2806 -0.0309
   30TAL   C14524976  -0.593   3.086  31.865 -0.5400  1.0957 -0.1517
   30TAL   C14624977  -0.679   3.190  31.924  0.3571 -0.2773 -0.7259
   30TAL   C14724978  -0.727   3.157  32.058 -0.2549 -0.1427 -0.7788
   30TAL   C14824979  -0.772   3.279  32.130 -0.2162 -0.9673 -0.7344
   30TAL   C14924980  -0.791   3.250  32.286  0.1968 -1.3230 -0.1587
   30TAL   C15024981  -0.817   3.390  32.358 -0.0778  1.2403 -0.4984
   31HTM   C15124982  -0.764   2.946  31.623 -0.3831 -0.1625  0.6607
   31HTM   C15224983  -0.820   2.885  31.731 -0.9966  0.1404  0.5259
   31HTM   C15324984  -0.952   2.832  31.707 -1.0341  0.4416  0.0542
   31HTM   C15424985  -0.996   2.854  31.580 -0.4496  0.3681 -0.1706
   31HTM    S1624986  -0.875   2.942  31.481  0.1988 -0.0905  0.1987
   32TAL   C15524987  -1.041   2.752  31.808 -0.5542 -1.1957 -0.1633
   32TAL   C15624988  -0.995   2.607  31.811  0.0808 -0.5787  0.6928
   32TAL   C15724989  -1.088   2.517  31.892 -0.4572 -0.8553 -1.1619
   32TAL   C15824990  -1.041   2.372  31.926  0.5719 -0.4966 -0.0866
   32TAL   C15924991  -0.935   2.350  32.042  0.1614  0.1275 -0.6432
   32TAL   C16024992  -0.858   2.212  31.994  0.3722 -0.5995  1.0418
   33HTM   C16124993  -1.106   2.809  31.507  0.3207 -0.2612 -0.0714
   33HTM   C16224994  -1.160   2.684  31.517  0.1047 -0.2087 -0.5115
   33HTM   C16324995  -1.241   2.646  31.405  0.1241  0.2864 -0.6964
   33HTM   C16424996  -1.249   2.742  31.308  0.3550  0.6112 -0.3973
   33HTM    S1724997  -1.154   2.889  31.353  0.5674  0.3148  0.1453
   34TAL   C16524998  -1.299   2.506  31.412 -0.1327  0.1412  0.6315
   34TAL   C16624999  -1.366   2.449  31.534 -0.0581  0.1515  0.1320
   34TAL   C16725000  -1.402   2.295  31.525  0.0496 -0.6456  0.3270
   34TAL   C16825001  -1.444   2.230  31.397 -0.2065 -0.1795  0.7722
   34TAL   C16925002  -1.594   2.257  31.367 -0.2620 -0.2129 -0.4196
   34TAL   C17025003  -1.650   2.205  31.227 -0.4633 -0.6560 -0.2169
   35HTM   C17125004  -1.330   2.751  31.193 -0.2025 -0.1197  0.1950
   35HTM   C17225005  -1.334   2.852  31.101 -0.3040 -0.0998  0.2216
   35HTM   C17325006  -1.441   2.838  31.005 -0.4077 -0.0815  0.3334
   35HTM   C17425007  -1.517   2.727  31.023 -0.3852 -0.0873  0.3919
   35HTM    S1825008  -1.460   2.630  31.164 -0.2303 -0.1168  0.3098
   36TAL   C17525009  -1.471   2.955  30.907  1.0229  0.0374 -0.7122
   36TAL   C17625010  -1.511   2.945  30.753  0.3381 -0.1492 -0.4144
   36TAL   C17725011  -1.405   2.887  30.668  0.7298  0.2373  0.6387
   36TAL   C17825012  -1.442   2.864  30.524  0.6336  0.5478  0.4531
   36TAL   C17925013  -1.325   2.802  30.445  0.5820 -0.3877  0.6874
   36TAL   C18025014  -1.334   2.889  30.313 -0.1744 -0.7009 -1.2604
   37HTM   C18125015  -1.630   2.679  30.942  0.0650  0.8304  0.4089
   37HTM   C18225016  -1.652   2.555  30.892  0.2331  0.2584  1.6666
   37HTM   C18325017  -1.785   2.537  30.838  0.3055 -0.4220  1.7000
   37HTM   C18425018  -1.863   2.647  30.847  0.1928 -0.3688  0.4679
   37HTM    S1925019  -1.776   2.784  30.926 -0.0154  0.5519 -0.8404
   38TAL   C18525020  -1.836   2.403  30.772  0.5833 -0.3712 -0.4706
   38TAL   C18625021  -1.859   2.393  30.627 -0.1840 -0.2903 -0.1457
   38TAL   C18725022  -1.883   2.266  30.554  1.0191 -0.2122 -0.4014
   38TAL   C18825023  -1.794   2.149  30.590 -0.0209 -0.1212  1.6782
   38TAL   C18925024  -1.653   2.161  30.521 -0.1066  0.2091  0.0831
   38TAL   C19025025  -1.664   2.153  30.366 -0.2241 -0.1164  0.2260
   39HTM   C19125026  -1.989   2.682  30.787  0.0094  0.5330  0.4454
   39HTM   C19225027  -2.014   2.777  30.692 -0.1575  0.4380  0.3940
   39HTM   C19325028  -2.153   2.791  30.660 -0.1643  0.0037  0.2119
   39HTM   C19425029  -2.235   2.708  30.731 -0.0027 -0.2324  0.1243
   39HTM    S2025030  -2.141   2.604  30.844  0.1721  0.0777  0.2662
   40TAL   C19525031  -2.201   2.900  30.568 -0.6451 -0.5013 -0.5242
   40TAL   C19625032  -2.224   2.894  30.414 -0.2442 -0.5940 -1.1023
   40TAL   C19725033  -2.252   2.754  30.373 -0.7673  0.1727  0.6786
   40TAL   C19825034  -2.304   2.734  30.236  0.0087 -0.9096 -0.3166
   40TAL   C19925035  -2.373   2.603  30.185  0.2496  0.7702  1.3317
   40TAL   C20025036  -2.286   2.476  30.209  0.5221 -0.1579 -0.1786
   41HTM   C20125037  -2.376   2.697  30.722  0.1569  0.0050 -0.0778
   41HTM   C20225038  -2.443   2.581  30.697  0.5069 -0.1369 -0.3823
   41HTM   C20325039  -2.586   2.596  30.690  0.4725 -0.5122 -0.5614
   41HTM   C20425040  -2.628   2.725  30.708  0.0962 -0.6565 -0.3935
   41HTM    S2125041  -2.489   2.837  30.737 -0.2462 -0.3270  0.0070
   42TAL   C20525042  -2.665   2.465  30.675  0.8388 -0.2407  0.6351
   42TAL   C20625043  -2.671   2.381  30.792 -0.5771  0.2006 -0.0935
   42TAL   C20725044  -2.786   2.284  30.796 -0.1980 -0.0603  0.7568
   42TAL   C20825045  -2.807   2.207  30.929 -0.4384 -0.5633  0.2858
   42TAL   C20925046  -2.704   2.100  30.979  0.1086  0.5147 -0.6076
   42TAL   C21025047  -2.762   2.024  31.102 -0.4785 -0.9273  0.0909
   43HTM   C21125048  -2.764   2.780  30.711 -0.1569  0.4695  0.7161
   43HTM   C21225049  -2.811   2.885  30.637  0.2172  0.9899  1.1967
   43HTM   C21325050  -2.938   2.935  30.683  0.1068  0.8324  1.0673
   43HTM   C21425051  -2.987   2.869  30.792 -0.3512  0.1920  0.4880
   43HTM    S2225052  -2.877   2.737  30.845 -0.6813 -0.2654  0.0576
   44TAL   C21525053  -2.989   3.043  30.592 -0.1761 -0.0245 -0.7343
   44TAL   C21625054  -3.110   3.117  30.625 -1.1243 -1.0049  0.0784
   44TAL   C21725055  -3.078   3.223  30.732 -0.6814  0.8097  0.1837
   44TAL   C21825056  -3.186   3.324  30.734 -0.3760  0.3875  0.4090
   44TAL   C21925057  -3.149   3.452  30.808  0.2674 -0.9572 -0.3790
   44TAL   C22025058  -3.129   3.452  30.957 -0.2206 -0.4769 -0.6107
   45HTM   C22125059  -3.114   2.876  30.865  0.1562 -0.0629 -0.2442
   45HTM   C22225060  -3.128   2.893  30.999  0.0932 -0.8761 -0.1367
   45HTM   C22325061  -3.264   2.915  31.041  0.0732 -1.1325 -0.0650
   45HTM   C22425062  -3.354   2.914  30.939  0.1209 -0.5148 -0.1178
   45HTM    S2325063  -3.273   2.886  30.780  0.1955  0.4462 -0.2634
   46TAL   C22525064  -3.297   2.967  31.176  1.0622  0.1309 -0.0324
   46TAL   C22625065  -3.190   3.043  31.267  0.9484 -0.6450 -0.0943
   46TAL   C22725066  -3.145   3.174  31.227 -0.0912 -0.3000 -0.3264
   46TAL   C22825067  -3.024   3.218  31.310  0.7599  0.6988  0.0621
   46TAL   C22925068  -2.997   3.365  31.306  0.0798 -0.0984 -1.0222
   46TAL   C23025069  -3.055   3.437  31.427  0.6469  0.7108  0.3123
   47HTM   C23125070  -3.498   2.919  30.934 -0.1496  0.5772  0.5084
   47HTM   C23225071  -3.567   2.999  30.849  0.0764  0.8680  0.5968
   47HTM   C23325072  -3.707   3.011  30.882 -0.0354  0.6637  0.2044
   47HTM   C23425073  -3.744   2.940  30.991 -0.3464  0.2172 -0.1831
   47HTM    S2425074  -3.604   2.851  31.063 -0.5238  0.0186 -0.0817
   48TAL   C23525075  -3.804   3.092  30.815 -0.3455  0.4701 -0.2600
   48TAL   C23625076  -3.904   3.047  30.713  1.0772  0.0024 -0.4492
   48TAL   C23725077  -4.016   2.943  30.750 -0.4326 -0.8854  0.0376
   48TAL   C23825078  -4.107   2.978  30.857  0.5016  0.2066  0.2629
   48TAL   C23925079  -4.220   3.054  30.789  0.5521  0.2386 -0.5063
   48TAL   C24025080  -4.321   3.103  30.898 -0.4516  1.0256 -0.6327
    1HTM     C125081   0.953   1.211  13.312 -0.4952 -0.1465  0.6243
    1HTM     C225082   1.062   1.215  13.230 -0.4076  0.0481  0.7474
    1HTM     C325083   1.035   1.167  13.096 -0.2342  0.2415  0.6428
    1HTM     C425084   0.907   1.128  13.077 -0.1897  0.1944  0.4403
    1HTM     S125085   0.808   1.147  13.226 -0.3646 -0.1001  0.3652
    2TAL     C525086   1.141   1.164  12.988 -1.0669  0.9828 -0.0474
    2TAL     C625087   1.250   1.044  13.000  0.4363 -0.6590  0.2713
    2TAL     C725088   1.327   1.009  12.876 -1.0648 -0.2107 -0.6696
    2TAL     C825089   1.464   0.957  12.933  1.0032  0.0425 -0.3002
    2TAL     C925090   1.578   0.926  12.846 -0.3399 -0.2603 -0.3489
    2TAL    C1025091   1.559   0.825  12.728  0.7463 -0.7301 -0.1649
    3HTM    C1125092   0.847   1.054  12.970 -0.5898 -0.0612  0.0390
    3HTM    C1225093   0.744   0.964  12.977 -0.4838 -0.2361 -0.5174
    3HTM    C1325094   0.704   0.911  12.849 -0.1064  0.1498 -0.8013
    3HTM    C1425095   0.775   0.961  12.744  0.0752  0.6190 -0.4618
    3HTM     S225096   0.900   1.080  12.799 -0.2185  0.6097  0.2489
    4TAL    C1525097   0.585   0.815  12.852 -0.7970 -0.5970  0.8522
    4TAL    C1625098   0.537   0.744  12.975  0.2230  0.4970 -0.2232
    4TAL    C1725099   0.513   0.604  12.934  0.1325 -0.5493 -0.2500
    4TAL    C1825100   0.439   0.513  13.030 -0.2283 -1.0059  0.1266
    4TAL    C1925101   0.503   0.505  13.166 -0.1886  0.1785  0.1560
    4TAL    C2025102   0.455   0.389  13.246 -0.6714  0.3617  0.0910
    5HTM    C2125103   0.758   0.961  12.599  0.5463 -0.4749 -0.5061
    5HTM    C2225104   0.734   0.858  12.513  0.4966 -0.1804 -0.8450
    5HTM    C2325105   0.759   0.892  12.375  0.2903  0.3319 -0.7615
    5HTM    C2425106   0.802   1.020  12.357  0.1826  0.4280 -0.3597
    5HTM     S325107   0.814   1.109  12.513  0.3346 -0.1253 -0.0523
    6TAL    C2525108   0.742   0.795  12.263  0.3463  1.0901  0.0408
    6TAL    C2625109   0.603   0.727  12.249 -0.3346 -0.3840  0.2856
    6TAL    C2725110   0.497   0.830  12.222  0.2911 -0.4676  0.3360
    6TAL    C2825111   0.346   0.796  12.247 -0.9825  0.1136  0.7576
    6TAL    C2925112   0.295   0.716  12.122 -0.5063  0.5072 -1.5634
    6TAL    C3025113   0.154   0.659  12.146  0.2128 -0.0589 -0.2759
    7HTM    C3125114   0.843   1.081  12.225  0.4251 -0.4184 -0.1834
    7HTM    C3225115   0.796   1.052  12.100 -0.0153 -0.1728 -0.0789
    7HTM    C3325116   0.841   1.142  11.998 -0.6065  0.1983 -0.0219
    7HTM    C3425117   0.923   1.241  12.044 -0.6168  0.2356 -0.0829
    7HTM     S425118   0.949   1.227  12.222  0.1251 -0.1985 -0.2181
    8TAL    C3525119   0.816   1.100  11.860 -0.4758  0.0835  1.0376
    8TAL    C3625120   0.694   1.162  11.815 -0.5747 -0.9738  0.7544
    8TAL    C3725121   0.669   1.133  11.671 -0.0171  1.0933  0.2390
    8TAL    C3825122   0.538   1.169  11.631  0.2349 -0.1215  0.0301
    8TAL    C3925123   0.504   1.147  11.485 -0.3742  0.6253  0.3057
    8TAL    C4025124   0.458   1.008  11.442 -0.1175  0.8295 -0.2877
    9HTM    C4125125   0.992   1.341  11.967  0.1751 -0.1545 -0.1353
    9HTM    C4225126   0.939   1.403  11.858 -0.1182  0.1130  0.1554
    9HTM    C4325127   1.023   1.504  11.801 -0.4243  0.5065  0.3846
    9HTM    C4425128   1.142   1.519  11.866 -0.3645  0.5390  0.2689
    9HTM     S525129   1.156   1.407  12.006  0.0867  0.0716 -0.1423
   10TAL    C4525130   0.976   1.569  11.676  0.5573 -0.5930 -0.5334
   10TAL    C4625131   0.917   1.481  11.566 -0.9719 -0.1233  1.2150
   10TAL    C4725132   1.002   1.368  11.507  0.2637 -0.3302  0.0294
   10TAL    C4825133   0.930   1.267  11.416 -0.3697 -0.1499 -0.2576
   10TAL    C4925134   0.849   1.303  11.288  0.4918 -0.5762 -0.3650
   10TAL    C5025135   0.930   1.378  11.187  0.5486 -0.2939  0.5129
   11HTM    C5125136   1.254   1.601  11.831 -0.3047  0.6514 -0.4295
   11HTM    C5225137   1.331   1.620  11.720 -0.4449  1.3472 -0.4168
   11HTM    C5325138   1.448   1.701  11.744 -0.3954  1.1723 -0.0405
   11HTM    C5425139   1.459   1.745  11.873 -0.2175  0.3431  0.2336
   11HTM     S625140   1.323   1.685  11.975 -0.0978 -0.2860  0.0363
   12TAL    C5525141   1.547   1.756  11.642  0.0064 -0.0649  0.5603
   12TAL    C5625142   1.501   1.804  11.505  0.1034 -0.3630 -0.3402
   12TAL    C5725143   1.614   1.851  11.408 -0.0831 -0.1866 -0.0320
   12TAL    C5825144   1.584   1.991  11.349 -1.1225 -0.1774 -0.2337
   12TAL    C5925145   1.661   2.092  11.436 -0.1090 -0.2933 -0.0357
   12TAL    C6025146   1.816   2.097  11.434 -0.2478 -0.3666 -0.5603
   13HTM    C6125147   1.555   1.829  11.948  0.1263 -0.2214  0.0241
   13HTM    C6225148   1.527   1.931  12.034  0.1807 -0.1697 -0.0203
   13HTM    C6325149   1.644   1.999  12.082  0.1960  0.1335 -0.4663
   13HTM    C6425150   1.761   1.948  12.034  0.1531  0.3130 -0.7622
   13HTM     S725151   1.732   1.810  11.922  0.0898  0.1114 -0.4981
   14TAL    C6525152   1.642   2.113  12.180 -0.0335  0.2591 -1.3408
   14TAL    C6625153   1.523   2.189  12.237  0.5376  0.7319 -0.3432
   14TAL    C6725154   1.462   2.292  12.140 -0.4337 -0.0658  0.0248
   14TAL    C6825155   1.551   2.402  12.072 -0.5413 -0.2091 -1.0402
   14TAL    C6925156   1.454   2.472  11.980  0.9115 -0.7433 -0.1148
   14TAL    C7025157   1.473   2.470  11.828 -1.0825 -0.4775  0.1818
   15HTM    C7125158   1.900   1.974  12.059  0.0014  0.6252  0.0093
   15HTM    C7225159   2.003   1.939  11.976 -0.1980  0.5907 -0.2263
   15HTM    C7325160   2.128   2.003  12.009 -0.0124  0.2607 -0.2804
   15HTM    C7425161   2.120   2.086  12.117  0.3286  0.0437 -0.0863
   15HTM     S825162   1.954   2.090  12.186  0.4425  0.2407  0.1825
   16TAL    C7525163   2.270   1.980  11.947  0.6018  0.5830 -0.1531
   16TAL    C7625164   2.281   1.852  11.860  0.9280 -0.5317  0.3984
   16TAL    C7725165   2.378   1.854  11.742 -0.7130  0.5021 -0.3242
   16TAL    C7825166   2.530   1.845  11.775 -0.3319  0.1513 -0.4283
   16TAL    C7925167   2.613   1.827  11.648  0.6794 -0.1000  0.0349
   16TAL    C8025168   2.758   1.793  11.650 -0.1832  0.3759 -0.1609
   17HTM    C8125169   2.224   2.160  12.176 -0.2098 -0.2650  0.0216
   17HTM    C8225170   2.345   2.120  12.224  0.1433 -0.0826 -0.6990
   17HTM    C8325171   2.412   2.220  12.304  0.4728  0.0165 -1.0905
   17HTM    C8425172   2.341   2.336  12.317  0.3711 -0.0904 -0.6684
   17HTM     S925173   2.183   2.327  12.229 -0.1529 -0.3262  0.2631
   18TAL    C8525174   2.555   2.209  12.370 -0.8720  0.4142  0.3018
   18TAL    C8625175   2.579   2.109  12.485  0.7065 -0.0580 -0.3067
   18TAL    C8725176   2.658   1.998  12.423 -1.1161 -0.2263 -0.1894
   18TAL    C8825177   2.737   1.928  12.534 -0.6042 -0.4681  0.2383
   18TAL    C8925178   2.814   1.818  12.460  0.1596 -0.2581  0.3740
   18TAL    C9025179   2.923   1.756  12.541  0.2457  0.3548  0.1768
   19HTM    C9125180   2.361   2.458  12.395  0.3879  0.2303 -0.3172
   19HTM    C9225181   2.389   2.470  12.528  0.9803  0.3099 -0.4430
   19HTM    C9325182   2.360   2.601  12.581  0.9735  0.2653 -0.3369
   19HTM    C9425183   2.311   2.688  12.489  0.3761  0.1517 -0.1307
   19HTM    S1025184   2.296   2.612  12.326 -0.2291  0.0916 -0.0535
   20TAL    C9525185   2.407   2.649  12.728 -0.4385  0.0706  0.8481
   20TAL    C9625186   2.326   2.597  12.844 -0.3562  0.2390 -0.7541
   20TAL    C9725187   2.396   2.491  12.934  0.6893  0.6161  0.5662
   20TAL    C9825188   2.326   2.427  13.062  0.4585  0.0078  0.5309
   20TAL    C9925189   2.211   2.323  13.015 -0.8171  0.4575  0.9407
   20TAL   C10025190   2.092   2.358  13.093  0.7037 -0.4889 -0.1171
   21HTM   C10125191   2.265   2.836  12.503 -0.1223  0.6962  1.1916
   21HTM   C10225192   2.312   2.930  12.590  0.2725  1.3488  0.3035
   21HTM   C10325193   2.259   3.062  12.566  0.6794  1.3240 -0.8349
   21HTM   C10425194   2.173   3.068  12.461  0.5950  0.6527 -0.8147
   21HTM    S1125195   2.151   2.907  12.383 -0.0097 -0.0056  0.6551
   22TAL   C10525196   2.314   3.163  12.658  0.6719 -0.0333 -0.2735
   22TAL   C10625197   2.228   3.173  12.784  1.0545 -0.4157 -1.1283
   22TAL   C10725198   2.198   3.311  12.851 -0.5144  0.3501  0.3981
   22TAL   C10825199   2.330   3.361  12.920  0.6529  0.1258  0.6303
   22TAL   C10925200   2.305   3.478  13.012  0.7952 -0.0092  0.0648
   22TAL   C11025201   2.425   3.553  13.055  0.5696 -0.1076 -1.2450
   23HTM   C11125202   2.094   3.187  12.409  0.3264 -0.2183 -0.8422
   23HTM   C11225203   1.991   3.194  12.320  0.1182 -0.1165 -0.5956
   23HTM   C11325204   1.942   3.328  12.299 -0.2638 -0.1503  0.0441
   23HTM   C11425205   2.007   3.423  12.372 -0.3467 -0.2779  0.2854
   23HTM    S1225206   2.137   3.350  12.474  0.0542 -0.3660 -0.2810
   24TAL   C11525207   1.855   3.363  12.178  1.1104  0.0756 -1.2424
   24TAL   C11625208   1.836   3.264  12.064  0.5188  0.2703 -0.2707
   24TAL   C11725209   1.967   3.247  11.987  0.1462  0.2487 -0.1830
   24TAL   C11825210   1.940   3.218  11.840  1.2186 -0.0409  0.7849
   24TAL   C11925211   2.047   3.205  11.725  0.1720 -0.6104  0.0165
   24TAL   C12025212   1.973   3.164  11.597  0.6822 -0.1433  0.1741
   25HTM   C12125213   1.974   3.561  12.406 -0.2666 -0.0119  0.0785
   25HTM   C12225214   2.026   3.629  12.512  0.1553 -0.0575 -0.0949
   25HTM   C12325215   1.994   3.770  12.511  0.6740  0.0652 -0.2315
   25HTM   C12425216   1.917   3.808  12.405  0.6478  0.2044 -0.1629
   25HTM    S1325217   1.880   3.669  12.296 -0.0397  0.1910  0.0819
   26TAL   C12525218   2.056   3.852  12.625  0.0377 -0.1294  0.4463
   26TAL   C12625219   2.190   3.918  12.597  0.1716 -0.0446 -0.0015
   26TAL   C12725220   2.255   3.966  12.720 -0.2192 -0.1134 -0.2053
   26TAL   C12825221   2.177   4.061  12.815  0.2652  0.4927  0.0681
   26TAL   C12925222   2.116   4.176  12.737 -0.8967  0.7966  0.5163
   26TAL   C13025223   2.221   4.268  12.676 -0.4697 -0.0074 -0.6686
   27HTM   C13125224   1.887   3.940  12.362 -0.3975  0.3913 -0.1864
   27HTM   C13225225   1.851   3.989  12.240 -0.2860  0.8008 -0.0596
   27HTM   C13325226   1.806   4.126  12.244 -0.2135  0.8174  0.3455
   27HTM   C13425227   1.809   4.181  12.368 -0.2698  0.4205  0.5273
   27HTM    S1425228   1.868   4.064  12.492 -0.4199 -0.0084  0.1990
   28TAL   C13525229   1.776   4.193  12.111 -0.3265  0.4376 -0.4557
   28TAL   C13625230   1.674   4.132  12.018 -0.4961  0.7531 -0.5868
   28TAL   C13725231   1.535   4.183  12.049 -0.2337 -0.8161 -0.5761
   28TAL   C13825232   1.481   4.323  12.005 -0.3230  0.5286  0.3445
   28TAL   C13925233   1.340   4.367  12.035  0.5447 -0.6388  0.4260
   28TAL   C14025234   1.340   4.515  12.020 -1.1285  0.9756  0.3574
   29HTM   C14125235   1.766   4.314  12.420  0.0819  0.4982  0.2615
   29HTM   C14225236   1.790   4.372  12.541 -0.4132  0.5065  0.3633
   29HTM   C14325237   1.713   4.491  12.565 -0.6461  0.4067  0.1163
   29HTM   C14425238   1.629   4.524  12.462 -0.3285  0.3224 -0.1732
   29HTM    S1525239   1.642   4.405  12.327  0.2941  0.3629 -0.1572
   30TAL   C14525240   1.724   4.554  12.704 -0.8950 -0.6553  0.0595
   30TAL   C14625241   1.858   4.530  12.780  0.0768  0.0676  0.0013
   30TAL   C14725242   1.863   4.410  12.875 -1.3180 -0.2144  0.3028
   30TAL   C14825243   1.748   4.361  12.960  0.0584  0.3568 -0.2092
   30TAL   C14925244   1.640   4.459  13.009 -0.7185 -1.1489 -0.7712
   30TAL   C15025245   1.536   4.389  13.092 -0.0830 -0.6257  0.9516
   31HTM   C15125246   1.548   4.650  12.458  0.6931 -0.5670  0.4874
   31HTM   C15225247   1.570   4.757  12.377  0.8438 -0.6663  0.3965
   31HTM   C15325248   1.471   4.861  12.390  0.5928 -0.8273 -0.2165
   31HTM   C15425249   1.372   4.832  12.479  0.2507 -0.8506 -0.5927
   31HTM    S1625250   1.398   4.671  12.556  0.2188 -0.6701 -0.1992
   32TAL   C15525251   1.487   4.985  12.297  0.0522  0.1767 -0.4210
   32TAL   C15625252   1.359   5.037  12.232 -0.1775 -0.3030  0.6270
   32TAL   C15725253   1.383   5.162  12.147  0.0966 -0.1104 -0.7568
   32TAL   C15825254   1.285   5.176  12.034  0.2624  0.1144  0.0885
   32TAL   C15925255   1.287   5.310  11.957 -1.0381 -0.1926 -0.1465
   32TAL   C16025256   1.208   5.292  11.835  0.7758 -0.1356  0.2586
   33HTM   C16125257   1.248   4.905  12.516  0.2793  0.4257 -0.0370
   33HTM   C16225258   1.235   5.000  12.613  0.4058  0.5393 -0.1316
   33HTM   C16325259   1.099   5.041  12.636  0.4278  0.5158  0.0458
   33HTM   C16425260   1.008   4.978  12.556  0.3182  0.3841  0.2754
   33HTM    S1725261   1.088   4.860  12.446  0.1775  0.2789  0.2852
   34TAL   C16525262   1.058   5.141  12.742 -0.4136 -0.2566 -0.4401
   34TAL   C16625263   1.140   5.265  12.780 -0.2524  0.0572 -0.7207
   34TAL   C16725264   1.133   5.369  12.664  0.2223  0.2436 -0.7783
   34TAL   C16825265   1.040   5.496  12.682 -0.0297  0.3466  0.1283
   34TAL   C16925266   1.072   5.614  12.776 -1.1280 -0.4099  0.1928
   34TAL   C17025267   0.974   5.717  12.779 -0.6984  0.4128  0.5750
   35HTM   C17125268   0.866   4.998  12.549  0.1012 -0.5148 -0.1011
   35HTM   C17225269   0.796   5.113  12.526  0.5309 -0.2676 -0.1967
   35HTM   C17325270   0.654   5.097  12.536  0.4753  0.3303  0.0484
   35HTM   C17425271   0.615   4.970  12.567  0.0032  0.5390  0.3304
   35HTM    S1825272   0.756   4.860  12.586 -0.4110 -0.0077  0.3090
   36TAL   C17525273   0.548   5.205  12.512 -0.0350  0.1217 -0.3209
   36TAL   C17625274   0.576   5.346  12.576  0.1560 -0.1195 -0.9109
   36TAL   C17725275   0.473   5.445  12.518  0.4527  0.3725  0.2823
   36TAL   C17825276   0.518   5.583  12.535  0.6382 -0.7042 -0.5239
   36TAL   C17925277   0.410   5.673  12.484  0.0535 -0.1210 -0.1972
   36TAL   C18025278   0.466   5.802  12.444 -0.5813 -0.4521  1.1402
   37HTM   C18125279   0.491   4.909  12.599 -0.4775  0.8100  0.7596
   37HTM   C18225280   0.361   4.939  12.572 -0.5180  1.1117  1.2581
   37HTM   C18325281   0.266   4.858  12.644 -0.4179  0.6316  0.8605
   37HTM   C18425282   0.323   4.766  12.726 -0.3012 -0.0363  0.0589
   37HTM    S1925283   0.503   4.775  12.719 -0.3086 -0.1113 -0.2585
   38TAL   C18525284   0.119   4.876  12.605 -0.5894 -1.2838 -0.3907
   38TAL   C18625285   0.089   4.828  12.464 -0.5177 -0.7792 -0.5046
   38TAL   C18725286  -0.050   4.867  12.419  0.3596 -0.3532 -0.4126
   38TAL   C18825287  -0.171   4.784  12.477  0.2247  0.1420  0.9179
   38TAL   C18925288  -0.302   4.863  12.462 -1.3432  0.4245  0.0707
   38TAL   C19025289  -0.420   4.780  12.494  0.3692 -0.1048  0.0692
   39HTM   C19125290   0.273   4.672  12.828  0.2234 -0.3722 -0.2641
   39HTM   C19225291   0.336   4.620  12.938  0.2751 -0.8219 -0.5009
   39HTM   C19325292   0.252   4.533  13.016  0.1641 -0.7772 -0.5686
   39HTM   C19425293   0.126   4.517  12.966  0.0278 -0.2937 -0.3836
   39HTM    S2025294   0.103   4.614  12.815  0.0290  0.1465 -0.1070
   40TAL   C19525295   0.333   4.470  13.129 -0.7284  1.0054 -0.5504
   40TAL   C19625296   0.269   4.483  13.268  0.6236 -0.2573  0.0948
   40TAL   C19725297   0.368   4.472  13.391  0.3495  0.2350  0.3822
   40TAL   C19825298   0.476   4.577  13.400  0.2487 -0.3164 -0.5184
   40TAL   C19925299   0.420   4.712  13.390 -0.0226 -0.4711  1.1212
   40TAL   C20025300   0.522   4.809  13.432 -0.7929 -0.4303 -0.1048
   41HTM   C20125301   0.030   4.411  13.001 -0.0645  0.0534  0.1186
   41HTM   C20225302  -0.008   4.390  13.130  0.1455 -0.0638  0.1631
   41HTM   C20325303  -0.124   4.305  13.143  0.2402 -0.1755  0.2811
   41HTM   C20425304  -0.174   4.261  13.024  0.1027 -0.1437  0.3265
   41HTM    S2125305  -0.077   4.324  12.885 -0.1595  0.0313  0.2230
   42TAL   C20525306  -0.191   4.260  13.273 -0.9340  0.5234 -0.7104
   42TAL   C20625307  -0.123   4.283  13.411 -0.0829 -0.3765  0.9482
   42TAL   C20725308  -0.089   4.417  13.452  0.4130 -0.7193 -0.3121
   42TAL   C20825309   0.013   4.405  13.572  0.4871 -0.9918  0.9832
   42TAL   C20925310   0.026   4.542  13.647 -0.2445  0.6036  0.0582
   42TAL   C21025311   0.120   4.523  13.776  0.3808 -0.3252  0.9706
   43HTM   C21125312  -0.279   4.168  12.998 -0.2551 -0.0879 -0.0650
   43HTM   C21225313  -0.279   4.063  12.911 -0.0645 -0.4086  0.3204
   43HTM   C21325314  -0.402   3.990  12.908  0.0354 -0.5900  0.5167
   43HTM   C21425315  -0.498   4.040  12.992 -0.0794 -0.4071  0.2804
   43HTM    S2225316  -0.438   4.183  13.082 -0.3241  0.0111 -0.2116
   44TAL   C21525317  -0.423   3.855  12.838 -0.0938 -0.8465  0.0833
   44TAL   C21625318  -0.326   3.795  12.738 -0.2690 -0.8250  0.6065
   44TAL   C21725319  -0.359   3.832  12.589 -0.2468  0.5759 -0.4236
   44TAL   C21825320  -0.491   3.805  12.517  0.0141 -0.6717  0.0136
   44TAL   C21925321  -0.550   3.658  12.492 -0.2689  0.6187  0.4037
   44TAL   C22025322  -0.672   3.646  12.565 -0.0741 -0.2641 -0.2562
   45HTM   C22125323  -0.628   3.986  13.021  0.0025 -0.0342 -0.3403
   45HTM   C22225324  -0.744   3.993  12.950  0.0985 -0.1087 -0.5071
   45HTM   C22325325  -0.857   3.938  13.020  0.0162 -0.0967 -0.6304
   45HTM   C22425326  -0.827   3.888  13.143 -0.1423 -0.0132 -0.5580
   45HTM    S2325327  -0.652   3.909  13.182 -0.2009  0.0575 -0.3264
   46TAL   C22525328  -0.998   3.935  12.949 -0.1315  0.3022 -0.9719
   46TAL   C22625329  -1.091   4.039  13.002  0.1347  0.0888  0.2238
   46TAL   C22725330  -1.069   4.179  12.929  0.4445  0.7782  0.1812
   46TAL   C22825331  -1.179   4.287  12.953  0.3809 -0.9504 -0.7810
   46TAL   C22925332  -1.193   4.433  12.893 -0.0893  0.2583  0.8945
   46TAL   C23025333  -1.073   4.515  12.942 -0.7477 -0.4413  1.1306
   47HTM   C23125334  -0.889   3.802  13.236  0.2970  0.5561  0.7511
   47HTM   C23225335  -0.818   3.712  13.309  0.3018  0.8141  1.0672
   47HTM   C23325336  -0.899   3.627  13.392  0.2512  0.6080  0.8063
   47HTM   C23425337  -1.033   3.652  13.381  0.2076  0.1929  0.2909
   47HTM    S2425338  -1.066   3.786  13.265  0.2275  0.0288  0.0939
   48TAL   C23525339  -0.844   3.524  13.493  0.5544 -0.4252  0.4432
   48TAL   C23625340  -0.715   3.572  13.549 -0.1791 -0.0077  1.0794
   48TAL   C23725341  -0.682   3.489  13.681  0.3052  0.5010  0.6345
   48TAL   C23825342  -0.539   3.504  13.736 -0.0906 -0.0225  0.3973
   48TAL   C23925343  -0.416   3.461  13.659 -0.2344  0.3768  0.4777
   48TAL   C24025344  -0.289   3.479  13.734 -0.1523  0.1094 -0.3266
    1HTM     C125345   6.559   0.027  28.268 -0.5169  0.4656  0.0324
    1HTM     C225346   6.432   0.057  28.230 -0.4389  0.4389 -0.2532
    1HTM     C325347   6.341  -0.055  28.239 -0.3433  0.2996 -0.8812
    1HTM     C425348   6.399  -0.169  28.285 -0.3483  0.2201 -1.0728
    1HTM     S125349   6.575  -0.145  28.319 -0.4753  0.3158 -0.4724
    2TAL     C525350   6.192  -0.040  28.206 -0.5748  0.3121 -0.3282
    2TAL     C625351   6.105   0.031  28.309 -0.4070 -0.0678  0.5462
    2TAL     C725352   6.002   0.122  28.234 -0.2895  1.2681 -0.5422
    2TAL     C825353   5.917   0.199  28.341  0.1788 -0.5967  0.4676
    2TAL     C925354   5.819   0.308  28.300 -0.5340  0.2108  0.3088
    2TAL    C1025355   5.724   0.360  28.402 -0.6548  0.4041 -0.4185
    3HTM    C1125356   6.350  -0.308  28.282  0.0947  0.0986 -0.5043
    3HTM    C1225357   6.225  -0.361  28.269  0.1220  0.2133 -1.3804
    3HTM    C1325358   6.224  -0.501  28.238  0.2174  0.1687 -1.1854
    3HTM    C1425359   6.349  -0.555  28.227  0.2630  0.0199 -0.1600
    3HTM     S225360   6.478  -0.432  28.255  0.1882 -0.0763  0.6449
    4TAL    C1525361   6.091  -0.572  28.212 -0.2165  0.2830 -0.2612
    4TAL    C1625362   5.976  -0.566  28.306  0.0162 -0.7078  0.1675
    4TAL    C1725363   5.842  -0.641  28.267 -0.5756 -0.0906  0.4064
    4TAL    C1825364   5.837  -0.777  28.195  0.5571  0.3094  0.3946
    4TAL    C1925365   5.881  -0.888  28.289  0.0345  0.9914 -0.0136
    4TAL    C2025366   5.917  -1.015  28.204 -0.7001  0.3177 -0.1269
    5HTM    C2125367   6.398  -0.690  28.197  0.1033  0.4237 -0.1879
    5HTM    C2225368   6.331  -0.806  28.172 -0.2818  0.2575  1.4081
    5HTM    C2325369   6.416  -0.921  28.160 -0.5703 -0.0314  2.0394
    5HTM    C2425370   6.549  -0.893  28.176 -0.4052 -0.0852  0.9253
    5HTM     S325371   6.576  -0.717  28.207  0.1316  0.2268 -1.0234
    6TAL    C2525372   6.357  -1.056  28.150  0.1914  0.2257 -0.1040
    6TAL    C2625373   6.294  -1.104  28.279  0.1159  0.3380 -0.0020
    6TAL    C2725374   6.269  -1.241  28.293  0.7735  0.2377  0.4495
    6TAL    C2825375   6.181  -1.282  28.414 -0.7361 -0.5084  0.6215
    6TAL    C2925376   6.191  -1.431  28.443  0.2904  0.2177  0.1653
    6TAL    C3025377   6.138  -1.464  28.588 -1.0153 -0.5976  1.1392
    7HTM    C3125378   6.667  -0.976  28.142  0.1227 -0.2098 -0.0598
    7HTM    C3225379   6.795  -0.930  28.157  0.1630 -0.2197 -0.3715
    7HTM    C3325380   6.896  -1.023  28.115  0.0587 -0.2998 -0.4454
    7HTM    C3425381   6.846  -1.141  28.068 -0.0610 -0.3510 -0.1888
    7HTM     S425382   6.665  -1.143  28.074 -0.0514 -0.3016  0.1677
    8TAL    C3525383   7.041  -0.998  28.160 -0.3249  0.0308 -0.1142
    8TAL    C3625384   7.127  -0.942  28.052 -0.6716  0.3864 -0.6242
    8TAL    C3725385   7.067  -0.841  27.957 -0.5349 -0.1454  0.2023
    8TAL    C3825386   7.154  -0.800  27.838  0.5820 -0.3460  0.1922
    8TAL    C3925387   7.117  -0.654  27.812  0.2650 -0.7448  0.6043
    8TAL    C4025388   7.233  -0.557  27.790  0.2378 -0.7847 -0.0068
    9HTM    C4125389   6.910  -1.266  28.031  1.1147  1.1048 -1.0099
    9HTM    C4225390   7.016  -1.322  28.096  1.8358  1.7313 -1.6088
    9HTM    C4325391   7.043  -1.458  28.058  1.5194  1.4144 -0.7572
    9HTM    C4425392   6.957  -1.506  27.963  0.5571  0.5461  0.4918
    9HTM     S525393   6.835  -1.381  27.916 -0.0288  0.0574  0.6894
   10TAL    C4525394   7.162  -1.526  28.115 -0.2601  0.4411 -0.1160
   10TAL    C4625395   7.287  -1.451  28.134  0.1235  0.0352 -0.3786
   10TAL    C4725396   7.339  -1.371  28.014 -0.6592  1.5995  0.5517
   10TAL    C4825397   7.486  -1.318  28.015  0.2540 -0.6609  0.8003
   10TAL    C4925398   7.547  -1.270  27.884  0.1206  0.7659  0.6269
   10TAL    C5025399   7.459  -1.171  27.789 -0.6451  0.7889 -0.5794
   11HTM    C5125400   6.950  -1.631  27.893  0.6026  0.3174 -0.1047
   11HTM    C5225401   6.832  -1.695  27.872  0.3595  0.7471 -0.0839
   11HTM    C5325402   6.847  -1.826  27.814 -0.1434  0.7901 -0.3209
   11HTM    C5425403   6.977  -1.861  27.791 -0.2841  0.3936 -0.5233
   11HTM     S625404   7.091  -1.731  27.840  0.2118 -0.0690 -0.4285
   12TAL    C5525405   6.715  -1.913  27.775 -0.8246 -0.2039  0.0022
   12TAL    C5625406   6.616  -1.839  27.680 -0.5424 -0.1380  0.4780
   12TAL    C5725407   6.515  -1.918  27.596 -0.8310  0.6025 -0.0180
   12TAL    C5825408   6.389  -1.842  27.551 -0.4151  0.3449 -1.1704
   12TAL    C5925409   6.319  -1.943  27.477  0.9518  0.9333  0.8504
   12TAL    C6025410   6.186  -1.890  27.428 -1.1380 -0.1633 -0.3192
   13HTM    C6125411   7.043  -1.976  27.742  0.0519  0.2210  0.4078
   13HTM    C6225412   7.177  -1.992  27.721  0.1183  0.0088  0.9818
   13HTM    C6325413   7.213  -2.119  27.665  0.1053  0.1326  0.6895
   13HTM    C6425414   7.106  -2.201  27.642  0.0292  0.4392 -0.1071
   13HTM     S725415   6.951  -2.122  27.690 -0.0327  0.5966 -0.5535
   14TAL    C6525416   7.367  -2.157  27.647  0.3550  0.6992 -0.0274
   14TAL    C6625417   7.471  -2.083  27.730  1.2126  0.2681 -0.7300
   14TAL    C6725418   7.456  -2.101  27.888  0.6057  0.8687  0.5650
   14TAL    C6825419   7.558  -2.016  27.968 -0.0787 -0.0831 -0.1911
   14TAL    C6925420   7.545  -1.861  27.952  0.8332  0.2728 -0.0156
   14TAL    C7025421   7.419  -1.813  28.030  0.0340 -1.1340  0.1403
   15HTM    C7125422   7.092  -2.334  27.587 -0.2167 -0.4601 -0.3811
   15HTM    C7225423   7.001  -2.428  27.626 -0.2078 -0.5759 -0.6299
   15HTM    C7325424   7.020  -2.557  27.565  0.0938 -0.5399 -0.6166
   15HTM    C7425425   7.125  -2.562  27.479  0.3147 -0.3966 -0.3584
   15HTM     S825426   7.210  -2.402  27.468  0.1578 -0.2954 -0.1090
   16TAL    C7525427   6.910  -2.663  27.580 -0.2624  0.3100  0.0030
   16TAL    C7625428   6.797  -2.651  27.687  0.7144  0.2971  1.1314
   16TAL    C7725429   6.649  -2.662  27.636  0.5844  0.2713  0.8271
   16TAL    C7825430   6.613  -2.530  27.559 -0.1495  1.2143  0.7152
   16TAL    C7925431   6.476  -2.510  27.499  0.6802  0.4110 -0.4044
   16TAL    C8025432   6.421  -2.605  27.393 -0.4679 -0.0396 -0.4300
   17HTM    C8125433   7.186  -2.681  27.424  0.1765 -0.2133  0.1801
   17HTM    C8225434   7.263  -2.686  27.312 -0.7001 -0.0409 -0.4516
   17HTM    C8325435   7.312  -2.817  27.280 -0.9587  0.0017 -1.0605
   17HTM    C8425436   7.272  -2.913  27.369 -0.2791 -0.1384 -0.8924
   17HTM     S925437   7.169  -2.844  27.499  0.7482 -0.3363  0.0544
   18TAL    C8525438   7.430  -2.846  27.179 -0.2200  0.2179 -0.4458
   18TAL    C8625439   7.509  -2.729  27.112 -0.7527  0.6271 -0.2377
   18TAL    C8725440   7.635  -2.752  27.024  0.6012  0.0529 -0.0317
   18TAL    C8825441   7.622  -2.785  26.878  0.3594  0.8870  0.4325
   18TAL    C8925442   7.509  -2.889  26.837  0.4841 -0.3631 -0.5479
   18TAL    C9025443   7.482  -2.886  26.680  0.5517 -0.3983 -0.3597
   19HTM    C9125444   7.284  -3.060  27.377 -0.5690 -0.3597 -0.2540
   19HTM    C9225445   7.209  -3.151  27.446 -0.8678 -0.6270 -0.9155
   19HTM    C9325446   7.256  -3.286  27.432 -0.5400 -0.5182 -0.8798
   19HTM    C9425447   7.367  -3.298  27.353  0.0090 -0.1681 -0.1919
   19HTM    S1025448   7.420  -3.138  27.289  0.1554  0.0534  0.4698
   20TAL    C9525449   7.174  -3.393  27.507 -0.2302 -0.0409  0.1465
   20TAL    C9625450   7.028  -3.418  27.447 -1.3631 -0.1539  1.0720
   20TAL    C9725451   6.951  -3.531  27.527  0.1826 -0.2330 -0.0096
   20TAL    C9825452   6.982  -3.684  27.507  0.4020  0.9901  0.2003
   20TAL    C9925453   7.127  -3.726  27.518 -0.1600  0.0760  0.8134
   20TAL   C10025454   7.147  -3.878  27.536  0.4002 -0.0803 -0.1903
   21HTM   C10125455   7.451  -3.410  27.322  0.0023 -0.2302 -0.1204
   21HTM   C10225456   7.568  -3.414  27.253 -0.2328 -0.3291 -0.5226
   21HTM   C10325457   7.621  -3.547  27.237 -0.4514 -0.3852 -0.8006
   21HTM   C10425458   7.544  -3.644  27.294 -0.3829 -0.3291 -0.6113
   21HTM    S1125459   7.397  -3.575  27.373 -0.0344 -0.2002 -0.0612
   22TAL   C10525460   7.759  -3.571  27.181  0.9122  0.3995  0.6521
   22TAL   C10625461   7.870  -3.470  27.209  0.5737  0.6720  0.1973
   22TAL   C10725462   8.008  -3.544  27.177  1.4690 -0.0416  0.4061
   22TAL   C10825463   8.044  -3.585  27.032 -0.3014  0.3291  0.1126
   22TAL   C10925464   8.021  -3.484  26.916  0.1831  0.6602  1.4693
   22TAL   C11025465   8.125  -3.505  26.803  0.1525 -0.8925  0.4775
   23HTM   C11125466   7.565  -3.784  27.314 -0.2745  0.0967  0.4332
   23HTM   C11225467   7.570  -3.849  27.433 -0.5693 -0.1300  0.3233
   23HTM   C11325468   7.618  -3.985  27.424 -0.4016 -0.0625  0.2055
   23HTM   C11425469   7.650  -4.022  27.297  0.0211  0.2158  0.2243
   23HTM    S1225470   7.621  -3.889  27.179  0.2418  0.4154  0.3948
   24TAL   C11525471   7.634  -4.074  27.548 -0.1800  0.5621 -0.2261
   24TAL   C11625472   7.514  -4.092  27.642  0.4030  0.5771  0.1770
   24TAL   C11725473   7.413  -4.189  27.571  0.1868  0.0810 -0.5810
   24TAL   C11825474   7.312  -4.231  27.687  0.2024  0.4345  0.7983
   24TAL   C11925475   7.247  -4.363  27.660 -0.2997  0.4504  0.5010
   24TAL   C12025476   7.126  -4.375  27.751  0.6172  0.3846 -1.0150
   25HTM   C12125477   7.718  -4.146  27.245  0.0136 -1.0501  0.5081
   25HTM   C12225478   7.677  -4.276  27.249  0.4635 -1.1858  0.7601
   25HTM   C12325479   7.769  -4.367  27.187  0.5255 -0.9208  0.4549
   25HTM   C12425480   7.880  -4.307  27.135  0.1229 -0.5832 -0.0314
   25HTM    S1325481   7.877  -4.129  27.161 -0.3696 -0.5736 -0.1401
   26TAL   C12525482   7.741  -4.517  27.201  0.3665  0.2654 -0.0124
   26TAL   C12625483   7.624  -4.571  27.287  1.3408  0.7822  0.1046
   26TAL   C12725484   7.610  -4.520  27.440 -0.4885 -0.5427  1.4487
   26TAL   C12825485   7.530  -4.615  27.513  0.0722 -0.5424 -0.5481
   26TAL   C12925486   7.544  -4.567  27.662  0.1219  0.7408  1.2122
   26TAL   C13025487   7.661  -4.633  27.730 -0.1245 -0.1048 -0.7051
   27HTM   C13125488   7.992  -4.362  27.060  0.2771 -0.5204 -0.3682
   27HTM   C13225489   8.110  -4.304  27.024  0.3140 -0.5636 -0.3181
   27HTM   C13325490   8.195  -4.389  26.944  0.2479 -0.5395 -0.4148
   27HTM   C13425491   8.141  -4.513  26.920  0.1607 -0.4778 -0.5390
   27HTM    S1425492   7.979  -4.530  26.996  0.1552 -0.4451 -0.5425
   28TAL   C13525493   8.336  -4.342  26.891  0.1537  0.6357  0.1721
   28TAL   C13625494   8.365  -4.198  26.830 -0.0297  0.3849  0.0921
   28TAL   C13725495   8.246  -4.132  26.749  0.7399 -0.0650  0.0060
   28TAL   C13825496   8.269  -4.020  26.641 -0.0042 -0.8997 -0.0054
   28TAL   C13925497   8.141  -3.952  26.611 -0.7244 -0.6443 -0.5107
   28TAL   C14025498   8.168  -3.827  26.542  0.0623  0.6167  0.8218
   29HTM   C14125499   8.210  -4.621  26.858 -0.1080 -0.2317  0.0596
   29HTM   C14225500   8.205  -4.647  26.724 -0.3725 -0.2995  0.0811
   29HTM   C14325501   8.297  -4.749  26.681 -0.3806 -0.2454 -0.0658
   29HTM   C14425502   8.372  -4.801  26.782 -0.1222 -0.1363 -0.1992
   29HTM    S1525503   8.332  -4.725  26.940  0.1534 -0.0931 -0.1495
   30TAL   C14525504   8.309  -4.807  26.540 -0.0118  0.3268 -0.0537
   30TAL   C14625505   8.177  -4.876  26.488  0.6033 -0.3732  0.1967
   30TAL   C14725506   8.111  -4.987  26.558  0.7228 -0.3107 -0.4941
   30TAL   C14825507   8.177  -5.123  26.552  0.0618 -0.0296  0.5939
   30TAL   C14925508   8.222  -5.186  26.417  0.0806 -0.1931 -0.1428
   30TAL   C15025509   8.232  -5.338  26.423 -0.6682 -1.7798  0.9581
   31HTM   C15125510   8.471  -4.908  26.782 -0.7222 -0.0903  0.4311
   31HTM   C15225511   8.508  -4.998  26.688 -1.1608 -0.0905  0.2513
   31HTM   C15325512   8.621  -5.080  26.727 -0.9723 -0.0895 -0.2699
   31HTM   C15425513   8.668  -5.051  26.851 -0.3899 -0.0886 -0.4875
   31HTM    S1625514   8.575  -4.918  26.929 -0.0316 -0.0889 -0.0482
   32TAL   C15525515   8.680  -5.195  26.645  0.3719 -0.3329 -0.0655
   32TAL   C15625516   8.693  -5.169  26.498  0.0044 -0.3137  0.0952
   32TAL   C15725517   8.667  -5.278  26.393  0.5018 -0.5621  0.6801
   32TAL   C15825518   8.630  -5.227  26.253 -1.6471  0.0251  0.1919
   32TAL   C15925519   8.506  -5.291  26.196  0.5955 -0.7541  0.5443
   32TAL   C16025520   8.547  -5.393  26.087 -0.0766 -0.2509 -0.2838
   33HTM   C16125521   8.782  -5.115  26.912  0.3676  0.4426 -0.3963
   33HTM   C16225522   8.904  -5.135  26.855  0.3553  0.1268 -0.3142
   33HTM   C16325523   8.997  -5.204  26.940  0.0952 -0.1838 -0.2804
   33HTM   C16425524   8.945  -5.237  27.062 -0.0908 -0.1049 -0.3372
   33HTM    S1725525   8.774  -5.182  27.079  0.0492  0.3717 -0.4389
   34TAL   C16525526   9.147  -5.207  26.900  0.3287 -0.6422 -0.0093
   34TAL   C16625527   9.236  -5.083  26.881 -0.4833  0.2211  1.3205
   34TAL   C16725528   9.281  -5.005  27.000  0.0667 -0.2105 -0.2272
   34TAL   C16825529   9.306  -4.860  26.966 -0.9609 -0.9621 -0.3112
   34TAL   C16925530   9.333  -4.755  27.081  0.6799 -0.2605 -0.1464
   34TAL   C17025531   9.403  -4.637  27.040 -0.6078 -1.1066  0.9183
   35HTM   C17125532   9.000  -5.327  27.159  0.0796 -0.0432  0.4599
   35HTM   C17225533   8.934  -5.431  27.217 -0.0776  0.4209  1.1435
   35HTM   C17325534   9.012  -5.501  27.315  0.0238  0.5858  1.1821
   35HTM   C17425535   9.138  -5.451  27.332  0.2583  0.2475  0.5279
   35HTM    S1825536   9.167  -5.309  27.224  0.3702 -0.3100 -0.1925
   36TAL   C17525537   8.961  -5.637  27.373 -0.4702 -0.4368  0.3864
   36TAL   C17625538   8.811  -5.621  27.420 -0.5977  0.2591 -1.0399
   36TAL   C17725539   8.785  -5.680  27.566 -0.8301  0.0187  0.8816
   36TAL   C17825540   8.806  -5.833  27.569 -0.4489 -1.0193 -0.1340
   36TAL   C17925541   8.752  -5.906  27.683 -0.0633 -0.3627  0.8924
   36TAL   C18025542   8.825  -6.029  27.723 -1.3366  0.5917 -0.4918
   37HTM   C18125543   9.238  -5.482  27.424  0.1273  0.3965  0.3095
   37HTM   C18225544   9.359  -5.421  27.433  0.2696  0.1242  0.2775
   37HTM   C18325545   9.443  -5.473  27.538  0.2621 -0.2016  0.1240
   37HTM   C18425546   9.386  -5.574  27.609  0.1140 -0.1777  0.0392
   37HTM    S1925547   9.220  -5.612  27.548 -0.0285  0.2614  0.1466
   38TAL   C18525548   9.563  -5.406  27.583 -0.3188  0.1073 -0.1887
   38TAL   C18625549   9.551  -5.272  27.656  0.7937  0.3332  0.2308
   38TAL   C18725550   9.455  -5.268  27.777 -0.3979 -0.8046  0.6811
   38TAL   C18825551   9.526  -5.287  27.919  0.5808 -1.1878  0.5999
   38TAL   C18925552   9.553  -5.163  27.990 -0.1447 -0.0741  0.0310
   38TAL   C19025553   9.430  -5.099  28.043 -0.6462  0.7698 -0.8774
   39HTM   C19125554   9.418  -5.652  27.718 -0.2716 -0.1639 -0.3670
   39HTM   C19225555   9.355  -5.649  27.838 -0.4607 -0.1568 -0.4659
   39HTM   C19325556   9.428  -5.713  27.944 -0.4769  0.1321 -0.2770
   39HTM   C19425557   9.548  -5.765  27.904 -0.3001  0.3453 -0.0352
   39HTM    S2025558   9.577  -5.737  27.728 -0.0980  0.1966 -0.0264
   40TAL   C19525559   9.387  -5.728  28.085  0.4676 -0.6783 -0.4383
   40TAL   C19625560   9.336  -5.596  28.149  0.1624 -0.0680  0.2804
   40TAL   C19725561   9.302  -5.603  28.295  1.2164 -0.6611  0.9506
   40TAL   C19825562   9.157  -5.588  28.347 -1.2416  0.5706 -0.2683
   40TAL   C19925563   9.154  -5.613  28.498  0.1155  1.5123 -0.6084
   40TAL   C20025564   9.011  -5.673  28.545 -0.8471 -0.0324  0.0541
   41HTM   C20125565   9.643  -5.845  27.982  0.0771  0.0782  0.0658
   41HTM   C20225566   9.723  -5.943  27.931  0.2874  0.2019  0.1540
   41HTM   C20325567   9.823  -5.990  28.023  0.3399  0.4441  0.2241
   41HTM   C20425568   9.819  -5.929  28.145  0.1696  0.5050  0.1892
   41HTM    S2125569   9.688  -5.805  28.152 -0.0720  0.2594  0.0638
   42TAL   C20525570   9.919  -6.108  27.986 -0.8945  0.2633 -0.2581
   42TAL   C20625571   9.904  -6.187  27.857  0.1207  0.5010  0.2660
   42TAL   C20725572   9.962  -6.129  27.729 -1.2076 -0.0432  0.2876
   42TAL   C20825573   9.954  -6.227  27.619  1.1309  0.2052  0.9001
   42TAL   C20925574  10.032  -6.194  27.500  0.4106  0.4969  0.5862
   42TAL   C21025575  10.060  -6.322  27.425  0.1787  0.1244  0.2761
   43HTM   C21125576   9.893  -5.942  28.260  0.1415 -0.3131  0.4787
   43HTM   C21225577   9.849  -5.985  28.382  0.7972 -0.5035  0.6542
   43HTM   C21325578   9.955  -6.005  28.477  1.2978 -0.4373  0.1245
   43HTM   C21425579  10.080  -5.978  28.428  1.0237 -0.1965 -0.4549
   43HTM    S2225580  10.072  -5.924  28.256  0.1049 -0.0333 -0.3758
   44TAL   C21525581   9.923  -6.050  28.619 -0.4845  0.7183  0.4828
   44TAL   C21625582   9.877  -6.195  28.649 -0.5473  0.0729 -0.3725
   44TAL   C21725583   9.865  -6.248  28.796 -0.1657 -0.2046  0.3422
   44TAL   C21825584  10.003  -6.247  28.877  0.7284 -0.7404  0.2775
   44TAL   C21925585  10.137  -6.312  28.833  0.4425 -0.2651  0.2220
   44TAL   C22025586  10.239  -6.326  28.947 -0.1383 -0.4643 -1.1637
   45HTM   C22125587  10.208  -5.974  28.497  0.8922 -0.0570 -0.4955
   45HTM   C22225588  10.290  -6.080  28.524  0.7697  0.0199  0.2332
   45HTM   C22325589  10.406  -6.045  28.602  0.1881  0.1777  1.0495
   45HTM   C22425590  10.412  -5.913  28.635 -0.1328  0.2211  0.9445
   45HTM    S2325591  10.271  -5.822  28.570  0.2779  0.0648 -0.2029
   46TAL   C22525592  10.504  -6.150  28.667  0.7056 -0.5369  0.5344
   46TAL   C22625593  10.572  -6.230  28.564  0.1393  1.0822  0.1842
   46TAL   C22725594  10.625  -6.368  28.622 -0.6560  0.2052  0.1390
   46TAL   C22825595  10.512  -6.478  28.640  0.4667 -0.6445  0.0048
   46TAL   C22925596  10.533  -6.618  28.699 -0.3919 -0.1309 -0.7151
   46TAL   C23025597  10.546  -6.600  28.850  0.3818 -0.3922 -0.7127
   47HTM   C23125598  10.504  -5.834  28.712 -0.1307  0.0166 -0.4540
   47HTM   C23225599  10.634  -5.869  28.730 -0.1869 -0.1160 -0.2905
   47HTM   C23325600  10.711  -5.773  28.804 -0.2909 -0.4138  0.2094
   47HTM   C23425601  10.638  -5.664  28.844 -0.3142 -0.5083  0.4272
   47HTM    S2425602  10.467  -5.676  28.790 -0.2055 -0.2262  0.0145
   48TAL   C23525603  10.847  -5.798  28.840  0.9845  0.0519 -0.9771
   48TAL   C23625604  10.935  -5.697  28.787 -1.4172  1.3444 -1.0744
   48TAL   C23725605  11.070  -5.650  28.851  0.0313  0.4201  0.8443
   48TAL   C23825606  11.078  -5.622  28.998  0.1599 -0.4137  0.3333
   48TAL   C23925607  11.030  -5.476  29.022  0.6027 -0.2245  0.3126
   48TAL   C24025608  11.002  -5.436  29.167 -0.1676 -0.5521  0.4577
    1HTM     C125609   3.965   5.503   0.049 -0.8717  0.2771 -0.2965
    1HTM     C225610   4.091   5.534   0.010 -0.7397 -0.1849 -0.2561
    1HTM     C325611   4.143   5.653   0.072 -0.1529 -0.6160  0.0994
    1HTM     C425612   4.056   5.712   0.159  0.1625 -0.4826  0.3301
    1HTM     S125613   3.900   5.621   0.168 -0.2604  0.2031  0.1145
    2TAL     C525614   4.297   5.677   0.051 -0.4396  0.0087 -0.0906
    2TAL     C625615   4.349   5.686  -0.091  0.3052  0.1261 -0.8725
    2TAL     C725616   4.304   5.808  -0.165  0.6974 -0.5373  0.2749
    2TAL     C825617   4.236   5.807  -0.301 -0.3578 -0.3197  0.2943
    2TAL     C925618   4.186   5.935  -0.366  0.6522  0.0201  0.7241
    2TAL    C1025619   4.299   6.046  -0.372 -0.3579 -0.4415  0.9404
    3HTM    C1125620   4.083   5.833   0.245  0.1862  0.8392 -0.1811
    3HTM    C1225621   4.131   5.956   0.212  0.4485  0.8814  0.3444
    3HTM    C1325622   4.107   6.056   0.313  0.4396  0.5634  0.6646
    3HTM    C1425623   4.040   6.010   0.422  0.1708  0.2787  0.3833
    3HTM     S225624   4.002   5.834   0.407 -0.0944  0.3910 -0.3133
    4TAL    C1525625   4.150   6.200   0.274 -0.0106 -0.7576 -0.2535
    4TAL    C1625626   4.227   6.289   0.366  0.3192  0.9803  0.0427
    4TAL    C1725627   4.248   6.410   0.282 -0.1284  0.1245 -1.0411
    4TAL    C1825628   4.314   6.527   0.353  0.5221 -0.9159 -0.7069
    4TAL    C1925629   4.281   6.578   0.495 -0.7359  0.7428  0.6770
    4TAL    C2025630   4.159   6.666   0.496 -0.5934 -0.0556 -0.1736
    5HTM    C2125631   3.999   6.065   0.547 -0.2366 -0.2964  0.2512
    5HTM    C2225632   3.907   6.165   0.560 -1.1477 -1.1117  0.2866
    5HTM    C2325633   3.885   6.205   0.696 -1.1125 -0.9940  0.2572
    5HTM    C2425634   3.960   6.137   0.787 -0.1746 -0.0890  0.1994
    5HTM     S325635   4.065   6.014   0.706  0.7440  0.6907  0.1774
    6TAL    C2525636   3.798   6.326   0.729  0.9225 -0.9754  1.0572
    6TAL    C2625637   3.661   6.338   0.669  0.3244 -0.9575  0.2651
    6TAL    C2725638   3.552   6.244   0.725 -0.6752  0.4391 -0.4358
    6TAL    C2825639   3.508   6.304   0.861  0.9025  0.4903 -0.7755
    6TAL    C2925640   3.408   6.232   0.937  0.7557 -0.0154  0.6635
    6TAL    C3025641   3.273   6.199   0.870  0.2385  0.1778  0.0549
    7HTM    C3125642   3.969   6.139   0.935 -0.1996 -0.2995 -0.1398
    7HTM    C3225643   4.056   6.056   0.999 -0.1731 -0.4174 -0.3282
    7HTM    C3325644   4.042   6.056   1.143  0.0921 -0.4499 -0.3017
    7HTM    C3425645   3.945   6.140   1.188  0.2679 -0.3566 -0.0931
    7HTM     S425646   3.862   6.225   1.052  0.1108 -0.2198  0.0874
    8TAL    C3525647   4.147   5.974   1.221 -0.0510  0.1652  0.0401
    8TAL    C3625648   4.152   5.818   1.195  1.3246  1.1627 -0.3222
    8TAL    C3725649   4.014   5.753   1.238 -0.8102  0.4340  0.2752
    8TAL    C3825650   3.958   5.763   1.382 -0.5388  0.1552  0.2340
    8TAL    C3925651   3.813   5.722   1.391 -0.4465  0.0584  1.3665
    8TAL    C4025652   3.764   5.737   1.537  0.3755 -0.9907 -0.8343
    9HTM    C4125653   3.881   6.163   1.316 -0.0276  0.2382  0.1058
    9HTM    C4225654   3.940   6.139   1.436 -0.3099 -0.2811  0.1452
    9HTM    C4325655   3.858   6.170   1.550 -0.4714 -0.4992  0.0889
    9HTM    C4425656   3.735   6.218   1.516 -0.3121 -0.1463  0.0065
    9HTM     S525657   3.714   6.228   1.337  0.0569  0.4940 -0.0065
   10TAL    C4525658   3.895   6.128   1.685  0.3566 -0.2866  0.0864
   10TAL    C4625659   4.044   6.095   1.729  0.0111  0.0581 -0.0313
   10TAL    C4725660   4.103   5.968   1.659 -0.2521  0.0811  0.8176
   10TAL    C4825661   4.234   5.912   1.726 -0.2000 -1.3299 -0.0434
   10TAL    C4925662   4.309   5.809   1.641  0.8660  0.2334  0.0857
   10TAL    C5025663   4.238   5.680   1.604 -0.6044  0.6432  0.3910
   11HTM    C5125664   3.621   6.261   1.595 -0.5049  0.3498  0.1697
   11HTM    C5225665   3.521   6.343   1.550 -0.7726 -0.0575  0.0151
   11HTM    C5325666   3.422   6.373   1.649 -0.9604 -0.3214 -0.0889
   11HTM    C5425667   3.445   6.315   1.770 -0.8359 -0.1153 -0.0137
   11HTM     S625668   3.597   6.217   1.768 -0.4689  0.4322  0.1959
   12TAL    C5525669   3.309   6.473   1.630  0.4278 -0.5536 -1.3811
   12TAL    C5625670   3.340   6.620   1.648  0.6672  0.6919  0.1861
   12TAL    C5725671   3.219   6.702   1.690 -0.5468 -0.1393  0.2067
   12TAL    C5825672   3.150   6.675   1.827  0.3986 -0.3319 -0.1973
   12TAL    C5925673   3.025   6.762   1.837 -0.0977  0.5723  0.9384
   12TAL    C6025674   2.941   6.715   1.952 -0.9492  0.3455  0.5452
   13HTM    C6125675   3.382   6.336   1.902 -0.3249  0.1355  0.3412
   13HTM    C6225676   3.306   6.254   1.979 -0.5183  0.4598  0.4990
   13HTM    C6325677   3.292   6.298   2.115 -0.3877  0.7329  0.4253
   13HTM    C6425678   3.359   6.414   2.143 -0.0948  0.6170  0.2111
   13HTM     S725679   3.444   6.477   1.997  0.0400  0.1503  0.0851
   14TAL    C6525680   3.208   6.208   2.211  0.3818 -0.3653 -0.3814
   14TAL    C6625681   3.053   6.203   2.210 -0.4331 -0.8985 -0.1661
   14TAL    C6725682   2.960   6.333   2.198 -0.0226  0.8517  0.2868
   14TAL    C6825683   2.818   6.312   2.161  0.1245  0.1691 -0.2369
   14TAL    C6925684   2.793   6.302   2.013  0.0702  0.2359  0.3013
   14TAL    C7025685   2.645   6.271   1.992  0.3178  0.6658 -0.1265
   15HTM    C7125686   3.379   6.494   2.261  0.0306  0.2003 -0.1187
   15HTM    C7225687   3.291   6.546   2.351 -0.0972  0.2224 -0.2561
   15HTM    C7325688   3.353   6.619   2.458 -0.2366  0.0901 -0.0840
   15HTM    C7425689   3.489   6.623   2.450 -0.2151 -0.0325  0.1845
   15HTM     S825690   3.550   6.534   2.305 -0.0155  0.0093  0.2414
   16TAL    C7525691   3.273   6.715   2.538 -0.1607 -0.1936 -1.2362
   16TAL    C7625692   3.146   6.782   2.485 -0.1395  0.2592  1.4364
   16TAL    C7725693   3.151   6.850   2.351 -0.6279  0.5411  0.2368
   16TAL    C7825694   3.030   6.928   2.313 -0.0794 -0.0995  0.4692
   16TAL    C7925695   3.049   7.062   2.238  0.1216  0.6083 -0.9228
   16TAL    C8025696   3.171   7.084   2.152 -0.6105  0.9290 -0.1058
   17HTM    C8125697   3.589   6.654   2.548  0.5330  0.2624 -0.2082
   17HTM    C8225698   3.688   6.575   2.598  0.5254  0.5243  0.2376
   17HTM    C8325699   3.768   6.638   2.699 -0.0532  0.7633  0.5587
   17HTM    C8425700   3.731   6.766   2.726 -0.4869  0.6835  0.3577
   17HTM     S925701   3.590   6.817   2.626 -0.1957  0.2978 -0.2576
   18TAL    C8525702   3.873   6.551   2.764 -0.2227  0.7641 -1.3179
   18TAL    C8625703   3.820   6.413   2.790 -0.0165  1.2443 -0.1803
   18TAL    C8725704   3.917   6.347   2.888 -0.7295 -0.1490  0.0053
   18TAL    C8825705   3.847   6.266   3.005 -0.0735  0.0499 -0.7141
   18TAL    C8925706   3.941   6.212   3.121  0.4673 -0.0042  0.1575
   18TAL    C9025707   3.990   6.077   3.082 -0.2694 -0.8241 -0.0491
   19HTM    C9125708   3.795   6.860   2.823 -0.4488  0.6535 -0.2852
   19HTM    C9225709   3.745   6.927   2.931 -0.1080  0.7637 -0.1954
   19HTM    C9325710   3.840   7.017   2.992  0.3176  0.2974 -0.1508
   19HTM    C9425711   3.961   7.019   2.929  0.3015 -0.1681 -0.2067
   19HTM    S1025712   3.965   6.907   2.789 -0.2570 -0.0531 -0.3206
   20TAL    C9525713   3.800   7.112   3.103  0.5051  1.4796 -1.0767
   20TAL    C9625714   3.647   7.146   3.091  0.0087  0.4081  0.4257
   20TAL    C9725715   3.568   7.068   3.187  0.0751  0.2147 -0.4150
   20TAL    C9825716   3.497   7.163   3.281  0.3019 -0.2746  0.0221
   20TAL    C9925717   3.392   7.247   3.208  0.3581  0.4913 -0.0771
   20TAL   C10025718   3.275   7.278   3.304 -0.7941  0.7549 -0.0521
   21HTM   C10125719   4.083   7.091   2.954 -0.0663  0.1490  0.1350
   21HTM   C10225720   4.208   7.047   2.923 -0.1353 -0.1760  0.3099
   21HTM   C10325721   4.314   7.133   2.970  0.0228 -0.4151  0.4011
   21HTM   C10425722   4.268   7.243   3.037  0.2125 -0.2728  0.2959
   21HTM    S1125723   4.088   7.246   3.046  0.2059  0.1781  0.0714
   22TAL   C10525724   4.455   7.082   2.964 -0.6782  0.6055  0.7468
   22TAL   C10625725   4.479   6.926   2.970  0.6495  0.2960  0.3263
   22TAL   C10725726   4.611   6.862   2.925 -0.2784  0.4194 -0.3089
   22TAL   C10825727   4.735   6.938   2.973 -0.1797  0.7250  0.4698
   22TAL   C10925728   4.875   6.860   2.958  0.5466 -0.1599 -0.0021
   22TAL   C11025729   4.976   6.934   3.040 -0.1097  0.8110  0.1554
   23HTM   C11125730   4.338   7.348   3.094  0.2813 -0.1615 -1.1074
   23HTM   C11225731   4.286   7.425   3.194 -0.2774 -0.3996 -1.2053
   23HTM   C11325732   4.377   7.526   3.243 -0.5310 -0.5219 -0.4469
   23HTM   C11425733   4.497   7.526   3.179 -0.1659 -0.3771  0.2292
   23HTM    S1225734   4.506   7.398   3.052  0.5321 -0.0726 -0.0416
   24TAL   C11525735   4.337   7.614   3.358 -0.2080  0.5626 -0.3543
   24TAL   C11625736   4.326   7.563   3.504 -0.8030  0.2274  0.4702
   24TAL   C11725737   4.455   7.505   3.563  0.3771 -0.0966 -0.3962
   24TAL   C11825738   4.426   7.501   3.718 -0.8919 -0.4170 -0.4106
   24TAL   C11925739   4.526   7.425   3.812 -0.4615 -0.3677 -0.3372
   24TAL   C12025740   4.482   7.414   3.962 -1.0341  0.7085 -0.1399
   25HTM   C12125741   4.618   7.597   3.216  0.0861 -0.2781 -0.0797
   25HTM   C12225742   4.724   7.544   3.283  0.3425 -0.0457 -0.2953
   25HTM   C12325743   4.837   7.633   3.294  0.2567  0.1209 -0.7244
   25HTM   C12425744   4.816   7.754   3.236 -0.0652  0.0154 -0.8359
   25HTM    S1325745   4.652   7.765   3.162 -0.2866 -0.3049 -0.4043
   26TAL   C12525746   4.961   7.604   3.386 -0.5750  0.2045 -0.6318
   26TAL   C12625747   5.080   7.516   3.343  0.6915  0.6473 -0.8975
   26TAL   C12725748   5.127   7.513   3.197 -0.3205 -1.0299 -0.5962
   26TAL   C12825749   5.224   7.634   3.173  0.3322 -0.1482 -0.3012
   26TAL   C12925750   5.293   7.623   3.040  1.2159  0.1421 -0.5139
   26TAL   C13025751   5.414   7.714   3.029 -0.9437  0.1696  0.1497
   27HTM   C13125752   4.909   7.868   3.218 -0.2954 -0.1005 -0.0381
   27HTM   C13225753   4.903   7.942   3.104 -0.4221 -0.1194 -0.0447
   27HTM   C13325754   4.986   8.060   3.107 -0.4435 -0.1013 -0.1436
   27HTM   C13425755   5.055   8.075   3.224 -0.3329 -0.0686 -0.2125
   27HTM    S1425756   5.020   7.941   3.340 -0.1925 -0.0581 -0.1574
   28TAL   C13525757   4.998   8.151   2.990  0.7937  0.8259  0.6048
   28TAL   C13625758   5.069   8.107   2.868  0.2962 -0.0923  0.6759
   28TAL   C13725759   5.220   8.078   2.889  0.7655 -0.1204  0.1462
   28TAL   C13825760   5.287   8.054   2.758 -0.8609  0.6745  0.1042
   28TAL   C13925761   5.238   7.968   2.639  0.4673 -0.3920 -1.3970
   28TAL   C14025762   5.199   7.829   2.669 -0.0213 -0.5024 -0.1053
   29HTM   C14125763   5.153   8.174   3.260  0.0900  0.3800 -0.6312
   29HTM   C14225764   5.192   8.293   3.206  0.5879  0.3438 -0.3598
   29HTM   C14325765   5.302   8.355   3.276  0.4474  0.0262  0.1540
   29HTM   C14425766   5.346   8.283   3.383 -0.1577 -0.1798  0.2743
   29HTM    S1525767   5.252   8.131   3.404 -0.6003  0.0129 -0.2561
   30TAL   C14525768   5.374   8.479   3.230 -0.0065  0.4343  0.7364
   30TAL   C14625769   5.298   8.614   3.218  0.4016  0.8839  0.3406
   30TAL   C14725770   5.278   8.683   3.353  0.2025  0.2648 -0.2563
   30TAL   C14825771   5.231   8.832   3.361  0.3984 -0.1100  0.0310
   30TAL   C14925772   5.193   8.886   3.497 -0.8715  0.4299 -0.6237
   30TAL   C15025773   5.311   8.908   3.596  0.3280 -0.3063  0.3067
   31HTM   C15125774   5.438   8.312   3.490  0.1536 -0.0269 -0.1482
   31HTM   C15225775   5.522   8.220   3.544  0.6297  0.1419 -0.5803
   31HTM   C15325776   5.618   8.276   3.636  0.8740  0.3112 -0.9357
   31HTM   C15425777   5.608   8.411   3.651  0.5842  0.2714 -0.7747
   31HTM    S1625778   5.474   8.478   3.550 -0.0246  0.0151 -0.1568
   32TAL   C15525779   5.711   8.177   3.710  0.4503  0.3465 -1.5829
   32TAL   C15625780   5.825   8.104   3.640  0.5503  0.8534  0.1924
   32TAL   C15725781   5.911   8.201   3.568  0.8486  0.2293  0.4014
   32TAL   C15825782   6.041   8.145   3.489  0.0071  0.0998 -1.0254
   32TAL   C15925783   6.164   8.120   3.587  1.6512  0.2095 -0.6784
   32TAL   C16025784   6.208   8.243   3.670  0.5102  0.2195  0.6122
   33HTM   C16125785   5.670   8.505   3.747 -0.2114 -0.1743  0.5934
   33HTM   C16225786   5.645   8.639   3.742  0.1732 -0.1146  0.0864
   33HTM   C16325787   5.736   8.717   3.821  0.5496 -0.0453 -0.4035
   33HTM   C16425788   5.830   8.643   3.887  0.4521 -0.0522 -0.2699
   33HTM    S1725789   5.811   8.467   3.853 -0.1272 -0.1475  0.4907
   34TAL   C16525790   5.734   8.863   3.810  0.0367 -0.0507 -0.2154
   34TAL   C16625791   5.794   8.910   3.688 -0.9234 -0.1234  0.5917
   34TAL   C16725792   5.739   9.045   3.643 -0.9172 -0.2529 -0.9612
   34TAL   C16825793   5.750   9.055   3.489  0.7562  0.0275 -0.8795
   34TAL   C16925794   5.690   9.193   3.426 -0.4070  0.3041  1.2185
   34TAL   C17025795   5.748   9.326   3.476  0.5968  0.9137 -0.1966
   35HTM   C17125796   5.941   8.677   3.970 -0.7912  0.4185 -0.1471
   35HTM   C17225797   6.059   8.609   3.968 -0.9696  0.1102 -0.4715
   35HTM   C17325798   6.155   8.658   4.063 -0.6208 -0.2126 -0.6541
   35HTM   C17425799   6.111   8.763   4.138 -0.1765 -0.1507 -0.4690
   35HTM    S1825800   5.942   8.809   4.093 -0.1639  0.3241 -0.0464
   36TAL   C17525801   6.302   8.609   4.063 -0.7441  0.7608 -0.3654
   36TAL   C17625802   6.342   8.502   4.169 -0.1384 -0.2992  0.4195
   36TAL   C17725803   6.487   8.458   4.192  0.4956  0.2749 -0.3141
   36TAL   C17825804   6.572   8.574   4.238 -0.3600  0.4431 -0.1392
   36TAL   C17925805   6.539   8.630   4.374  1.5047  0.2842  0.2692
   36TAL   C18025806   6.654   8.634   4.464 -0.1650  1.1425 -0.5686
   37HTM   C18125807   6.177   8.840   4.238  0.5105 -0.2538  0.2929
   37HTM   C18225808   6.285   8.921   4.218  0.5579 -0.2144  0.6915
   37HTM   C18325809   6.303   9.020   4.321  0.0436 -0.1001  0.6760
   37HTM   C18425810   6.208   9.014   4.419 -0.3957 -0.0522  0.2658
   37HTM    S1925811   6.089   8.883   4.389 -0.1925 -0.1486 -0.1361
   38TAL   C18525812   6.425   9.118   4.323 -0.2878  0.4275  0.2907
   38TAL   C18625813   6.534   9.079   4.228  0.9292 -0.6037 -0.6058
   38TAL   C18725814   6.634   9.189   4.236 -0.1265  0.3756 -0.5361
   38TAL   C18825815   6.747   9.162   4.142  0.2175  1.4346 -0.0622
   38TAL   C18925816   6.863   9.261   4.152  0.4421  1.1859 -0.4103
   38TAL   C19025817   6.944   9.245   4.276 -0.4470  0.0426 -0.7207
   39HTM   C19125818   6.180   9.078   4.542 -0.1153  0.4007 -0.5508
   39HTM   C19225819   6.090   9.030   4.632 -0.5074  0.4461 -0.9110
   39HTM   C19325820   6.077   9.111   4.750 -0.5596  0.1791 -0.7309
   39HTM   C19425821   6.158   9.221   4.750 -0.2072 -0.0699 -0.2332
   39HTM    S2025822   6.256   9.231   4.599  0.2210  0.0142  0.0488
   40TAL   C19525823   5.988   9.069   4.869  0.7453  1.1675 -0.2626
   40TAL   C19625824   5.867   8.980   4.841  0.5662 -0.7538 -0.9044
   40TAL   C19725825   5.767   8.940   4.945  0.3288  0.3241 -0.0387
   40TAL   C19825826   5.787   8.807   5.025 -0.8070 -0.5793  0.4104
   40TAL   C19925827   5.666   8.756   5.085  0.6800 -0.3983 -0.0193
   40TAL   C20025828   5.673   8.618   5.159  0.4034 -0.3423  0.9855
   41HTM   C20125829   6.166   9.323   4.848 -0.2671 -0.5063 -1.3361
   41HTM   C20225830   6.275   9.392   4.892  0.1662 -0.7519 -1.9900
   41HTM   C20325831   6.243   9.499   4.982  0.9570 -0.6840 -1.7724
   41HTM   C20425832   6.109   9.512   5.007  1.1265 -0.3867 -0.9528
   41HTM    S2125833   6.013   9.388   4.918  0.2942 -0.1676 -0.3875
   42TAL   C20525834   6.341   9.600   5.035  0.1908  0.2792 -1.3953
   42TAL   C20625835   6.379   9.708   4.936 -0.9889 -0.1406  0.2832
   42TAL   C20725836   6.480   9.787   5.025  0.3639  0.1551 -0.3076
   42TAL   C20825837   6.545   9.915   4.955 -0.8916 -0.2738  0.4710
   42TAL   C20925838   6.634   9.869   4.837 -1.0485  0.4790  0.0041
   42TAL   C21025839   6.783   9.906   4.858  0.6903 -0.4554  0.6363
   43HTM   C21125840   6.024   9.608   5.088 -0.0563  0.3039 -0.6666
   43HTM   C21225841   5.889   9.600   5.101 -0.0508  0.1933 -0.6698
   43HTM   C21325842   5.831   9.714   5.167 -0.1048 -0.0163 -0.3492
   43HTM   C21425843   5.922   9.809   5.203 -0.1516 -0.0655 -0.1015
   43HTM    S2225844   6.089   9.761   5.157 -0.1309  0.1509 -0.2552
   44TAL   C21525845   5.681   9.719   5.181  0.7257 -0.4648  0.7961
   44TAL   C21625846   5.617   9.712   5.317  0.2642 -0.6087 -0.0778
   44TAL   C21725847   5.626   9.576   5.392 -0.7616 -0.6632 -0.0230
   44TAL   C21825848   5.532   9.474   5.326  0.6954 -0.0634 -0.0047
   44TAL   C21925849   5.380   9.512   5.301  0.1447 -0.2335 -0.2386
   44TAL   C22025850   5.289   9.393   5.289 -0.2797  0.3465 -0.0318
   45HTM   C22125851   5.904   9.948   5.255  0.4165 -0.3510 -0.6815
   45HTM   C22225852   5.919   9.989   5.384  0.6903 -0.5363 -0.6517
   45HTM   C22325853   5.864  10.120   5.409  0.6310 -0.6245 -0.3166
   45HTM   C22425854   5.806  10.178   5.300  0.3121 -0.5064 -0.0909
   45HTM    S2325855   5.818  10.071   5.155  0.0600 -0.2729 -0.2855
   46TAL   C22525856   5.863  10.177   5.549  0.8335 -0.8414  0.2773
   46TAL   C22625857   5.974  10.292   5.568 -0.1133  0.7085  0.0540
   46TAL   C22725858   5.947  10.333   5.708 -1.0622 -1.4130  0.5178
   46TAL   C22825859   5.992  10.244   5.830  0.1543 -0.1232 -0.6539
   46TAL   C22925860   6.144  10.235   5.827 -0.1455 -0.1590 -0.5041
   46TAL   C23025861   6.212  10.365   5.873 -0.2066 -0.2626 -0.2657
   47HTM   C23125862   5.735  10.309   5.285  0.0009  0.8399 -0.3470
   47HTM   C23225863   5.764  10.440   5.311 -0.1496  0.9550 -0.7486
   47HTM   C23325864   5.658  10.531   5.277 -0.2924  0.7206 -0.9404
   47HTM   C23425865   5.547  10.470   5.226 -0.2507  0.4267 -0.6850
   47HTM    S2425866   5.569  10.291   5.216 -0.0262  0.4231 -0.1787
   48TAL   C23525867   5.654  10.677   5.300  0.3745 -0.2121 -0.5321
   48TAL   C23625868   5.735  10.747   5.414 -0.5033 -0.2919  0.8825
   48TAL   C23725869   5.726  10.695   5.551  0.4290 -0.0544  0.1111
   48TAL   C23825870   5.817  10.748   5.657 -0.5898 -0.1771  1.2673
   48TAL   C23925871   5.777  10.731   5.802  0.2969  0.5199 -0.6153
   48TAL   C24025872   5.852  10.825   5.888  0.1470 -0.7747 -1.2050
    1HTM     C125873   3.359   1.387   7.757  0.2782 -0.2858 -0.4907
    1HTM     C225874   3.409   1.466   7.855  0.7495 -0.5238 -0.5352
    1HTM     C325875   3.366   1.429   7.988  0.6769 -0.3088 -0.4976
    1HTM     C425876   3.283   1.322   7.990  0.1503  0.0932 -0.4246
    1HTM     S125877   3.252   1.258   7.824 -0.2983  0.2325 -0.3970
    2TAL     C525878   3.422   1.514   8.107 -0.0329  0.1485 -0.1044
    2TAL     C625879   3.570   1.534   8.089 -0.1831 -0.4542 -0.3605
    2TAL     C725880   3.628   1.640   8.181 -1.0209  0.2655  0.4171
    2TAL     C825881   3.565   1.775   8.221  0.0004  0.2228  0.4316
    2TAL     C925882   3.536   1.871   8.105  0.0731  1.0177 -0.4193
    2TAL    C1025883   3.485   2.002   8.161  0.4299  1.1525  0.0308
    3HTM    C1125884   3.209   1.251   8.114  0.4427 -0.4363  0.0727
    3HTM    C1225885   3.142   1.133   8.102  0.2557 -0.3522  0.2592
    3HTM    C1325886   3.077   1.090   8.223 -0.0172  0.0613  0.2651
    3HTM    C1425887   3.095   1.175   8.328 -0.0381  0.2924  0.0834
    3HTM     S225888   3.195   1.317   8.282  0.2876  0.0036 -0.1111
    4TAL    C1525889   3.009   0.952   8.232  0.3271 -1.5356 -0.4054
    4TAL    C1625890   3.086   0.846   8.185 -0.4328  0.3406 -0.0787
    4TAL    C1725891   2.999   0.724   8.157  0.1598  0.4038  0.1160
    4TAL    C1825892   3.061   0.614   8.090 -0.4224  0.8128  0.6150
    4TAL    C1925893   3.157   0.527   8.173  0.2272  0.3144  0.4759
    4TAL    C2025894   3.088   0.437   8.271  0.4731 -0.0711 -0.8132
    5HTM    C2125895   3.044   1.160   8.462  0.1629  0.0319  0.7464
    5HTM    C2225896   3.104   1.193   8.579  0.0013 -0.9523  1.1292
    5HTM    C2325897   3.014   1.203   8.691 -0.3250 -0.8801  0.8621
    5HTM    C2425898   2.884   1.176   8.659 -0.4121  0.1592  0.2755
    5HTM     S325899   2.866   1.138   8.483 -0.0864  1.1349  0.0131
    6TAL    C2525900   3.063   1.252   8.833  0.1908 -0.6441 -0.9156
    6TAL    C2625901   3.122   1.154   8.939 -0.2123  0.3552 -0.1844
    6TAL    C2725902   3.134   1.187   9.084 -0.3163 -0.4822 -0.3450
    6TAL    C2825903   3.028   1.150   9.176  0.6194 -0.3246 -1.2968
    6TAL    C2925904   2.885   1.114   9.131 -0.9724 -0.0716  0.1037
    6TAL    C3025905   2.806   1.046   9.242 -0.8437 -0.5479  0.0225
    7HTM    C3125906   2.767   1.189   8.736 -0.0276 -0.4082 -0.0921
    7HTM    C3225907   2.709   1.306   8.774  0.5490 -0.2761  0.4268
    7HTM    C3325908   2.592   1.289   8.857  0.7860 -0.0470  0.8113
    7HTM    C3425909   2.563   1.158   8.883  0.3901 -0.0044  0.5861
    7HTM     S425910   2.680   1.046   8.803 -0.3182 -0.2522 -0.1350
    8TAL    C3525911   2.500   1.411   8.904 -0.4942  0.3538  0.3841
    8TAL    C3625912   2.403   1.476   8.812  0.1037 -0.1683  0.1631
    8TAL    C3725913   2.314   1.585   8.863  0.2497 -1.7802 -0.1272
    8TAL    C3825914   2.263   1.572   9.013 -1.0287 -0.3846  0.0920
    8TAL    C3925915   2.113   1.578   9.012  0.2114  0.0182 -0.4717
    8TAL    C4025916   2.060   1.584   9.152  0.0083 -0.6247  0.6356
    9HTM    C4125917   2.443   1.098   8.936 -0.1641 -1.1329 -0.1077
    9HTM    C4225918   2.316   1.076   8.890 -0.2024 -1.4034  0.1230
    9HTM    C4325919   2.232   1.005   8.983 -0.0642 -1.0489  0.5252
    9HTM    C4425920   2.295   0.973   9.100  0.0795 -0.5081  0.6014
    9HTM     S525921   2.466   1.031   9.102  0.0512 -0.4038  0.1676
   10TAL    C4525922   2.083   0.983   8.945  0.6892 -0.3101 -0.0079
   10TAL    C4625923   2.047   0.868   8.841 -0.5269 -0.0018  0.2056
   10TAL    C4725924   2.089   0.910   8.689  0.6129 -0.1289 -0.8348
   10TAL    C4825925   2.046   0.802   8.598  0.3818 -0.4673  0.5977
   10TAL    C4925926   2.160   0.761   8.516 -1.7123  0.2544  0.0803
   10TAL    C5025927   2.134   0.648   8.417 -0.3189 -0.3841  1.3519
   11HTM    C5125928   2.261   0.926   9.226  0.3740  0.4892 -0.1573
   11HTM    C5225929   2.146   0.858   9.255 -0.1326  1.1649 -0.5038
   11HTM    C5325930   2.137   0.817   9.393 -0.9266  1.4458 -0.4661
   11HTM    C5425931   2.244   0.854   9.468 -1.0253  0.9843 -0.0910
   11HTM     S625932   2.366   0.944   9.371 -0.1162  0.1527  0.2468
   12TAL    C5525933   2.010   0.755   9.452  0.2274  0.1311  1.0184
   12TAL    C5625934   1.938   0.650   9.373 -0.8230  0.1265  0.3481
   12TAL    C5725935   1.805   0.616   9.430 -0.9177 -0.5257 -0.6620
   12TAL    C5825936   1.759   0.466   9.436 -0.8720  0.2082 -0.0792
   12TAL    C5925937   1.775   0.377   9.308  0.3419  0.1885  0.4345
   12TAL    C6025938   1.890   0.276   9.294 -0.5468 -0.3826 -0.1939
   13HTM    C6125939   2.280   0.829   9.612  0.5193  0.4003  0.0370
   13HTM    C6225940   2.202   0.823   9.724  0.4463  0.3756 -0.0153
   13HTM    C6325941   2.278   0.815   9.847  0.3645  0.2288  0.0250
   13HTM    C6425942   2.413   0.814   9.828  0.3752  0.1415  0.1078
   13HTM     S725943   2.456   0.824   9.653  0.4904  0.2387  0.1415
   14TAL    C6525944   2.209   0.777   9.985 -0.0698  0.6910  0.5252
   14TAL    C6625945   2.187   0.623  10.000  0.2538  0.1429  0.4302
   14TAL    C6725946   2.166   0.557  10.132 -0.0083 -0.3051 -1.3599
   14TAL    C6825947   2.280   0.569  10.240 -0.3934  0.2694  0.3110
   14TAL    C6925948   2.395   0.469  10.192 -0.4243 -0.5548 -0.5354
   14TAL    C7025949   2.492   0.384  10.281 -0.7002 -0.0308  0.3787
   15HTM    C7125950   2.517   0.820   9.931 -0.0469 -0.2078  0.2257
   15HTM    C7225951   2.513   0.878  10.054 -0.3502 -0.3828  0.3016
   15HTM    C7325952   2.630   0.851  10.134 -0.3495 -0.1391  0.3846
   15HTM    C7425953   2.722   0.773  10.072 -0.0458  0.2216  0.3724
   15HTM     S825954   2.669   0.726   9.906  0.2654  0.2821  0.2540
   16TAL    C7525955   2.649   0.901  10.277 -0.8269 -0.1208 -0.7725
   16TAL    C7625956   2.557   0.832  10.376 -0.6515  0.1663 -0.1448
   16TAL    C7725957   2.565   0.884  10.515  0.4053  0.2977 -0.5518
   16TAL    C7825958   2.512   1.025  10.542  0.2897  0.2662  0.4237
   16TAL    C7925959   2.506   1.062  10.684  0.4016  0.5685  0.3989
   16TAL    C8025960   2.448   1.189  10.700 -0.2006  0.0595  0.2953
   17HTM    C8125961   2.845   0.717  10.134 -0.2764  1.1030  0.8524
   17HTM    C8225962   2.839   0.608  10.214 -0.2364  1.3384  1.1806
   17HTM    C8325963   2.968   0.555  10.251 -0.2174  1.0349  0.6969
   17HTM    C8425964   3.072   0.625  10.198 -0.2430  0.5680 -0.0004
   17HTM     S925965   3.015   0.763  10.097 -0.2933  0.4748 -0.1006
   18TAL    C8525966   2.982   0.425  10.346 -0.0022 -0.5557  0.9157
   18TAL    C8625967   2.916   0.293  10.290  0.0077 -0.2258  0.1640
   18TAL    C8725968   2.881   0.185  10.388 -0.1039  0.4898 -0.4640
   18TAL    C8825969   2.826   0.050  10.333  0.5901  0.6140 -0.3869
   18TAL    C8925970   2.681   0.029  10.376 -0.2729 -1.0255  0.0056
   18TAL    C9025971   2.585  -0.081  10.321  0.3507  0.6462 -0.6785
   19HTM    C9125972   3.212   0.608  10.199 -0.4051 -0.0289 -0.1731
   19HTM    C9225973   3.301   0.664  10.112 -0.3738  0.6467  0.2730
   19HTM    C9325974   3.437   0.623  10.135 -0.3079  0.9111  0.3526
   19HTM    C9425975   3.452   0.537  10.240 -0.2890  0.4372 -0.0331
   19HTM    S1025976   3.294   0.500  10.318 -0.3534 -0.3862 -0.5304
   20TAL    C9525977   3.539   0.690  10.056 -0.3691  0.4370  1.1158
   20TAL    C9625978   3.583   0.632   9.918  0.8685 -0.2749 -0.7989
   20TAL    C9725979   3.458   0.595   9.836  0.8090 -0.0484 -0.1250
   20TAL    C9825980   3.489   0.510   9.721  0.8778 -0.3569  0.6180
   20TAL    C9925981   3.572   0.387   9.730  0.0770  0.1136  1.2120
   20TAL   C10025982   3.571   0.285   9.623 -0.1649  0.5908 -0.1155
   21HTM   C10125983   3.566   0.461  10.285  0.8998  0.4490  0.0801
   21HTM   C10225984   3.634   0.461  10.403  1.6230  0.6692 -0.3252
   21HTM   C10325985   3.742   0.366  10.408  1.3721  0.3621 -0.6549
   21HTM   C10425986   3.756   0.294  10.293  0.4577 -0.0922 -0.5006
   21HTM    S1125987   3.633   0.340  10.170 -0.1623 -0.1680  0.0778
   22TAL   C10525988   3.799   0.333  10.543  1.0739  0.1454 -0.4183
   22TAL   C10625989   3.905   0.239  10.577 -1.1277  0.9120  0.4848
   22TAL   C10725990   3.989   0.268  10.708 -0.2705  0.1263  0.4927
   22TAL   C10825991   4.082   0.392  10.722 -0.0997  0.2720 -0.3036
   22TAL   C10925992   4.180   0.421  10.612 -0.8244  0.6526 -0.0563
   22TAL   C11025993   4.304   0.516  10.649  0.7746  0.2001 -0.4056
   23HTM   C11125994   3.868   0.218  10.234 -0.0407  1.2087 -0.4601
   23HTM   C11225995   3.849   0.125  10.135 -0.3902  1.3788 -0.5550
   23HTM   C11325996   3.971   0.078  10.075 -0.5235  0.5498 -0.2034
   23HTM   C11425997   4.083   0.135  10.128 -0.2756 -0.2523  0.1599
   23HTM    S1225998   4.043   0.253  10.259  0.1486 -0.0211  0.0851
   24TAL   C11525999   3.967  -0.005   9.958 -0.0805  0.1865 -0.6493
   24TAL   C11626000   3.939   0.065   9.827  0.4694  0.7244  0.5469
   24TAL   C11726001   3.947  -0.018   9.693  0.8669 -0.0384  1.0016
   24TAL   C11826002   4.043  -0.136   9.683 -0.1183  0.0484  0.2712
   24TAL   C11926003   4.186  -0.079   9.667  0.0899 -1.3388  0.3289
   24TAL   C12026004   4.292  -0.179   9.695 -0.3765 -0.5774 -0.1967
   25HTM   C12126005   4.229   0.126  10.101  0.2362  0.1215 -0.1786
   25HTM   C12226006   4.334   0.112  10.187  0.2003  0.5590 -0.0591
   25HTM   C12326007   4.460   0.090  10.120  0.2913  0.6135  0.0956
   25HTM   C12426008   4.451   0.088   9.984  0.3968  0.2175  0.0941
   25HTM    S1326009   4.281   0.113   9.929  0.3891 -0.2586 -0.1045
   26TAL   C12526010   4.586   0.091  10.203  0.1168  1.0850 -0.5439
   26TAL   C12626011   4.604  -0.044  10.267  0.7237 -0.8528  0.1769
   26TAL   C12726012   4.701  -0.036  10.381 -0.3798  0.1227  0.7305
   26TAL   C12826013   4.757  -0.177  10.429  0.8758 -0.3752 -0.2384
   26TAL   C12926014   4.857  -0.171  10.539 -0.6521  0.2364  0.1471
   26TAL   C13026015   4.987  -0.084  10.516 -0.0968 -0.0150 -0.0843
   27HTM   C13126016   4.547   0.078   9.879 -0.7672 -0.0960  0.0951
   27HTM   C13226017   4.541   0.157   9.767 -1.2895 -0.3724 -0.0763
   27HTM   C13326018   4.618   0.106   9.656 -1.0811 -0.1867 -0.0172
   27HTM   C13426019   4.683  -0.011   9.683 -0.4000  0.2312  0.1996
   27HTM    S1426020   4.652  -0.066   9.852  0.0344  0.4242  0.3468
   28TAL   C13526021   4.626   0.174   9.533  0.3528 -0.7284  0.4476
   28TAL   C13626022   4.511   0.146   9.434 -0.4895  0.2500  0.1937
   28TAL   C13726023   4.511  -0.007   9.392 -0.4075  0.2626 -0.7226
   28TAL   C13826024   4.403  -0.039   9.286  0.3145 -0.1135  0.5227
   28TAL   C13926025   4.348  -0.176   9.299  0.2297 -1.1592  0.1940
   28TAL   C14026026   4.259  -0.235   9.187  0.7711  0.3026  0.2779
   29HTM   C14126027   4.785  -0.089   9.619 -0.0235 -0.6960  0.5176
   29HTM   C14226028   4.800  -0.224   9.631  0.2738 -0.7062  0.0916
   29HTM   C14326029   4.878  -0.284   9.525  0.2803 -0.2249 -0.1812
   29HTM   C14426030   4.922  -0.194   9.433 -0.0119  0.1523  0.0368
   29HTM    S1526031   4.869  -0.027   9.472 -0.3204 -0.0727  0.6079
   30TAL   C14526032   4.914  -0.430   9.536  0.7434  0.2399  0.0890
   30TAL   C14626033   4.799  -0.535   9.524  0.1613 -0.0243 -0.2788
   30TAL   C14726034   4.673  -0.530   9.609  0.6194  0.5840  0.2629
   30TAL   C14826035   4.702  -0.541   9.758  0.3044  0.0045  0.2025
   30TAL   C14926036   4.602  -0.482   9.857 -0.3474  0.7538 -0.0294
   30TAL   C15026037   4.653  -0.449   9.998 -0.9564 -0.4250 -0.0057
   31HTM   C15126038   5.004  -0.212   9.313  0.2130  0.2679 -0.4221
   31HTM   C15226039   5.073  -0.110   9.253 -0.1138  0.1112 -1.0905
   31HTM   C15326040   5.161  -0.154   9.148 -0.2114 -0.2587 -1.0219
   31HTM   C15426041   5.159  -0.289   9.127  0.0412 -0.3839 -0.3014
   31HTM    S1626042   5.045  -0.372   9.239  0.4246 -0.0415  0.3514
   32TAL   C15526043   5.247  -0.046   9.086  1.0602  0.7228 -0.5341
   32TAL   C15626044   5.226  -0.017   8.940 -0.7903  0.1763  0.8280
   32TAL   C15726045   5.084   0.009   8.890 -0.1803 -0.3914  0.5039
   32TAL   C15826046   5.060   0.005   8.734  0.7839  0.2939  0.3533
   32TAL   C15926047   5.154   0.084   8.653 -0.3004 -1.1088  0.8666
   32TAL   C16026048   5.119   0.039   8.511 -0.6590 -0.1769 -0.0789
   33HTM   C16126049   5.258  -0.370   9.059  0.1470 -0.2614  0.4090
   33HTM   C16226050   5.238  -0.484   8.988  0.2335 -0.2025  0.2906
   33HTM   C16326051   5.357  -0.534   8.924  0.2455  0.0234  0.1330
   33HTM   C16426052   5.468  -0.458   8.947  0.1676  0.1370  0.1317
   33HTM    S1726053   5.430  -0.316   9.052  0.0729 -0.0340  0.3303
   34TAL   C16526054   5.336  -0.671   8.858 -0.4847 -0.2926  1.4223
   34TAL   C16626055   5.345  -0.793   8.945  0.5756  0.1319  0.5494
   34TAL   C16726056   5.485  -0.847   9.008  1.2696 -0.3161  0.4814
   34TAL   C16826057   5.479  -0.995   9.050 -1.0897  1.0799  0.5264
   34TAL   C16926058   5.475  -1.106   8.934 -0.4640 -0.8235  0.1700
   34TAL   C17026059   5.508  -1.241   8.981  0.0139 -0.2310 -0.9738
   35HTM   C17126060   5.596  -0.444   8.877  0.5057  0.4986  0.3571
   35HTM   C17226061   5.682  -0.338   8.873  1.1309  0.0136  0.6130
   35HTM   C17326062   5.802  -0.364   8.798  1.0581 -0.5606  0.6845
   35HTM   C17426063   5.807  -0.489   8.744  0.3773 -0.5134  0.4828
   35HTM    S1826064   5.660  -0.585   8.786 -0.2291  0.2660  0.1850
   36TAL   C17526065   5.915  -0.261   8.781  0.3606 -0.0445 -0.1572
   36TAL   C17626066   5.901  -0.123   8.714  0.3403 -0.1366 -0.9912
   36TAL   C17726067   5.803  -0.094   8.594  0.5223 -0.5895 -0.4045
   36TAL   C17826068   5.784  -0.212   8.496 -0.5618  0.1892 -0.3454
   36TAL   C17926069   5.900  -0.228   8.393  0.2026 -0.3258  0.6756
   36TAL   C18026070   5.848  -0.313   8.287 -0.7282 -0.6654  0.8946
   37HTM   C18126071   5.911  -0.557   8.669  0.0470 -0.1005 -0.4403
   37HTM   C18226072   5.911  -0.691   8.643  0.4882 -0.1161 -0.3817
   37HTM   C18326073   6.025  -0.736   8.567  0.9247  0.1272  0.1194
   37HTM   C18426074   6.112  -0.636   8.535  0.8163  0.3286  0.4434
   37HTM    S1926075   6.057  -0.477   8.599  0.1494  0.2260  0.1379
   38TAL   C18526076   6.049  -0.883   8.528  0.5297  0.6469  0.9822
   38TAL   C18626077   5.944  -0.980   8.592 -0.5324 -0.4289 -0.0257
   38TAL   C18726078   5.933  -1.127   8.539  0.1163 -0.1245  0.3857
   38TAL   C18826079   5.803  -1.187   8.596 -0.1251  0.6094  0.6041
   38TAL   C18926080   5.788  -1.337   8.568  0.9780  0.3392  0.2347
   38TAL   C19026081   5.769  -1.396   8.417  0.7110 -0.0535 -2.1156
   39HTM   C19126082   6.213  -0.627   8.427  0.2259 -0.3379  0.2435
   39HTM   C19226083   6.245  -0.519   8.352 -0.5989 -0.3268 -0.1090
   39HTM   C19326084   6.355  -0.541   8.261 -0.7433  0.0702 -0.3879
   39HTM   C19426085   6.407  -0.667   8.268 -0.0285  0.3620 -0.2474
   39HTM    S2026086   6.320  -0.768   8.390  0.8894  0.1563  0.2510
   40TAL   C19526087   6.415  -0.429   8.177  1.2973  0.3133  0.8084
   40TAL   C19626088   6.302  -0.356   8.091  0.2284  1.0625  0.4958
   40TAL   C19726089   6.356  -0.255   7.987 -0.3563 -0.3336  0.0465
   40TAL   C19826090   6.359  -0.112   8.029 -0.2281  1.1498  0.1673
   40TAL   C19926091   6.473  -0.048   7.949 -0.5482  0.4865  0.2270
   40TAL   C20026092   6.493   0.104   7.992 -0.2858  0.6018 -0.3490
   41HTM   C20126093   6.500  -0.742   8.181  0.6294  0.1224  0.8769
   41HTM   C20226094   6.503  -0.878   8.167  0.7442  0.0030  1.8792
   41HTM   C20326095   6.613  -0.925   8.087  0.3151 -0.4154  1.5261
   41HTM   C20426096   6.694  -0.826   8.040 -0.1270 -0.6149  0.2547
   41HTM    S2126097   6.637  -0.663   8.094 -0.0348 -0.2872 -0.6020
   42TAL   C20526098   6.642  -1.068   8.069  0.3907 -0.1292 -0.7903
   42TAL   C20626099   6.594  -1.164   7.950  1.0567 -0.4404 -0.3776
   42TAL   C20726100   6.591  -1.314   7.985  0.4660  0.1905  0.4906
   42TAL   C20826101   6.561  -1.419   7.869 -0.4804  0.3441 -0.0144
   42TAL   C20926102   6.696  -1.419   7.787  0.4793  0.1466  0.4726
   42TAL   C21026103   6.733  -1.558   7.739 -0.4802  0.0434 -0.3407
   43HTM   C21126104   6.825  -0.826   7.973  0.3598 -0.3213  0.3665
   43HTM   C21226105   6.927  -0.736   7.964  0.2397 -0.2396 -0.3421
   43HTM   C21326106   7.036  -0.779   7.880 -0.0464 -0.4143 -0.6256
   43HTM   C21426107   7.017  -0.901   7.824 -0.1442 -0.6290 -0.1330
   43HTM    S2226108   6.859  -0.973   7.874  0.1192 -0.6276  0.7337
   44TAL   C21526109   7.142  -0.681   7.845 -0.2229 -0.2715 -0.0634
   44TAL   C21626110   7.260  -0.668   7.944  0.4290 -0.1770  0.9197
   44TAL   C21726111   7.402  -0.627   7.897  0.8341  1.0365 -0.6927
   44TAL   C21826112   7.410  -0.495   7.824  0.1769 -0.0105 -0.1759
   44TAL   C21926113   7.556  -0.450   7.840 -0.1337 -0.4508  0.4535
   44TAL   C22026114   7.599  -0.365   7.718 -0.0884 -0.9354 -0.3142
   45HTM   C22126115   7.103  -0.973   7.730  0.0069 -0.2864 -0.0860
   45HTM   C22226116   7.097  -1.108   7.707  0.9634 -0.4636  0.5506
   45HTM   C22326117   7.173  -1.151   7.593  1.4635 -0.5113  0.8950
   45HTM   C22426118   7.238  -1.049   7.529  0.8880 -0.3703  0.5211
   45HTM    S2326119   7.207  -0.890   7.608 -0.3395 -0.1651 -0.3013
   46TAL   C22526120   7.169  -1.302   7.563  0.2648 -0.0134 -0.4848
   46TAL   C22626121   7.222  -1.395   7.675 -0.0202  0.8268  0.3814
   46TAL   C22726122   7.201  -1.542   7.673  0.1591  0.2145  0.6740
   46TAL   C22826123   7.290  -1.607   7.565 -0.3938  0.7989 -0.0165
   46TAL   C22926124   7.293  -1.768   7.577 -0.6460  0.3850 -0.4852
   46TAL   C23026125   7.349  -1.845   7.466 -1.2821 -0.4831 -0.2781
   47HTM   C23126126   7.307  -1.034   7.404  0.4642  0.5776  0.0520
   47HTM   C23226127   7.421  -0.964   7.378  0.9313 -0.1556  0.0652
   47HTM   C23326128   7.475  -0.989   7.246  0.9156 -0.6642  0.1488
   47HTM   C23426129   7.402  -1.077   7.173  0.4364 -0.3190  0.1993
   47HTM    S2426130   7.258  -1.137   7.264 -0.0358  0.6831  0.1451
   48TAL   C23526131   7.590  -0.902   7.208  0.5679 -0.4089  1.0633
   48TAL   C23626132   7.641  -0.903   7.057  0.0151 -0.2375 -0.9575
   48TAL   C23726133   7.770  -0.822   7.048 -0.4143 -0.4048 -0.1047
   48TAL   C23826134   7.749  -0.669   7.079 -0.2346  0.1430 -0.1348
   48TAL   C23926135   7.859  -0.564   7.052 -0.2066  0.6859  0.6524
   48TAL   C24026136   7.821  -0.422   7.052 -0.0818  0.1222  1.0014
    1HTM     C126137   6.904   1.984  11.345 -0.5454  0.6581  0.2011
    1HTM     C226138   6.963   1.979  11.468 -0.4271  0.7338  0.1476
    1HTM     C326139   7.064   2.079  11.487 -0.0037  0.3873 -0.2201
    1HTM     C426140   7.082   2.161  11.380  0.2010  0.0473 -0.4469
    1HTM     S126141   6.972   2.116  11.244 -0.1276  0.1391 -0.2120
    2TAL     C526142   7.140   2.102  11.620 -0.0503 -0.0134  0.8916
    2TAL     C626143   7.136   2.001  11.727  0.1498  0.0735 -0.4261
    2TAL     C726144   7.175   2.058  11.865  1.2570  0.6928  0.3231
    2TAL     C826145   7.147   1.954  11.972  0.3620 -0.3635  0.0725
    2TAL     C926146   7.043   2.006  12.083 -1.0995  0.3172 -0.2073
    2TAL    C1026147   6.953   1.899  12.143  0.5738 -0.1702 -0.6819
    3HTM    C1126148   7.166   2.276  11.342  0.4805  0.5022 -0.2548
    3HTM    C1226149   7.216   2.303  11.218  0.9289  0.5165 -0.0772
    3HTM    C1326150   7.296   2.422  11.212  0.6527  0.7164  0.1531
    3HTM    C1426151   7.308   2.486  11.331 -0.0065  0.8543  0.1511
    3HTM     S226152   7.218   2.400  11.462 -0.3318  0.7417 -0.1440
    4TAL    C1526153   7.361   2.473  11.080  0.0315  0.5499 -1.0187
    4TAL    C1626154   7.280   2.512  10.958 -0.1751 -0.5458 -0.8019
    4TAL    C1726155   7.210   2.645  10.952  0.7466  0.2826  0.5429
    4TAL    C1826156   7.213   2.701  10.812 -0.4670 -0.0075 -0.3961
    4TAL    C1926157   7.113   2.808  10.786 -0.5775 -0.2011 -0.1379
    4TAL    C2026158   7.129   2.846  10.647  0.7920  0.2891  0.2042
    5HTM    C2126159   7.399   2.587  11.369  0.2731  0.1902 -0.4536
    5HTM    C2226160   7.415   2.706  11.305  0.1332  0.2580 -0.3641
    5HTM    C2326161   7.497   2.800  11.376 -0.2122  0.4085 -0.1571
    5HTM    C2426162   7.545   2.753  11.495 -0.3356  0.4558 -0.0890
    5HTM     S326163   7.488   2.584  11.526 -0.0228  0.3125 -0.2822
    6TAL    C2526164   7.534   2.924  11.294 -0.0884 -1.3169  0.8920
    6TAL    C2626165   7.612   2.897  11.159  0.2911  0.4018  0.3039
    6TAL    C2726166   7.756   2.853  11.166  0.0280  0.0983  0.5476
    6TAL    C2826167   7.852   2.937  11.239 -0.3059 -0.2645  0.1790
    6TAL    C2926168   7.985   2.866  11.265 -0.7779 -1.4765  0.4883
    6TAL    C3026169   8.034   2.893  11.409  0.1473  0.0805  1.3958
    7HTM    C3126170   7.644   2.818  11.579 -0.4360  0.0300  0.3568
    7HTM    C3226171   7.742   2.756  11.651 -0.7309  0.0193  0.7579
    7HTM    C3326172   7.826   2.848  11.724 -0.6672  0.0535  0.6435
    7HTM    C3426173   7.791   2.979  11.708 -0.3238  0.0902  0.1552
    7HTM     S426174   7.649   2.997  11.599 -0.0520  0.0845 -0.2013
    8TAL    C3526175   7.955   2.794  11.783 -0.7465  0.6520 -1.0462
    8TAL    C3626176   7.959   2.644  11.815  1.1800  1.8719  0.1257
    8TAL    C3726177   7.943   2.585  11.958 -0.0295 -0.8005  0.3427
    8TAL    C3826178   7.828   2.658  12.036 -1.0216 -0.1063 -0.6938
    8TAL    C3926179   7.831   2.663  12.189  0.2876 -0.1493  1.4191
    8TAL    C4026180   7.727   2.770  12.217 -0.1998 -0.5605  0.4138
    9HTM    C4126181   7.836   3.105  11.760 -0.1597 -0.1668  0.1457
    9HTM    C4226182   7.829   3.231  11.709 -0.5436 -0.0372  0.5155
    9HTM    C4326183   7.897   3.330  11.790 -0.5444 -0.1225  0.6211
    9HTM    C4426184   7.956   3.278  11.901 -0.1610 -0.3171  0.3320
    9HTM     S526185   7.930   3.100  11.914  0.2337 -0.4085 -0.0993
   10TAL    C4526186   7.891   3.476  11.759  0.5286 -0.3592 -0.2939
   10TAL    C4626187   7.750   3.542  11.736 -0.1774  0.2811 -0.8303
   10TAL    C4726188   7.735   3.667  11.646  0.3806  0.1575  0.2160
   10TAL    C4826189   7.733   3.803  11.724 -0.4694  0.1510 -0.5386
   10TAL    C4926190   7.860   3.827  11.792  0.0696 -0.6372 -0.7051
   10TAL    C5026191   7.880   3.959  11.853  0.4160 -0.6436 -0.5035
   11HTM    C5126192   8.047   3.337  11.997  0.0677 -0.3675 -0.1643
   11HTM    C5226193   8.109   3.459  11.993 -0.4209 -0.1127 -0.1607
   11HTM    C5326194   8.172   3.496  12.117 -0.6861  0.2016 -0.1180
   11HTM    C5426195   8.158   3.402  12.216 -0.3998  0.1864 -0.0891
   11HTM     S626196   8.063   3.260  12.159  0.2320 -0.2292 -0.1137
   12TAL    C5526197   8.251   3.623  12.135  0.7595 -0.4493 -0.2312
   12TAL    C5626198   8.219   3.730  12.031 -0.0792  0.1394 -0.4087
   12TAL    C5726199   8.339   3.749  11.936 -0.0325  0.9162  0.2234
   12TAL    C5826200   8.304   3.866  11.844 -0.6998  0.1882 -1.1376
   12TAL    C5926201   8.428   3.928  11.769  0.0976 -0.8325 -0.7523
   12TAL    C6026202   8.484   3.837  11.660 -0.2503 -0.0356  0.0770
   13HTM    C6126203   8.192   3.390  12.358 -0.2569  0.4040 -0.0089
   13HTM    C6226204   8.299   3.436  12.429 -0.2959  0.2009  0.1838
   13HTM    C6326205   8.299   3.396  12.567 -0.2841 -0.3446  0.0303
   13HTM    C6426206   8.191   3.320  12.602 -0.2362 -0.5575 -0.2800
   13HTM     S726207   8.081   3.292  12.462 -0.2020 -0.0817 -0.4024
   14TAL    C6526208   8.401   3.445  12.672  0.3520 -1.1640  0.4573
   14TAL    C6626209   8.543   3.400  12.660  0.3257  1.3586 -0.5489
   14TAL    C6726210   8.632   3.443  12.781 -0.4743  0.3910  0.3530
   14TAL    C6826211   8.658   3.597  12.796 -0.2776  0.1323  0.5656
   14TAL    C6926212   8.735   3.685  12.695 -1.0540  0.9509 -0.1053
   14TAL    C7026213   8.868   3.625  12.661 -0.8966  0.3282  0.3176
   15HTM    C7126214   8.164   3.253  12.730 -0.5323 -0.4945  0.2407
   15HTM    C7226215   8.183   3.124  12.770 -0.5220 -0.4302  0.4461
   15HTM    C7326216   8.147   3.100  12.908 -0.1618 -0.1283  0.5972
   15HTM    C7426217   8.100   3.210  12.972  0.1025  0.0375  0.5075
   15HTM     S826218   8.098   3.355  12.864 -0.0844 -0.1763  0.2227
   16TAL    C7526219   8.125   2.953  12.954 -1.1301 -1.3218 -0.2408
   16TAL    C7626220   8.127   2.832  12.856 -0.4475  0.2072 -0.2147
   16TAL    C7726221   8.101   2.686  12.912  0.5334 -0.3467 -0.5727
   16TAL    C7826222   8.116   2.566  12.818  0.1241  0.5187  0.0185
   16TAL    C7926223   8.239   2.553  12.723  0.3610 -0.2170 -0.4001
   16TAL    C8026224   8.194   2.458  12.600  0.3796 -0.1930 -0.5591
   17HTM    C8126225   8.040   3.220  13.102 -0.3993 -0.4410 -0.0415
   17HTM    C8226226   8.090   3.178  13.222 -0.9386 -1.7781 -0.2508
   17HTM    C8326227   8.001   3.202  13.333 -0.9486 -1.9388 -0.2229
   17HTM    C8426228   7.884   3.263  13.298 -0.4169 -0.7241  0.0081
   17HTM     S926229   7.877   3.294  13.120  0.1420  0.7280  0.2096
   18TAL    C8526230   8.049   3.178  13.475 -0.9221  0.8677  0.3898
   18TAL    C8626231   8.116   3.054  13.512  0.0367 -0.1392 -0.0760
   18TAL    C8726232   8.072   3.015  13.647 -0.1283  0.8006 -0.0323
   18TAL    C8826233   8.138   3.087  13.767 -0.0875  1.1337  0.7610
   18TAL    C8926234   8.114   3.009  13.905  0.2921  0.4656  0.5674
   18TAL    C9026235   8.223   3.034  14.009 -0.4310 -0.5726  0.5066
   19HTM    C9126236   7.774   3.322  13.369  0.0819  0.4155 -0.6550
   19HTM    C9226237   7.769   3.342  13.503  0.4292  0.8816 -0.7079
   19HTM    C9326238   7.655   3.421  13.545  0.3399  0.7235 -0.6523
   19HTM    C9426239   7.574   3.460  13.443 -0.0755  0.1370 -0.5575
   19HTM    S1026240   7.636   3.400  13.284 -0.3885 -0.2645 -0.5300
   20TAL    C9526241   7.630   3.464  13.693  0.3831  0.0447 -0.2798
   20TAL    C9626242   7.705   3.399  13.801 -0.8699 -0.3296 -0.9394
   20TAL    C9726243   7.671   3.250  13.819 -0.2682 -0.0225 -0.4345
   20TAL    C9826244   7.772   3.183  13.921  0.1488  0.2889  0.1186
   20TAL    C9926245   7.718   3.057  13.979  0.0567  0.2586 -0.3914
   20TAL   C10026246   7.792   3.001  14.110 -0.8918 -0.2083 -0.2959
   21HTM   C10126247   7.460   3.553  13.429 -0.1395  0.1854 -0.2435
   21HTM   C10226248   7.408   3.605  13.315  0.4733  1.3116 -0.0355
   21HTM   C10326249   7.304   3.702  13.338  0.9711  1.7624  0.3557
   21HTM   C10426250   7.278   3.724  13.470  0.7378  0.9801  0.4461
   21HTM    S1126251   7.382   3.622  13.576 -0.1353 -0.3975  0.0407
   22TAL   C10526252   7.216   3.763  13.228  0.6534  0.1978 -0.1839
   22TAL   C10626253   7.201   3.676  13.107 -0.7146 -1.2255  0.9476
   22TAL   C10726254   7.075   3.604  13.116  0.8436 -0.4045  0.2257
   22TAL   C10826255   7.028   3.520  13.004  0.4914  0.4544  1.4078
   22TAL   C10926256   6.893   3.443  13.021 -0.5216 -0.1158  0.5948
   22TAL   C11026257   6.863   3.381  12.882 -1.2669 -0.6311  0.0631
   23HTM   C11126258   7.179   3.802  13.535  0.2874  0.4108  0.3005
   23HTM   C11226259   7.211   3.914  13.605 -0.0070  0.6000  0.1371
   23HTM   C11326260   7.097   3.990  13.650 -0.2028  0.4702 -0.1395
   23HTM   C11426261   6.977   3.935  13.614 -0.0578  0.1820 -0.1875
   23HTM    S1226262   7.000   3.783  13.520  0.3406  0.0514  0.1155
   24TAL   C11526263   7.130   4.113  13.732 -0.0532 -0.0466  0.4329
   24TAL   C11626264   7.111   4.079  13.888 -0.2765 -0.6365  0.9087
   24TAL   C11726265   7.083   4.208  13.959  0.2909 -0.4028  0.1068
   24TAL   C11826266   7.188   4.258  14.055 -0.1897  0.0298 -0.1184
   24TAL   C11926267   7.139   4.371  14.148 -0.5117  0.4284  0.7624
   24TAL   C12026268   7.242   4.428  14.245  0.2368 -0.2355  0.3526
   25HTM   C12126269   6.849   3.966  13.678  0.2832 -0.2374  0.1370
   25HTM   C12226270   6.748   3.882  13.714  0.0576 -0.1971 -0.3927
   25HTM   C12326271   6.642   3.947  13.787 -0.2526 -0.1759 -0.8554
   25HTM   C12426272   6.663   4.081  13.806 -0.2630 -0.1998 -0.6782
   25HTM    S1326273   6.819   4.135  13.734  0.1208 -0.2518  0.0923
   26TAL   C12526274   6.518   3.865  13.824 -0.2590 -0.5877 -0.5996
   26TAL   C12626275   6.523   3.715  13.859 -0.0008  0.1285  0.3278
   26TAL   C12726276   6.399   3.633  13.900  1.0830 -0.4046 -0.1031
   26TAL   C12826277   6.374   3.625  14.050  0.5992 -0.1822 -0.3068
   26TAL   C12926278   6.265   3.529  14.110 -0.0294  0.0380  0.9111
   26TAL   C13026279   6.119   3.584  14.075  0.4420  0.0792 -0.0120
   27HTM   C13126280   6.587   4.180  13.886 -0.0044 -0.3843 -0.3423
   27HTM   C13226281   6.637   4.302  13.920  0.6078 -0.7126 -0.0327
   27HTM   C13326282   6.553   4.377  14.011  1.0353 -0.5642  0.2508
   27HTM   C13426283   6.438   4.311  14.045  0.7490 -0.1228  0.1570
   27HTM    S1426284   6.428   4.149  13.966 -0.0892  0.1417 -0.3000
   28TAL   C13526285   6.590   4.514  14.053  0.0188 -0.5840  0.1921
   28TAL   C13626286   6.734   4.536  14.100 -0.0498 -1.0419 -0.2668
   28TAL   C13726287   6.778   4.675  14.156 -0.8901 -0.5785  0.2528
   28TAL   C13826288   6.891   4.634  14.265 -0.1823 -0.4069  0.5933
   28TAL   C13926289   6.965   4.756  14.332  0.6696  0.2360  0.7747
   28TAL   C14026290   6.893   4.882  14.386 -0.0060  0.3021  0.3479
   29HTM   C14126291   6.330   4.345  14.137  0.2466  0.2191 -0.1684
   29HTM   C14226292   6.340   4.334  14.272  0.3859  0.2517 -0.1760
   29HTM   C14326293   6.217   4.364  14.342  0.4575  0.2689 -0.0572
   29HTM   C14426294   6.114   4.397  14.260  0.3729  0.2497  0.0408
   29HTM    S1526295   6.163   4.394  14.086  0.1947  0.2076 -0.0098
   30TAL   C14526296   6.210   4.381  14.489 -0.2557  0.6486 -0.3816
   30TAL   C14626297   6.334   4.432  14.569  0.4061  0.0057 -0.0473
   30TAL   C14726298   6.402   4.563  14.527  0.1102 -0.9130 -0.5085
   30TAL   C14826299   6.544   4.581  14.572  0.2872 -0.4620 -0.7329
   30TAL   C14926300   6.590   4.730  14.568 -0.0735 -0.0589 -0.2843
   30TAL   C15026301   6.534   4.825  14.680  1.0908  0.6747  1.3350
   31HTM   C15126302   5.973   4.441  14.268 -0.1833 -0.2526  0.1166
   31HTM   C15226303   5.899   4.538  14.207 -0.0755  0.0213  0.4156
   31HTM   C15326304   5.761   4.539  14.248 -0.0315  0.1756  0.5627
   31HTM   C15426305   5.730   4.443  14.340 -0.1058  0.0193  0.3756
   31HTM    S1626306   5.874   4.343  14.382 -0.2382 -0.3378 -0.0037
   32TAL   C15526307   5.661   4.646  14.198 -0.1856 -0.1098  0.5799
   32TAL   C15626308   5.668   4.786  14.261  0.1627  0.2267  0.4146
   32TAL   C15726309   5.583   4.880  14.176 -0.3440 -0.2757  0.3333
   32TAL   C15826310   5.520   5.008  14.241  0.9031  1.3875 -0.4645
   32TAL   C15926311   5.599   5.077  14.343 -1.2178 -0.5256 -0.3186
   32TAL   C16026312   5.678   5.187  14.278 -0.3501 -0.2266  0.3781
   33HTM   C16126313   5.617   4.429  14.425 -0.0087  0.8825  0.3338
   33HTM   C16226314   5.612   4.395  14.557  0.1386  1.0071  0.3715
   33HTM   C16326315   5.480   4.405  14.615  0.0368  0.2252  0.2878
   33HTM   C16426316   5.385   4.446  14.526 -0.1884 -0.4955  0.1860
   33HTM    S1726317   5.454   4.475  14.363 -0.2900 -0.2406  0.1883
   34TAL   C16526318   5.477   4.374  14.763 -0.2624  0.2493  0.8301
   34TAL   C16626319   5.483   4.246  14.831 -1.0763 -0.3179 -0.1455
   34TAL   C16726320   5.429   4.120  14.767  0.7262  0.3013  0.6676
   34TAL   C16826321   5.341   4.034  14.864 -0.1342 -0.0169  0.4987
   34TAL   C16926322   5.198   4.060  14.852  0.6840  0.2036 -1.2897
   34TAL   C17026323   5.128   3.923  14.842  0.5088  0.4614  0.6409
   35HTM   C17126324   5.248   4.485  14.557  0.5427  0.0462  0.0237
   35HTM   C17226325   5.173   4.595  14.529  0.8574  0.1677 -0.3688
   35HTM   C17326326   5.036   4.583  14.572  0.7790  0.6450 -0.4799
   35HTM   C17426327   5.007   4.464  14.632  0.4047  0.8872 -0.1722
   35HTM    S1826328   5.152   4.357  14.640  0.1199  0.5285  0.2857
   36TAL   C17526329   4.922   4.686  14.532 -0.9858 -0.3376 -0.0399
   36TAL   C17626330   4.907   4.803  14.627  0.0963  0.0328 -0.4018
   36TAL   C17726331   4.845   4.783  14.771  0.1388 -0.5809  0.4731
   36TAL   C17826332   4.690   4.751  14.786 -0.0629  0.3396  0.0670
   36TAL   C17926333   4.590   4.851  14.726  0.2838  0.1860  0.0853
   36TAL   C18026334   4.443   4.820  14.736 -0.5114 -0.6357  1.0536
   37HTM   C18126335   4.880   4.415  14.703  0.2402 -0.3534 -0.5993
   37HTM   C18226336   4.869   4.376  14.833  0.5851 -0.1098 -0.4923
   37HTM   C18326337   4.736   4.333  14.869  0.6969 -0.1153 -0.0792
   37HTM   C18426338   4.646   4.339  14.767  0.4372 -0.3632  0.1296
   37HTM    S1926339   4.723   4.400  14.615  0.0284 -0.6110 -0.1822
   38TAL   C18526340   4.711   4.283  15.011 -0.7585  0.0839  0.5803
   38TAL   C18626341   4.589   4.327  15.094  0.7856  0.5765 -0.8610
   38TAL   C18726342   4.531   4.467  15.099 -0.4981  0.0825 -0.8118
   38TAL   C18826343   4.423   4.508  15.192 -0.2134  0.2475 -1.0906
   38TAL   C18926344   4.287   4.443  15.164 -0.0400 -0.7127 -0.4838
   38TAL   C19026345   4.186   4.500  15.269 -0.9782  0.1927  0.1167
   39HTM   C19126346   4.507   4.293  14.767  0.3807 -0.2005 -0.0075
   39HTM   C19226347   4.397   4.373  14.774  0.5133  0.0591 -0.7703
   39HTM   C19326348   4.273   4.300  14.781  0.3076  0.3477 -1.3020
   39HTM   C19426349   4.289   4.165  14.780  0.0181  0.3083 -0.9441
   39HTM    S2026350   4.463   4.118  14.770 -0.0171 -0.0997  0.0994
   40TAL   C19526351   4.137   4.385  14.796 -1.2891  0.3957  0.1520
   40TAL   C19626352   4.141   4.538  14.808 -0.8122  1.0109  0.4779
   40TAL   C19726353   4.129   4.593  14.665 -0.1543  0.6865 -0.9631
   40TAL   C19826354   3.999   4.667  14.628 -0.4471  0.5471 -0.1182
   40TAL   C19926355   3.918   4.603  14.509  0.2726  0.5273 -0.9607
   40TAL   C20026356   3.783   4.676  14.491  0.4618  0.8629  0.1372
   41HTM   C20126357   4.197   4.055  14.782 -0.1133  0.1225 -0.1145
   41HTM   C20226358   4.215   3.937  14.848  0.0539 -0.1668 -0.6692
   41HTM   C20326359   4.100   3.850  14.844  0.0992 -0.2183 -0.8869
   41HTM   C20426360   3.995   3.903  14.775 -0.0335  0.0318 -0.4991
   41HTM    S2126361   4.033   4.066  14.710 -0.2276  0.3542  0.1779
   42TAL   C20526362   4.096   3.706  14.917  0.2440 -0.0304  0.8668
   42TAL   C20626363   4.155   3.708  15.046  0.2187  0.5432 -1.1111
   42TAL   C20726364   4.260   3.601  15.053  0.3286 -0.7857  0.1296
   42TAL   C20826365   4.309   3.575  15.184  0.1276  0.7595 -0.8326
   42TAL   C20926366   4.415   3.468  15.177 -0.3304  0.9135 -0.0179
   42TAL   C21026367   4.406   3.398  15.321  0.3770 -1.1628 -0.0238
   43HTM   C21126368   3.861   3.857  14.759  0.2133 -0.1093  0.4529
   43HTM   C21226369   3.818   3.737  14.712  0.4506 -0.4882  1.1740
   43HTM   C21326370   3.675   3.730  14.691  0.5245 -0.7166  0.7243
   43HTM   C21426371   3.610   3.845  14.722  0.3434 -0.5121 -0.3404
   43HTM    S2226372   3.724   3.972  14.781  0.0634 -0.0110 -0.8610
   44TAL   C21526373   3.606   3.597  14.639 -0.4426  0.5176 -0.0846
   44TAL   C21626374   3.709   3.494  14.580  0.4379 -0.2710 -0.2039
   44TAL   C21726375   3.658   3.360  14.551  0.6741  0.9932  0.6118
   44TAL   C21826376   3.778   3.302  14.483  0.2214 -1.0556 -0.1042
   44TAL   C21926377   3.741   3.173  14.408 -0.3962 -0.4755 -0.9557
   44TAL   C22026378   3.865   3.109  14.346  0.0752  0.5980 -0.1700
   45HTM   C22126379   3.473   3.892  14.701 -0.1927  0.1901 -0.4826
   45HTM   C22226380   3.365   3.825  14.651 -0.2383 -0.1336  0.0248
   45HTM   C22326381   3.244   3.904  14.648 -0.3396 -0.2880  0.0169
   45HTM   C22426382   3.260   4.030  14.697 -0.3712 -0.0819 -0.4966
   45HTM    S2326383   3.430   4.060  14.750 -0.2748  0.3261 -1.0140
   46TAL   C22526384   3.117   3.833  14.603 -0.4720  0.1816  0.3372
   46TAL   C22626385   3.133   3.763  14.463 -0.4939  0.5181  0.2325
   46TAL   C22726386   3.024   3.669  14.402 -0.0553  0.6433  0.6041
   46TAL   C22826387   2.880   3.722  14.405 -0.8625  0.4414 -0.9989
   46TAL   C22926388   2.779   3.669  14.508  1.0369  0.4517 -0.7872
   46TAL   C23026389   2.778   3.515  14.534  0.3782  0.5797  1.4192
   47HTM   C23126390   3.164   4.138  14.708 -0.2087 -0.4317  0.0863
   47HTM   C23226391   3.182   4.238  14.799  0.0116 -0.1633 -0.2472
   47HTM   C23326392   3.083   4.342  14.791  0.2877  0.0749 -0.6483
   47HTM   C23426393   2.989   4.321  14.694  0.2779 -0.0120 -0.6207
   47HTM    S2426394   3.020   4.168  14.604 -0.0835 -0.4044 -0.0815
   48TAL   C23526395   3.084   4.462  14.882 -0.6295 -0.6580  0.7811
   48TAL   C23626396   2.957   4.544  14.918 -0.6574 -0.7049  0.0629
   48TAL   C23726397   2.977   4.694  14.950 -0.5917  0.1503 -0.3732
   48TAL   C23826398   3.082   4.718  15.052  0.1992 -0.0672 -0.2173
   48TAL   C23926399   3.037   4.718  15.198  0.2433 -0.3181 -0.3541
   48TAL   C24026400   3.132   4.756  15.317  0.3144 -0.0017 -0.0376
    1HTM     C126401   3.217   5.203  15.080 -0.1428 -0.1511 -0.2907
    1HTM     C226402   3.326   5.224  15.001  0.0975 -0.0589  0.0579
    1HTM     C326403   3.448   5.168  15.054 -0.0072  0.1107  0.4871
    1HTM     C426404   3.432   5.105  15.174 -0.3273  0.1478  0.4656
    1HTM     S126405   3.260   5.111  15.229 -0.5229 -0.0302 -0.1030
    2TAL     C526406   3.577   5.169  14.978 -0.1781 -0.2033 -1.1173
    2TAL     C626407   3.640   5.301  14.942  0.4782 -0.0584 -1.5624
    2TAL     C726408   3.763   5.285  14.862  0.6972 -0.6622 -0.2125
    2TAL     C826409   3.826   5.416  14.843  0.1039 -1.7643 -0.0925
    2TAL     C926410   3.908   5.444  14.973 -0.6286 -0.7674 -0.7220
    2TAL    C1026411   3.971   5.587  14.996  0.2441  0.4360 -0.1244
    3HTM    C1126412   3.525   5.014  15.241 -0.2076  0.1857 -0.2680
    3HTM    C1226413   3.629   5.053  15.320 -0.0267  0.4603 -0.6361
    3HTM    C1326414   3.704   4.943  15.375  0.1918  0.6536 -0.5436
    3HTM    C1426415   3.656   4.820  15.339  0.1776  0.5263 -0.1051
    3HTM     S226416   3.513   4.834  15.231 -0.1152  0.1497  0.2280
    4TAL    C1526417   3.824   4.969  15.471 -0.6508 -0.1383 -0.1619
    4TAL    C1626418   3.959   4.975  15.404 -0.8852  0.6313  0.4415
    4TAL    C1726419   4.001   5.105  15.334 -0.1374 -0.0037  0.5598
    4TAL    C1826420   3.999   5.095  15.183  0.5834 -0.4560  0.6922
    4TAL    C1926421   4.091   5.004  15.110  0.3141 -0.3370  1.0569
    4TAL    C2026422   4.046   4.983  14.965  0.3655 -0.3358 -0.4523
    5HTM    C2126423   3.679   4.688  15.400  0.7286 -0.3808 -0.3476
    5HTM    C2226424   3.585   4.591  15.384  0.4730 -0.1694 -0.1609
    5HTM    C2326425   3.618   4.466  15.449 -0.0469 -0.0118  0.4258
    5HTM    C2426426   3.737   4.469  15.515 -0.1876 -0.1030  0.6869
    5HTM     S326427   3.817   4.630  15.500  0.3296 -0.3975  0.2080
    6TAL    C2526428   3.509   4.365  15.443  0.8133 -0.1419 -0.2841
    6TAL    C2626429   3.454   4.333  15.306  0.0352 -0.0383  0.9480
    6TAL    C2726430   3.505   4.201  15.248  0.3143 -0.4601  0.8479
    6TAL    C2826431   3.436   4.066  15.241 -0.1018 -0.1963 -0.3951
    6TAL    C2926432   3.282   4.061  15.259  0.2269 -0.5852 -0.4005
    6TAL    C3026433   3.202   4.096  15.131  0.0477 -0.2637  0.6571
    7HTM    C3126434   3.810   4.367  15.593 -0.0399  0.4149 -0.0294
    7HTM    C3226435   3.886   4.393  15.703  0.2249  0.3844 -0.2027
    7HTM    C3326436   3.937   4.275  15.769  0.3626  0.3657 -0.3424
    7HTM    C3426437   3.899   4.159  15.708  0.2029  0.3817 -0.2760
    7HTM     S426438   3.797   4.190  15.563 -0.1367  0.4222 -0.0295
    8TAL    C3526439   4.035   4.282  15.878 -1.2073  0.9954 -2.2096
    8TAL    C3626440   3.995   4.269  16.022 -0.7716  0.4270 -1.4876
    8TAL    C3726441   4.113   4.227  16.116  0.3014  0.3399 -0.8173
    8TAL    C3826442   4.113   4.072  16.147  0.7216 -0.1383 -0.2492
    8TAL    C3926443   4.258   4.017  16.157 -0.0131  0.0332  0.8766
    8TAL    C4026444   4.279   3.864  16.157  0.0016 -0.2540  1.0548
    9HTM    C4126445   3.931   4.023  15.745  0.0318 -0.1202  0.0074
    9HTM    C4226446   4.055   3.966  15.737 -0.0272 -0.2626  0.0880
    9HTM    C4326447   4.054   3.823  15.742 -0.1758 -0.2533  0.3219
    9HTM    C4426448   3.929   3.769  15.755 -0.2300 -0.1039  0.4201
    9HTM     S526449   3.802   3.898  15.761 -0.0966  0.0378  0.2225
   10TAL    C4526450   4.177   3.736  15.755 -0.5673  1.2483 -0.7527
   10TAL    C4626451   4.314   3.799  15.750 -1.1349  0.8659 -0.4002
   10TAL    C4726452   4.422   3.693  15.739  0.2045 -0.1387  0.2896
   10TAL    C4826453   4.565   3.745  15.743 -0.1106 -1.2143 -0.3723
   10TAL    C4926454   4.679   3.668  15.690 -1.0514 -0.5419  1.3688
   10TAL    C5026455   4.691   3.699  15.543  0.1575 -0.6295  0.3395
   11HTM    C5126456   3.884   3.626  15.752  0.3122 -0.9225 -0.1130
   11HTM    C5226457   3.927   3.524  15.830  0.2559 -1.3714 -0.6521
   11HTM    C5326458   3.837   3.412  15.836 -0.1947 -1.0114 -0.6077
   11HTM    C5426459   3.724   3.429  15.761 -0.4822 -0.2880 -0.0349
   11HTM     S626460   3.723   3.589  15.677 -0.2038 -0.0031  0.4970
   12TAL    C5526461   3.873   3.290  15.924  0.7650 -0.0239  1.2812
   12TAL    C5626462   3.961   3.181  15.854 -0.4294 -0.3147  0.3145
   12TAL    C5726463   4.098   3.230  15.838 -0.1803 -0.6834  0.3861
   12TAL    C5826464   4.191   3.173  15.731  0.2657  0.0367 -0.2159
   12TAL    C5926465   4.313   3.254  15.697  0.0001 -0.2864  0.1283
   12TAL    C6026466   4.416   3.173  15.614 -0.1772  0.0670  0.4043
   13HTM    C6126467   3.613   3.342  15.729  0.2619 -0.1352  0.1185
   13HTM    C6226468   3.526   3.367  15.628  0.4315 -0.5134 -0.1276
   13HTM    C6326469   3.423   3.268  15.613  0.6405 -0.7300 -0.1309
   13HTM    C6426470   3.432   3.166  15.703  0.6303 -0.5170  0.1123
   13HTM     S726471   3.572   3.189  15.815  0.3538 -0.0224  0.3663
   14TAL    C6526472   3.324   3.290  15.496  0.0880  0.0031 -0.1994
   14TAL    C6626473   3.347   3.203  15.372 -0.2407 -1.4077 -0.6502
   14TAL    C6726474   3.468   3.254  15.289  0.8955  0.0235 -0.3855
   14TAL    C6826475   3.601   3.200  15.333 -0.5131  0.2397 -0.7536
   14TAL    C6926476   3.711   3.233  15.233  1.0778  0.6177 -0.5225
   14TAL    C7026477   3.857   3.237  15.273  0.0048 -0.2056 -0.8174
   15HTM    C7126478   3.346   3.050  15.709 -0.1365  0.5027 -0.1290
   15HTM    C7226479   3.377   2.936  15.776  0.2895  0.5509 -0.2401
   15HTM    C7326480   3.277   2.833  15.767  0.5575  0.2748 -0.1342
   15HTM    C7426481   3.168   2.869  15.692  0.3359  0.0159  0.0581
   15HTM     S826482   3.185   3.037  15.628 -0.2330  0.1015  0.1205
   16TAL    C7526483   3.300   2.692  15.820  1.2126 -0.1748 -1.0466
   16TAL    C7626484   3.442   2.648  15.836 -0.2828  0.4666  0.2535
   16TAL    C7726485   3.477   2.619  15.982 -0.6840  0.1876 -0.4443
   16TAL    C7826486   3.624   2.579  16.006 -0.0574  0.0735 -0.7010
   16TAL    C7926487   3.625   2.523  16.150 -1.1335  0.1456 -0.8636
   16TAL    C8026488   3.751   2.431  16.162  1.1581  1.0068 -0.0598
   17HTM    C8126489   3.037   2.809  15.679  0.3707 -0.3279 -0.0517
   17HTM    C8226490   2.916   2.871  15.662  0.4171 -0.3665 -0.5770
   17HTM    C8326491   2.804   2.781  15.659  0.4838 -0.4302 -1.4060
   17HTM    C8426492   2.839   2.649  15.672  0.4884 -0.4401 -1.5124
   17HTM     S926493   3.018   2.630  15.691  0.4081 -0.3692 -0.5669
   18TAL    C8526494   2.664   2.836  15.639  0.3183 -0.5501 -0.3337
   18TAL    C8626495   2.652   2.990  15.623  0.5759 -0.1186 -1.0039
   18TAL    C8726496   2.517   3.028  15.569 -0.2807 -0.1121 -0.4076
   18TAL    C8826497   2.446   3.155  15.599 -0.3012  0.0029 -0.3969
   18TAL    C8926498   2.534   3.271  15.596 -0.1270 -0.2970  0.6432
   18TAL    C9026499   2.504   3.381  15.701  0.0009 -0.1437  0.0810
   19HTM    C9126500   2.757   2.529  15.675  0.0917  0.2130  0.1994
   19HTM    C9226501   2.640   2.509  15.742  0.5001  0.0190  0.8764
   19HTM    C9326502   2.592   2.373  15.737  0.6770 -0.0525  1.1222
   19HTM    C9426503   2.673   2.290  15.667  0.4034  0.0870  0.6329
   19HTM    S1026504   2.817   2.376  15.600 -0.1028  0.3212 -0.1830
   20TAL    C9526505   2.469   2.339  15.809  1.6432  0.0881  0.1451
   20TAL    C9626506   2.334   2.402  15.759  0.2137  0.1671 -0.2666
   20TAL    C9726507   2.215   2.379  15.849  0.2374 -0.8304 -0.8261
   20TAL    C9826508   2.146   2.237  15.858  0.3359 -0.5021  0.9840
   20TAL    C9926509   2.239   2.141  15.918 -0.5601 -0.1643 -0.4651
   20TAL   C10026510   2.192   1.997  15.914  0.4719  0.2780 -0.7078
   21HTM   C10126511   2.652   2.148  15.629 -0.1577  0.1213 -0.6173
   21HTM   C10226512   2.737   2.042  15.632 -0.3782 -0.0561 -0.5834
   21HTM   C10326513   2.678   1.919  15.587 -0.7460 -0.0283 -0.1934
   21HTM   C10426514   2.548   1.931  15.549 -0.8059  0.1704  0.0694
   21HTM    S1126515   2.489   2.101  15.567 -0.3994  0.3390 -0.1561
   22TAL   C10526516   2.760   1.785  15.572 -0.9397 -0.7840 -1.2284
   22TAL   C10626517   2.918   1.792  15.573 -0.4190  0.2160 -0.2002
   22TAL   C10726518   2.994   1.662  15.575 -0.1577  0.3991  0.4415
   22TAL   C10826519   3.104   1.638  15.476 -0.0709  0.5183  1.0220
   22TAL   C10926520   3.143   1.495  15.479 -0.4073 -0.1654 -0.7283
   22TAL   C11026521   3.253   1.476  15.382  0.0116  1.1577  0.8411
   23HTM   C11126522   2.454   1.824  15.518  0.7049 -0.2873  0.1564
   23HTM   C11226523   2.379   1.804  15.406  0.5271 -0.2004  0.2596
   23HTM   C11326524   2.292   1.690  15.414  0.3370 -0.0467  0.4148
   23HTM   C11426525   2.300   1.622  15.532  0.3700 -0.0162  0.4298
   23HTM    S1226526   2.420   1.698  15.643  0.6457 -0.1807  0.2477
   24TAL   C11526527   2.218   1.626  15.295 -0.4271 -1.2219 -0.3911
   24TAL   C11626528   2.196   1.702  15.162 -0.3966 -0.7382 -0.9502
   24TAL   C11726529   2.084   1.625  15.107  0.5056  0.6098  0.1030
   24TAL   C11826530   2.044   1.672  14.971 -0.0486  0.4541 -0.3250
   24TAL   C11926531   1.994   1.553  14.892 -1.4898  0.7537 -0.2629
   24TAL   C12026532   1.964   1.587  14.746  0.2505 -0.5624 -1.1472
   25HTM   C12126533   2.227   1.509  15.585  0.5026  0.1172  0.2035
   25HTM   C12226534   2.091   1.502  15.589  0.4688  0.5369 -0.0584
   25HTM   C12326535   2.041   1.390  15.665 -0.0209  0.5111 -0.4065
   25HTM   C12426536   2.139   1.313  15.720 -0.3603  0.0718 -0.4093
   25HTM    S1326537   2.303   1.375  15.679 -0.0858 -0.3467  0.0303
   26TAL   C12526538   1.901   1.362  15.714  0.5343 -0.4499 -0.5530
   26TAL   C12626539   1.808   1.492  15.749 -0.2721  0.3310  0.0981
   26TAL   C12726540   1.861   1.607  15.850  0.0759  0.0192  0.1544
   26TAL   C12826541   1.876   1.559  15.998 -0.5180  0.2709 -0.0008
   26TAL   C12926542   1.768   1.482  16.070  0.3636 -0.8483  0.3215
   26TAL   C13026543   1.795   1.433  16.208  0.2097  0.2699 -0.1769
   27HTM   C13126544   2.125   1.188  15.801 -0.9876  0.2275 -0.1412
   27HTM   C13226545   2.168   1.172  15.929 -0.9419  0.5479 -0.1149
   27HTM   C13326546   2.142   1.041  15.983 -0.3774  0.4827  0.0112
   27HTM   C13426547   2.079   0.957  15.896  0.0075  0.1126  0.0809
   27HTM    S1426548   2.047   1.038  15.738 -0.3158 -0.1845 -0.0083
   28TAL   C13526549   2.170   1.021  16.133 -0.4326 -0.0616  0.5290
   28TAL   C13626550   2.272   1.102  16.218  0.5522  0.2183  0.7337
   28TAL   C13726551   2.264   1.067  16.362 -0.2108 -0.1956 -1.0802
   28TAL   C13826552   2.128   1.081  16.434  0.4345 -0.1152 -0.1172
   28TAL   C13926553   2.043   0.954  16.437 -0.3608  0.4872 -0.2185
   28TAL   C14026554   1.897   0.972  16.490 -1.0805  0.4762 -0.7819
   29HTM   C14126555   2.021   0.824  15.915  0.2334 -0.0710 -0.1189
   29HTM   C14226556   1.971   0.742  15.818 -0.0962  0.1625 -0.1500
   29HTM   C14326557   1.901   0.627  15.869 -0.3291  0.2828 -0.1931
   29HTM   C14426558   1.898   0.621  16.005 -0.1770  0.1411 -0.1950
   29HTM    S1526559   1.983   0.761  16.080  0.2757 -0.1577 -0.1419
   30TAL   C14526560   1.837   0.548  15.759 -0.2594  0.4054 -0.5224
   30TAL   C14626561   1.683   0.556  15.765  0.7953 -1.4204 -0.1110
   30TAL   C14726562   1.622   0.465  15.665  0.1730 -0.2269  0.6292
   30TAL   C14826563   1.610   0.508  15.514  0.9969 -0.6513 -0.5278
   30TAL   C14926564   1.502   0.613  15.482 -0.5313 -1.2209 -0.6288
   30TAL   C15026565   1.538   0.672  15.346 -0.3429  0.2876 -0.3226
   31HTM   C15126566   1.843   0.526  16.096 -0.5041  0.8011 -0.9022
   31HTM   C15226567   1.837   0.547  16.230 -0.4829  1.3646 -0.9851
   31HTM   C15326568   1.773   0.440  16.303  0.2076  1.3063 -0.4468
   31HTM   C15426569   1.731   0.337  16.224  0.7130  0.6984  0.0463
   31HTM    S1626570   1.768   0.368  16.050  0.3532  0.1481 -0.1324
   32TAL   C15526571   1.772   0.446  16.456 -0.2859 -0.5666 -0.0637
   32TAL   C15626572   1.661   0.538  16.517  1.2404  0.1027  1.0964
   32TAL   C15726573   1.670   0.511  16.669  0.1849  0.5039  0.6988
   32TAL   C15826574   1.533   0.475  16.746 -0.9574  0.5516 -0.1083
   32TAL   C15926575   1.471   0.586  16.812  0.3777 -0.7294 -0.0341
   32TAL   C16026576   1.554   0.655  16.909  0.7371 -0.0355 -0.4407
   33HTM   C16126577   1.661   0.217  16.256  0.1862  0.0788 -0.2969
   33HTM   C16226578   1.560   0.209  16.348  0.2588  0.2489 -0.1998
   33HTM   C16326579   1.513   0.075  16.369  0.2858  0.2858  0.1001
   33HTM   C16426580   1.577  -0.019  16.294  0.2338  0.1437  0.2327
   33HTM    S1726581   1.704   0.055  16.190  0.1460 -0.0491 -0.0140
   34TAL   C16526582   1.413   0.040  16.474  0.0586 -0.4361 -0.3341
   34TAL   C16626583   1.453   0.065  16.618 -0.7420 -0.1659  0.1824
   34TAL   C16726584   1.354   0.038  16.723  0.5163 -0.4599 -0.2724
   34TAL   C16826585   1.421  -0.011  16.853 -0.4604  0.2720  0.5685
   34TAL   C16926586   1.480  -0.154  16.848  0.5185 -0.0357 -0.9103
   34TAL   C17026587   1.565  -0.190  16.967 -0.5234 -0.5003  0.6653
   35HTM   C17126588   1.577  -0.168  16.300  0.3779  0.3227  0.2714
   35HTM   C17226589   1.487  -0.259  16.255 -0.0846  0.8978 -0.0043
   35HTM   C17326590   1.519  -0.395  16.292 -0.7675  0.6231 -0.3843
   35HTM   C17426591   1.633  -0.406  16.366 -0.8257 -0.1616 -0.3985
   35HTM    S1826592   1.710  -0.246  16.394 -0.0164 -0.6178  0.0708
   36TAL   C17526593   1.440  -0.514  16.255 -0.8708  0.3746  0.5952
   36TAL   C17626594   1.324  -0.548  16.349  0.0491 -0.3956 -0.5488
   36TAL   C17726595   1.248  -0.672  16.327  0.0836  0.9157 -0.0414
   36TAL   C17826596   1.200  -0.707  16.178  0.2423 -0.2849  0.2554
   36TAL   C17926597   1.054  -0.754  16.194 -0.6006  0.4050 -0.3162
   36TAL   C18026598   1.010  -0.872  16.121  0.7887 -0.2069 -0.7881
   37HTM   C18126599   1.718  -0.522  16.413  0.2382 -0.5093 -0.2332
   37HTM   C18226600   1.854  -0.523  16.417  0.2394 -1.0431 -0.2618
   37HTM   C18326601   1.910  -0.648  16.460 -0.2608 -1.0921  0.2670
   37HTM   C18426602   1.816  -0.743  16.489 -0.6434 -0.5955  0.6987
   37HTM    S1926603   1.649  -0.681  16.463 -0.3997 -0.0235  0.4683
   38TAL   C18526604   2.063  -0.657  16.450 -0.1457 -0.3850  0.5241
   38TAL   C18626605   2.142  -0.764  16.517  0.8547  0.5095 -0.0607
   38TAL   C18726606   2.206  -0.721  16.638 -0.8303  0.1431 -0.8181
   38TAL   C18826607   2.258  -0.837  16.723 -0.2852  0.1402  0.5233
   38TAL   C18926608   2.329  -0.743  16.822 -0.5774 -0.2062 -0.1397
   38TAL   C19026609   2.359  -0.813  16.955  0.4971  0.5656 -0.1764
   39HTM   C19126610   1.826  -0.882  16.540  0.1146  0.0150  0.4354
   39HTM   C19226611   1.873  -0.925  16.660 -0.0774 -0.4448  0.3510
   39HTM   C19326612   1.842  -1.063  16.689 -0.0714 -0.5760 -0.2499
   39HTM   C19426613   1.772  -1.125  16.590  0.1252 -0.2159 -0.6220
   39HTM    S2026614   1.739  -1.013  16.452  0.3196  0.3207 -0.2408
   40TAL   C19526615   1.885  -1.147  16.812  0.8273 -0.6691 -0.5484
   40TAL   C19626616   1.926  -1.078  16.943  1.0938 -0.0315  0.1252
   40TAL   C19726617   1.954  -1.162  17.069 -0.1951 -0.4220  0.1753
   40TAL   C19826618   1.824  -1.198  17.140 -0.4701 -0.7416 -0.5079
   40TAL   C19926619   1.783  -1.334  17.139  0.8652  0.5787 -0.2356
   40TAL   C20026620   1.668  -1.368  17.042 -0.2068 -0.3867 -0.9715
   41HTM   C20126621   1.743  -1.267  16.558  0.7197 -0.2807  0.0885
   41HTM   C20226622   1.799  -1.346  16.462  0.5097 -0.8886  0.4601
   41HTM   C20326623   1.760  -1.484  16.472 -0.3898 -0.6298  0.7081
   41HTM   C20426624   1.673  -1.510  16.574 -0.8658  0.1757  0.5257
   41HTM    S2126625   1.634  -1.361  16.667 -0.2096  0.6736  0.0227
   42TAL   C20526626   1.824  -1.581  16.368  0.1891  0.3846 -1.0499
   42TAL   C20626627   1.973  -1.567  16.329  0.4926  0.3291 -1.0535
   42TAL   C20726628   2.022  -1.680  16.242 -0.2969 -0.3284 -0.4232
   42TAL   C20826629   2.172  -1.686  16.237 -1.1960 -0.4906  0.8432
   42TAL   C20926630   2.272  -1.679  16.351  0.2832  0.8434 -0.6002
   42TAL   C21026631   2.402  -1.711  16.303 -0.5808  0.0875 -0.2559
   43HTM   C21126632   1.634  -1.637  16.627 -0.0088 -0.4548  0.5424
   43HTM   C21226633   1.645  -1.678  16.757 -0.3465 -0.6675  0.5093
   43HTM   C21326634   1.630  -1.820  16.774 -0.4017 -0.6963  0.2389
   43HTM   C21426635   1.607  -1.887  16.658 -0.1061 -0.5056  0.0654
   43HTM    S2226636   1.603  -1.776  16.517  0.2678 -0.2731  0.2328
   44TAL   C21526637   1.617  -1.878  16.919  0.5929  0.1798  0.0816
   44TAL   C21626638   1.470  -1.856  16.962 -0.2810  0.2523  0.3496
   44TAL   C21726639   1.436  -1.891  17.101  0.7585  0.1551 -0.8671
   44TAL   C21826640   1.516  -1.812  17.199 -0.2924 -0.3537 -1.2476
   44TAL   C21926641   1.477  -1.854  17.337 -0.3833  0.0935  0.0623
   44TAL   C22026642   1.587  -1.807  17.435 -0.1173 -0.1179  0.1000
   45HTM   C22126643   1.599  -2.025  16.622 -0.0414 -0.6579  0.2930
   45HTM   C22226644   1.506  -2.088  16.545  0.6434 -0.6746 -0.5569
   45HTM   C22326645   1.540  -2.224  16.513  1.2431 -0.4759 -0.7849
   45HTM   C22426646   1.659  -2.264  16.565  1.0156 -0.3077 -0.1088
   45HTM    S2326647   1.738  -2.133  16.659  0.0186 -0.3878  0.8759
   46TAL   C22526648   1.432  -2.306  16.443  0.7491  0.8085  1.1783
   46TAL   C22626649   1.286  -2.287  16.488  0.4770  0.4509 -0.1837
   46TAL   C22726650   1.158  -2.351  16.422 -1.2677 -0.6973 -0.5878
   46TAL   C22826651   1.022  -2.319  16.481 -0.4906 -0.8249 -0.9477
   46TAL   C22926652   0.920  -2.393  16.397 -1.1203  0.1750 -0.4583
   46TAL   C23026653   0.903  -2.539  16.425  1.2029  0.0780  0.2159
   47HTM   C23126654   1.716  -2.403  16.554 -0.4686  0.2537 -0.3110
   47HTM   C23226655   1.842  -2.434  16.594 -0.4696  0.8820  0.2007
   47HTM   C23326656   1.882  -2.568  16.563  0.1985  0.9561  0.6866
   47HTM   C23426657   1.786  -2.641  16.498  0.7089  0.3844  0.5469
   47HTM    S2426658   1.637  -2.543  16.472  0.3829 -0.2971 -0.2161
   48TAL   C23526659   2.027  -2.613  16.592 -0.0100 -0.3133 -0.9292
   48TAL   C23626660   2.067  -2.756  16.589  0.5704  0.0820  0.1984
   48TAL   C23726661   2.163  -2.798  16.478  0.9452  0.1498  1.6351
   48TAL   C23826662   2.213  -2.944  16.485 -0.2928  0.4947  0.2617
   48TAL   C23926663   2.366  -2.965  16.468 -0.1072 -0.0485  0.2244
   48TAL   C24026664   2.381  -3.101  16.404 -1.3385  0.1325 -0.1279
    1HTM     C126665   0.392   2.459  26.854 -0.2761  0.1765 -0.1625
    1HTM     C226666   0.520   2.418  26.828 -0.2816  0.1765 -0.1898
    1HTM     C326667   0.607   2.425  26.942 -0.3476 -0.1613 -0.1159
    1HTM     C426668   0.547   2.471  27.055 -0.3923 -0.4188 -0.0335
    1HTM     S126669   0.373   2.510  27.026 -0.3544 -0.2533 -0.0421
    2TAL     C526670   0.754   2.376  26.925  0.3919 -0.2586 -0.9623
    2TAL     C626671   0.737   2.223  26.983 -0.3427 -1.6167 -1.2450
    2TAL     C726672   0.870   2.174  27.030 -1.2632  1.1038  0.0279
    2TAL     C826673   0.859   2.038  27.099 -0.1303 -0.1686 -0.8134
    2TAL     C926674   0.979   1.967  27.142  0.2569  0.0482  0.0165
    2TAL    C1026675   1.057   2.033  27.253  0.3820  0.1570  0.3213
    3HTM    C1126676   0.591   2.509  27.190  0.3162  0.4257  0.0538
    3HTM    C1226677   0.668   2.615  27.229  0.4679  0.1551  0.4935
    3HTM    C1326678   0.673   2.632  27.372  0.4788 -0.4331  0.5684
    3HTM    C1426679   0.601   2.540  27.441  0.3354 -0.6110  0.1866
    3HTM     S226680   0.520   2.423  27.331  0.1742 -0.0451 -0.3022
    4TAL    C1526681   0.740   2.755  27.441 -0.0275 -0.3426 -0.8737
    4TAL    C1626682   0.733   2.896  27.369  0.8570  0.8221 -0.6527
    4TAL    C1726683   0.816   3.016  27.435 -0.1463  0.5304  0.4915
    4TAL    C1826684   0.786   3.057  27.574  1.8714 -0.1578  0.4835
    4TAL    C1926685   0.855   3.175  27.619 -0.4481 -0.1322  0.1614
    4TAL    C2026686   0.802   3.229  27.751 -0.6944 -1.1938  0.4274
    5HTM    C2126687   0.569   2.503  27.579  0.3499 -0.1195 -0.0178
    5HTM    C2226688   0.515   2.386  27.623  0.9700 -0.4032  0.0114
    5HTM    C2326689   0.496   2.380  27.766  0.9206 -0.4331  0.0038
    5HTM    C2426690   0.536   2.493  27.831  0.2629 -0.1722 -0.0320
    5HTM     S326691   0.601   2.616  27.716 -0.3500  0.1339 -0.0572
    6TAL    C2526692   0.435   2.258  27.825  0.5414  0.0553 -0.4859
    6TAL    C2626693   0.305   2.196  27.759 -0.1927 -0.6085 -0.5382
    6TAL    C2726694   0.186   2.280  27.796 -0.6570  0.8766 -0.0953
    6TAL    C2826695   0.062   2.203  27.825  0.7690  0.1303 -0.2099
    6TAL    C2926696  -0.035   2.170  27.717 -0.2510 -0.5328  0.5139
    6TAL    C3026697  -0.123   2.051  27.742  0.3206 -1.0924 -0.3458
    7HTM    C3126698   0.540   2.540  27.972 -0.2135 -0.1475  0.1622
    7HTM    C3226699   0.560   2.668  28.013 -0.1606 -0.1752  0.2227
    7HTM    C3326700   0.561   2.684  28.156 -0.0365 -0.2618  0.2313
    7HTM    C3426701   0.542   2.567  28.224  0.0051 -0.3003  0.1770
    7HTM     S426702   0.521   2.427  28.112 -0.1100 -0.2294  0.1108
    8TAL    C3526703   0.590   2.822  28.221  0.1250 -2.0682 -0.1364
    8TAL    C3626704   0.482   2.863  28.324 -0.2364  0.4665 -0.7457
    8TAL    C3726705   0.323   2.858  28.301 -0.9803  0.2155  0.6082
    8TAL    C3826706   0.244   2.919  28.412 -0.6811 -0.1962 -0.3695
    8TAL    C3926707   0.210   2.832  28.527  0.6732  1.1446 -0.3062
    8TAL    C4026708   0.091   2.744  28.476  0.0336  0.1041 -0.0145
    9HTM    C4126709   0.548   2.536  28.361  0.0094 -0.3564 -0.0281
    9HTM    C4226710   0.444   2.476  28.425  0.0226 -0.0899  0.2480
    9HTM    C4326711   0.475   2.433  28.559  0.0744  0.3965  0.3982
    9HTM    C4426712   0.604   2.460  28.597  0.1006  0.5011  0.2370
    9HTM     S526713   0.695   2.543  28.466  0.0616 -0.0109 -0.1200
   10TAL    C4526714   0.362   2.377  28.642  0.9304  1.0299  0.7929
   10TAL    C4626715   0.266   2.477  28.696 -0.9622  0.1873  0.6075
   10TAL    C4726716   0.146   2.427  28.776 -0.0429 -0.7533 -0.8088
   10TAL    C4826717   0.104   2.563  28.821 -0.6505  1.0442 -0.4100
   10TAL    C4926718  -0.003   2.574  28.937  0.6980  0.5275 -0.2902
   10TAL    C5026719  -0.037   2.715  28.983 -0.4594 -0.5217  0.7165
   11HTM    C5126720   0.677   2.410  28.717 -0.2203 -0.1535 -0.0545
   11HTM    C5226721   0.809   2.375  28.719 -0.2917 -0.4569 -0.3620
   11HTM    C5326722   0.853   2.327  28.848 -0.0948 -0.5327 -0.4581
   11HTM    C5426723   0.756   2.326  28.943  0.1268 -0.2873 -0.2239
   11HTM     S626724   0.598   2.385  28.877  0.1037  0.0615  0.1391
   12TAL    C5526725   1.005   2.309  28.866 -0.1083  0.8075 -1.1499
   12TAL    C5626726   1.090   2.270  28.752 -0.0687  1.0552 -0.4253
   12TAL    C5726727   1.040   2.139  28.677 -0.9239 -0.6885  0.0781
   12TAL    C5826728   1.059   2.007  28.752 -0.1401 -0.1692 -0.2252
   12TAL    C5926729   1.190   1.948  28.778 -0.5769 -0.6126 -0.9091
   12TAL    C6026730   1.146   1.888  28.904 -0.1583  0.0981 -0.4322
   13HTM    C6126731   0.757   2.272  29.082 -0.6697 -0.5612 -0.1217
   13HTM    C6226732   0.795   2.144  29.111 -1.1902 -0.7302 -0.1775
   13HTM    C6326733   0.771   2.107  29.248 -1.1855 -0.6372 -0.1513
   13HTM    C6426734   0.716   2.206  29.323 -0.6614 -0.3974 -0.0754
   13HTM     S726735   0.689   2.356  29.226 -0.1289 -0.2694 -0.0310
   14TAL    C6526736   0.829   1.971  29.291  0.2434 -0.0585  0.6457
   14TAL    C6626737   0.858   1.864  29.191 -0.9313 -0.2212 -0.4710
   14TAL    C6726738   0.858   1.730  29.259  0.6786  0.4281  0.1264
   14TAL    C6826739   0.974   1.636  29.228 -0.8315  0.1381 -0.6221
   14TAL    C6926740   0.985   1.526  29.339  0.6688 -0.2225 -0.5439
   14TAL    C7026741   0.890   1.406  29.322  0.2061 -0.4762 -0.9940
   15HTM    C7126742   0.648   2.197  29.449 -0.0019  0.4390  0.2578
   15HTM    C7226743   0.693   2.167  29.574 -0.0845  0.4613  0.2936
   15HTM    C7326744   0.593   2.178  29.677 -0.2523  0.0941  0.1711
   15HTM    C7426745   0.471   2.215  29.630 -0.2977 -0.2080  0.0420
   15HTM     S826746   0.473   2.240  29.452 -0.1307 -0.0511  0.0653
   16TAL    C7526747   0.608   2.145  29.822  0.7245  0.1534  0.2504
   16TAL    C7626748   0.624   2.002  29.864 -1.4495  0.9548 -0.0199
   16TAL    C7726749   0.519   1.893  29.865 -0.3352 -0.9642 -0.3275
   16TAL    C7826750   0.445   1.854  29.737  0.2247  0.7483  0.3321
   16TAL    C7926751   0.528   1.756  29.659  0.3931  0.7600  0.1516
   16TAL    C8026752   0.526   1.606  29.705  0.5631 -0.5530 -0.0558
   17HTM    C8126753   0.345   2.250  29.697 -0.2816 -0.3786  0.4241
   17HTM    C8226754   0.257   2.176  29.770 -0.3258 -0.1789  0.5755
   17HTM    C8326755   0.137   2.248  29.807 -0.2603 -0.0168  0.4760
   17HTM    C8426756   0.134   2.376  29.762 -0.1660 -0.0931  0.2487
   17HTM     S926757   0.283   2.417  29.669 -0.1527 -0.3775  0.1419
   18TAL    C8526758   0.014   2.187  29.890 -0.5577 -0.0347  0.4492
   18TAL    C8626759  -0.040   2.054  29.850 -0.2327 -0.2723  0.0389
   18TAL    C8726760  -0.168   2.004  29.920 -0.1114  0.3834 -0.7796
   18TAL    C8826761  -0.205   1.848  29.899  1.0241 -0.7499 -0.8263
   18TAL    C8926762  -0.323   1.807  30.000 -0.8030 -0.5033  0.0912
   18TAL    C9026763  -0.299   1.796  30.156 -0.5363  0.2538  0.8595
   19HTM    C9126764   0.050   2.487  29.807  0.3950 -0.1309 -0.1555
   19HTM    C9226765   0.064   2.571  29.913  0.1736 -0.5701  0.2237
   19HTM    C9326766  -0.057   2.643  29.945  0.1036 -0.7110  0.2813
   19HTM    C9426767  -0.162   2.615  29.863  0.2718 -0.3792 -0.0539
   19HTM    S1026768  -0.116   2.493  29.738  0.5333  0.1410 -0.4717
   20TAL    C9526769  -0.058   2.751  30.064 -0.3949  0.2854 -0.5277
   20TAL    C9626770   0.044   2.741  30.196 -0.0027  0.5270 -0.1914
   20TAL    C9726771   0.028   2.843  30.310  0.2920  1.1739  0.2042
   20TAL    C9826772  -0.106   2.834  30.396 -0.2845 -0.5094 -0.8267
   20TAL    C9926773  -0.139   2.713  30.477 -0.6616  0.5256  0.4771
   20TAL   C10026774  -0.278   2.685  30.533  0.3082  0.1994 -0.6061
   21HTM   C10126775  -0.295   2.669  29.863 -0.4484 -0.1894 -0.4135
   21HTM   C10226776  -0.351   2.719  29.749 -0.7420 -0.4860 -0.4027
   21HTM   C10326777  -0.487   2.764  29.767 -0.6727 -0.3725 -0.1487
   21HTM   C10426778  -0.534   2.748  29.894 -0.3263  0.0107  0.0343
   21HTM    S1126779  -0.410   2.674  30.002 -0.0585  0.2598 -0.1012
   22TAL   C10526780  -0.570   2.787  29.647 -0.3590  0.2920  0.1313
   22TAL   C10626781  -0.618   2.657  29.580  0.1396  0.0689 -0.6208
   22TAL   C10726782  -0.735   2.699  29.493 -0.4378 -0.8238 -0.0027
   22TAL   C10826783  -0.825   2.580  29.469 -0.4841 -0.8031 -1.1309
   22TAL   C10926784  -0.906   2.528  29.594 -0.7012  0.1954 -0.0352
   22TAL   C11026785  -0.970   2.392  29.574 -0.3190 -0.2331  0.9840
   23HTM   C11126786  -0.665   2.788  29.952  0.0205 -0.0553  0.0595
   23HTM   C11226787  -0.786   2.809  29.894 -0.0238 -0.3455  0.0419
   23HTM   C11326788  -0.890   2.845  29.987 -0.0696 -0.3704  0.0003
   23HTM   C11426789  -0.848   2.851  30.116 -0.0599 -0.0992 -0.0138
   23HTM    S1226790  -0.672   2.811  30.131  0.0077  0.2110  0.0247
   24TAL   C11526791  -1.023   2.892  29.939  0.2309  1.2244 -0.1976
   24TAL   C11626792  -1.127   2.786  29.877  0.3965 -0.4579 -0.2435
   24TAL   C11726793  -1.267   2.840  29.838  0.1832  0.0084  0.0232
   24TAL   C11826794  -1.346   2.734  29.764  0.8959 -0.0917  0.3094
   24TAL   C11926795  -1.467   2.790  29.689  0.0388 -1.1665 -0.1807
   24TAL   C12026796  -1.552   2.712  29.596  0.3687  0.3212 -0.0693
   25HTM   C12126797  -0.916   2.889  30.243 -0.3874  0.2649 -0.3879
   25HTM   C12226798  -0.929   2.800  30.346 -0.2617  0.0353 -0.5691
   25HTM   C12326799  -0.973   2.860  30.469  0.2053 -0.1819 -0.2925
   25HTM   C12426800  -0.993   2.994  30.461  0.4357 -0.1179  0.0996
   25HTM    S1326801  -0.959   3.056  30.295  0.0780  0.2243  0.1503
   26TAL   C12526802  -1.016   2.779  30.585 -0.1273  0.2046  0.0999
   26TAL   C12626803  -1.021   2.621  30.562  1.0315 -0.5168 -0.7897
   26TAL   C12726804  -1.088   2.546  30.676  0.3425 -0.2795 -0.4620
   26TAL   C12826805  -1.086   2.601  30.817 -0.7932 -0.3951 -0.6505
   26TAL   C12926806  -1.094   2.511  30.935  0.6076  0.9167 -0.3978
   26TAL   C13026807  -1.232   2.474  30.959  0.2036  0.3411  1.1665
   27HTM   C13126808  -1.013   3.101  30.569 -1.1283  0.4643 -0.4964
   27HTM   C13226809  -0.949   3.221  30.577 -1.6658  0.7773 -0.8143
   27HTM   C13326810  -0.970   3.290  30.701 -0.9903  0.4386 -0.5043
   27HTM   C13426811  -1.049   3.222  30.789  0.0622 -0.1327  0.0502
   27HTM    S1426812  -1.105   3.065  30.720  0.2835 -0.2883  0.2250
   28TAL   C13526813  -0.909   3.426  30.733 -0.9307  0.9670  0.4147
   28TAL   C13626814  -0.757   3.448  30.698  0.3395 -0.9929  0.4729
   28TAL   C13726815  -0.700   3.567  30.786  0.7968  0.2502 -0.5313
   28TAL   C13826816  -0.588   3.538  30.877 -1.2244 -0.3502  0.6138
   28TAL   C13926817  -0.569   3.411  30.957  0.7197 -0.0852 -0.7877
   28TAL   C14026818  -0.611   3.428  31.097 -0.3071 -0.5258 -0.0993
   29HTM   C14126819  -1.122   3.253  30.911 -0.9587 -0.7401 -0.1650
   29HTM   C14226820  -1.239   3.318  30.935 -0.7380 -0.3991  0.0048
   29HTM   C14326821  -1.270   3.333  31.075 -0.0615  0.4801  0.0791
   29HTM   C14426822  -1.177   3.279  31.158  0.2335  0.8093 -0.0341
   29HTM    S1526823  -1.041   3.204  31.065 -0.3245  0.0285 -0.2450
   30TAL   C14526824  -1.401   3.402  31.118  0.3922 -0.2909  0.2692
   30TAL   C14626825  -1.482   3.507  31.031  0.4882 -0.2653 -0.1242
   30TAL   C14726826  -1.418   3.642  30.989  0.3018  0.5900 -0.3577
   30TAL   C14826827  -1.434   3.740  31.096  0.5641 -1.1747  0.9097
   30TAL   C14926828  -1.389   3.882  31.054  0.2959  0.2676  0.5245
   30TAL   C15026829  -1.399   3.985  31.164 -0.0967  0.2907  0.3842
   31HTM   C15126830  -1.159   3.260  31.302 -0.2679  0.8702  0.2612
   31HTM   C15226831  -1.057   3.302  31.383 -0.7955  1.8968  0.4317
   31HTM   C15326832  -1.087   3.293  31.523 -0.9935  1.7386  0.3808
   31HTM   C15426833  -1.211   3.245  31.550 -0.6167  0.5914  0.1715
   31HTM    S1626834  -1.301   3.206  31.398  0.0221 -0.3857  0.0213
   32TAL   C15526835  -0.972   3.338  31.611  0.2104  0.0734 -0.3430
   32TAL   C15626836  -0.894   3.466  31.568  0.3994 -0.2493  0.2511
   32TAL   C15726837  -0.786   3.513  31.656  1.5868 -0.5374 -0.9971
   32TAL   C15826838  -0.687   3.612  31.585  0.7624  1.3460 -0.7965
   32TAL   C15926839  -0.560   3.550  31.522 -0.0786 -0.0082  0.2845
   32TAL   C16026840  -0.436   3.648  31.509 -0.0770  0.0890  0.3698
   33HTM   C16126841  -1.288   3.244  31.677  0.0942 -0.1296  0.5587
   33HTM   C16226842  -1.251   3.200  31.800 -0.1757 -0.1060  0.6511
   33HTM   C16326843  -1.348   3.225  31.903 -0.4910 -0.2689  0.3960
   33HTM   C16426844  -1.460   3.288  31.858 -0.4613 -0.4165  0.1091
   33HTM    S1726845  -1.451   3.321  31.681 -0.0296 -0.3608  0.1392
   34TAL   C16526846  -1.314   3.170  32.043 -0.3729  0.2638  0.2260
   34TAL   C16626847  -1.207   3.242  32.118  0.5980 -1.1724  0.1139
   34TAL   C16726848  -1.183   3.198  32.260  1.3087 -0.8083 -0.4148
   34TAL   C16826849  -1.163   3.049  32.289 -0.7237  0.4667 -0.8694
   34TAL   C16926850  -1.030   2.992  32.258 -0.4019 -0.0417  0.8405
   34TAL   C17026851  -1.012   2.841  32.249 -0.0577 -0.4742 -0.4888
   35HTM   C17126852  -1.565   3.341  31.945 -0.4269 -0.7461 -0.4129
   35HTM   C17226853  -1.619   3.466  31.933 -0.0472 -0.5683 -0.3095
   35HTM   C17326854  -1.736   3.486  32.015  0.2640 -0.1341  0.0373
   35HTM   C17426855  -1.771   3.377  32.089  0.1219  0.0192  0.1985
   35HTM    S1826856  -1.658   3.239  32.061 -0.4208 -0.3761 -0.0775
   36TAL   C17526857  -1.809   3.622  32.014 -1.0812 -0.4644 -0.8882
   36TAL   C17626858  -1.782   3.729  31.906 -0.7868  0.6563 -0.1818
   36TAL   C17726859  -1.889   3.836  31.909  0.1493 -0.6097 -0.4771
   36TAL   C17826860  -1.905   3.913  31.779 -0.7458 -0.2143 -0.7566
   36TAL   C17926861  -1.980   4.042  31.777 -0.2672 -0.9695  0.4244
   36TAL   C18026862  -2.130   4.021  31.795  0.2120  0.0303  0.0443
   37HTM   C18126863  -1.878   3.361  32.178  0.4371 -0.3378  0.1968
   37HTM   C18226864  -1.883   3.401  32.308  0.1594 -0.2155  0.1494
   37HTM   C18326865  -1.992   3.344  32.383 -0.1343  0.0288 -0.0854
   37HTM   C18426866  -2.070   3.259  32.309 -0.0806  0.0929 -0.2170
   37HTM    S1926867  -2.011   3.246  32.139  0.3483 -0.1524 -0.0535
   38TAL   C18526868  -2.005   3.358  32.534  0.1841 -0.1861 -0.1813
   38TAL   C18626869  -1.953   3.489  32.606  0.5550 -1.3347  0.4038
   38TAL   C18726870  -2.039   3.621  32.572 -1.4821 -0.4513 -1.3690
   38TAL   C18826871  -2.189   3.637  32.569 -0.2555 -0.3731  0.1589
   38TAL   C18926872  -2.272   3.565  32.677  0.3837 -0.0086 -0.3115
   38TAL   C19026873  -2.218   3.571  32.822  0.5241  1.3931 -0.0636
   39HTM   C19126874  -2.167   3.163  32.356 -0.0858  0.4384 -0.2293
   39HTM   C19226875  -2.291   3.193  32.405  0.0124  0.2479  0.1398
   39HTM   C19326876  -2.384   3.083  32.399  0.2280  0.0299  0.6410
   39HTM   C19426877  -2.331   2.970  32.345  0.2941  0.0542  0.6542
   39HTM    S2026878  -2.159   2.992  32.297  0.0877  0.3566  0.0295
   40TAL   C19526879  -2.526   3.097  32.452  1.4352  0.0056  0.7923
   40TAL   C19626880  -2.533   3.115  32.603  0.5190 -0.7226  0.2309
   40TAL   C19726881  -2.496   2.999  32.696  0.3058  0.4538 -0.8115
   40TAL   C19826882  -2.556   2.851  32.680 -0.3198 -0.8881 -1.4882
   40TAL   C19926883  -2.460   2.759  32.756  0.4145 -0.3266 -0.1306
   40TAL   C20026884  -2.498   2.608  32.754 -0.1801  0.1226  0.4048
   41HTM   C20126885  -2.398   2.840  32.306 -0.2876  0.6384  0.7054
   41HTM   C20226886  -2.340   2.742  32.232  0.3897  1.1336  0.5558
   41HTM   C20326887  -2.428   2.631  32.204  0.9702  0.8150 -0.0682
   41HTM   C20426888  -2.553   2.645  32.257  0.7358  0.0769 -0.3945
   41HTM    S2126889  -2.569   2.800  32.347 -0.2441 -0.2757  0.0648
   42TAL   C20526890  -2.380   2.509  32.131  0.0948  0.0778 -0.8488
   42TAL   C20626891  -2.230   2.466  32.145 -0.5509 -1.0627 -0.6685
   42TAL   C20726892  -2.209   2.348  32.054  0.3367  0.1950  0.3985
   42TAL   C20826893  -2.077   2.280  32.039  0.4519  0.6306 -0.6352
   42TAL   C20926894  -2.080   2.176  31.922 -0.6853 -0.0035 -0.6340
   42TAL   C21026895  -1.943   2.107  31.901  0.5520 -0.1904 -0.0439
   43HTM   C21126896  -2.672   2.564  32.278 -0.3401 -0.0559 -0.1505
   43HTM   C21226897  -2.775   2.586  32.365 -0.1674 -0.0959  0.0680
   43HTM   C21326898  -2.871   2.479  32.369 -0.0423 -0.1978  0.3795
   43HTM   C21426899  -2.841   2.375  32.286 -0.1196 -0.2356  0.3986
   43HTM    S2226900  -2.688   2.405  32.195 -0.3580 -0.1446  0.0215
   44TAL   C21526901  -2.992   2.467  32.467 -0.3334 -1.1815  0.0387
   44TAL   C21626902  -3.045   2.576  32.563  0.2887  0.0033 -0.0255
   44TAL   C21726903  -3.155   2.515  32.659 -0.7572 -0.4667  0.3591
   44TAL   C21826904  -3.226   2.590  32.772  0.0389 -0.4210  0.2787
   44TAL   C21926905  -3.139   2.670  32.874 -0.6359 -0.2886  0.2400
   44TAL   C22026906  -3.189   2.687  33.017  0.8664 -0.0088  0.3967
   45HTM   C22126907  -2.913   2.247  32.273 -0.1188  0.3240  0.5241
   45HTM   C22226908  -2.991   2.200  32.173 -0.0232  0.5931  0.3189
   45HTM   C22326909  -3.042   2.067  32.197 -0.0001  0.5041 -0.1121
   45HTM   C22426910  -3.001   2.013  32.315 -0.0781  0.1671 -0.2354
   45HTM    S2326911  -2.896   2.127  32.407 -0.1876 -0.0659  0.1866
   46TAL   C22526912  -3.124   1.996  32.089  0.2487 -0.4532  0.8171
   46TAL   C22626913  -3.048   1.941  31.967 -0.1305  0.9094  0.5171
   46TAL   C22726914  -2.944   2.022  31.893  1.5707  0.1109  0.3183
   46TAL   C22826915  -3.004   2.149  31.831 -0.7004  0.8491  1.3912
   46TAL   C22926916  -3.006   2.126  31.684  0.2499 -0.1067 -0.0803
   46TAL   C23026917  -3.087   2.218  31.602 -0.5893 -0.1782  0.0922
   47HTM   C23126918  -3.014   1.884  32.375  0.1919 -0.1532 -0.0180
   47HTM   C23226919  -3.023   1.859  32.509  0.0827  0.0355  0.0098
   47HTM   C23326920  -3.052   1.722  32.541  0.0805  0.0752  0.1811
   47HTM   C23426921  -3.064   1.641  32.431  0.1877 -0.0833  0.2839
   47HTM    S2426922  -3.041   1.734  32.278  0.3010 -0.2965  0.1714
   48TAL   C23526923  -3.060   1.659  32.677  0.1998 -0.1592  1.0107
   48TAL   C23626924  -3.140   1.542  32.711  0.4936 -0.3280 -0.4938
   48TAL   C23726925  -3.062   1.399  32.708 -0.2302 -0.2809  0.6531
   48TAL   C23826926  -3.147   1.282  32.667 -0.7799  0.1180  0.9075
   48TAL   C23926927  -3.074   1.157  32.714 -0.2355 -0.0874 -1.0314
   48TAL   C24026928  -3.136   1.031  32.665  0.2748 -0.0882 -0.3325
    1HTM     C126929   0.841   4.118  14.874  0.1098  0.2171  0.4409
    1HTM     C226930   0.808   4.150  14.746  0.1783  0.6405  0.5245
    1HTM     C326931   0.667   4.141  14.718  0.1984  0.6831  0.4086
    1HTM     C426932   0.592   4.103  14.825  0.1452  0.2921  0.2364
    1HTM     S126933   0.694   4.075  14.971  0.0650 -0.1636  0.2071
    2TAL     C526934   0.618   4.140  14.570  0.2257  0.2033 -0.1908
    2TAL     C626935   0.602   4.007  14.507 -0.0549 -0.1393  0.4095
    2TAL     C726936   0.716   3.913  14.467  0.4096 -1.1770 -1.3013
    2TAL     C826937   0.806   3.847  14.568 -0.6102 -0.1121  0.4668
    2TAL     C926938   0.745   3.735  14.651 -0.4463  0.3471  0.3813
    2TAL    C1026939   0.839   3.680  14.760 -0.2966  0.8444  0.5771
    3HTM    C1126940   0.444   4.091  14.848 -0.0386 -0.1489  0.0432
    3HTM    C1226941   0.368   4.153  14.942  0.1583 -0.1991  0.2360
    3HTM    C1326942   0.228   4.118  14.937  0.1182 -0.0671  0.4005
    3HTM    C1426943   0.198   4.029  14.838 -0.1092  0.0836  0.3331
    3HTM     S226944   0.344   3.982  14.744 -0.2919  0.0704  0.0547
    4TAL    C1526945   0.144   4.154  15.059  0.1047 -0.2021 -0.3039
    4TAL    C1626946   0.099   4.301  15.075 -0.2113  0.4910  0.3059
    4TAL    C1726947  -0.009   4.331  15.180 -0.8223 -0.3401  0.3183
    4TAL    C1826948  -0.124   4.235  15.189 -0.3352  0.7921  0.3122
    4TAL    C1926949  -0.227   4.289  15.287 -0.2625  1.1486  0.2877
    4TAL    C2026950  -0.355   4.348  15.230 -0.0902  0.1424  0.0912
    5HTM    C2126951   0.077   3.960  14.806  0.0459  0.3808  0.2909
    5HTM    C2226952   0.047   3.876  14.704  0.0337  0.7875 -0.0472
    5HTM    C2326953  -0.086   3.823  14.709  0.0099  0.8224 -0.2825
    5HTM    C2426954  -0.159   3.868  14.816  0.0040  0.4423 -0.1239
    5HTM     S326955  -0.063   3.980  14.918  0.0281  0.0075  0.3382
    6TAL    C2526956  -0.129   3.715  14.612  0.6049  0.1534  0.0722
    6TAL    C2626957  -0.052   3.665  14.498 -0.7671  0.6261 -0.1296
    6TAL    C2726958  -0.114   3.556  14.397  0.8675 -0.4510 -0.7356
    6TAL    C2826959   0.004   3.521  14.311  0.8754 -0.9713  0.1027
    6TAL    C2926960  -0.039   3.464  14.177 -0.0886 -0.1579 -0.6351
    6TAL    C3026961   0.068   3.384  14.102 -0.7839  0.3254  0.2489
    7HTM    C3126962  -0.292   3.844  14.867  0.2157 -0.2970  0.0769
    7HTM    C3226963  -0.365   3.731  14.887 -0.0031 -0.2209 -0.2744
    7HTM    C3326964  -0.492   3.755  14.952 -0.1299 -0.1346 -0.5484
    7HTM    C3426965  -0.514   3.886  14.982 -0.0077 -0.1450 -0.4062
    7HTM     S426966  -0.377   3.991  14.929  0.2792 -0.2654  0.0890
    8TAL    C3526967  -0.593   3.643  14.964  0.1440  1.1302 -0.3750
    8TAL    C3626968  -0.536   3.528  15.045 -0.8502  1.5231 -0.2215
    8TAL    C3726969  -0.484   3.557  15.188  0.3149 -0.1474 -0.0301
    8TAL    C3826970  -0.476   3.426  15.274 -0.5027  0.2508 -0.9216
    8TAL    C3926971  -0.392   3.423  15.413 -1.1470 -0.5388  0.0281
    8TAL    C4026972  -0.444   3.527  15.514 -0.8255  0.2225 -0.2682
    9HTM    C4126973  -0.627   3.953  15.040  0.2123 -0.5805  0.6611
    9HTM    C4226974  -0.750   3.905  15.072  0.0026 -0.3943  0.1478
    9HTM    C4326975  -0.839   4.006  15.125 -0.1739 -0.1948 -0.5152
    9HTM    C4426976  -0.784   4.130  15.133 -0.0988 -0.2286 -0.5080
    9HTM     S526977  -0.613   4.130  15.074  0.2032 -0.5178  0.3432
   10TAL    C4526978  -0.982   3.953  15.181 -0.0570 -0.6560  0.5290
   10TAL    C4626979  -1.071   3.939  15.053 -0.6506  0.3596  1.1337
   10TAL    C4726980  -1.096   4.069  14.974 -0.3725 -0.0151  0.4119
   10TAL    C4826981  -1.243   4.108  14.987 -0.7410 -0.6817 -0.1277
   10TAL    C4926982  -1.310   4.094  15.121  0.5291 -1.2757 -0.2678
   10TAL    C5026983  -1.443   4.169  15.116  1.1924  0.0291  0.1963
   11HTM    C5126984  -0.828   4.256  15.189  0.7733  0.2626 -0.7263
   11HTM    C5226985  -0.806   4.304  15.315  1.2524  0.2277 -0.7968
   11HTM    C5326986  -0.853   4.439  15.335  0.8337  0.0299 -0.4225
   11HTM    C5426987  -0.912   4.493  15.224  0.0352 -0.0861 -0.0662
   11HTM     S626988  -0.912   4.378  15.086 -0.2520  0.0465 -0.1772
   12TAL    C5526989  -0.814   4.523  15.454  0.3029  0.4706 -0.0296
   12TAL    C5626990  -0.689   4.479  15.540 -0.4278 -0.2754  0.2015
   12TAL    C5726991  -0.626   4.576  15.638  0.1623 -0.7230  0.0566
   12TAL    C5826992  -0.720   4.614  15.748  0.4790  0.5588  0.7119
   12TAL    C5926993  -0.729   4.510  15.856  0.3764 -0.3045 -0.1992
   12TAL    C6026994  -0.875   4.483  15.918 -0.2001 -0.5036  1.2992
   13HTM    C6126995  -0.974   4.622  15.202 -0.1965  0.1607  0.2973
   13HTM    C6226996  -1.043   4.701  15.289 -0.8454 -0.0643  0.0036
   13HTM    C6326997  -1.090   4.824  15.231 -0.9710 -0.2050 -0.1936
   13HTM    C6426998  -1.058   4.839  15.099 -0.4177 -0.0875 -0.0500
   13HTM     S726999  -0.964   4.697  15.038  0.3104  0.2124  0.3483
   14TAL    C6527000  -1.168   4.913  15.324 -0.7583 -0.9624 -0.2455
   14TAL    C6627001  -1.285   4.852  15.385  0.6471  0.1582 -0.5607
   14TAL    C6727002  -1.378   4.950  15.467  0.5280  0.9918  0.8903
   14TAL    C6827003  -1.472   5.045  15.388  0.9322  0.4590 -0.6699
   14TAL    C6927004  -1.585   4.975  15.301 -0.7859  0.4340  0.7002
   14TAL    C7027005  -1.647   5.081  15.204 -0.0885 -0.4080  0.3144
   15HTM    C7127006  -1.079   4.953  15.013  0.6409  1.1447  0.3250
   15HTM    C7227007  -0.999   5.019  14.925  0.1887  1.0709 -0.1521
   15HTM    C7327008  -1.064   5.129  14.859 -0.4466  0.4104 -0.6509
   15HTM    C7427009  -1.194   5.146  14.896 -0.4787 -0.0192 -0.5538
   15HTM     S827010  -1.245   5.024  15.019  0.2966  0.3802  0.1808
   16TAL    C7527011  -0.974   5.223  14.780  0.3970  0.5855 -0.9917
   16TAL    C7627012  -0.978   5.167  14.643 -0.3551  0.5100 -0.0036
   16TAL    C7727013  -0.963   5.256  14.521 -0.9327 -0.0868  0.1910
   16TAL    C7827014  -0.842   5.350  14.506 -0.1646  0.9399 -0.8466
   16TAL    C7927015  -0.833   5.442  14.393 -0.0914  0.2780  0.1678
   16TAL    C8027016  -0.692   5.480  14.346  0.2789 -0.0551 -0.2474
   17HTM    C8127017  -1.300   5.245  14.878 -0.1193 -0.1205  0.0552
   17HTM    C8227018  -1.426   5.246  14.929 -0.0007  0.2450  0.3564
   17HTM    C8327019  -1.506   5.358  14.885  0.2379  0.5195  0.6101
   17HTM    C8427020  -1.440   5.442  14.800  0.3012  0.3634  0.5019
   17HTM     S927021  -1.271   5.387  14.770  0.0625 -0.1463  0.0688
   18TAL    C8527022  -1.650   5.357  14.903  1.7341 -0.4576  0.1039
   18TAL    C8627023  -1.736   5.480  14.933  0.5658 -0.5249  0.6287
   18TAL    C8727024  -1.870   5.465  14.861 -0.1613 -1.0630  0.0763
   18TAL    C8827025  -1.875   5.476  14.712 -0.3829  0.2073  0.1628
   18TAL    C8927026  -2.015   5.462  14.648 -0.1600  0.6593  0.0263
   18TAL    C9027027  -2.016   5.342  14.553 -0.6898  0.4875 -0.0055
   19HTM    C9127028  -1.477   5.575  14.737  0.2212  0.5283 -0.0846
   19HTM    C9227029  -1.468   5.698  14.795  0.2216  0.5567 -0.1454
   19HTM    C9327030  -1.534   5.802  14.720  0.2589  0.5276 -0.2184
   19HTM    C9427031  -1.592   5.758  14.605  0.2868  0.4767 -0.2134
   19HTM    S1027032  -1.569   5.580  14.583  0.2680  0.4621 -0.1153
   20TAL    C9527033  -1.555   5.941  14.764 -1.0812  0.6303 -1.8156
   20TAL    C9627034  -1.455   6.023  14.862  0.5723  1.7705  0.6750
   20TAL    C9727035  -1.475   6.166  14.886 -0.1043 -0.3475  0.7776
   20TAL    C9827036  -1.476   6.262  14.767  0.4874 -0.2811  0.0715
   20TAL    C9927037  -1.609   6.286  14.699  0.0164  0.9662  0.3988
   20TAL   C10027038  -1.586   6.371  14.581  0.2639 -0.5814  0.3765
   21HTM   C10127039  -1.665   5.825  14.493 -0.5408 -0.3277  0.4497
   21HTM   C10227040  -1.693   5.765  14.373 -1.1846 -1.2481  1.0307
   21HTM   C10327041  -1.792   5.836  14.295 -1.3782 -1.6774  0.8812
   21HTM   C10427042  -1.839   5.949  14.355 -0.8819 -1.0843  0.1857
   21HTM    S1127043  -1.762   5.975  14.516 -0.1259  0.0711 -0.3381
   22TAL   C10527044  -1.829   5.774  14.155 -0.0436  0.6500 -0.8208
   22TAL   C10627045  -1.932   5.662  14.187 -0.0443  1.4192  0.6048
   22TAL   C10727046  -1.978   5.576  14.062  0.3302 -0.3016  0.9407
   22TAL   C10827047  -1.887   5.492  13.991  0.4150  0.4925  0.4186
   22TAL   C10927048  -1.916   5.452  13.846  0.3801 -0.9965  1.3100
   22TAL   C11027049  -1.842   5.331  13.801  0.1571 -0.6013  0.2114
   23HTM   C11127050  -1.919   6.057  14.306 -0.0403  0.4032 -0.1986
   23HTM   C11227051  -1.893   6.190  14.289 -0.4346  0.4154 -0.7310
   23HTM   C11327052  -2.006   6.265  14.241 -0.6739 -0.1017 -0.9942
   23HTM   C11427053  -2.118   6.190  14.222 -0.4621 -0.5083 -0.6622
   23HTM    S1227054  -2.089   6.016  14.264  0.0601 -0.2680  0.0135
   24TAL   C11527055  -1.981   6.406  14.228  0.2388 -0.4682 -0.7205
   24TAL   C11627056  -1.987   6.474  14.355  0.2791 -0.9591  0.5615
   24TAL   C11727057  -1.942   6.621  14.329  0.9712  0.3479  0.7332
   24TAL   C11827058  -1.927   6.700  14.463  0.3320  0.1530 -0.6433
   24TAL   C11927059  -2.035   6.786  14.517 -0.8214 -0.4052 -0.2583
   24TAL   C12027060  -2.162   6.717  14.562 -0.2555 -0.3132  0.4279
   25HTM   C12127061  -2.254   6.229  14.181  0.1886  0.1131  0.0843
   25HTM   C12227062  -2.369   6.170  14.223  0.2815 -0.2383 -0.1523
   25HTM   C12327063  -2.484   6.205  14.144  0.3101 -0.4836 -0.3059
   25HTM   C12427064  -2.457   6.291  14.042  0.2392 -0.3191 -0.1862
   25HTM    S1327065  -2.282   6.335  14.038  0.1297  0.1620  0.1318
   26TAL   C12527066  -2.629   6.122  14.165 -0.4573  0.1074 -0.1050
   26TAL   C12627067  -2.652   6.077  14.306 -0.6882  0.2676 -0.2256
   26TAL   C12727068  -2.770   5.981  14.332 -0.6420 -0.4901  0.4743
   26TAL   C12827069  -2.771   5.923  14.470  0.0643 -0.5323  0.5262
   26TAL   C12927070  -2.896   5.852  14.529 -0.6028 -0.6227  0.0636
   26TAL   C13027071  -3.011   5.946  14.560  0.0329  0.0292  0.9362
   27HTM   C13127072  -2.545   6.327  13.933 -0.5478  0.3488 -0.5311
   27HTM   C13227073  -2.673   6.372  13.934 -0.6673  0.0496 -1.1218
   27HTM   C13327074  -2.716   6.431  13.810 -0.2902 -0.2050 -1.3757
   27HTM   C13427075  -2.620   6.430  13.713  0.1173 -0.0999 -0.9786
   27HTM    S1427076  -2.467   6.356  13.772  0.0557  0.3321 -0.2477
   28TAL   C13527077  -2.841   6.504  13.791  0.2711 -0.3405 -0.7245
   28TAL   C13627078  -2.962   6.433  13.856 -0.0919 -0.2647 -0.8652
   28TAL   C13727079  -3.098   6.492  13.811  0.2804  0.1600  0.1541
   28TAL   C13827080  -3.194   6.389  13.847  0.3711 -0.3413 -0.8105
   28TAL   C13927081  -3.337   6.410  13.827  0.4515  0.2135 -0.3519
   28TAL   C14027082  -3.433   6.370  13.940 -0.6801  0.1996  0.0043
   29HTM   C14127083  -2.624   6.453  13.571  0.1257  0.3859  0.1228
   29HTM   C14227084  -2.570   6.368  13.479 -0.2400  0.1285  0.1435
   29HTM   C14327085  -2.554   6.428  13.349 -0.4677 -0.1388 -0.0100
   29HTM   C14427086  -2.594   6.558  13.342 -0.2756 -0.0849 -0.1476
   29HTM    S1527087  -2.657   6.616  13.501  0.2116  0.3103 -0.0936
   30TAL   C14527088  -2.493   6.339  13.238  0.5821  0.1043 -0.1313
   30TAL   C14627089  -2.442   6.194  13.264  0.6645  0.4728  0.1587
   30TAL   C14727090  -2.330   6.155  13.366 -0.2841 -0.0689 -0.0848
   30TAL   C14827091  -2.272   6.015  13.378  0.3258 -0.8897 -0.2414
   30TAL   C14927092  -2.383   5.923  13.425 -0.3051  0.7993 -0.6021
   30TAL   C15027093  -2.319   5.792  13.450 -0.2964  0.5619  1.1660
   31HTM   C15127094  -2.620   6.651  13.232  0.1378  0.0656 -0.1276
   31HTM   C15227095  -2.690   6.621  13.118  0.5482  0.1193 -0.3991
   31HTM   C15327096  -2.729   6.736  13.042  0.3700  0.1898 -0.2050
   31HTM   C15427097  -2.688   6.854  13.097 -0.1762  0.1898  0.2149
   31HTM    S1627098  -2.598   6.829  13.250 -0.5105  0.1004  0.3986
   32TAL   C15527099  -2.825   6.724  12.916  0.9986  0.4702 -0.6225
   32TAL   C15627100  -2.874   6.576  12.884 -0.4173 -0.7009 -0.6547
   32TAL   C15727101  -2.768   6.503  12.800 -0.4510 -0.4168  0.7315
   32TAL   C15827102  -2.689   6.579  12.690 -0.6834  0.4015  0.6606
   32TAL   C15927103  -2.617   6.458  12.625  0.0277  0.1568 -0.9654
   32TAL   C16027104  -2.535   6.482  12.495  0.3192 -0.6212 -0.0076
   33HTM   C16127105  -2.709   6.992  13.055  0.7687  0.2988  0.5180
   33HTM   C16227106  -2.729   7.097  13.139  0.5872  0.6579  0.0341
   33HTM   C16327107  -2.721   7.225  13.074  0.4437  0.3800 -0.5460
   33HTM   C16427108  -2.695   7.218  12.940  0.5160 -0.1909 -0.5040
   33HTM    S1727109  -2.678   7.047  12.886  0.7726 -0.4238  0.2767
   34TAL   C16527110  -2.778   7.346  13.140  0.5900 -0.1174 -0.3178
   34TAL   C16627111  -2.937   7.345  13.167  0.0644 -0.3871 -0.2636
   34TAL   C16727112  -3.025   7.346  13.032 -0.9524 -0.2969 -0.1125
   34TAL   C16827113  -3.161   7.297  13.063  0.7106 -1.1133  0.1042
   34TAL   C16927114  -3.160   7.149  13.073  0.5557 -0.4625 -0.8652
   34TAL   C17027115  -3.291   7.083  13.075  0.3170  0.0345  1.0018
   35HTM   C17127116  -2.684   7.332  12.851  0.3746 -0.0969 -0.1155
   35HTM   C17227117  -2.772   7.378  12.757  0.2685  0.0272  0.0429
   35HTM   C17327118  -2.723   7.491  12.682  0.1935  0.1113  0.1209
   35HTM   C17427119  -2.598   7.531  12.719  0.2422  0.0517  0.0221
   35HTM    S1827120  -2.532   7.429  12.852  0.3879 -0.1169 -0.1787
   36TAL   C17527121  -2.817   7.553  12.577 -0.2851 -0.6057  0.0552
   36TAL   C17627122  -2.923   7.479  12.487 -0.3383  0.4374 -0.0456
   36TAL   C17727123  -3.035   7.405  12.557  0.1073 -0.5584  0.4466
   36TAL   C17827124  -3.118   7.471  12.672 -0.7242  0.6215  0.6476
   36TAL   C17927125  -3.197   7.588  12.640  0.2392 -0.4650  1.2595
   36TAL   C18027126  -3.309   7.561  12.538 -0.1109  0.0736  0.3328
   37HTM   C18127127  -2.506   7.632  12.662 -0.0918  0.3326  0.1062
   37HTM   C18227128  -2.376   7.652  12.701 -0.2698  0.9639  0.4013
   37HTM   C18327129  -2.309   7.754  12.626 -0.4882  1.0413  0.3080
   37HTM   C18427130  -2.386   7.813  12.530 -0.4767  0.4690 -0.0581
   37HTM    S1927131  -2.552   7.742  12.527 -0.1870 -0.2175 -0.3155
   38TAL   C18527132  -2.156   7.787  12.644  0.5036  0.9470 -0.0266
   38TAL   C18627133  -2.067   7.771  12.770  0.2555 -0.1614  0.7791
   38TAL   C18727134  -1.926   7.821  12.757 -0.2872  0.5538  0.0194
   38TAL   C18827135  -1.921   7.975  12.782 -0.2768  0.7720 -0.1884
   38TAL   C18927136  -1.901   8.061  12.663  0.3729  0.3209 -1.1836
   38TAL   C19027137  -1.906   8.207  12.705  0.4975  0.0908 -1.4152
   39HTM   C19127138  -2.362   7.921  12.441  0.3475  0.4113 -0.0023
   39HTM   C19227139  -2.326   7.919  12.309  0.5125  0.8337  0.0343
   39HTM   C19327140  -2.289   8.048  12.258  0.0545  1.0988  0.3524
   39HTM   C19427141  -2.296   8.149  12.350 -0.4598  0.8786  0.5581
   39HTM    S2027142  -2.351   8.087  12.510 -0.4048  0.3149  0.3651
   40TAL   C19527143  -2.250   8.064  12.105 -0.2978  0.3282 -0.1553
   40TAL   C19627144  -2.153   7.965  12.043 -1.3387  0.4859 -1.2165
   40TAL   C19727145  -2.014   7.979  12.114  0.9223 -0.3256 -0.2219
   40TAL   C19827146  -1.935   8.111  12.060  0.3155  0.3462 -0.2464
   40TAL   C19927147  -1.942   8.257  12.121  0.7856 -0.6057 -0.3178
   40TAL   C20027148  -1.862   8.357  12.034  0.7574 -0.0102  0.9120
   41HTM   C20127149  -2.262   8.283  12.342 -0.3328  0.2356  0.2939
   41HTM   C20227150  -2.186   8.357  12.428 -0.1671  0.1248  0.2434
   41HTM   C20327151  -2.158   8.490  12.381  0.1322  0.0315  0.1528
   41HTM   C20427152  -2.213   8.518  12.259  0.1947  0.0713  0.1336
   41HTM    S2127153  -2.304   8.377  12.194 -0.1221  0.2308  0.2296
   42TAL   C20527154  -2.096   8.587  12.491  0.7941  0.8377  0.4328
   42TAL   C20627155  -1.961   8.552  12.546 -0.2006 -0.8516  0.0427
   42TAL   C20727156  -1.855   8.597  12.443 -0.2742 -0.3538  0.0324
   42TAL   C20827157  -1.713   8.586  12.507 -0.6927  0.2007  0.4890
   42TAL   C20927158  -1.680   8.440  12.519 -0.3540  0.4553 -0.6437
   42TAL   C21027159  -1.535   8.416  12.574 -0.0595 -0.4017  0.4154
   43HTM   C21127160  -2.189   8.621  12.170  0.0530 -0.8157  0.1322
   43HTM   C21227161  -2.098   8.722  12.181  0.3351 -1.0647  0.1063
   43HTM   C21327162  -2.084   8.801  12.062  0.4977 -1.0825  0.1128
   43HTM   C21427163  -2.165   8.761  11.959  0.3397 -0.8470  0.1430
   43HTM    S2227164  -2.265   8.619  12.006 -0.0296 -0.5825  0.1664
   44TAL   C21527165  -1.992   8.925  12.057 -0.5559 -0.0716  0.2035
   44TAL   C21627166  -1.876   8.929  12.148 -1.3374 -0.6777  0.1703
   44TAL   C21727167  -1.730   8.992  12.095  0.5720  0.4273 -0.7171
   44TAL   C21827168  -1.614   8.973  12.185 -0.9044 -0.2349 -0.6468
   44TAL   C21927169  -1.496   9.015  12.087 -0.2442 -0.2802 -0.2838
   44TAL   C22027170  -1.378   9.033  12.176 -0.7241  0.2874  0.0465
   45HTM   C22127171  -2.173   8.812  11.822  0.4344 -0.2971  0.0329
   45HTM   C22227172  -2.277   8.809  11.733  0.2455 -0.2694  0.2491
   45HTM   C22327173  -2.244   8.866  11.604  0.0266 -0.3838  0.1416
   45HTM   C22427174  -2.116   8.911  11.595  0.0486 -0.4987 -0.1565
   45HTM    S2327175  -2.026   8.886  11.750  0.3497 -0.4711 -0.3262
   46TAL   C22527176  -2.346   8.867  11.487 -1.1334  0.0186 -0.3063
   46TAL   C22627177  -2.421   8.994  11.468  0.7481  0.3841  0.0124
   46TAL   C22727178  -2.482   9.060  11.585  0.0609  0.3856 -0.0863
   46TAL   C22827179  -2.600   9.157  11.582 -0.0167  0.3513 -0.9127
   46TAL   C22927180  -2.604   9.291  11.514  0.2905  0.0333  0.6693
   46TAL   C23027181  -2.509   9.401  11.554 -0.3155  0.5757  0.4495
   47HTM   C23127182  -2.032   8.985  11.503  0.8492  0.2826  0.5500
   47HTM   C23227183  -1.918   8.938  11.446  0.7684  0.4023  0.2863
   47HTM   C23327184  -1.875   9.014  11.331  0.0787  0.0663 -0.2043
   47HTM   C23427185  -1.957   9.118  11.301 -0.3666 -0.3095 -0.3149
   47HTM    S2427186  -2.096   9.129  11.416  0.0542 -0.2680  0.1963
   48TAL   C23527187  -1.743   8.987  11.245  0.8202  1.0427 -1.0778
   48TAL   C23627188  -1.680   9.090  11.151 -0.1536 -0.2918 -0.2922
   48TAL   C23727189  -1.600   9.044  11.035 -0.3090  0.6230 -0.1615
   48TAL   C23827190  -1.533   9.124  10.930 -0.3961 -0.3264  0.7848
   48TAL   C23927191  -1.603   9.253  10.890  0.1201 -0.4236 -0.8635
   48TAL   C24027192  -1.507   9.338  10.810  0.6302  0.9920  0.0681
    1HTM     C127193   0.279   0.352  13.842  0.0010  0.4288  0.2584
    1HTM     C227194   0.214   0.314  13.956  0.0558  0.6179  0.3531
    1HTM     C327195   0.301   0.295  14.069  0.1151  0.7657  0.3331
    1HTM     C427196   0.432   0.318  14.041  0.1055  0.6894  0.2234
    1HTM     S127197   0.457   0.366  13.869  0.0202  0.4227  0.1360
    2TAL     C527198   0.226   0.219  14.182 -0.6584  0.5858 -0.8340
    2TAL     C627199   0.138   0.097  14.157  0.4536  0.5410 -0.5029
    2TAL     C727200   0.125   0.038  14.299 -0.4115 -0.1617  0.3741
    2TAL     C827201   0.027  -0.075  14.276 -0.0855  1.1278  0.7907
    2TAL     C927202   0.009  -0.137  14.411  0.2210  0.7592  0.6589
    2TAL    C1027203  -0.126  -0.193  14.441 -0.1969 -0.5794  0.4026
    3HTM    C1127204   0.547   0.313  14.128 -0.4267 -0.2642 -0.0087
    3HTM    C1227205   0.670   0.357  14.090 -0.5779 -0.2233 -0.4599
    3HTM    C1327206   0.771   0.344  14.192 -0.3511  0.4487 -0.5865
    3HTM    C1427207   0.724   0.290  14.308 -0.0271  0.9201 -0.2322
    3HTM     S227208   0.548   0.252  14.298  0.0172  0.5491  0.2933
    4TAL    C1527209   0.917   0.376  14.175  0.9312  0.5090  0.0807
    4TAL    C1627210   0.942   0.524  14.131 -0.2593  0.3937 -0.1344
    4TAL    C1727211   1.090   0.549  14.103 -0.1192  0.1647 -0.0567
    4TAL    C1827212   1.113   0.691  14.060  1.4111  0.1349 -0.1260
    4TAL    C1927213   1.229   0.710  13.967  0.4001  0.3674  0.3378
    4TAL    C2027214   1.242   0.637  13.829 -0.9394  0.1862  0.9650
    5HTM    C2127215   0.785   0.229  14.428  0.3378  0.5487 -0.2332
    5HTM    C2227216   0.782   0.094  14.447 -0.4052  0.6016  0.1023
    5HTM    C2327217   0.865   0.049  14.556 -0.9509  0.4452  0.4613
    5HTM    C2427218   0.931   0.150  14.620 -0.6240  0.2734  0.3998
    5HTM     S327219   0.893   0.310  14.547  0.4064  0.2956 -0.1205
    6TAL    C2527220   0.891  -0.099  14.594  0.7152 -0.4809  0.1607
    6TAL    C2627221   0.853  -0.223  14.514 -1.2010 -0.2674  0.5829
    6TAL    C2727222   0.849  -0.369  14.573 -0.6138  0.0474 -0.1770
    6TAL    C2827223   0.969  -0.456  14.596  0.1865  0.3647 -0.7259
    6TAL    C2927224   1.099  -0.382  14.636  0.3333  0.1237 -0.1794
    6TAL    C3027225   1.229  -0.465  14.644  0.3749 -0.7212  0.2631
    7HTM    C3127226   1.012   0.147  14.738 -0.2938  0.2599  0.3111
    7HTM    C3227227   0.986   0.197  14.863  0.1817  0.1125  0.4764
    7HTM    C3327228   1.098   0.192  14.952  0.6202  0.2862 -0.0525
    7HTM    C3427229   1.210   0.138  14.897  0.4791  0.5662 -0.6214
    7HTM     S427230   1.183   0.090  14.725 -0.2241  0.6325 -0.5324
    8TAL    C3527231   1.095   0.253  15.094 -0.3519 -0.3540 -0.5655
    8TAL    C3627232   1.002   0.159  15.164 -0.4810  1.0310  0.5059
    8TAL    C3727233   0.982   0.217  15.296  0.1682  0.6261 -0.7433
    8TAL    C3827234   0.872   0.157  15.389  0.2052 -1.0036 -0.4200
    8TAL    C3927235   0.831   0.248  15.501  0.8455  0.4584  0.0603
    8TAL    C4027236   0.707   0.172  15.558 -0.4354 -0.2938  0.7644
    9HTM    C4127237   1.345   0.144  14.946 -0.1998  0.2180  0.3310
    9HTM    C4227238   1.444   0.235  14.928 -0.1061  0.0620  0.0463
    9HTM    C4327239   1.563   0.206  15.004  0.0727 -0.1289 -0.2999
    9HTM    C4427240   1.554   0.093  15.080  0.1154 -0.1184 -0.2793
    9HTM     S527241   1.393   0.014  15.061 -0.0685  0.1354  0.1828
   10TAL    C4527242   1.666   0.313  14.975 -0.2964  0.1710  0.0282
   10TAL    C4627243   1.679   0.409  15.099 -0.4016 -0.3181  1.2760
   10TAL    C4727244   1.780   0.519  15.070 -0.1745 -0.4150 -0.5882
   10TAL    C4827245   1.764   0.627  14.966  0.4540 -0.1701  0.8535
   10TAL    C4927246   1.645   0.705  14.974  0.0389 -0.0855 -1.5302
   10TAL    C5027247   1.614   0.787  14.852 -0.1990 -0.4013 -0.3926
   11HTM    C5127248   1.649   0.030  15.169  0.1278 -0.0259  0.2550
   11HTM    C5227249   1.626  -0.084  15.240  0.4193  0.1303  0.6082
   11HTM    C5327250   1.744  -0.140  15.302  0.6363  0.3847  0.4265
   11HTM    C5427251   1.857  -0.068  15.277  0.5103  0.4225 -0.0653
   11HTM     S627252   1.824   0.076  15.174  0.1047  0.1373 -0.3392
   12TAL    C5527253   1.737  -0.258  15.392  0.1542  0.8183 -0.5371
   12TAL    C5627254   1.617  -0.353  15.395  0.0479  0.2508 -0.4230
   12TAL    C5727255   1.609  -0.456  15.287 -0.3415 -0.4938  0.6963
   12TAL    C5827256   1.467  -0.509  15.258  0.1328  0.2021  0.3937
   12TAL    C5927257   1.358  -0.429  15.192  0.1251 -1.1317 -0.1398
   12TAL    C6027258   1.303  -0.293  15.233  1.1015 -0.0071 -0.1829
   13HTM    C6127259   1.996  -0.087  15.317  0.1366 -0.0807  0.4612
   13HTM    C6227260   2.107  -0.103  15.240  0.0359 -0.4435  0.3905
   13HTM    C6327261   2.229  -0.118  15.317  0.1079 -0.2912  0.3064
   13HTM    C6427262   2.210  -0.113  15.451  0.2635  0.1873  0.3134
   13HTM     S727263   2.036  -0.088  15.493  0.3316  0.4855  0.4275
   14TAL    C6527264   2.352  -0.131  15.234 -0.0801  1.5266 -0.2282
   14TAL    C6627265   2.413  -0.021  15.161 -0.1832 -0.0758  0.6255
   14TAL    C6727266   2.452   0.085  15.268  0.0163  0.3456  1.4105
   14TAL    C6827267   2.611   0.089  15.274  0.5045 -0.9385  0.2452
   14TAL    C6927268   2.703   0.199  15.337 -0.4958  0.6815  0.8862
   14TAL    C7027269   2.655   0.270  15.460  0.2698  0.4175  0.3577
   15HTM    C7127270   2.321  -0.115  15.543  0.7091  0.3824 -0.1149
   15HTM    C7227271   2.444  -0.174  15.537  0.6704  0.2412  0.4394
   15HTM    C7327272   2.525  -0.151  15.654  0.0835 -0.0538  0.9124
   15HTM    C7427273   2.463  -0.074  15.749 -0.3255 -0.1373  0.7192
   15HTM     S827274   2.298  -0.025  15.697  0.0015  0.1521 -0.0819
   16TAL    C7527275   2.670  -0.190  15.657 -0.1343  0.1984 -0.9938
   16TAL    C7627276   2.761  -0.128  15.553  0.0147  1.4179  0.8732
   16TAL    C7727277   2.898  -0.177  15.545 -0.3717  0.8270 -0.0275
   16TAL    C7827278   2.955  -0.151  15.402 -0.8517 -0.6088  0.1227
   16TAL    C7927279   3.098  -0.204  15.384  0.0849  0.5691 -0.0280
   16TAL    C8027280   3.143  -0.186  15.241  0.2341 -0.2882 -0.5888
   17HTM    C8127281   2.530  -0.023  15.872  0.4079  0.2753 -0.2540
   17HTM    C8227282   2.587  -0.078  15.983  0.7959  0.3428 -0.4191
   17HTM    C8327283   2.624   0.018  16.083  0.6431  0.3530 -0.3734
   17HTM    C8427284   2.594   0.147  16.049  0.1384  0.2933 -0.1733
   17HTM     S927285   2.517   0.156  15.887 -0.1853  0.2189 -0.0258
   18TAL    C8527286   2.699  -0.033  16.205  0.6348  0.2398 -0.0636
   18TAL    C8627287   2.848  -0.063  16.188  0.4157  0.1273  0.4351
   18TAL    C8727288   2.871  -0.200  16.247 -0.2693  0.0614 -0.2112
   18TAL    C8827289   2.985  -0.292  16.193 -0.8076 -0.8531 -0.0613
   18TAL    C8927290   3.123  -0.233  16.203 -0.7456 -0.4478  1.1500
   18TAL    C9027291   3.196  -0.276  16.327 -0.3696  0.1780 -0.0325
   19HTM    C9127292   2.604   0.282  16.120 -0.2021  0.3198  0.2989
   19HTM    C9227293   2.526   0.393  16.110 -0.0282  0.4974  0.8721
   19HTM    C9327294   2.577   0.506  16.183  0.4066  0.1860  1.0576
   19HTM    C9427295   2.694   0.481  16.249  0.5643 -0.2290  0.6257
   19HTM    S1027296   2.749   0.311  16.223  0.1728 -0.2589 -0.0542
   20TAL    C9527297   2.508   0.633  16.189  0.5184  0.5059  0.2778
   20TAL    C9627298   2.358   0.630  16.181  0.2463  0.1385 -0.5191
   20TAL    C9727299   2.272   0.547  16.283  0.1480 -0.1431  0.7835
   20TAL    C9827300   2.238   0.619  16.410  0.0555  0.3967  0.2936
   20TAL    C9927301   2.151   0.527  16.502 -0.5085  0.3003  0.0454
   20TAL   C10027302   2.163   0.584  16.645 -0.0941 -0.3536 -0.1833
   21HTM   C10127303   2.770   0.574  16.328 -0.1911  0.0646  0.3578
   21HTM   C10227304   2.733   0.675  16.412 -0.0937 -0.2582  0.7973
   21HTM   C10327305   2.843   0.735  16.483  0.0200 -0.3918  0.7343
   21HTM   C10427306   2.964   0.679  16.454  0.0093 -0.1708  0.2468
   21HTM    S1127307   2.948   0.546  16.333 -0.1465  0.2262 -0.1746
   22TAL   C10527308   2.821   0.852  16.577 -0.5047  0.1082  0.3228
   22TAL   C10627309   2.682   0.916  16.587  0.9800 -0.9767  0.0708
   22TAL   C10727310   2.626   0.850  16.719  0.0276  0.3234  0.3206
   22TAL   C10827311   2.482   0.876  16.763 -0.0096  0.5174  0.5115
   22TAL   C10927312   2.472   1.030  16.770  0.1180  0.0799  0.5655
   22TAL   C11027313   2.328   1.065  16.802 -0.4054  1.0605 -1.3262
   23HTM   C11127314   3.103   0.690  16.500 -0.3345  0.0321 -0.1437
   23HTM   C11227315   3.211   0.638  16.435 -0.6073 -0.0814 -0.5112
   23HTM   C11327316   3.338   0.677  16.491 -0.3796 -0.4732 -0.7410
   23HTM   C11427317   3.326   0.759  16.600  0.0670 -0.6583 -0.5484
   23HTM    S1227318   3.154   0.794  16.639  0.2357 -0.3498 -0.0592
   24TAL   C11527319   3.466   0.596  16.451  0.0729 -0.3741 -0.5146
   24TAL   C11627320   3.473   0.552  16.308 -0.0759 -0.1506  0.6056
   24TAL   C11727321   3.489   0.666  16.203 -0.0807 -0.2430  0.2293
   24TAL   C11827322   3.634   0.676  16.146 -0.0930  1.4560  0.3984
   24TAL   C11927323   3.686   0.583  16.034 -0.1565 -0.4072  0.7748
   24TAL   C12027324   3.835   0.611  16.002  0.5152 -0.9011 -0.4269
   25HTM   C12127325   3.420   0.816  16.686 -0.5973 -0.0780 -0.7499
   25HTM   C12227326   3.399   0.840  16.818 -0.8963 -0.0675 -0.7982
   25HTM   C12327327   3.496   0.928  16.878 -0.7801 -0.3990 -0.4873
   25HTM   C12427328   3.591   0.972  16.790 -0.3925 -0.6622 -0.2019
   25HTM    S1327329   3.565   0.904  16.625 -0.1422 -0.5107 -0.3041
   26TAL   C12527330   3.484   0.955  17.027 -0.9686  0.0653 -0.1972
   26TAL   C12627331   3.486   0.829  17.115 -0.0287 -0.6549 -0.7301
   26TAL   C12727332   3.436   0.862  17.259  0.8195 -0.1364 -0.0961
   26TAL   C12827333   3.428   0.751  17.367 -0.1482  0.6977  0.1453
   26TAL   C12927334   3.358   0.626  17.344  0.8116  0.6906 -0.1034
   26TAL   C13027335   3.344   0.547  17.473  1.0487 -0.6601  0.2879
   27HTM   C13127336   3.703   1.072  16.807 -0.4734  0.1653  0.3317
   27HTM   C13227337   3.796   1.090  16.904 -0.3183  0.2829  0.1621
   27HTM   C13327338   3.877   1.209  16.886  0.0616 -0.0541 -0.4373
   27HTM   C13427339   3.844   1.281  16.775  0.1960 -0.4286 -0.7238
   27HTM    S1427340   3.708   1.204  16.684 -0.1493 -0.3844 -0.2567
   28TAL   C13527341   3.990   1.243  16.983  0.2024 -0.2753  0.3686
   28TAL   C13627342   3.954   1.232  17.136 -0.2259  0.5449 -0.0957
   28TAL   C13727343   3.852   1.334  17.188 -1.0309 -0.1330 -0.0220
   28TAL   C13827344   3.848   1.308  17.343  0.4223 -0.3188  0.6670
   28TAL   C13927345   3.803   1.174  17.398  0.5194  0.9726 -0.0117
   28TAL   C14027346   3.657   1.131  17.383 -0.1640 -0.7672  0.8445
   29HTM   C14127347   3.895   1.418  16.726 -0.4753  0.3712 -0.1983
   29HTM   C14227348   3.928   1.463  16.602 -1.1606  0.7515 -0.2494
   29HTM   C14327349   3.989   1.593  16.601 -1.0478  0.6987 -0.1774
   29HTM   C14427350   4.004   1.647  16.725 -0.2766  0.2784 -0.0712
   29HTM    S1527351   3.940   1.537  16.854  0.3721 -0.0865 -0.0539
   30TAL   C14527352   4.022   1.662  16.474  0.1855 -0.5378  0.1870
   30TAL   C14627353   3.910   1.754  16.419  0.3924  0.8788 -0.5295
   30TAL   C14727354   3.940   1.838  16.299  1.4703  0.0463  0.4141
   30TAL   C14827355   4.065   1.916  16.286  0.1738  0.2580 -0.3285
   30TAL   C14927356   4.074   2.013  16.164 -0.5856  0.3568 -0.0807
   30TAL   C15027357   3.985   2.127  16.142 -0.0794 -0.3698  0.0810
   31HTM   C15127358   4.073   1.777  16.771 -0.2421  0.4119 -0.1819
   31HTM   C15227359   4.052   1.901  16.718  0.1837  0.6031  0.0887
   31HTM   C15327360   4.133   2.004  16.778  0.7390  0.1517  0.1287
   31HTM   C15427361   4.216   1.959  16.876  0.7367 -0.3837 -0.1107
   31HTM    S1627362   4.197   1.781  16.901  0.0276 -0.3592 -0.4078
   32TAL   C15527363   4.111   2.143  16.732  0.2116 -0.4343 -0.5846
   32TAL   C15627364   4.082   2.181  16.584  0.2848 -0.2354 -0.6916
   32TAL   C15727365   4.125   2.323  16.534 -0.2130 -0.6355 -0.5254
   32TAL   C15827366   4.275   2.357  16.524  0.1689  0.2938  0.6616
   32TAL   C15927367   4.302   2.500  16.511 -0.0337 -0.3589  0.2513
   32TAL   C16027368   4.388   2.534  16.398 -0.0186 -0.0495  0.2723
   33HTM   C16127369   4.315   2.031  16.950 -0.0915  0.3050 -0.2675
   33HTM   C16227370   4.446   1.992  16.956  0.0317  0.5446 -1.1711
   33HTM   C16327371   4.535   2.096  17.001  0.1210  0.6295 -1.5373
   33HTM   C16427372   4.473   2.213  17.030  0.0660  0.4547 -0.9122
   33HTM    S1727373   4.295   2.202  17.002 -0.1043  0.1670  0.1956
   34TAL   C16527374   4.684   2.075  17.028  0.0406  1.4502 -0.9493
   34TAL   C16627375   4.726   1.964  17.144  0.8859 -0.5964  0.5107
   34TAL   C16727376   4.667   1.821  17.131 -0.6313 -0.3675 -0.1871
   34TAL   C16827377   4.773   1.716  17.108 -0.0262  0.5926 -0.7216
   34TAL   C16927378   4.723   1.567  17.114 -0.4699 -1.1111 -0.3690
   34TAL   C17027379   4.711   1.519  17.249 -0.1943  0.9002  0.1688
   35HTM   C17127380   4.516   2.338  17.103  1.1369  0.2702  0.6747
   35HTM   C17227381   4.638   2.364  17.159  1.0877  1.5445  0.2394
   35HTM   C17327382   4.651   2.499  17.208  0.0676  1.8717 -0.3262
   35HTM   C17427383   4.539   2.575  17.189 -0.6611  0.8471 -0.3227
   35HTM    S1827384   4.408   2.482  17.108 -0.1113 -0.6223  0.4014
   36TAL   C17527385   4.785   2.528  17.274 -0.5856 -0.7926  0.3253
   36TAL   C17627386   4.895   2.577  17.173 -1.1081  0.0512 -0.1952
   36TAL   C17727387   4.993   2.632  17.275 -0.0844  0.3608  0.1625
   36TAL   C17827388   5.127   2.687  17.239 -0.1545 -1.2159  0.6202
   36TAL   C17927389   5.121   2.784  17.121 -1.0672 -0.3970  0.5809
   36TAL   C18027390   5.078   2.928  17.164 -0.3389  0.5432  0.8031
   37HTM   C18127391   4.517   2.708  17.223  0.4071 -0.2269  0.0717
   37HTM   C18227392   4.441   2.798  17.156  0.5627 -0.3778 -0.3138
   37HTM   C18327393   4.420   2.921  17.228  0.4280 -0.1976 -0.6580
   37HTM   C18427394   4.481   2.925  17.349  0.1697  0.0906 -0.5356
   37HTM    S1927395   4.570   2.772  17.384  0.0760  0.1573  0.0296
   38TAL   C18527396   4.340   3.026  17.139 -0.4584 -0.4840 -0.1383
   38TAL   C18627397   4.313   3.169  17.198 -0.0960 -0.4399 -0.0856
   38TAL   C18727398   4.180   3.211  17.163 -0.9001 -0.2566 -0.3855
   38TAL   C18827399   4.159   3.359  17.166  0.7187  0.6852  0.1128
   38TAL   C18927400   4.028   3.412  17.114  0.4837  0.5706 -0.4440
   38TAL   C19027401   4.025   3.558  17.103  0.0167  0.1286  0.6694
   39HTM   C19127402   4.497   3.024  17.457  0.0332  0.2020  0.3992
   39HTM   C19227403   4.614   3.067  17.513 -0.0988  0.1872  0.6876
   39HTM   C19327404   4.595   3.164  17.618 -0.3537  0.0644  0.7572
   39HTM   C19427405   4.465   3.195  17.642 -0.4158 -0.0142  0.5221
   39HTM    S2027406   4.354   3.103  17.533 -0.1554  0.0612  0.1913
   40TAL   C19527407   4.709   3.248  17.673  0.3487  0.0474 -0.2902
   40TAL   C19627408   4.847   3.202  17.707  0.6819  0.3892 -0.1776
   40TAL   C19727409   4.848   3.141  17.847 -0.0858  0.2644 -0.2795
   40TAL   C19827410   4.981   3.161  17.926 -0.0241 -0.0432 -0.6743
   40TAL   C19927411   5.032   3.297  17.990 -0.7462 -0.0361 -0.3138
   40TAL   C20027412   4.935   3.393  18.067 -0.5032 -0.2137  0.6963
   41HTM   C20127413   4.392   3.270  17.745  0.3585 -0.0482 -0.3289
   41HTM   C20227414   4.446   3.349  17.842  0.5212  0.0478 -0.4959
   41HTM   C20327415   4.352   3.392  17.942  0.7081  0.0497 -0.3166
   41HTM   C20427416   4.225   3.347  17.920  0.6880 -0.0448 -0.0132
   41HTM    S2127417   4.215   3.245  17.771  0.4295 -0.1443  0.0704
   42TAL   C20527418   4.384   3.478  18.070 -0.9665 -0.5622  0.7298
   42TAL   C20627419   4.488   3.395  18.162  0.7680 -0.1167  0.3190
   42TAL   C20727420   4.553   3.460  18.287 -0.7327  0.5463  0.8120
   42TAL   C20827421   4.475   3.486  18.408  0.7464  0.9949 -1.1091
   42TAL   C20927422   4.555   3.560  18.516 -0.0165  0.7403 -0.1562
   42TAL   C21027423   4.470   3.650  18.613 -0.5812  0.1661 -0.5346
   43HTM   C21127424   4.101   3.369  17.986 -0.0090  0.7087 -0.4156
   43HTM   C21227425   4.066   3.364  18.118  0.0226  0.4113 -0.4177
   43HTM   C21327426   3.933   3.411  18.144 -0.1510 -0.1078 -0.3395
   43HTM   C21427427   3.866   3.453  18.033 -0.3149 -0.2063 -0.2784
   43HTM    S2227428   3.967   3.434  17.885 -0.2625  0.3533 -0.3146
   44TAL   C21527429   3.875   3.401  18.289  0.2157  0.1336 -0.5177
   44TAL   C21627430   3.982   3.394  18.400  0.2343 -0.1847  0.5024
   44TAL   C21727431   3.931   3.347  18.537 -0.2161 -0.3767 -0.9679
   44TAL   C21827432   3.816   3.424  18.617 -0.6368 -0.8250  0.1609
   44TAL   C21927433   3.791   3.371  18.758  0.7267 -0.0683 -0.5161
   44TAL   C22027434   3.662   3.413  18.824 -0.2667  0.3255  0.0734
   45HTM   C22127435   3.728   3.497  18.015  0.3709  0.7683  0.3537
   45HTM   C22227436   3.688   3.573  17.909 -0.0092  0.0755 -0.0138
   45HTM   C22327437   3.552   3.619  17.919 -0.2383 -0.5309 -0.2337
   45HTM   C22427438   3.488   3.578  18.033 -0.0329 -0.3004 -0.0334
   45HTM    S2327439   3.596   3.477  18.136  0.4697  0.7083  0.4519
   46TAL   C22527440   3.476   3.690  17.804  0.2939  0.0781  0.3166
   46TAL   C22627441   3.528   3.797  17.701  0.0172  0.0197  0.4510
   46TAL   C22727442   3.458   3.811  17.569  0.0678 -0.1184 -0.3110
   46TAL   C22827443   3.504   3.910  17.467  0.0800 -0.2938  0.9268
   46TAL   C22927444   3.595   3.874  17.351 -0.2670  0.7773  0.5902
   46TAL   C23027445   3.615   3.983  17.250  0.5286  0.3122  0.1937
   47HTM   C23127446   3.353   3.578  18.075  0.0464 -0.1671 -0.1862
   47HTM   C23227447   3.273   3.688  18.090  0.2614  0.0014 -0.2537
   47HTM   C23327448   3.140   3.656  18.137  0.2612  0.3101 -0.0396
   47HTM   C23427449   3.119   3.523  18.156  0.0459  0.3771  0.1911
   47HTM    S2427450   3.266   3.426  18.118 -0.1749  0.0530  0.1562
   48TAL   C23527451   3.038   3.765  18.163  0.0883  0.5848 -0.2624
   48TAL   C23627452   2.890   3.768  18.115 -0.5858  0.0764 -0.8576
   48TAL   C23727453   2.801   3.650  18.169  0.4785 -0.3517 -0.9430
   48TAL   C23827454   2.745   3.546  18.067  0.0623 -0.2262 -0.1496
   48TAL   C23927455   2.665   3.605  17.949  0.6689  0.4507  0.3396
   48TAL   C24027456   2.632   3.511  17.828  0.9155 -0.2957  0.1884
    1HTM     C127457   0.835   4.831   4.657  0.6511 -0.3779  0.0471
    1HTM     C227458   0.777   4.740   4.740  0.6296 -0.3549  0.0579
    1HTM     C327459   0.806   4.762   4.879  0.4596 -0.2195  0.0725
    1HTM     C427460   0.885   4.870   4.903  0.3515 -0.1392  0.0732
    1HTM     S127461   0.931   4.953   4.749  0.4568 -0.2293  0.0550
    2TAL     C527462   0.754   4.671   4.986 -0.5032 -0.0708  0.5670
    2TAL     C627463   0.607   4.684   5.028 -0.5244 -0.5458 -0.3994
    2TAL     C727464   0.556   4.567   5.121  0.6136  0.4424  0.1019
    2TAL     C827465   0.642   4.538   5.241 -0.0260  0.5496 -0.7304
    2TAL     C927466   0.553   4.453   5.336 -0.3310  0.1594 -0.7579
    2TAL    C1027467   0.623   4.367   5.442 -0.2241  1.0130 -0.1323
    3HTM    C1127468   0.938   4.928   5.025 -0.5406 -0.5285 -0.1832
    3HTM    C1227469   0.931   5.053   5.080 -0.7565 -0.3883 -0.5250
    3HTM    C1327470   1.004   5.066   5.203 -0.9040  0.0359 -0.4811
    3HTM    C1427471   1.066   4.952   5.243 -0.8005  0.2191 -0.1058
    3HTM     S227472   1.038   4.817   5.126 -0.5065 -0.1326  0.2240
    4TAL    C1527473   1.015   5.186   5.287 -0.5132  0.2730 -0.9516
    4TAL    C1627474   0.882   5.248   5.335 -0.6291 -0.2699 -0.0317
    4TAL    C1727475   0.763   5.165   5.397 -0.1376  0.2975  0.3687
    4TAL    C1827476   0.655   5.241   5.445  0.5904 -0.9038 -0.3177
    4TAL    C1927477   0.516   5.187   5.390  1.0162  0.5842 -0.3318
    4TAL    C2027478   0.395   5.291   5.389 -0.8017  0.3302 -0.1571
    5HTM    C2127479   1.150   4.914   5.362  0.8293 -0.7147 -0.0418
    5HTM    C2227480   1.109   4.827   5.459  1.1238 -1.5078 -0.6101
    5HTM    C2327481   1.191   4.830   5.577  0.7792 -1.5936 -0.3673
    5HTM    C2427482   1.294   4.920   5.571  0.2219 -0.8659  0.3862
    5HTM     S327483   1.296   5.008   5.414  0.0882 -0.0095  0.8511
    6TAL    C2527484   1.183   4.726   5.680 -0.4302  0.1079  0.4445
    6TAL    C2627485   1.060   4.723   5.764  0.2558 -0.4293  0.2886
    6TAL    C2727486   1.085   4.741   5.910  0.0613 -0.2170 -0.7339
    6TAL    C2827487   0.964   4.699   6.008 -0.5504  0.0993 -0.7993
    6TAL    C2927488   0.998   4.697   6.168 -0.3859  0.8070  0.0609
    6TAL    C3027489   0.885   4.649   6.256 -0.9245 -0.6657  0.2676
    7HTM    C3127490   1.396   4.966   5.663 -0.3920 -0.1015  0.3957
    7HTM    C3227491   1.476   4.884   5.736 -0.6582 -0.1595  0.6244
    7HTM    C3327492   1.577   4.953   5.811 -0.3514 -0.2834  0.3310
    7HTM    C3427493   1.574   5.089   5.795  0.1486 -0.3198 -0.1213
    7HTM     S427494   1.442   5.139   5.683  0.2718 -0.1995 -0.2125
    8TAL    C3527495   1.679   4.877   5.888 -0.7421  0.6672 -0.1696
    8TAL    C3627496   1.702   4.883   6.036  0.2837 -0.7074  0.7607
    8TAL    C3727497   1.714   4.749   6.089 -0.1945 -0.0246 -0.9124
    8TAL    C3827498   1.808   4.639   6.040 -0.2366 -0.5586 -0.1924
    8TAL    C3927499   1.817   4.499   6.098 -0.1238  1.0027 -0.6988
    8TAL    C4027500   1.942   4.437   6.067 -0.6145 -0.4558 -0.0942
    9HTM    C4127501   1.660   5.187   5.874  0.0374 -0.0298  1.3368
    9HTM    C4227502   1.641   5.226   6.003  0.8931  0.2408  1.3950
    9HTM    C4327503   1.743   5.315   6.053  1.2593  0.3114  0.5519
    9HTM    C4427504   1.841   5.343   5.961  0.6826  0.0947 -0.1491
    9HTM     S527505   1.810   5.260   5.804 -0.3758 -0.2180  0.2037
   10TAL    C4527506   1.742   5.364   6.194  0.2015 -0.2058 -0.3683
   10TAL    C4627507   1.733   5.266   6.317 -0.1141 -0.5069 -0.8613
   10TAL    C4727508   1.596   5.213   6.338 -0.4037 -0.0157 -0.6059
   10TAL    C4827509   1.594   5.151   6.479 -0.7007  0.3452  0.7528
   10TAL    C4927510   1.655   5.008   6.486  0.2737  0.3583 -0.1076
   10TAL    C5027511   1.685   4.966   6.624 -0.6090 -0.6902  0.4901
   11HTM    C5127512   1.966   5.400   5.985  0.7634 -0.5968  0.2383
   11HTM    C5227513   2.092   5.350   5.970  0.9283 -0.3726  0.8010
   11HTM    C5327514   2.196   5.448   5.987  0.6528 -0.0560  0.6833
   11HTM    C5427515   2.150   5.573   6.015  0.2779 -0.0387  0.0309
   11HTM     S627516   1.969   5.577   6.023  0.2434 -0.4241 -0.4895
   12TAL    C5527517   2.338   5.410   5.953  0.0072  0.2932  0.4397
   12TAL    C5627518   2.387   5.473   5.824 -0.7544 -0.4949  0.7690
   12TAL    C5727519   2.530   5.462   5.834  0.2645 -0.1634  0.1519
   12TAL    C5827520   2.594   5.523   5.714  0.7672 -0.3339  0.6967
   12TAL    C5927521   2.741   5.511   5.716  0.8167 -0.3961  0.0550
   12TAL    C6027522   2.786   5.526   5.575 -0.0559 -0.1726  0.1947
   13HTM    C6127523   2.224   5.692   6.037 -0.4738  0.0495  0.2889
   13HTM    C6227524   2.257   5.792   5.951 -0.1860 -0.1888  0.1155
   13HTM    C6327525   2.313   5.908   6.016  0.2280 -0.2681 -0.0926
   13HTM    C6427526   2.322   5.896   6.151  0.2559 -0.0901 -0.0780
   13HTM     S727527   2.261   5.736   6.208 -0.2424  0.1937  0.2020
   14TAL    C6527528   2.349   6.039   5.937 -0.1980 -0.1501  0.5093
   14TAL    C6627529   2.404   6.032   5.788  0.2589 -0.6738  0.6923
   14TAL    C6727530   2.538   5.966   5.763 -0.1458  0.1375 -0.5019
   14TAL    C6827531   2.579   5.933   5.622 -0.6842  0.3308 -0.2729
   14TAL    C6927532   2.576   6.040   5.514  0.9103 -0.1409  0.4589
   14TAL    C7027533   2.640   5.977   5.391 -0.1212  0.1607  0.7155
   15HTM    C7127534   2.385   5.977   6.257 -0.3764  0.1048  0.5519
   15HTM    C7227535   2.449   5.926   6.366 -0.3395  0.0701  0.5145
   15HTM    C7327536   2.520   6.025   6.443 -0.0274 -0.0101  0.3299
   15HTM    C7427537   2.511   6.151   6.391  0.1737 -0.0368  0.2262
   15HTM     S827538   2.411   6.155   6.241 -0.0170  0.0380  0.3551
   16TAL    C7527539   2.602   5.998   6.563 -0.4061 -0.3412 -0.0814
   16TAL    C7627540   2.590   5.866   6.638  0.2237 -0.9545 -0.4075
   16TAL    C7727541   2.682   5.844   6.757 -0.2665 -1.1394  0.2791
   16TAL    C7827542   2.693   5.732   6.850 -0.9694 -0.5401  0.6056
   16TAL    C7927543   2.607   5.751   6.968  0.3272  0.3484 -0.2079
   16TAL    C8027544   2.552   5.619   7.011 -0.8831 -0.8608 -0.8705
   17HTM    C8127545   2.559   6.281   6.432  0.1670  0.0139 -0.3762
   17HTM    C8227546   2.658   6.298   6.525  0.2310  0.0323 -0.4481
   17HTM    C8327547   2.696   6.435   6.545 -0.1548  0.0930 -0.0876
   17HTM    C8427548   2.627   6.523   6.467 -0.5130  0.1206  0.2590
   17HTM     S927549   2.506   6.439   6.363 -0.3898  0.0721  0.1560
   18TAL    C8527550   2.793   6.474   6.658  0.9141 -0.3876  0.0306
   18TAL    C8627551   2.871   6.364   6.728 -0.7911 -0.3115  0.4930
   18TAL    C8727552   2.939   6.422   6.847 -0.2752  0.8220 -0.0777
   18TAL    C8827553   3.048   6.351   6.932 -0.0499  1.3056 -0.1027
   18TAL    C8927554   3.066   6.200   6.919  0.5209 -0.2281  0.0904
   18TAL    C9027555   3.184   6.167   7.015 -0.2885 -0.6067 -0.4480
   19HTM    C9127556   2.619   6.670   6.444  0.2424 -0.4565  0.2294
   19HTM    C9227557   2.520   6.759   6.413  0.1314 -0.6601 -0.0088
   19HTM    C9327558   2.568   6.891   6.385 -0.0487 -0.6328 -0.1910
   19HTM    C9427559   2.704   6.904   6.394 -0.0749 -0.4085 -0.0916
   19HTM    S1027560   2.782   6.748   6.439  0.1272 -0.2128  0.2421
   20TAL    C9527561   2.476   7.003   6.347  0.6579  0.2936 -0.0001
   20TAL    C9627562   2.380   7.078   6.445 -0.5765  0.6660  0.0675
   20TAL    C9727563   2.426   7.096   6.594 -0.1844 -0.4160  0.2496
   20TAL    C9827564   2.519   7.226   6.603  0.5194  0.1071  0.6042
   20TAL    C9927565   2.539   7.242   6.755  0.2062 -0.0785  0.5135
   20TAL   C10027566   2.603   7.382   6.764 -0.2896  0.0144  0.2943
   21HTM   C10127567   2.788   7.016   6.358  0.3092 -0.2232 -0.0119
   21HTM   C10227568   2.916   7.009   6.312  0.1284  0.0532 -0.5761
   21HTM   C10327569   2.972   7.137   6.276 -0.2952  0.1770 -0.8036
   21HTM   C10427570   2.886   7.241   6.295 -0.4375 -0.0048 -0.4129
   21HTM    S1127571   2.727   7.186   6.359 -0.0443 -0.3494  0.2782
   22TAL   C10527572   3.105   7.134   6.208 -0.9280  0.8048 -0.3127
   22TAL   C10627573   3.242   7.119   6.288 -0.4447 -0.8122  0.0647
   22TAL   C10727574   3.279   7.210   6.404  0.4913 -0.2133 -0.5797
   22TAL   C10827575   3.422   7.206   6.435  0.0933 -0.2480  0.7188
   22TAL   C10927576   3.466   7.212   6.579 -0.0393 -0.1278  0.3593
   22TAL   C11027577   3.616   7.184   6.592 -0.3887  0.3371 -0.0649
   23HTM   C11127578   2.903   7.386   6.276  0.3345 -0.1416  0.1540
   23HTM   C11227579   2.828   7.482   6.338  0.3589 -0.2800  0.4026
   23HTM   C11327580   2.869   7.616   6.306 -0.0266 -0.2040  0.2235
   23HTM   C11427581   2.974   7.623   6.220 -0.3450 -0.0074 -0.1611
   23HTM    S1227582   3.032   7.459   6.173 -0.1812  0.0976 -0.3286
   24TAL   C11527583   2.791   7.736   6.349  0.2367  0.4391 -0.1225
   24TAL   C11627584   2.741   7.732   6.488 -0.4560 -0.4327 -0.2947
   24TAL   C11727585   2.642   7.851   6.540  0.1872 -0.3252  1.1099
   24TAL   C11827586   2.496   7.842   6.483 -0.8396  0.1686  0.5469
   24TAL   C11927587   2.402   7.926   6.562 -0.6330  0.1678  0.8685
   24TAL   C12027588   2.269   7.934   6.498  0.4528  0.1536 -0.3092
   25HTM   C12127589   3.044   7.739   6.169 -0.0875  0.1704 -0.0718
   25HTM   C12227590   3.072   7.860   6.224 -0.5027  0.4387 -0.4307
   25HTM   C12327591   3.161   7.941   6.145 -0.6916  0.4656 -0.6175
   25HTM   C12427592   3.201   7.881   6.029 -0.4205  0.2178 -0.4012
   25HTM    S1327593   3.128   7.717   6.011  0.0984 -0.0710  0.0589
   26TAL   C12527594   3.208   8.073   6.200 -0.3227  0.7646 -0.3136
   26TAL   C12627595   3.208   8.113   6.357  0.4402 -0.1115  0.2624
   26TAL   C12727596   3.082   8.138   6.429  0.5816  0.2603  0.8084
   26TAL   C12827597   3.103   8.202   6.559 -0.7058 -0.3069 -1.0507
   26TAL   C12927598   2.973   8.228   6.625  1.4073  1.3934  0.6976
   26TAL   C13027599   2.966   8.251   6.772  0.1306  0.2231 -0.3149
   27HTM   C13127600   3.295   7.918   5.933  0.0327  0.1170  0.4681
   27HTM   C13227601   3.384   7.846   5.858 -0.5956 -0.1370 -0.0575
   27HTM   C13327602   3.460   7.925   5.765 -0.8667 -0.3428 -0.4599
   27HTM   C13427603   3.429   8.058   5.768 -0.4451 -0.2458 -0.2412
   27HTM    S1427604   3.301   8.093   5.890  0.3329  0.1160  0.4958
   28TAL   C13527605   3.556   7.855   5.670 -0.3328  0.0332 -0.2116
   28TAL   C13627606   3.679   7.775   5.725 -0.5617 -0.7479 -0.5722
   28TAL   C13727607   3.802   7.847   5.770 -0.0745  0.3113 -1.0265
   28TAL   C13827608   3.802   7.908   5.918 -0.4090  0.7787  0.9783
   28TAL   C13927609   3.938   7.951   5.976 -0.1138 -0.3320 -0.4347
   28TAL   C14027610   3.974   8.095   5.940 -0.9272  0.6567 -0.6642
   29HTM   C14127611   3.487   8.168   5.687 -0.3390 -0.2607 -0.4503
   29HTM   C14227612   3.436   8.295   5.694  0.2559 -0.0417  0.2041
   29HTM   C14327613   3.493   8.385   5.597  0.7373  0.2243  0.7231
   29HTM   C14427614   3.587   8.327   5.517  0.5095  0.2081  0.4644
   29HTM    S1527615   3.611   8.153   5.557 -0.3374 -0.1472 -0.4618
   30TAL   C14527616   3.448   8.529   5.564  0.1369 -0.2085 -0.3286
   30TAL   C14627617   3.409   8.603   5.696 -0.1758  0.9690  0.7372
   30TAL   C14727618   3.514   8.618   5.805 -0.5388 -0.3845 -0.0383
   30TAL   C14827619   3.646   8.688   5.784  0.3828  0.1400  0.0790
   30TAL   C14927620   3.729   8.725   5.917 -0.1388  0.4015  1.3270
   30TAL   C15027621   3.870   8.779   5.875 -0.0689  0.6686  0.0734
   31HTM   C15127622   3.684   8.380   5.422  0.0672  0.0796  0.0631
   31HTM   C15227623   3.757   8.316   5.327 -0.6434  0.4044 -0.7334
   31HTM   C15327624   3.842   8.403   5.250 -0.9142  0.6198 -0.7908
   31HTM   C15427625   3.833   8.534   5.286 -0.4103  0.4591 -0.0383
   31HTM    S1627626   3.716   8.558   5.421  0.4522  0.0199  0.8080
   32TAL   C15527627   3.935   8.350   5.136  0.5698 -0.0098 -0.4364
   32TAL   C15627628   3.905   8.213   5.075 -0.1924 -0.5544 -0.1890
   32TAL   C15727629   3.773   8.192   4.987  1.1296 -0.4616  0.5578
   32TAL   C15827630   3.761   8.256   4.840 -0.5350 -0.1019 -0.9898
   32TAL   C15927631   3.856   8.197   4.738  1.2641 -0.7026  0.6653
   32TAL   C16027632   3.793   8.198   4.600 -0.4629  0.5714 -0.3314
   33HTM   C16127633   3.903   8.656   5.246 -0.1124 -0.1204 -0.3922
   33HTM   C16227634   3.969   8.744   5.328  0.2025 -0.4842 -0.2490
   33HTM   C16327635   4.032   8.852   5.257  0.4042 -0.4717 -0.0535
   33HTM   C16427636   4.014   8.848   5.122  0.2430 -0.0984 -0.0477
   33HTM    S1727637   3.916   8.704   5.073 -0.1793  0.2691 -0.2906
   34TAL   C16527638   4.118   8.968   5.327 -0.1432  1.0286  1.4594
   34TAL   C16627639   4.026   9.063   5.402 -0.6063 -0.1181 -0.1189
   34TAL   C16727640   4.111   9.182   5.472  0.4577  0.6759  0.1745
   34TAL   C16827641   4.043   9.266   5.579  0.2241 -0.0878  1.2772
   34TAL   C16927642   4.035   9.216   5.714  0.0957 -0.1719 -0.0935
   34TAL   C17027643   4.165   9.239   5.787  1.3247 -0.3069 -0.3680
   35HTM   C17127644   4.077   8.929   5.024  0.0634  0.1817  0.1849
   35HTM   C17227645   4.016   9.016   4.938  0.2738  0.7393  0.5867
   35HTM   C17327646   4.108   9.095   4.861  0.4729  0.6300  0.7092
   35HTM   C17427647   4.239   9.069   4.887  0.4142 -0.0110  0.4004
   35HTM    S1827648   4.257   8.941   5.013  0.1008 -0.5301 -0.0724
   36TAL   C17527649   4.062   9.197   4.754 -0.7302  0.7047 -0.0591
   36TAL   C17627650   3.940   9.283   4.799  0.6244 -0.0270  0.8126
   36TAL   C17727651   3.974   9.415   4.865 -0.4310  0.0349  0.3049
   36TAL   C17827652   4.050   9.507   4.781 -0.0922  0.5822  0.8186
   36TAL   C17927653   4.099   9.618   4.874  0.2362 -0.1735 -0.1258
   36TAL   C18027654   4.142   9.739   4.803 -0.6490 -1.2054  0.5001
   37HTM   C18127655   4.362   9.114   4.839  0.1082  0.5100 -0.0617
   37HTM   C18227656   4.479   9.043   4.845 -0.1885 -0.0117 -0.2609
   37HTM   C18327657   4.594   9.118   4.801  0.1036 -0.4460 -0.2427
   37HTM   C18427658   4.565   9.245   4.761  0.6231 -0.2554 -0.0296
   37HTM    S1927659   4.389   9.281   4.776  0.7849  0.4931  0.1661
   38TAL   C18527660   4.729   9.047   4.798 -0.2923 -0.1278  0.6448
   38TAL   C18627661   4.804   9.005   4.931  0.1528 -0.8720 -0.5543
   38TAL   C18727662   4.957   9.014   4.933 -0.2254  0.1865 -0.0631
   38TAL   C18827663   5.018   9.140   4.879  0.0655  0.0109  0.3350
   38TAL   C18927664   5.156   9.127   4.821 -0.4005  0.5276 -1.0613
   38TAL   C19027665   5.221   9.265   4.830  0.0658 -0.2466  1.2493
   39HTM   C19127666   4.653   9.349   4.710  0.1688 -0.0035 -0.2596
   39HTM   C19227667   4.650   9.484   4.729 -0.1162 -0.0249 -0.1409
   39HTM   C19327668   4.742   9.556   4.645 -0.3111  0.2500 -0.1220
   39HTM   C19427669   4.816   9.476   4.563 -0.1746  0.4811 -0.2261
   39HTM    S2027670   4.773   9.302   4.584  0.2140  0.3685 -0.3572
   40TAL   C19527671   4.754   9.706   4.671 -0.4141  0.0184  0.6720
   40TAL   C19627672   4.653   9.784   4.756 -0.2534 -0.1293 -0.8345
   40TAL   C19727673   4.650   9.928   4.719 -0.1835 -0.3635  0.1403
   40TAL   C19827674   4.706  10.040   4.820 -0.2447  0.7099  0.2522
   40TAL   C19927675   4.633  10.048   4.951  0.1025 -0.3791  0.2724
   40TAL   C20027676   4.659  10.190   5.008 -0.9286 -0.9342  0.0104
   41HTM   C20127677   4.926   9.514   4.466 -0.3151  0.0633  0.3376
   41HTM   C20227678   5.033   9.432   4.452 -0.8028 -0.5547  0.1158
   41HTM   C20327679   5.121   9.469   4.344 -0.7868 -1.0296 -0.0395
   41HTM   C20427680   5.080   9.580   4.275 -0.2867 -0.7737  0.0643
   41HTM    S2127681   4.926   9.646   4.343  0.2063  0.0935  0.3684
   42TAL   C20527682   5.241   9.376   4.310  0.3143 -0.9718 -0.8361
   42TAL   C20627683   5.372   9.410   4.234  0.7654 -0.1332  0.5202
   42TAL   C20727684   5.479   9.493   4.300 -0.1079  0.4546  0.0731
   42TAL   C20827685   5.563   9.594   4.216  0.2422 -0.3327  0.4600
   42TAL   C20927686   5.609   9.562   4.068  0.5257 -1.1736 -0.2827
   42TAL   C21027687   5.690   9.668   4.002 -0.6140 -0.4179  0.7658
   43HTM   C21127688   5.121   9.647   4.163  0.5853 -0.2762 -0.4236
   43HTM   C21227689   5.054   9.629   4.046  0.7807 -0.3114 -0.5305
   43HTM   C21327690   5.112   9.699   3.934  0.8442 -0.1737 -0.4118
   43HTM   C21427691   5.223   9.771   3.966  0.6972 -0.0335 -0.2144
   43HTM    S2227692   5.264   9.756   4.141  0.4655 -0.0649 -0.1627
   44TAL   C21527693   5.051   9.703   3.799  0.2063 -0.0844 -0.1226
   44TAL   C21627694   5.008   9.569   3.739 -0.8900  0.1046 -0.1049
   44TAL   C21727695   5.123   9.489   3.672 -0.2976 -0.2988  0.5257
   44TAL   C21827696   5.234   9.417   3.747  0.4056  0.0876  0.1287
   44TAL   C21927697   5.304   9.313   3.655  0.0309 -0.5446 -0.5082
   44TAL   C22027698   5.424   9.259   3.730 -0.4094  0.2684 -0.7264
   45HTM   C22127699   5.324   9.839   3.887  0.5363 -0.4047  0.8472
   45HTM   C22227700   5.393   9.950   3.926  0.8806 -0.7699  1.2922
   45HTM   C22327701   5.507   9.980   3.844  0.5934 -0.4292  1.0107
   45HTM   C22427702   5.525   9.892   3.742  0.0303  0.1959  0.3508
   45HTM    S2327703   5.398   9.763   3.741 -0.1828  0.4042  0.0315
   46TAL   C22527704   5.596  10.096   3.873  0.2859 -0.4927 -0.4783
   46TAL   C22627705   5.558  10.229   3.816  0.0207  0.0687 -0.6085
   46TAL   C22727706   5.629  10.352   3.884 -0.2068 -0.1268 -0.2006
   46TAL   C22827707   5.777  10.353   3.826  0.5609 -0.3380 -0.7411
   46TAL   C22927708   5.866  10.479   3.854  1.2576  1.0410 -0.3698
   46TAL   C23027709   5.834  10.608   3.798  0.1033 -0.2966 -0.0894
   47HTM   C23127710   5.624   9.868   3.643  0.5909  0.1838  0.1512
   47HTM   C23227711   5.710   9.961   3.593  0.7160  0.0691  0.1552
   47HTM   C23327712   5.816   9.904   3.513  0.4789 -0.0451 -0.0789
   47HTM   C23427713   5.809   9.768   3.502  0.1727 -0.0173 -0.2613
   47HTM    S2427714   5.669   9.701   3.592  0.1601  0.1565 -0.1507
   48TAL   C23527715   5.922   9.991   3.448  1.1753  0.1220  0.4630
   48TAL   C23627716   6.011  10.062   3.545 -0.6797  0.5691 -0.7676
   48TAL   C23727717   6.124   9.973   3.600 -0.4282  0.1109 -0.2991
   48TAL   C23827718   6.089   9.899   3.726 -0.4665  0.1139  0.0193
   48TAL   C23927719   6.205   9.816   3.799 -1.2301 -0.7592  0.4363
   48TAL   C24027720   6.173   9.725   3.922  0.0954 -0.4256  0.0741
    1HTM     C127721   5.777   7.029  16.186 -0.4267  0.1228  0.1460
    1HTM     C227722   5.709   7.079  16.294 -0.1888  0.5605  0.0963
    1HTM     C327723   5.794   7.143  16.391  0.0678  0.6505 -0.1822
    1HTM     C427724   5.927   7.141  16.358  0.0255  0.2816 -0.3448
    1HTM     S127725   5.955   7.058  16.200 -0.3447 -0.2121 -0.1573
    2TAL     C527726   5.737   7.219  16.510 -0.0454 -1.3011  0.1093
    2TAL     C627727   5.611   7.318  16.496  0.1267  0.5648 -0.7516
    2TAL     C727728   5.481   7.243  16.538  0.2649 -0.6357 -0.3857
    2TAL     C827729   5.389   7.341  16.614  0.5251 -0.1646  0.2755
    2TAL     C927730   5.251   7.270  16.654  0.2046  0.1586 -0.3678
    2TAL    C1027731   5.158   7.367  16.708  0.3518 -0.1243 -0.4408
    3HTM    C1127732   6.043   7.203  16.429 -0.4566 -0.5839  0.1385
    3HTM    C1227733   6.118   7.306  16.381 -1.0301 -0.3204 -0.2275
    3HTM    C1327734   6.241   7.326  16.454 -0.9650  0.3961 -0.5193
    3HTM    C1427735   6.259   7.238  16.557 -0.3418  0.6793 -0.3771
    3HTM     S227736   6.121   7.123  16.570  0.2153  0.0578  0.1412
    4TAL    C1527737   6.347   7.433  16.397 -0.3805  0.5603 -0.2285
    4TAL    C1627738   6.387   7.405  16.249  0.0770 -1.1658 -0.8948
    4TAL    C1727739   6.348   7.530  16.166 -0.3453  0.3331  0.3209
    4TAL    C1827740   6.352   7.505  16.015 -0.2156  0.2980 -0.6454
    4TAL    C1927741   6.328   7.626  15.924 -0.4193 -0.0901  0.3656
    4TAL    C2027742   6.270   7.572  15.791  0.0160 -0.2305  0.6981
    5HTM    C2127743   6.357   7.220  16.659 -0.3005 -0.0941 -0.4869
    5HTM    C2227744   6.350   7.154  16.779 -0.4128 -0.1540 -0.5260
    5HTM    C2327745   6.473   7.155  16.853 -0.4478 -0.2961 -0.4644
    5HTM    C2427746   6.574   7.222  16.790 -0.3623 -0.3445 -0.3787
    5HTM     S327747   6.521   7.289  16.631 -0.2299 -0.2131 -0.3681
    6TAL    C2527748   6.482   7.068  16.987 -0.6093  0.0290  0.7401
    6TAL    C2627749   6.414   7.096  17.112  0.5063  0.0905  0.0180
    6TAL    C2727750   6.461   7.220  17.194 -0.1587 -0.3699  0.4861
    6TAL    C2827751   6.358   7.342  17.201  0.2482  0.9299  0.2424
    6TAL    C2927752   6.391   7.458  17.288 -0.5744  0.2379 -0.2669
    6TAL    C3027753   6.300   7.573  17.290  0.2344  0.1405  0.9704
    7HTM    C3127754   6.712   7.255  16.834 -0.1918 -0.2387 -0.2831
    7HTM    C3227755   6.807   7.165  16.872 -0.4938 -0.5102 -0.1607
    7HTM    C3327756   6.940   7.220  16.877 -0.3592 -0.8539  0.1321
    7HTM    C3427757   6.946   7.352  16.842  0.0457 -0.8445  0.2328
    7HTM     S427758   6.783   7.417  16.800  0.2900 -0.3974 -0.0359
    8TAL    C3527759   7.071   7.136  16.897  0.2976 -0.7354  0.5861
    8TAL    C3627760   7.071   6.980  16.890  0.4484 -0.5097 -0.4289
    8TAL    C3727761   6.978   6.894  16.977  0.0833  0.3509 -0.1936
    8TAL    C3827762   6.969   6.911  17.130 -0.7494 -0.7106  0.3743
    8TAL    C3927763   6.890   6.812  17.204 -0.0902 -0.5531  0.9079
    8TAL    C4027764   6.858   6.850  17.350  0.0773  0.8377  0.1107
    9HTM    C4127765   7.060   7.455  16.842 -0.3428  0.2242  0.2672
    9HTM    C4227766   7.179   7.430  16.903 -0.4925 -0.0141  0.4697
    9HTM    C4327767   7.278   7.532  16.878 -0.2115 -0.2689  0.5403
    9HTM    C4427768   7.234   7.633  16.799  0.1527 -0.2248  0.3913
    9HTM     S527769   7.063   7.609  16.748  0.1687  0.1447  0.1488
   10TAL    C4527770   7.419   7.515  16.933  0.2076 -0.4168 -0.5098
   10TAL    C4627771   7.460   7.530  17.072  0.4355  0.2934 -0.1937
   10TAL    C4727772   7.412   7.642  17.152  0.6134 -0.9802 -0.3520
   10TAL    C4827773   7.494   7.638  17.284  0.2746 -0.0694  0.6399
   10TAL    C4927774   7.435   7.740  17.380  0.2862 -0.0171  0.1265
   10TAL    C5027775   7.488   7.884  17.378  0.3804 -0.6175  1.1452
   11HTM    C5127776   7.296   7.758  16.762 -0.1591 -0.2535 -0.1454
   11HTM    C5227777   7.385   7.835  16.832  0.1700 -0.5532 -0.2284
   11HTM    C5327778   7.417   7.959  16.767  0.3244 -0.5418 -0.1302
   11HTM    C5427779   7.354   7.978  16.648  0.1127 -0.2333  0.0283
   11HTM     S627780   7.247   7.838  16.608 -0.3011  0.0690  0.0650
   12TAL    C5527781   7.509   8.064  16.828 -0.5391  0.2858  0.1969
   12TAL    C5627782   7.549   8.040  16.972 -0.1716 -0.3763  0.1148
   12TAL    C5727783   7.611   8.168  17.031  0.3898  0.3878  0.7537
   12TAL    C5827784   7.640   8.159  17.180  0.0903  0.2386  0.3186
   12TAL    C5927785   7.673   8.296  17.238 -0.1366  0.5707  0.6556
   12TAL    C6027786   7.675   8.308  17.392 -0.0804  0.5327  0.7291
   13HTM    C6127787   7.343   8.098  16.558  0.0841  0.2721  0.5021
   13HTM    C6227788   7.226   8.132  16.497 -0.0001 -0.3525  0.2952
   13HTM    C6327789   7.237   8.248  16.413 -0.3117 -0.7161 -0.2580
   13HTM    C6427790   7.362   8.303  16.409 -0.4650 -0.3686 -0.4728
   13HTM     S727791   7.477   8.210  16.513 -0.2258  0.4511  0.0102
   14TAL    C6527792   7.122   8.316  16.336 -0.1244  0.7501 -0.3565
   14TAL    C6627793   6.993   8.246  16.367  0.2293 -0.6819 -0.0632
   14TAL    C6727794   6.872   8.343  16.343 -0.3600  0.5083 -0.0130
   14TAL    C6827795   6.733   8.290  16.382  0.6079 -0.7176  0.0008
   14TAL    C6927796   6.623   8.395  16.358 -0.4199 -0.0891  0.4862
   14TAL    C7027797   6.612   8.503  16.469  0.4567  0.3394  0.2016
   15HTM    C7127798   7.419   8.418  16.340  0.2229 -0.0768 -0.2705
   15HTM    C7227799   7.523   8.413  16.251  0.1140 -0.1234 -0.3963
   15HTM    C7327800   7.563   8.542  16.202  0.2041 -0.1293 -0.3371
   15HTM    C7427801   7.491   8.645  16.253  0.3818 -0.0871 -0.1670
   15HTM     S827802   7.364   8.587  16.368  0.4496 -0.0363 -0.0669
   16TAL    C7527803   7.652   8.544  16.085  0.6470  0.8213  1.2588
   16TAL    C7627804   7.595   8.524  15.932  0.1329  0.1898 -0.3370
   16TAL    C7727805   7.524   8.385  15.897 -0.0895 -0.1294  0.2602
   16TAL    C7827806   7.584   8.251  15.925  0.1142  0.7918  0.1530
   16TAL    C7927807   7.533   8.126  15.848 -0.7265  0.4063 -1.0372
   16TAL    C8027808   7.389   8.094  15.902 -0.1080  0.3696  0.3288
   17HTM    C8127809   7.506   8.793  16.239 -0.3281 -0.0029  0.3341
   17HTM    C8227810   7.621   8.858  16.207  0.0195 -0.2940  0.9608
   17HTM    C8327811   7.619   8.998  16.240  0.2582 -0.3194  1.0877
   17HTM    C8427812   7.503   9.040  16.296  0.0924 -0.0477  0.5578
   17HTM     S927813   7.385   8.904  16.313 -0.3814  0.2638 -0.1472
   18TAL    C8527814   7.740   9.080  16.191  0.7115  0.1028 -0.7123
   18TAL    C8627815   7.870   9.062  16.263 -0.5144  0.5803 -0.9148
   18TAL    C8727816   7.879   9.138  16.397 -0.1317 -0.2667  0.7125
   18TAL    C8827817   8.001   9.156  16.485  0.0618  0.4569  0.7527
   18TAL    C8927818   8.057   9.022  16.529 -0.1084  0.4042  0.5441
   18TAL    C9027819   8.175   9.032  16.618 -0.0090  0.1638  0.7501
   19HTM    C9127820   7.444   9.167  16.337  0.0981 -0.3156 -0.3288
   19HTM    C9227821   7.491   9.294  16.334 -0.1094 -0.2393 -0.3619
   19HTM    C9327822   7.390   9.394  16.359 -0.1725 -0.4204  0.1178
   19HTM    C9427823   7.266   9.342  16.382 -0.0129 -0.6350  0.5168
   19HTM    S1027824   7.267   9.162  16.373  0.2310 -0.6247  0.3153
   20TAL    C9527825   7.450   9.528  16.379 -0.1813 -0.5256  0.5979
   20TAL    C9627826   7.451   9.624  16.263  0.8034  0.1479 -0.3591
   20TAL    C9727827   7.436   9.772  16.305  0.0474 -0.4755  0.0206
   20TAL    C9827828   7.397   9.858  16.184 -0.0706 -0.8722  1.0221
   20TAL    C9927829   7.356   9.998  16.203 -0.1802  0.1066  0.7431
   20TAL   C10027830   7.306  10.064  16.077 -0.8329  0.1331 -0.1927
   21HTM   C10127831   7.137   9.410  16.405 -0.0757  0.2832 -1.2307
   21HTM   C10227832   7.117   9.530  16.467 -0.1484  0.4175 -1.5125
   21HTM   C10327833   6.978   9.561  16.489 -0.1465 -0.0025 -0.8440
   21HTM   C10427834   6.892   9.465  16.444 -0.0726 -0.4572 -0.0517
   21HTM    S1127835   6.981   9.327  16.370  0.0011 -0.3896 -0.0904
   22TAL   C10527836   6.945   9.690  16.560  1.0404 -0.2560 -0.6394
   22TAL   C10627837   6.932   9.812  16.469  0.4838 -0.5144  0.0497
   22TAL   C10727838   6.950   9.950  16.533  0.0854  0.9976 -0.4888
   22TAL   C10827839   6.996  10.044  16.419  0.5416  0.0340 -0.2340
   22TAL   C10927840   6.975  10.196  16.446  0.3492 -0.0436  0.8025
   22TAL   C11027841   6.973  10.266  16.316  0.2512  0.0647  0.5370
   23HTM   C11127842   6.755   9.447  16.441 -0.0403 -0.5319 -0.1050
   23HTM   C11227843   6.680   9.359  16.369  0.0386 -1.1380  0.5312
   23HTM   C11327844   6.543   9.349  16.411  0.1370 -1.2314  0.8321
   23HTM   C11427845   6.513   9.431  16.517  0.1331 -0.6964  0.4255
   23HTM    S1227846   6.656   9.526  16.570  0.0039 -0.0281 -0.3754
   24TAL   C11527847   6.451   9.241  16.347  1.3590 -0.6104  0.9001
   24TAL   C11627848   6.439   9.212  16.192  0.9769 -0.1589  0.0353
   24TAL   C11727849   6.477   9.315  16.082  0.2735 -0.7043 -0.9204
   24TAL   C11827850   6.628   9.308  16.042  1.0194 -0.7767  0.7347
   24TAL   C11927851   6.640   9.314  15.893 -0.0884 -0.0562 -0.3657
   24TAL   C12027852   6.784   9.321  15.839 -0.1195  0.1328 -0.0785
   25HTM   C12127853   6.386   9.456  16.600 -0.5555 -0.8976  0.4755
   25HTM   C12227854   6.284   9.365  16.601 -1.1841 -0.2087  0.6123
   25HTM   C12327855   6.173   9.404  16.684 -0.9266  0.6745  0.5646
   25HTM   C12427856   6.190   9.524  16.746 -0.1015  0.6590  0.3918
   25HTM    S1327857   6.349   9.598  16.704  0.4179 -0.4810  0.2734
   26TAL   C12527858   6.059   9.315  16.725 -0.2589  0.2042  0.2092
   26TAL   C12627859   6.062   9.160  16.723  0.6764  0.1182 -0.3220
   26TAL   C12727860   6.127   9.101  16.845 -0.7133  0.3268  0.5641
   26TAL   C12827861   6.059   9.095  16.981 -0.5614  0.6902  0.3614
   26TAL   C12927862   6.131   9.023  17.096  0.0878  0.0401  0.5198
   26TAL   C13027863   6.182   8.882  17.084  0.9892 -0.7817  0.1949
   27HTM   C13127864   6.101   9.590  16.839 -0.4096 -0.6353  0.5073
   27HTM   C13227865   6.128   9.649  16.959 -0.6558  0.0187  0.2522
   27HTM   C13327866   6.012   9.707  17.022 -0.7473  0.5568 -0.3934
   27HTM   C13427867   5.897   9.693  16.950 -0.5711  0.3130 -0.6307
   27HTM    S1427868   5.926   9.604  16.796 -0.2735 -0.6223 -0.0531
   28TAL   C13527869   6.010   9.776  17.155 -0.3383 -0.4406 -0.0075
   28TAL   C13627870   6.099   9.896  17.163  0.6667 -0.8985 -1.1604
   28TAL   C13727871   6.143   9.977  17.044  0.3935  0.1052 -0.1770
   28TAL   C13827872   6.250  10.078  17.066 -0.6473  0.2224  0.0314
   28TAL   C13927873   6.391  10.038  17.090 -0.5243 -0.4358  1.1987
   28TAL   C14027874   6.474  10.143  17.173 -0.5824 -0.3920 -1.2754
   29HTM   C14127875   5.759   9.728  16.963 -0.2496  0.2588 -0.5455
   29HTM   C14227876   5.707   9.847  17.006 -0.3361  0.2994 -0.7615
   29HTM   C14327877   5.563   9.854  16.993 -0.3872  0.0141 -0.4072
   29HTM   C14427878   5.507   9.742  16.940 -0.3395 -0.2440  0.0782
   29HTM    S1527879   5.631   9.617  16.903 -0.2257 -0.1459  0.1265
   30TAL   C14527880   5.487   9.970  17.062  0.7718  0.0318 -0.2967
   30TAL   C14627881   5.480  10.115  16.997 -1.0204  0.4333  0.0891
   30TAL   C14727882   5.621  10.169  16.973  0.0770 -1.4434 -0.6618
   30TAL   C14827883   5.609  10.300  16.900  0.0876  1.0348  0.6326
   30TAL   C14927884   5.739  10.335  16.835 -0.8444 -0.1785  0.1803
   30TAL   C15027885   5.740  10.476  16.767 -0.1872 -0.2854 -0.7249
   31HTM   C15127886   5.375   9.713  16.899  0.0326 -0.1407 -0.2271
   31HTM   C15227887   5.320   9.590  16.915 -0.0796 -0.1520 -0.6690
   31HTM   C15327888   5.179   9.585  16.887 -0.1163  0.1121 -0.5341
   31HTM   C15427889   5.126   9.705  16.849 -0.0322  0.3247  0.0116
   31HTM    S1627890   5.252   9.834  16.846  0.1010  0.2068  0.3999
   32TAL   C15527891   5.114   9.454  16.910  0.6843 -0.3126 -0.1663
   32TAL   C15627892   5.146   9.324  16.984 -0.7550 -0.1586  0.5553
   32TAL   C15727893   5.167   9.349  17.124  0.0073 -0.1496 -0.0252
   32TAL   C15827894   5.179   9.225  17.200 -0.2388 -0.0859  0.2555
   32TAL   C15927895   5.185   9.237  17.351  0.9881  0.2295 -0.6251
   32TAL   C16027896   5.208   9.085  17.391  0.7408 -0.8008  0.0513
   33HTM   C16127897   4.993   9.735  16.814  0.0957 -0.3421 -0.0602
   33HTM   C16227898   4.897   9.652  16.765  0.2073 -0.2234 -0.4935
   33HTM   C16327899   4.775   9.718  16.729  0.3852 -0.0975 -0.8740
   33HTM   C16427900   4.778   9.853  16.750  0.4093 -0.1202 -0.7294
   33HTM    S1727901   4.936   9.907  16.818  0.2075 -0.3038 -0.0977
   34TAL   C16527902   4.655   9.646  16.667  0.1612  0.4894  0.8327
   34TAL   C16627903   4.676   9.494  16.642 -0.1641  0.8553 -0.5153
   34TAL   C16727904   4.657   9.442  16.499  0.1918  0.2697  0.6108
   34TAL   C16827905   4.520   9.382  16.461 -0.6801 -0.4244 -0.2890
   34TAL   C16927906   4.487   9.260  16.539  0.4788  0.8965 -0.5529
   34TAL   C17027907   4.379   9.193  16.442  0.3568  0.3862 -1.0843
   35HTM   C17127908   4.687   9.964  16.750  0.1520  0.2794  0.4478
   35HTM   C17227909   4.710  10.095  16.724  0.2209  0.3896  1.0433
   35HTM   C17327910   4.591  10.176  16.718  0.2404  0.4244  1.1244
   35HTM   C17427911   4.476  10.105  16.740  0.1863  0.3408  0.5910
   35HTM    S1827912   4.510   9.931  16.769  0.1059  0.2104 -0.0610
   36TAL   C17527913   4.609  10.330  16.692 -0.5393  0.3714  0.0073
   36TAL   C17627914   4.723  10.416  16.752 -0.6922 -0.5452  0.1457
   36TAL   C17727915   4.715  10.572  16.715 -0.9448  0.1621  0.0610
   36TAL   C17827916   4.839  10.657  16.748 -0.4040  0.9586 -0.6339
   36TAL   C17927917   4.811  10.800  16.716 -0.9271 -0.3478 -0.0040
   36TAL   C18027918   4.845  10.862  16.577 -0.5029 -0.0767 -0.5720
   37HTM   C18127919   4.336  10.144  16.758  0.2466  0.0013 -0.2932
   37HTM   C18227920   4.246  10.107  16.854  0.1526  0.0745 -0.3519
   37HTM   C18327921   4.126  10.186  16.855  0.2466  0.2179 -0.3862
   37HTM   C18427922   4.124  10.284  16.759  0.4123  0.2541 -0.3547
   37HTM    S1927923   4.275  10.282  16.660  0.4628  0.1088 -0.2771
   38TAL   C18527924   4.016  10.155  16.956 -0.3555 -0.4524 -0.0174
   38TAL   C18627925   4.048  10.206  17.101 -0.3653  0.6575 -0.9187
   38TAL   C18727926   3.916  10.217  17.177 -0.3019 -0.1900 -0.9845
   38TAL   C18827927   3.907  10.301  17.310 -0.7765  0.6380  0.2474
   38TAL   C18927928   3.961  10.226  17.437  0.1604  0.3504  0.7761
   38TAL   C19027929   4.016  10.300  17.549 -0.0103  0.0508  0.3222
   39HTM   C19127930   4.025  10.371  16.706  0.0882 -0.1098  0.4553
   39HTM   C19227931   4.048  10.471  16.616  0.4644 -0.4159  0.2041
   39HTM   C19327932   3.929  10.543  16.579  0.6427 -0.4373 -0.4220
   39HTM   C19427933   3.816  10.499  16.640  0.4022 -0.1474 -0.6479
   39HTM    S2027934   3.851  10.361  16.751 -0.0716  0.1775 -0.0838
   40TAL   C19527935   3.911  10.659  16.484  0.3537 -0.7899 -0.1406
   40TAL   C19627936   4.024  10.717  16.402 -1.0448  0.0027 -0.1340
   40TAL   C19727937   4.045  10.655  16.259  0.1208 -0.5053  0.5182
   40TAL   C19827938   4.130  10.728  16.140  0.0894  0.4519  0.0354
   40TAL   C19927939   4.181  10.854  16.173  0.7412  0.8847 -0.5457
   40TAL   C20027940   4.258  10.938  16.072  0.5018  0.6250  0.3610
   41HTM   C20127941   3.686  10.559  16.640  0.1514 -0.3778  0.0742
   41HTM   C20227942   3.649  10.670  16.710  0.4092 -0.2324 -0.0186
   41HTM   C20327943   3.507  10.684  16.728  0.4577 -0.0610  0.2527
   41HTM   C20427944   3.435  10.583  16.671  0.2366 -0.0756  0.5522
   41HTM    S2127945   3.542  10.463  16.589 -0.0521 -0.3088  0.5150
   42TAL   C20527946   3.449  10.811  16.780 -0.2572 -1.3618 -0.0159
   42TAL   C20627947   3.503  10.874  16.907 -0.3839 -0.3278  0.0003
   42TAL   C20727948   3.521  10.809  17.044  0.4569  0.3820  0.4423
   42TAL   C20827949   3.561  10.893  17.160  0.1765  0.2545 -0.3095
   42TAL   C20927950   3.640  10.820  17.284  0.1474  0.3948 -0.2097
   42TAL   C21027951   3.743  10.911  17.366  0.8452 -0.5878  0.1453
   43HTM   C21127952   3.290  10.558  16.649 -0.8018 -0.2028 -0.0748
   43HTM   C21227953   3.204  10.489  16.729 -0.9046 -0.1971 -0.1812
   43HTM   C21327954   3.072  10.475  16.673 -0.7479 -0.4635 -0.4873
   43HTM   C21427955   3.058  10.533  16.550 -0.5254 -0.6724 -0.6146
   43HTM    S2227956   3.211  10.611  16.496 -0.4966 -0.5479 -0.3556
   44TAL   C21527957   2.957  10.416  16.749  0.5058  0.3367 -0.3012
   44TAL   C21627958   2.931  10.265  16.750 -0.0723 -0.1718 -1.3291
   44TAL   C21727959   2.790  10.236  16.700 -0.0146  0.6540 -0.2971
   44TAL   C21827960   2.736  10.108  16.765 -0.6620  0.6007 -0.0939
   44TAL   C21927961   2.599  10.065  16.769  0.9926  0.0985  0.5418
   44TAL   C22027962   2.500  10.133  16.858 -0.6986 -0.5701  0.0704
   45HTM   C22127963   2.946  10.572  16.469  0.2203  0.0345  0.2038
   45HTM   C22227964   2.843  10.487  16.440  0.3112  0.0650 -0.2217
   45HTM   C22327965   2.742  10.546  16.356  0.5262  0.1933 -0.3920
   45HTM   C22427966   2.768  10.675  16.320  0.5993  0.2606 -0.0966
   45HTM    S2327967   2.923  10.733  16.391  0.4006  0.1665  0.4249
   46TAL   C22527968   2.620  10.458  16.312  0.5752 -0.1694 -0.3572
   46TAL   C22627969   2.530  10.359  16.387 -0.5344  0.1983  0.4999
   46TAL   C22727970   2.459  10.411  16.509 -0.2339  0.6737 -0.0768
   46TAL   C22827971   2.390  10.542  16.502  0.2960 -0.8324  0.5937
   46TAL   C22927972   2.247  10.539  16.429 -0.4721 -0.7285  0.0865
   46TAL   C23027973   2.192  10.673  16.432  0.0600 -0.5278 -0.8346
   47HTM   C23127974   2.671  10.761  16.261 -0.0804  0.1695  0.0950
   47HTM   C23227975   2.616  10.879  16.301 -0.1006  0.2297 -0.1092
   47HTM   C23327976   2.538  10.944  16.199  0.2406  0.2521 -0.3595
   47HTM   C23427977   2.533  10.875  16.081  0.5208  0.2090 -0.3462
   47HTM    S2427978   2.628  10.722  16.090  0.3745  0.1361 -0.0143
   48TAL   C23527979   2.477  11.078  16.231  0.1945 -0.2255  1.0280
   48TAL   C23627980   2.353  11.072  16.314  0.2004  0.1403 -0.6177
   48TAL   C23727981   2.282  11.210  16.326 -0.2790 -0.5275  0.3693
   48TAL   C23827982   2.168  11.222  16.418  0.2513 -0.3198 -0.2443
   48TAL   C23927983   2.077  11.348  16.400  1.1305  0.8078  1.4591
   48TAL   C24027984   2.021  11.380  16.530  0.2037  0.1945 -0.1512
    1HTM     C127985   6.624   3.426  17.441  0.6474  0.5206  0.0618
    1HTM     C227986   6.592   3.295  17.419  1.0222  0.4476 -0.0601
    1HTM     C327987   6.482   3.277  17.328  0.9984  0.2214  0.0143
    1HTM     C427988   6.430   3.393  17.281  0.6053  0.1219  0.1930
    1HTM     S127989   6.517   3.537  17.348  0.2321  0.3075  0.2819
    2TAL     C527990   6.436   3.131  17.280 -1.1073 -0.9190 -1.5813
    2TAL     C627991   6.298   3.091  17.259  0.1983 -0.2270 -0.5496
    2TAL     C727992   6.197   3.094  17.380  0.8896  1.1381  1.2224
    2TAL     C827993   6.057   3.031  17.352 -0.3723  0.0125  0.8640
    2TAL     C927994   6.049   2.886  17.324  0.1079 -1.2193 -0.3950
    2TAL    C1027995   5.915   2.865  17.260 -0.3965 -0.2248  0.3728
    3HTM    C1127996   6.335   3.424  17.174 -0.3260  0.9672 -0.0066
    3HTM    C1227997   6.215   3.483  17.204 -0.5167  0.7166 -0.2637
    3HTM    C1327998   6.130   3.500  17.090 -0.5306  0.0490 -0.3614
    3HTM    C1427999   6.183   3.454  16.973 -0.3505 -0.2096 -0.1776
    3HTM     S228000   6.348   3.385  16.999 -0.1480  0.3748  0.1341
    4TAL    C1528001   5.994   3.569  17.108  0.6288 -0.0511  0.0388
    4TAL    C1628002   5.886   3.486  17.168  0.0204 -1.0145 -0.8089
    4TAL    C1728003   5.749   3.560  17.171  0.1547  0.4929  0.5991
    4TAL    C1828004   5.627   3.490  17.237  0.2371 -0.5053 -0.9045
    4TAL    C1928005   5.577   3.369  17.163 -0.4953  0.2793 -0.4190
    4TAL    C2028006   5.452   3.287  17.217 -0.1540  0.9101  0.4592
    5HTM    C2128007   6.130   3.449  16.845  0.2906 -0.2049 -0.5903
    5HTM    C2228008   6.168   3.357  16.753 -0.6973 -0.5623 -0.6609
    5HTM    C2328009   6.078   3.346  16.641 -1.6208 -0.6176  0.0687
    5HTM    C2428010   5.971   3.430  16.649 -1.3373 -0.3022  0.6957
    5HTM     S328011   5.976   3.531  16.799  0.1296  0.0921  0.4112
    6TAL    C2528012   6.105   3.263  16.530 -0.6723 -0.2680  0.7048
    6TAL    C2628013   6.101   3.119  16.549 -0.6044  0.4391 -0.6365
    6TAL    C2728014   6.103   3.047  16.424  0.2031  0.0129  0.1239
    6TAL    C2828015   5.982   3.031  16.336 -0.3536 -0.0844  1.0280
    6TAL    C2928016   5.848   2.998  16.404 -0.0033 -1.0390 -0.6747
    6TAL    C3028017   5.755   2.989  16.286 -0.5589  1.1965 -0.2139
    7HTM    C3128018   5.873   3.481  16.553 -0.1837 -1.0179  0.0214
    7HTM    C3228019   5.790   3.587  16.568 -0.2354 -1.1289  0.5279
    7HTM    C3328020   5.697   3.605  16.459 -0.1614 -0.5822  0.5498
    7HTM    C3428021   5.711   3.512  16.360 -0.0533 -0.0544  0.0595
    7HTM     S428022   5.842   3.394  16.397 -0.0362 -0.2082 -0.4720
    8TAL    C3528023   5.619   3.738  16.443 -0.2875  0.6717  0.6726
    8TAL    C3628024   5.670   3.873  16.515  0.0665  0.2835 -0.2968
    8TAL    C3728025   5.613   3.998  16.442 -0.0500  0.5534 -0.0540
    8TAL    C3828026   5.677   4.031  16.310  0.4199  0.4015  0.0409
    8TAL    C3928027   5.624   4.157  16.237  0.5139  0.0058 -0.6760
    8TAL    C4028028   5.712   4.195  16.124  0.5485 -0.3575  0.4425
    9HTM    C4128029   5.646   3.478  16.236 -0.1875 -0.0449  0.2184
    9HTM    C4228030   5.513   3.499  16.212 -0.2178 -0.2630  0.1907
    9HTM    C4328031   5.462   3.423  16.101 -0.0285 -0.2182  0.0710
    9HTM    C4428032   5.555   3.344  16.040  0.1460  0.0343  0.0082
    9HTM     S528033   5.716   3.360  16.120  0.0848  0.2364  0.0950
   10TAL    C4528034   5.311   3.443  16.071  0.0947  0.3975 -0.0950
   10TAL    C4628035   5.208   3.421  16.187 -0.1370 -0.4051  0.0973
   10TAL    C4728036   5.204   3.278  16.231 -0.1697  0.6763 -1.3665
   10TAL    C4828037   5.158   3.157  16.142 -0.5799 -1.0422  0.0486
   10TAL    C4928038   5.037   3.197  16.065  0.0893  1.3654  0.5255
   10TAL    C5028039   4.971   3.088  15.979 -0.0514 -0.1491  0.8428
   11HTM    C5128040   5.538   3.241  15.941  0.0188  0.0872  0.4903
   11HTM    C5228041   5.435   3.227  15.853 -0.0684 -0.0684  0.6173
   11HTM    C5328042   5.462   3.134  15.746 -0.0886 -0.0843  0.6256
   11HTM    C5428043   5.586   3.078  15.753 -0.0166  0.0592  0.5051
   11HTM     S628044   5.679   3.138  15.895  0.0825  0.2269  0.3705
   12TAL    C5528045   5.361   3.100  15.639 -0.1650 -0.2979  0.1145
   12TAL    C5628046   5.216   3.111  15.662  0.0589 -0.5275 -0.7527
   12TAL    C5728047   5.124   3.077  15.544  0.1630 -0.8672 -0.4522
   12TAL    C5828048   4.996   3.142  15.610 -0.2649 -0.2638  0.7683
   12TAL    C5928049   4.877   3.145  15.522 -0.2319  0.7491  0.1753
   12TAL    C6028050   4.743   3.188  15.593  0.1138  0.2293  0.3726
   13HTM    C6128051   5.643   2.977  15.664 -0.4838 -0.1121 -0.9694
   13HTM    C6228052   5.664   2.993  15.530 -0.4716 -0.5010 -1.0152
   13HTM    C6328053   5.726   2.879  15.467 -0.2334 -0.5874 -0.6304
   13HTM    C6428054   5.752   2.776  15.553 -0.0641 -0.2641 -0.2902
   13HTM     S728055   5.700   2.816  15.722 -0.1931  0.1777 -0.4320
   14TAL    C6528056   5.766   2.890  15.322 -0.6716  0.7683  0.5582
   14TAL    C6628057   5.890   2.970  15.279 -0.6188 -0.1246 -0.6465
   14TAL    C6728058   5.964   3.055  15.385  0.0198 -0.2560 -0.5624
   14TAL    C6828059   6.095   3.118  15.337  0.1668  0.1110  0.1002
   14TAL    C6928060   6.088   3.195  15.211  0.5835  0.3373 -0.8822
   14TAL    C7028061   6.224   3.253  15.195 -0.2520 -0.0697 -0.0500
   15HTM    C7128062   5.800   2.644  15.525 -0.5580 -0.3524 -0.3409
   15HTM    C7228063   5.739   2.531  15.571 -1.0573 -0.2921 -0.8326
   15HTM    C7328064   5.788   2.410  15.511 -0.9927 -0.3101 -0.7439
   15HTM    C7428065   5.887   2.430  15.419 -0.4444 -0.3841 -0.1845
   15HTM     S828066   5.926   2.605  15.401  0.0369 -0.4374  0.2770
   16TAL    C7528067   5.750   2.280  15.576  0.3178  0.3259 -0.0861
   16TAL    C7628068   5.649   2.208  15.491  0.1350  0.7493  0.4618
   16TAL    C7728069   5.631   2.052  15.498  0.7762  0.9792  0.3864
   16TAL    C7828070   5.725   1.966  15.589 -0.8542  0.3134  0.6555
   16TAL    C7928071   5.705   1.823  15.560 -0.5973  0.4520 -0.0594
   16TAL    C8028072   5.762   1.768  15.418  0.6636  0.1990  0.7805
   17HTM    C8128073   5.982   2.347  15.341 -0.2823 -0.1963 -0.1312
   17HTM    C8228074   5.982   2.339  15.205 -0.3493 -0.2697 -0.1271
   17HTM    C8328075   6.049   2.223  15.153 -0.1045 -0.1388 -0.1049
   17HTM    C8428076   6.101   2.142  15.250  0.1491  0.0344 -0.0918
   17HTM     S928077   6.067   2.206  15.415  0.0980  0.0457 -0.1066
   18TAL    C8528078   6.034   2.178  15.012 -0.6070  1.0900  0.0384
   18TAL    C8628079   5.921   2.243  14.938  1.3481 -0.2558 -0.2702
   18TAL    C8728080   5.780   2.170  14.944 -0.6869 -0.3139 -0.4375
   18TAL    C8828081   5.653   2.254  14.913  0.0167 -0.0649 -0.6992
   18TAL    C8928082   5.621   2.333  15.035  0.8103 -0.9862  0.8879
   18TAL    C9028083   5.543   2.257  15.136  0.9015  0.3160 -0.5766
   19HTM    C9128084   6.175   2.015  15.252 -0.3454 -0.5814 -0.5324
   19HTM    C9228085   6.174   1.922  15.351 -0.5370 -0.6317 -0.5794
   19HTM    C9328086   6.241   1.799  15.316 -0.2894 -0.5377 -0.4430
   19HTM    C9428087   6.292   1.799  15.189  0.0910 -0.4155 -0.2918
   19HTM    S1028088   6.260   1.955  15.104  0.1666 -0.4098 -0.3103
   20TAL    C9528089   6.237   1.685  15.423 -0.7787  0.4077  0.4671
   20TAL    C9628090   6.314   1.709  15.556  0.1032  0.3401  1.0463
   20TAL    C9728091   6.308   1.586  15.641 -0.3350  0.0051 -0.2785
   20TAL    C9828092   6.381   1.634  15.765 -0.2323 -0.1723 -0.6798
   20TAL    C9928093   6.429   1.511  15.849  0.5631 -0.5641 -0.3731
   20TAL   C10028094   6.531   1.556  15.951  0.2899 -0.1557 -0.2746
   21HTM   C10128095   6.361   1.684  15.125  0.3438  0.1477  0.1605
   21HTM   C10228096   6.351   1.657  14.992  0.4021  0.3659  0.1109
   21HTM   C10328097   6.419   1.536  14.952  0.3700  0.3997 -0.0463
   21HTM   C10428098   6.481   1.471  15.055  0.2869  0.2072 -0.1170
   21HTM    S1128099   6.458   1.558  15.211  0.2427 -0.0335  0.0109
   22TAL   C10528100   6.414   1.496  14.798  0.0266  0.3775 -0.2085
   22TAL   C10628101   6.284   1.437  14.736  0.1399  0.7790  0.2169
   22TAL   C10728102   6.304   1.363  14.599 -0.2255 -0.4881  0.0504
   22TAL   C10828103   6.235   1.222  14.575  0.3125 -0.5779 -0.7896
   22TAL   C10928104   6.230   1.169  14.434  0.6599  0.2292 -0.4891
   22TAL   C11028105   6.163   1.256  14.322  1.5018  0.1634  0.3196
   23HTM   C11128106   6.551   1.347  15.059 -0.4452  0.0143  0.2423
   23HTM   C11228107   6.667   1.312  15.121 -0.8796 -0.0848  1.0328
   23HTM   C11328108   6.695   1.171  15.114 -0.8379 -0.0753  1.0056
   23HTM   C11428109   6.600   1.099  15.048 -0.3715  0.0310  0.1947
   23HTM    S1228110   6.467   1.204  14.988  0.0544  0.1282 -0.6035
   24TAL   C11528111   6.827   1.128  15.168  0.3178 -0.0232 -0.4340
   24TAL   C11628112   6.871   1.139  15.312 -0.0982  0.3132  0.6968
   24TAL   C11728113   7.010   1.074  15.323 -0.7572 -0.3241  0.5553
   24TAL   C11828114   7.066   1.072  15.467 -0.8254 -0.7392  0.5303
   24TAL   C11928115   7.196   0.983  15.492  0.1456 -0.0965 -1.2432
   24TAL   C12028116   7.233   1.006  15.638  0.3561  0.2564 -0.6088
   25HTM   C12128117   6.593   0.957  15.011  0.0547 -0.6067 -0.1266
   25HTM   C12228118   6.483   0.876  15.013  0.3215 -0.9652  0.1101
   25HTM   C12328119   6.512   0.739  14.979  0.7095 -0.8910  0.1328
   25HTM   C12428120   6.644   0.716  14.951  0.7387 -0.4760 -0.0873
   25HTM    S1328121   6.742   0.866  14.965  0.2747 -0.1441 -0.3421
   26TAL   C12528122   6.390   0.641  14.970  0.1581 -0.5858 -0.7401
   26TAL   C12628123   6.287   0.686  14.876 -0.1568 -0.4917  0.3568
   26TAL   C12728124   6.343   0.725  14.733 -0.3476 -0.6287  0.0113
   26TAL   C12828125   6.261   0.799  14.627 -0.1596 -0.4874 -0.1097
   26TAL   C12928126   6.129   0.738  14.595 -0.3340 -0.4602  0.2418
   26TAL   C13028127   6.017   0.831  14.595 -0.1350 -0.5477  0.6385
   27HTM   C13128128   6.705   0.600  14.889 -0.9510  0.1337 -0.0546
   27HTM   C13228129   6.799   0.610  14.790 -0.8441  0.3988  0.0718
   27HTM   C13328130   6.840   0.483  14.737  0.0696  0.4709  0.5763
   27HTM   C13428131   6.778   0.376  14.795  0.6596  0.2607  0.8344
   27HTM    S1428132   6.662   0.428  14.922  0.1021 -0.0470  0.4574
   28TAL   C13528133   6.936   0.463  14.615 -0.2253 -0.4768 -0.2945
   28TAL   C13628134   6.870   0.490  14.484 -0.0375 -0.5971 -0.4172
   28TAL   C13728135   6.785   0.609  14.458  0.2839 -0.5435 -0.2718
   28TAL   C13828136   6.700   0.614  14.329  0.1331 -0.0556 -0.5191
   28TAL   C13928137   6.768   0.648  14.198  0.2137  0.8561 -0.1889
   28TAL   C14028138   6.856   0.773  14.200 -0.2755 -0.6932  0.4231
   29HTM   C14128139   6.780   0.237  14.749  0.0744 -0.0306  0.1784
   29HTM   C14228140   6.882   0.148  14.738  0.0197 -0.1433  0.5591
   29HTM   C14328141   6.839   0.011  14.722 -0.0684 -0.1157  0.5596
   29HTM   C14428142   6.704  -0.004  14.720 -0.0810  0.0182  0.1787
   29HTM    S1528143   6.619   0.155  14.739  0.0184  0.1204 -0.2125
   30TAL   C14528144   6.938  -0.101  14.698  0.6934 -0.1865 -0.9819
   30TAL   C14628145   6.957  -0.205  14.814  0.5788 -0.1986 -0.3848
   30TAL   C14728146   7.038  -0.322  14.772 -0.7478 -0.5171 -1.0304
   30TAL   C14828147   7.037  -0.440  14.878 -1.0946 -0.6080  0.1762
   30TAL   C14928148   7.165  -0.522  14.870  0.2198  0.2066  1.1687
   30TAL   C15028149   7.175  -0.630  14.977  0.1873  0.7305 -0.0743
   31HTM   C15128150   6.631  -0.124  14.694  0.0463  0.5407  0.1709
   31HTM   C15228151   6.667  -0.243  14.638  0.3417  0.6337  0.1571
   31HTM   C15328152   6.559  -0.337  14.629  0.5169  0.4517 -0.0730
   31HTM   C15428153   6.441  -0.291  14.679  0.3550  0.2195 -0.2340
   31HTM    S1628154   6.457  -0.122  14.741 -0.0342  0.2129 -0.1069
   32TAL   C15528155   6.586  -0.463  14.541  0.5390  0.7894 -1.0781
   32TAL   C15628156   6.532  -0.476  14.396  0.5080  0.0638 -0.2765
   32TAL   C15728157   6.389  -0.502  14.381 -0.2879 -0.9054  0.0167
   32TAL   C15828158   6.358  -0.504  14.235  0.0317 -0.6971  0.5677
   32TAL   C15928159   6.367  -0.635  14.153 -1.1695  0.0858 -0.2688
   32TAL   C16028160   6.248  -0.669  14.083  0.5042 -1.2160  1.0327
   33HTM   C16128161   6.302  -0.342  14.671  0.4469 -0.2835 -0.6579
   33HTM   C16228162   6.234  -0.434  14.745  0.5296 -0.1106 -0.3626
   33HTM   C16328163   6.101  -0.460  14.698  0.2306  0.2743  0.2520
   33HTM   C16428164   6.066  -0.387  14.588 -0.0802  0.3947  0.4261
   33HTM    S1728165   6.201  -0.279  14.535 -0.0187  0.0288 -0.1780
   34TAL   C16528166   6.026  -0.564  14.778 -0.4046 -0.3740  0.0596
   34TAL   C16628167   6.088  -0.706  14.800  0.8027  0.3303 -0.1527
   34TAL   C16728168   6.219  -0.728  14.882  1.0325  0.9800 -0.2038
   34TAL   C16828169   6.284  -0.867  14.859 -0.6283 -0.2974  0.7773
   34TAL   C16928170   6.217  -0.992  14.897  0.3521 -0.3126 -0.4142
   34TAL   C17028171   6.227  -1.033  15.042  0.3071 -0.0370  0.7741
   35HTM   C17128172   5.949  -0.389  14.499  0.4303  0.6561  0.9215
   35HTM   C17228173   5.927  -0.469  14.391  0.9811  0.1918  1.1485
   35HTM   C17328174   5.800  -0.448  14.327  1.0244 -0.5373  0.7982
   35HTM   C17428175   5.724  -0.351  14.386  0.5068 -0.6289  0.3044
   35HTM    S1828176   5.809  -0.279  14.528 -0.0800  0.2051  0.2423
   36TAL   C17528177   5.748  -0.533  14.210  0.2671  0.4377  0.2099
   36TAL   C17628178   5.835  -0.624  14.130 -0.7294  0.2052 -0.1287
   36TAL   C17728179   5.758  -0.710  14.032  0.1736  0.1386  0.2142
   36TAL   C17828180   5.831  -0.849  14.020  0.8973 -0.0983 -0.3545
   36TAL   C17928181   5.977  -0.858  13.976 -0.1198 -1.1079  0.2521
   36TAL   C18028182   6.052  -0.988  13.973  1.1147  0.3903  0.4470
   37HTM   C18128183   5.583  -0.313  14.364  0.3354  0.8825 -0.4612
   37HTM   C18228184   5.497  -0.321  14.258  0.3096  1.1173 -0.4582
   37HTM   C18328185   5.360  -0.292  14.292  0.2408  0.5864 -0.2615
   37HTM   C18428186   5.341  -0.262  14.423  0.2142 -0.0533 -0.1142
   37HTM    S1928187   5.496  -0.268  14.516  0.2743 -0.0347 -0.2134
   38TAL   C18528188   5.247  -0.301  14.188 -1.2548  0.3887 -0.4814
   38TAL   C18628189   5.173  -0.178  14.135  0.8226 -0.3388 -0.7953
   38TAL   C18728190   5.058  -0.217  14.040 -0.0457 -0.4629  0.2125
   38TAL   C18828191   4.968  -0.103  13.988 -1.8657  0.7928  0.6689
   38TAL   C18928192   4.845  -0.138  13.903  0.1064 -0.3030 -0.0359
   38TAL   C19028193   4.752  -0.017  13.889 -0.6875 -0.2930 -0.3656
   39HTM   C19128194   5.218  -0.235  14.500  0.4802 -0.1951  0.6680
   39HTM   C19228195   5.184  -0.127  14.575  0.6679 -0.5380  1.2658
   39HTM   C19328196   5.051  -0.135  14.630  0.4891 -0.4302  0.8621
   39HTM   C19428197   4.985  -0.249  14.598  0.1649 -0.0051 -0.0434
   39HTM    S2028198   5.085  -0.357  14.494  0.0594  0.2946 -0.4599
   40TAL   C19528199   4.996  -0.012  14.701 -0.6286 -0.0491  0.5562
   40TAL   C19628200   5.010   0.129  14.627  1.0526 -0.4443 -0.0810
   40TAL   C19728201   4.940   0.142  14.485 -0.5560  0.3148 -0.4440
   40TAL   C19828202   4.794   0.128  14.477  0.6162 -0.6200 -0.1919
   40TAL   C19928203   4.746   0.171  14.336  0.8834 -0.0475 -0.6121
   40TAL   C20028204   4.601   0.137  14.332 -0.1072 -0.5742 -0.5849
   41HTM   C20128205   4.843  -0.297  14.622 -0.0838 -0.3229  0.1783
   41HTM   C20228206   4.761  -0.369  14.539 -0.0178 -1.0521  0.7298
   41HTM   C20328207   4.624  -0.374  14.583  0.0122 -0.9494  0.8352
   41HTM   C20428208   4.601  -0.305  14.699 -0.0311 -0.1419  0.3642
   41HTM    S2128209   4.752  -0.229  14.762 -0.1136  0.5566 -0.2536
   42TAL   C20528210   4.513  -0.459  14.523  0.6636  0.7440  0.5354
   42TAL   C20628211   4.476  -0.397  14.390 -0.2219 -0.0345 -0.1558
   42TAL   C20728212   4.347  -0.472  14.350 -0.0294 -0.4668  0.9935
   42TAL   C20828213   4.347  -0.490  14.193  1.3092 -0.4048 -0.4168
   42TAL   C20928214   4.357  -0.371  14.108  0.1651 -0.4508  0.1259
   42TAL   C21028215   4.384  -0.413  13.960  1.0812 -0.2214 -1.7147
   43HTM   C21128216   4.485  -0.288  14.783  0.1552  0.2864 -0.5163
   43HTM   C21228217   4.481  -0.280  14.919  0.4792 -0.0201 -0.4838
   43HTM   C21328218   4.347  -0.275  14.973  0.6062 -0.0967 -0.1562
   43HTM   C21428219   4.250  -0.279  14.878  0.3792  0.1513  0.0607
   43HTM    S2228220   4.319  -0.291  14.712 -0.0155  0.5038 -0.1326
   44TAL   C21528221   4.335  -0.284  15.123 -0.6035 -0.0094 -0.1131
   44TAL   C21628222   4.391  -0.163  15.207  0.1040  0.1660 -0.2106
   44TAL   C21728223   4.402  -0.206  15.351  1.5904  0.4514 -0.4479
   44TAL   C21828224   4.484  -0.127  15.441 -0.0656 -0.3695  1.4470
   44TAL   C21928225   4.489  -0.172  15.585  0.1401 -0.4256 -0.2066
   44TAL   C22028226   4.576  -0.077  15.667  0.1596 -0.5897  0.1504
   45HTM   C22128227   4.106  -0.284  14.892 -0.1167  0.5364  0.2391
   45HTM   C22228228   4.033  -0.253  15.002 -0.3632  0.3841  0.1202
   45HTM   C22328229   3.891  -0.249  14.979 -0.3425  0.0002 -0.0918
   45HTM   C22428230   3.856  -0.276  14.850 -0.0802 -0.1403 -0.1339
   45HTM    S2328231   4.001  -0.310  14.748  0.1632  0.2040  0.0919
   46TAL   C22528232   3.809  -0.234  15.105 -0.7911 -0.7372 -0.0273
   46TAL   C22628233   3.662  -0.258  15.109 -0.5417  0.0173  0.7473
   46TAL   C22728234   3.586  -0.215  15.235  0.4753  0.3427  0.2498
   46TAL   C22828235   3.560  -0.068  15.243 -1.0161  0.0761 -0.3023
   46TAL   C22928236   3.473  -0.031  15.362  0.5831 -1.0070 -0.3406
   46TAL   C23028237   3.415   0.115  15.349  0.2035  0.4181  0.3690
   47HTM   C23128238   3.724  -0.301  14.794  0.0088  0.3013 -0.0201
   47HTM   C23228239   3.627  -0.215  14.752 -0.2354  0.1255  0.1783
   47HTM   C23328240   3.510  -0.281  14.699 -0.1249 -0.0848  0.1926
   47HTM   C23428241   3.518  -0.417  14.701  0.2038 -0.0693  0.0056
   47HTM    S2428242   3.675  -0.473  14.770  0.4006  0.2144 -0.2052
   48TAL   C23528243   3.388  -0.193  14.660  0.7090 -0.2245  0.1469
   48TAL   C23628244   3.248  -0.256  14.636 -0.3778 -0.7346 -0.2827
   48TAL   C23728245   3.198  -0.325  14.753 -0.2983 -0.1034 -0.1426
   48TAL   C23828246   3.077  -0.414  14.746  0.9037 -0.6570 -0.1452
   48TAL   C23928247   2.961  -0.354  14.659  0.8167  0.0369 -0.3368
   48TAL   C24028248   2.844  -0.446  14.670 -0.2511 -0.6089  0.5790
    1HTM     C128249   5.514   2.673  16.524 -0.0059 -0.3103  0.0553
    1HTM     C228250   5.487   2.806  16.541 -0.0420 -0.3494  0.3195
    1HTM     C328251   5.362   2.847  16.482 -0.1470 -0.3047  0.5708
    1HTM     C428252   5.294   2.746  16.420 -0.1910 -0.2314  0.4985
    1HTM     S128253   5.383   2.590  16.432 -0.1023 -0.2131  0.1043
    2TAL     C528254   5.330   3.000  16.468 -0.7207  0.4274  0.0288
    2TAL     C628255   5.303   3.088  16.586  1.0892  0.1308 -0.4734
    2TAL     C728256   5.394   3.215  16.577 -0.4787  0.2952 -0.3785
    2TAL     C828257   5.347   3.340  16.657  0.3740 -0.6051  1.2147
    2TAL     C928258   5.314   3.329  16.803 -0.2069 -0.4274  0.1393
    2TAL    C1028259   5.255   3.452  16.864  0.2157  0.3516 -0.1713
    3HTM    C1128260   5.164   2.761  16.347 -0.1311 -0.2241 -0.3738
    3HTM    C1228261   5.135   2.725  16.219 -0.3765 -0.6021 -0.2155
    3HTM    C1328262   4.999   2.752  16.180 -0.4051 -0.5633 -0.0896
    3HTM    C1428263   4.924   2.809  16.278 -0.1816 -0.1557 -0.1512
    3HTM     S228264   5.020   2.833  16.429  0.0846  0.2137 -0.3760
    4TAL    C1528265   4.944   2.721  16.045  0.5508 -0.3576 -0.0566
    4TAL    C1628266   5.039   2.695  15.926  0.7828 -0.6795 -1.0139
    4TAL    C1728267   5.001   2.578  15.845  0.3201  0.4717  0.5138
    4TAL    C1828268   4.860   2.568  15.784  0.6566  0.0650  0.0798
    4TAL    C1928269   4.806   2.694  15.717 -0.3642 -0.9333  0.7892
    4TAL    C2028270   4.707   2.772  15.792  0.6386 -0.5535 -0.8103
    5HTM    C2128271   4.792   2.846  16.276  0.1799 -0.3061  0.3195
    5HTM    C2228272   4.752   2.977  16.271  0.3601 -0.2475  0.4067
    5HTM    C2328273   4.613   2.994  16.240  0.4009 -0.0314  0.3381
    5HTM    C2428274   4.546   2.877  16.222  0.2518  0.0747  0.1984
    5HTM     S328275   4.655   2.734  16.242  0.0467 -0.0912  0.1418
    6TAL    C2528276   4.545   3.137  16.251  0.8109  0.1521 -0.3574
    6TAL    C2628277   4.596   3.244  16.155  0.7048 -0.1347 -0.6416
    6TAL    C2728278   4.594   3.391  16.178  0.2815  0.1514  0.0639
    6TAL    C2828279   4.675   3.484  16.083  0.6351  0.5877 -0.2097
    6TAL    C2928280   4.823   3.504  16.113 -0.5375  0.3835  0.1009
    6TAL    C3028281   4.889   3.603  16.024 -0.3764  0.6626 -0.3159
    7HTM    C3128282   4.409   2.858  16.173 -0.2076 -0.0751  0.2965
    7HTM    C3228283   4.363   2.804  16.057 -0.2015 -0.1892  0.3467
    7HTM    C3328284   4.219   2.806  16.045 -0.1951 -0.0926  0.2847
    7HTM    C3428285   4.156   2.862  16.153 -0.1963  0.0951  0.1868
    7HTM     S428286   4.274   2.916  16.278 -0.2058  0.1649  0.1657
    8TAL    C3528287   4.160   2.739  15.925  0.4708  0.6783  1.4531
    8TAL    C3628288   4.040   2.805  15.849 -1.7317 -0.5847 -0.3619
    8TAL    C3728289   3.974   2.694  15.768  0.1998  0.8121  0.3798
    8TAL    C3828290   3.900   2.749  15.644  0.6802  0.1290  0.4073
    8TAL    C3928291   3.803   2.863  15.652 -0.4119 -0.1181 -0.0996
    8TAL    C4028292   3.753   2.897  15.511 -0.6412 -0.1750 -0.1417
    9HTM    C4128293   4.016   2.862  16.195 -0.2348  0.1885  0.1327
    9HTM    C4228294   3.955   2.803  16.302 -0.4253  0.2318  0.0496
    9HTM    C4328295   3.816   2.839  16.317 -0.4136  0.3535 -0.1264
    9HTM    C4428296   3.771   2.925  16.221 -0.2141  0.4029 -0.1768
    9HTM     S528297   3.901   2.968  16.104 -0.0242  0.2988 -0.0060
   10TAL    C4528298   3.733   2.780  16.419 -0.2785 -0.3534 -1.0242
   10TAL    C4628299   3.787   2.675  16.524 -0.1222  1.2480 -1.0453
   10TAL    C4728300   3.681   2.560  16.569 -1.1950 -0.7161 -0.3799
   10TAL    C4828301   3.742   2.440  16.641 -0.0878 -0.1748 -0.2412
   10TAL    C4928302   3.820   2.445  16.777 -0.0299 -0.4106  1.0412
   10TAL    C5028303   3.726   2.492  16.886 -0.6715  0.7513 -0.6544
   11HTM    C5128304   3.646   2.987  16.210  0.3497 -0.8141 -0.4298
   11HTM    C5228305   3.640   3.122  16.228  1.3347 -0.7526 -0.4668
   11HTM    C5328306   3.507   3.175  16.228  1.6913  0.1923 -0.1993
   11HTM    C5428307   3.410   3.080  16.211  0.9781  0.8513  0.0413
   11HTM     S628308   3.482   2.915  16.192 -0.2083  0.3256 -0.0513
   12TAL    C5528309   3.477   3.324  16.235 -0.2505  0.0310  0.1481
   12TAL    C5628310   3.590   3.400  16.301 -0.0260  1.0418  0.3791
   12TAL    C5728311   3.631   3.518  16.212 -0.1613 -0.0815 -0.2812
   12TAL    C5828312   3.732   3.619  16.272  0.8487 -0.8518  0.0200
   12TAL    C5928313   3.772   3.732  16.196 -0.2522  0.6150 -0.9995
   12TAL    C6028314   3.833   3.837  16.280  0.0440  0.6125 -0.0487
   13HTM    C6128315   3.263   3.088  16.179 -0.7331  0.3878 -0.1277
   13HTM    C6228316   3.198   3.185  16.108 -1.2677  0.5605  0.5760
   13HTM    C6328317   3.067   3.146  16.064 -1.1724  0.2638  0.5474
   13HTM    C6428318   3.031   3.020  16.101 -0.5652 -0.1351 -0.1776
   13HTM     S728319   3.162   2.939  16.195 -0.0628 -0.1672 -0.8871
   14TAL    C6528320   2.990   3.244  15.977  0.1556  0.7398  0.0347
   14TAL    C6628321   3.057   3.284  15.835  0.3436 -0.4953 -1.0168
   14TAL    C6728322   2.991   3.401  15.782  1.0332  0.5244  0.0115
   14TAL    C6828323   3.041   3.446  15.654 -0.6338  0.1081 -0.1944
   14TAL    C6928324   2.990   3.576  15.588  1.5738 -0.1802 -0.4508
   14TAL    C7028325   3.061   3.643  15.477 -0.7989 -0.4369 -0.2916
   15HTM    C7128326   2.913   2.929  16.078  0.0911 -0.1118  0.2516
   15HTM    C7228327   2.908   2.794  16.091 -0.2775 -0.0370  1.0157
   15HTM    C7328328   2.779   2.737  16.064 -0.3739  0.1404  1.1029
   15HTM    C7428329   2.684   2.829  16.030 -0.0787  0.2011  0.4051
   15HTM     S828330   2.752   2.996  16.030  0.3470  0.0373 -0.4237
   16TAL    C7528331   2.771   2.582  16.060  0.4069  0.5501  0.7535
   16TAL    C7628332   2.749   2.504  16.188  0.3002  0.2966 -0.3872
   16TAL    C7728333   2.729   2.358  16.180  0.3490  0.0120  0.0144
   16TAL    C7828334   2.859   2.287  16.205  0.6284  1.9735 -0.8029
   16TAL    C7928335   2.832   2.128  16.214  0.2589  0.8431 -0.0318
   16TAL    C8028336   2.972   2.061  16.222  0.8625  0.1341 -0.4838
   17HTM    C8128337   2.541   2.819  16.008 -0.0739  0.3002 -0.7811
   17HTM    C8228338   2.457   2.877  15.918 -0.4429 -0.2805 -0.8216
   17HTM    C8328339   2.318   2.847  15.940 -0.3256 -0.4515 -0.2885
   17HTM    C8428340   2.296   2.766  16.047  0.1329 -0.0012  0.1587
   17HTM     S928341   2.451   2.721  16.129  0.4546  0.6790 -0.0605
   18TAL    C8528342   2.223   2.907  15.838  0.0017 -0.3448 -0.0199
   18TAL    C8628343   2.217   3.060  15.814  0.7038 -1.4177 -0.1403
   18TAL    C8728344   2.167   3.137  15.945 -0.8886  0.3764  0.8513
   18TAL    C8828345   2.169   3.281  15.910  0.6330 -0.0224 -0.4122
   18TAL    C8928346   2.106   3.381  16.011 -0.8537  0.1908 -0.7271
   18TAL    C9028347   2.118   3.517  15.963  0.6602 -0.2287 -0.0524
   19HTM    C9128348   2.169   2.708  16.093 -0.0628  0.6052  0.1784
   19HTM    C9228349   2.150   2.597  16.170 -0.0346  0.8969  0.6132
   19HTM    C9328350   2.012   2.565  16.192 -0.0265  0.8364  0.5760
   19HTM    C9428351   1.925   2.651  16.132 -0.0484  0.4983  0.1127
   19HTM    S1028352   2.012   2.781  16.042 -0.0814  0.2282 -0.3161
   20TAL    C9528353   1.969   2.434  16.266  0.7073 -1.2662 -0.2240
   20TAL    C9628354   2.025   2.402  16.409 -0.1765 -0.0927 -0.2877
   20TAL    C9728355   2.026   2.508  16.518  0.3075 -0.3992  0.2791
   20TAL    C9828356   2.058   2.438  16.655 -0.2993  0.0334  0.4005
   20TAL    C9928357   2.112   2.537  16.759 -1.2876  0.4173  0.0362
   20TAL   C10028358   2.006   2.595  16.844 -0.1812  0.5349  0.0730
   21HTM   C10128359   1.793   2.657  16.132  0.4932  0.7913 -0.7826
   21HTM   C10228360   1.711   2.550  16.154  0.7906  0.5425 -0.8712
   21HTM   C10328361   1.571   2.583  16.151  0.7043  0.2401 -0.4029
   21HTM   C10428362   1.546   2.714  16.126  0.3411  0.2585  0.0420
   21HTM    S1128363   1.698   2.808  16.106  0.0779  0.6620 -0.0962
   22TAL   C10528364   1.458   2.485  16.197  0.3108  1.1075 -0.1096
   22TAL   C10628365   1.398   2.471  16.340 -0.0751 -0.6171 -0.1682
   22TAL   C10728366   1.266   2.554  16.349 -0.0968  0.2509  0.1357
   22TAL   C10828367   1.197   2.543  16.483  0.5444 -0.1413  0.8096
   22TAL   C10928368   1.081   2.649  16.473  1.0170  0.5631  0.6537
   22TAL   C11028369   0.955   2.575  16.441 -0.1763 -0.0795 -0.1073
   23HTM   C11128370   1.415   2.792  16.109  0.1232  0.1552  0.2343
   23HTM   C11228371   1.307   2.749  16.037  0.4380  0.4734 -0.4463
   23HTM   C11328372   1.194   2.838  16.045  0.4241  0.4719 -0.6142
   23HTM   C11428373   1.215   2.947  16.123  0.0986  0.1526 -0.0622
   23HTM    S1228374   1.382   2.948  16.193 -0.2179 -0.1736  0.7192
   24TAL   C11528375   1.062   2.774  15.994  0.5620 -1.1093  0.2883
   24TAL   C11628376   0.986   2.687  16.095  0.4824 -0.6553 -0.1493
   24TAL   C11728377   0.864   2.631  16.030  0.5225 -0.8554 -0.8033
   24TAL   C11828378   0.753   2.590  16.134 -0.4600  0.2703  0.5552
   24TAL   C11928379   0.630   2.573  16.046 -0.2291 -0.4796 -0.0522
   24TAL   C12028380   0.518   2.667  16.052  0.0137 -0.4920  0.6157
   25HTM   C12128381   1.122   3.050  16.154  0.1330 -0.1396  0.3223
   25HTM   C12228382   1.098   3.104  16.276  0.0802 -0.1290  0.3071
   25HTM   C12328383   0.986   3.194  16.279  0.1802 -0.0018  0.2141
   25HTM   C12428384   0.924   3.209  16.158  0.3093  0.0846  0.1596
   25HTM    S1328385   1.004   3.109  16.031  0.3146  0.0114  0.2204
   26TAL   C12528386   0.949   3.260  16.409  0.7876 -0.0986  0.4983
   26TAL   C12628387   0.913   3.183  16.535  0.1344  0.0047 -0.4788
   26TAL   C12728388   1.027   3.142  16.633 -0.1091 -0.2490  0.1630
   26TAL   C12828389   0.982   3.067  16.760 -0.0781  0.7012  0.2656
   26TAL   C12928390   1.080   2.951  16.781 -0.3818  0.1782 -0.1493
   26TAL   C13028391   1.048   2.864  16.895 -0.8582 -0.0713  0.0772
   27HTM   C13128392   0.794   3.266  16.120 -0.0572 -0.0263  0.2385
   27HTM   C13228393   0.706   3.209  16.034  0.2021 -0.1933  0.0801
   27HTM   C13328394   0.586   3.287  16.013  0.2546 -0.2353 -0.4191
   27HTM   C13428395   0.584   3.403  16.085  0.0352 -0.1001 -0.6428
   27HTM    S1428396   0.733   3.423  16.184 -0.2568  0.0921 -0.2357
   28TAL   C13528397   0.467   3.232  15.947 -0.2018  0.8251 -0.2099
   28TAL   C13628398   0.400   3.095  15.990 -0.2725 -0.0080 -0.0846
   28TAL   C13728399   0.263   3.076  15.921  0.3974  0.8705  0.2141
   28TAL   C13828400   0.137   3.156  15.965 -0.2619  0.4846  0.6782
   28TAL   C13928401   0.009   3.136  15.874 -0.0212  0.3004  0.3858
   28TAL   C14028402  -0.060   3.012  15.906  0.6499 -0.2608 -0.1146
   29HTM   C14128403   0.482   3.507  16.083  0.0307  0.5168 -0.1873
   29HTM   C14228404   0.472   3.617  16.003  0.1055  0.9555  0.3901
   29HTM   C14328405   0.361   3.703  16.034 -0.0020  0.7164  0.6657
   29HTM   C14428406   0.286   3.658  16.139 -0.1590  0.0953  0.2978
   29HTM    S1528407   0.350   3.503  16.206 -0.1832 -0.2383 -0.4316
   30TAL   C14528408   0.309   3.814  15.941  0.7632 -0.4509 -0.7362
   30TAL   C14628409   0.318   3.796  15.791  0.0978 -0.0048  1.1154
   30TAL   C14728410   0.260   3.666  15.742  0.0024 -0.2245  0.1149
   30TAL   C14828411   0.109   3.663  15.735  0.6047  0.0152 -0.1370
   30TAL   C14928412   0.048   3.569  15.637 -0.2781 -0.4566 -0.3249
   30TAL   C15028413   0.080   3.417  15.652  0.3750  0.3535 -0.2226
   31HTM   C15128414   0.151   3.708  16.173  0.2423  0.1224  0.3521
   31HTM   C15228415   0.036   3.637  16.180  0.3783 -0.0932  0.4125
   31HTM   C15328416  -0.078   3.714  16.225  0.1893 -0.2229  0.1631
   31HTM   C15428417  -0.048   3.845  16.251 -0.0908 -0.1063 -0.0874
   31HTM    S1628418   0.126   3.880  16.222 -0.1380  0.1788 -0.0284
   32TAL   C15528419  -0.221   3.660  16.228  0.0759 -0.0182 -1.0257
   32TAL   C15628420  -0.248   3.511  16.197  1.0245 -0.7548 -0.9307
   32TAL   C15728421  -0.379   3.494  16.129 -0.1995 -1.7042  0.4890
   32TAL   C15828422  -0.442   3.353  16.119 -0.0425 -0.5850  0.9906
   32TAL   C15928423  -0.392   3.255  16.015 -0.5069 -1.2593 -1.4443
   32TAL   C16028424  -0.338   3.301  15.889 -0.0175  1.2385  0.4742
   33HTM   C16128425  -0.129   3.956  16.300  0.2001 -0.0895  0.2481
   33HTM   C16228426  -0.187   4.053  16.224 -0.0404 -0.4125  0.0167
   33HTM   C16328427  -0.295   4.121  16.290 -0.2495 -0.5612 -0.1688
   33HTM   C16428428  -0.319   4.076  16.416 -0.1682 -0.3521 -0.0788
   33HTM    S1728429  -0.206   3.943  16.462  0.1811  0.0525  0.2502
   34TAL   C16528430  -0.371   4.238  16.222  0.1754 -0.0964  0.9560
   34TAL   C16628431  -0.297   4.316  16.106 -0.4604  1.1521 -0.1698
   34TAL   C16728432  -0.395   4.394  16.014 -1.6884  0.1984 -0.1463
   34TAL   C16828433  -0.443   4.536  16.048  0.7908 -0.2009  0.4565
   34TAL   C16928434  -0.326   4.626  16.073 -0.9901 -0.9488 -0.0928
   34TAL   C17028435  -0.354   4.771  16.052 -0.6661  0.1762  0.2186
   35HTM   C17128436  -0.403   4.104  16.528  0.2877  0.3714 -0.3749
   35HTM   C17228437  -0.388   4.054  16.654  0.5755  0.2500 -0.4559
   35HTM   C17328438  -0.496   4.088  16.743  0.6343 -0.0814 -0.2556
   35HTM   C17428439  -0.593   4.163  16.685  0.3911 -0.2127 -0.0216
   35HTM    S1828440  -0.556   4.198  16.512  0.0666  0.0742 -0.0366
   36TAL   C17528441  -0.501   4.038  16.889  0.3807 -0.1220 -0.0587
   36TAL   C17628442  -0.373   4.009  16.973  0.1811 -0.6213  0.6614
   36TAL   C17728443  -0.257   4.114  16.987  0.4332 -0.1618  0.7537
   36TAL   C17828444  -0.279   4.259  17.067 -0.4982  0.6251  0.1892
   36TAL   C17928445  -0.270   4.223  17.215 -0.9282 -0.1613 -0.5616
   36TAL   C18028446  -0.307   4.322  17.321  0.4118  0.1054  0.1339
   37HTM   C18128447  -0.723   4.214  16.735  0.3780 -0.1108  0.1882
   37HTM   C18228448  -0.796   4.184  16.847  0.1783  0.0203  0.0944
   37HTM   C18328449  -0.906   4.273  16.869  0.2131  0.1234 -0.1392
   37HTM   C18428450  -0.918   4.371  16.775  0.4392  0.0709 -0.2234
   37HTM    S1928451  -0.789   4.358  16.649  0.6270 -0.1141 -0.0127
   38TAL   C18528452  -1.024   4.248  16.962 -0.5454  0.4852 -0.1520
   38TAL   C18628453  -1.012   4.297  17.102  0.1792 -0.0786  0.7900
   38TAL   C18728454  -1.157   4.319  17.141 -0.2378  0.4176 -0.7143
   38TAL   C18828455  -1.167   4.393  17.275 -0.0501  0.8153 -0.6068
   38TAL   C18928456  -1.132   4.536  17.270  1.0353  0.3979  0.3676
   38TAL   C19028457  -1.171   4.591  17.403 -0.2158 -0.3201  0.4928
   39HTM   C19128458  -1.020   4.475  16.765  0.2463  0.3220  0.0194
   39HTM   C19228459  -1.136   4.479  16.695  0.4393  0.4365 -0.2966
   39HTM   C19328460  -1.209   4.603  16.710  0.5325  0.5178 -0.5145
   39HTM   C19428461  -1.147   4.693  16.791  0.4107  0.4656 -0.3642
   39HTM    S2028462  -0.992   4.628  16.857  0.1668  0.3083  0.0671
   40TAL   C19528463  -1.336   4.624  16.638  0.9915  0.0020 -0.4719
   40TAL   C19628464  -1.323   4.674  16.490  0.4358  0.8824 -0.2385
   40TAL   C19728465  -1.351   4.545  16.399 -0.4123  0.8356 -0.1693
   40TAL   C19828466  -1.284   4.540  16.265 -0.8188 -0.4940 -0.0958
   40TAL   C19928467  -1.290   4.427  16.158  0.1432  0.5144  0.0531
   40TAL   C20028468  -1.425   4.410  16.094 -0.5428 -0.0470  0.1686
   41HTM   C20128469  -1.200   4.809  16.856 -0.0230 -0.0151 -0.0835
   41HTM   C20228470  -1.193   4.838  16.989 -0.0041 -0.0232 -0.0830
   41HTM   C20328471  -1.258   4.961  17.026 -0.2666 -0.1795 -0.0186
   41HTM   C20428472  -1.315   5.026  16.921 -0.4857 -0.2902  0.0305
   41HTM    S2128473  -1.291   4.937  16.766 -0.3767 -0.2054 -0.0020
   42TAL   C20528474  -1.261   5.008  17.170 -0.1643 -0.5354  0.3701
   42TAL   C20628475  -1.148   4.994  17.263 -0.7186  0.8087 -0.2449
   42TAL   C20728476  -1.165   5.036  17.411 -0.2788 -0.2776 -0.8866
   42TAL   C20828477  -1.181   5.191  17.449  0.1803  0.3027  0.9002
   42TAL   C20928478  -1.040   5.262  17.450 -0.3995  0.5756  0.8119
   42TAL   C21028479  -0.973   5.301  17.306  1.0251 -0.1682 -1.2750
   43HTM   C21128480  -1.382   5.151  16.900 -1.1064 -0.6771 -1.0530
   43HTM   C21228481  -1.489   5.198  16.970 -1.2476 -0.8415 -1.1563
   43HTM   C21328482  -1.541   5.322  16.919 -0.6176 -0.2770 -0.4797
   43HTM   C21428483  -1.475   5.369  16.810  0.0041  0.3179  0.1393
   43HTM    S2228484  -1.339   5.260  16.763 -0.1593  0.2104 -0.0853
   44TAL   C21528485  -1.663   5.368  16.979 -1.0322 -0.6287  0.4556
   44TAL   C21628486  -1.628   5.472  17.091  0.6274 -0.3684  1.6964
   44TAL   C21728487  -1.758   5.537  17.130  0.1035 -0.2608 -0.2092
   44TAL   C21828488  -1.721   5.630  17.243  0.7940  0.4740  0.3272
   44TAL   C21928489  -1.830   5.699  17.312  1.0163 -0.0476  0.4790
   44TAL   C22028490  -1.787   5.731  17.451 -0.4435  0.0121  0.3318
   45HTM   C22128491  -1.502   5.482  16.724 -0.3061 -0.2403 -0.0783
   45HTM   C22228492  -1.592   5.582  16.746 -0.5016 -0.3377 -0.4249
   45HTM   C22328493  -1.581   5.691  16.652 -0.3058 -0.3580 -0.4258
   45HTM   C22428494  -1.482   5.674  16.559  0.0388 -0.2764 -0.0806
   45HTM    S2328495  -1.395   5.518  16.583  0.1438 -0.1664  0.2751
   46TAL   C22528496  -1.664   5.818  16.674 -0.7095  0.5576  0.1945
   46TAL   C22628497  -1.670   5.886  16.808 -0.2028 -0.4956 -0.6938
   46TAL   C22728498  -1.709   6.034  16.835  0.0213  0.4645 -0.1976
   46TAL   C22828499  -1.857   6.077  16.820 -0.6951 -0.3635  0.6566
   46TAL   C22928500  -1.922   6.053  16.685  0.1648  0.3852 -0.5947
   46TAL   C23028501  -2.062   6.117  16.671  0.3502 -0.5234  0.5369
   47HTM   C23128502  -1.418   5.749  16.456 -0.1383  0.3449 -0.1077
   47HTM   C23228503  -1.295   5.732  16.399 -0.4281 -0.0993 -0.6070
   47HTM   C23328504  -1.273   5.816  16.284 -0.7032 -0.4135 -0.8998
   47HTM   C23428505  -1.377   5.898  16.255 -0.6226 -0.2087 -0.6236
   47HTM    S2428506  -1.514   5.875  16.370 -0.1902  0.4015  0.0326
   48TAL   C23528507  -1.151   5.837  16.196  0.4210 -0.5470 -0.1941
   48TAL   C23628508  -1.073   5.721  16.164  0.1142  1.0116  1.2758
   48TAL   C23728509  -0.932   5.766  16.129  0.5678  0.5782  0.5727
   48TAL   C23828510  -0.825   5.656  16.144  1.2426 -0.3338  0.0166
   48TAL   C23928511  -0.802   5.579  16.274  0.0966 -0.6088 -1.1005
   48TAL   C24028512  -0.790   5.671  16.400 -0.3908 -0.1277  0.5892
    1HTM     C128513   1.055   1.745  28.033  0.3977  0.1241 -0.5055
    1HTM     C228514   1.179   1.687  28.028  0.5755  0.5490 -1.4653
    1HTM     C328515   1.282   1.766  28.089  0.6109  0.5238 -1.4920
    1HTM     C428516   1.238   1.885  28.140  0.4601  0.0795 -0.5533
    1HTM     S128517   1.061   1.905  28.116  0.2602 -0.3447  0.4459
    2TAL     C528518   1.431   1.710  28.083  0.3417 -1.1426  0.1902
    2TAL     C628519   1.512   1.717  27.956  0.5388 -1.0867 -0.5359
    2TAL     C728520   1.533   1.877  27.915 -0.4487  0.2498  0.0085
    2TAL     C828521   1.650   1.915  27.813  0.0651  0.0810 -0.0246
    2TAL     C928522   1.679   2.065  27.779  0.1878 -0.0676 -0.1046
    2TAL    C1028523   1.698   2.170  27.896 -0.4622  0.5053 -0.1453
    3HTM    C1128524   1.297   2.002  28.207 -0.1844  0.1655 -0.2935
    3HTM    C1228525   1.245   2.128  28.217 -0.2697  0.1430 -0.4601
    3HTM    C1328526   1.332   2.222  28.283 -0.5508  0.1645 -0.1197
    3HTM    C1428527   1.450   2.167  28.325 -0.6799  0.2032  0.3059
    3HTM     S228528   1.461   1.992  28.283 -0.4547  0.2157  0.3097
    4TAL    C1528529   1.290   2.370  28.306 -0.2830 -0.7378  0.1300
    4TAL    C1628530   1.263   2.461  28.186  0.5122  0.1604 -0.7742
    4TAL    C1728531   1.209   2.606  28.198 -0.1829  0.7287  0.0605
    4TAL    C1828532   1.193   2.679  28.058  0.2324  0.3298  0.1421
    4TAL    C1928533   1.124   2.817  28.049 -0.1087  0.7543  0.6042
    4TAL    C2028534   0.972   2.818  28.064  0.2803 -0.1878 -0.6061
    5HTM    C2128535   1.582   2.242  28.354  0.4120  0.2061  0.0098
    5HTM    C2228536   1.699   2.181  28.387 -0.0616 -0.2227  0.9789
    5HTM    C2328537   1.794   2.267  28.451 -0.1999 -0.5253  1.6050
    5HTM    C2428538   1.750   2.395  28.468  0.1682 -0.3273  1.1129
    5HTM     S328539   1.583   2.416  28.403  0.7225  0.2611 -0.1893
    6TAL    C2528540   1.937   2.221  28.493 -0.6348  0.4503  0.7309
    6TAL    C2628541   2.045   2.213  28.381 -0.9016  0.5237  0.0777
    6TAL    C2728542   2.195   2.203  28.430 -0.1873  0.4999 -0.5252
    6TAL    C2828543   2.295   2.172  28.315  0.8825 -0.0181 -0.2575
    6TAL    C2928544   2.453   2.197  28.333  0.5139 -0.5137 -0.5273
    6TAL    C3028545   2.495   2.328  28.276 -0.4249 -0.6791 -0.4910
    7HTM    C3128546   1.800   2.512  28.531  0.8849  0.0737 -0.5991
    7HTM    C3228547   1.911   2.583  28.497  0.5920  0.4948 -0.6924
    7HTM    C3328548   1.903   2.723  28.531  0.2915  0.3682 -0.2236
    7HTM    C3428549   1.785   2.758  28.590  0.3553 -0.1497  0.2266
    7HTM     S428550   1.675   2.617  28.608  0.8033 -0.5204  0.0934
    8TAL    C3528551   2.019   2.811  28.506  0.1357 -0.7882 -0.4474
    8TAL    C3628552   2.070   2.810  28.355 -0.5674 -0.3049  0.3886
    8TAL    C3728553   1.990   2.844  28.228 -0.1733 -0.3501 -0.3184
    8TAL    C3828554   2.092   2.795  28.118 -0.6446 -0.6406 -0.4274
    8TAL    C3928555   2.082   2.868  27.991  0.9891  0.4335  0.3575
    8TAL    C4028556   2.213   2.849  27.922 -0.3064  0.5924 -0.5967
    9HTM    C4128557   1.750   2.880  28.655  0.8574 -0.6404 -0.8140
    9HTM    C4228558   1.644   2.962  28.630  1.0821 -0.7042 -2.1059
    9HTM    C4328559   1.646   3.084  28.706  0.3176 -0.4821 -2.4221
    9HTM    C4428560   1.753   3.095  28.790 -0.4902 -0.2489 -1.3711
    9HTM     S528561   1.861   2.951  28.778 -0.3468 -0.2920  0.1109
   10TAL    C4528562   1.550   3.203  28.695  0.3661 -0.0534  0.0727
   10TAL    C4628563   1.451   3.198  28.583 -0.1539  0.8743 -0.0331
   10TAL    C4728564   1.347   3.298  28.593  0.1054 -0.4731  0.4877
   10TAL    C4828565   1.285   3.309  28.453  0.3447  0.5237  0.3115
   10TAL    C4928566   1.167   3.393  28.399 -0.8137 -0.8465 -0.4899
   10TAL    C5028567   1.145   3.383  28.254  0.1703  0.3683 -0.1093
   11HTM    C5128568   1.809   3.203  28.869  0.1279 -0.2898 -0.2160
   11HTM    C5228569   1.932   3.259  28.849  0.2325 -0.4788 -0.1103
   11HTM    C5328570   1.959   3.372  28.934  0.2586 -0.4062 -0.2143
   11HTM    C5428571   1.857   3.402  29.019  0.1738 -0.1618 -0.3994
   11HTM     S628572   1.718   3.289  28.998  0.0536 -0.0032 -0.4570
   12TAL    C5528573   2.100   3.448  28.934  0.2769  0.4707  0.9895
   12TAL    C5628574   2.227   3.370  28.968 -0.4810  1.1051  0.1958
   12TAL    C5728575   2.359   3.442  29.002  0.3361  0.7886 -0.0884
   12TAL    C5828576   2.372   3.491  29.145 -0.1396 -0.6130  0.8126
   12TAL    C5928577   2.498   3.585  29.153 -0.3780 -0.3300  0.1456
   12TAL    C6028578   2.507   3.639  29.290  0.2272  0.3102 -0.3327
   13HTM    C6128579   1.842   3.508  29.121 -0.0751 -0.1123  0.1636
   13HTM    C6228580   1.724   3.572  29.143 -0.0901 -0.1023  0.0552
   13HTM    C6328581   1.734   3.683  29.234 -0.1439 -0.0361 -0.0190
   13HTM    C6428582   1.860   3.703  29.282 -0.1699  0.0045  0.0329
   13HTM     S728583   1.977   3.583  29.214 -0.1282 -0.0382  0.1806
   14TAL    C6528584   1.614   3.756  29.293  0.9650 -0.0673  0.4946
   14TAL    C6628585   1.489   3.672  29.325 -0.1264  0.0117 -0.4505
   14TAL    C6728586   1.367   3.752  29.358  0.2949  0.1293  0.3118
   14TAL    C6828587   1.301   3.843  29.253 -0.7314 -0.3077 -0.0621
   14TAL    C6928588   1.166   3.873  29.291  0.5989  0.0635 -0.5076
   14TAL    C7028589   1.079   3.961  29.189 -0.5928 -0.0305 -0.9641
   15HTM    C7128590   1.917   3.802  29.367  0.6145  0.1152 -0.2553
   15HTM    C7228591   1.855   3.893  29.447  0.4873  0.1631 -0.4076
   15HTM    C7328592   1.946   3.972  29.527  0.3698  0.3182 -0.4265
   15HTM    C7428593   2.077   3.941  29.507  0.4073  0.3883 -0.2885
   15HTM     S828594   2.096   3.809  29.386  0.5956  0.2631 -0.1228
   16TAL    C7528595   1.904   4.103  29.598 -0.7592  1.1636  0.7462
   16TAL    C7628596   1.833   4.057  29.735 -0.4465 -0.1240  0.4998
   16TAL    C7728597   1.684   4.101  29.733 -0.7210 -0.8606 -0.1802
   16TAL    C7828598   1.583   4.047  29.632 -0.2862  0.0247 -0.2240
   16TAL    C7928599   1.540   4.106  29.498  0.8594 -0.7746  0.2953
   16TAL    C8028600   1.401   4.154  29.494 -0.6371 -0.7532  0.0883
   17HTM    C8128601   2.197   3.978  29.585  0.3536 -0.1565 -0.1316
   17HTM    C8228602   2.268   3.891  29.662  0.4579 -0.3375 -0.4248
   17HTM    C8328603   2.397   3.941  29.702  0.4054 -0.3202 -0.2715
   17HTM    C8428604   2.425   4.066  29.654  0.2609 -0.1262  0.1386
   17HTM     S928605   2.289   4.130  29.554  0.1795  0.0510  0.3647
   18TAL    C8528606   2.477   3.858  29.805 -0.7072  0.9753 -0.4572
   18TAL    C8628607   2.493   3.711  29.768  1.1088  0.2153 -0.6634
   18TAL    C8728608   2.638   3.674  29.801 -0.2229  0.0082 -0.5999
   18TAL    C8828609   2.721   3.563  29.738 -0.1786 -0.6245  0.0253
   18TAL    C8928610   2.780   3.580  29.601 -0.2467 -0.2737 -0.1331
   18TAL    C9028611   2.814   3.457  29.532 -0.4223  1.3373 -0.5151
   19HTM    C9128612   2.541   4.154  29.683  0.0354 -0.0142 -0.5949
   19HTM    C9228613   2.553   4.282  29.639  0.1040  0.1098 -0.2219
   19HTM    C9328614   2.683   4.339  29.661 -0.0280  0.1733  0.4492
   19HTM    C9428615   2.771   4.254  29.722 -0.1972  0.0976  0.5878
   19HTM    S1028616   2.694   4.094  29.756 -0.2030 -0.0612 -0.1240
   20TAL    C9528617   2.729   4.479  29.613  0.6182  0.0314  0.7472
   20TAL    C9628618   2.636   4.597  29.608 -0.1424 -0.9875 -0.1464
   20TAL    C9728619   2.579   4.653  29.741 -0.7364 -0.5304  0.8409
   20TAL    C9828620   2.677   4.722  29.844  0.0956 -0.5660 -0.7325
   20TAL    C9928621   2.766   4.841  29.793  1.0162  0.5023 -0.0435
   20TAL   C10028622   2.880   4.872  29.885  0.0437  0.3224 -0.2827
   21HTM   C10128623   2.903   4.274  29.777  0.1576  0.4379 -0.5293
   21HTM   C10228624   3.002   4.181  29.789 -0.0493  0.2595 -0.2001
   21HTM   C10328625   3.117   4.228  29.861 -0.1619  0.0823  0.0998
   21HTM   C10428626   3.107   4.357  29.904 -0.0409  0.1257 -0.0007
   21HTM    S1128627   2.949   4.430  29.855  0.2268  0.3955 -0.4857
   22TAL   C10528628   3.238   4.137  29.879 -0.1715  0.4168  0.4540
   22TAL   C10628629   3.228   4.024  29.980 -0.1142  0.0907 -0.6904
   22TAL   C10728630   3.352   3.956  30.027  0.1723  0.1496  0.8726
   22TAL   C10828631   3.326   3.885  30.149 -0.1117 -0.0904 -0.6260
   22TAL   C10928632   3.435   3.899  30.249 -0.7501 -0.6864 -0.9430
   22TAL   C11028633   3.423   3.850  30.390 -0.6749 -1.0187 -0.8118
   23HTM   C11128634   3.178   4.435  30.003 -0.3567  0.3704  0.0889
   23HTM   C11228635   3.297   4.403  30.059 -0.5125 -0.2334  0.0916
   23HTM   C11328636   3.336   4.492  30.166 -0.2306 -0.6360  0.3288
   23HTM   C11428637   3.246   4.592  30.190  0.1402 -0.3392  0.5069
   23HTM    S1228638   3.104   4.581  30.080  0.1623  0.4784  0.3880
   24TAL   C11528639   3.466   4.474  30.233  0.3353 -0.4624 -0.6394
   24TAL   C11628640   3.476   4.360  30.338 -0.2357  0.3329  0.3119
   24TAL   C11728641   3.619   4.325  30.375  0.3033 -0.9388 -0.8423
   24TAL   C11828642   3.730   4.321  30.271 -0.4461  0.6251 -0.1569
   24TAL   C11928643   3.875   4.280  30.317  1.0162  0.7538  0.7091
   24TAL   C12028644   3.898   4.156  30.416 -0.0978  0.8136 -0.8551
   25HTM   C12128645   3.261   4.713  30.276 -0.5589 -0.2492  0.4390
   25HTM   C12228646   3.176   4.818  30.258 -1.1085 -0.5428  1.1988
   25HTM   C12328647   3.210   4.934  30.336 -1.0692 -0.5672  1.2180
   25HTM   C12428648   3.321   4.917  30.414 -0.4896 -0.2924  0.4728
   25HTM    S1328649   3.391   4.753  30.394  0.0558  0.0212 -0.3171
   26TAL   C12528650   3.131   5.058  30.345  0.6899 -0.8412  0.5818
   26TAL   C12628651   3.086   5.141  30.221 -1.1228  0.4191 -0.4651
   26TAL   C12728652   3.212   5.197  30.152  0.8269  0.5873 -0.1369
   26TAL   C12828653   3.197   5.297  30.038 -0.2151 -0.5524  0.3791
   26TAL   C12928654   3.112   5.241  29.924  0.0319 -0.0050 -0.2685
   26TAL   C13028655   3.036   5.333  29.833 -0.8880 -0.7934  1.4560
   27HTM   C13128656   3.392   5.008  30.499  0.6962 -0.3153 -0.2120
   27HTM   C13228657   3.419   5.140  30.477  0.9053 -0.4135 -0.5619
   27HTM   C13328658   3.505   5.199  30.576  0.5912 -0.1601 -0.4393
   27HTM   C13428659   3.543   5.112  30.674  0.1424  0.1313  0.0041
   27HTM    S1428660   3.473   4.948  30.648  0.0814  0.1080  0.3035
   28TAL   C13528661   3.547   5.346  30.580  0.4529 -0.0281 -0.5106
   28TAL   C13628662   3.626   5.397  30.471  0.5426  0.1430  0.4872
   28TAL   C13728663   3.606   5.553  30.466 -1.4615 -0.6531  0.8183
   28TAL   C13828664   3.673   5.658  30.565 -0.5056  0.0802  0.1855
   28TAL   C13928665   3.645   5.798  30.499 -0.8192  0.3315 -0.9785
   28TAL   C14028666   3.503   5.853  30.491 -0.4590 -0.0210  0.3163
   29HTM   C14128667   3.640   5.130  30.780  0.1198  0.3577 -0.0691
   29HTM   C14228668   3.761   5.191  30.767  0.0787  0.4669  0.0544
   29HTM   C14328669   3.846   5.175  30.883  0.0083  0.4712  0.1071
   29HTM   C14428670   3.789   5.103  30.983 -0.0044  0.3655  0.0239
   29HTM    S1528671   3.623   5.048  30.940  0.0724  0.2512 -0.1287
   30TAL   C14528672   3.965   5.271  30.909  0.5465 -1.7062 -0.0443
   30TAL   C14628673   3.909   5.405  30.977 -0.5341 -0.4140  0.4194
   30TAL   C14728674   4.004   5.523  30.950  0.0091  0.0008 -0.3522
   30TAL   C14828675   3.954   5.608  30.838 -0.4507 -0.9710  0.2228
   30TAL   C14928676   4.055   5.682  30.745  0.0748 -0.6165 -0.0738
   30TAL   C15028677   4.091   5.627  30.607  0.2249 -0.7976 -0.5329
   31HTM   C15128678   3.842   5.049  31.106 -0.0015  0.5694 -0.8384
   31HTM   C15228679   3.812   4.926  31.156 -0.1761  0.4313 -1.2749
   31HTM   C15328680   3.885   4.892  31.276 -0.4976  0.0582 -1.1801
   31HTM   C15428681   3.971   4.990  31.317 -0.5682 -0.0884 -0.6713
   31HTM    S1628682   3.967   5.132  31.207 -0.2314  0.2362 -0.2694
   32TAL   C15528683   3.883   4.756  31.343  0.1663 -0.7672  0.3525
   32TAL   C15628684   3.972   4.638  31.288 -0.9705 -0.9653  0.2357
   32TAL   C15728685   3.903   4.558  31.176 -0.4571 -0.4796 -0.8514
   32TAL   C15828686   3.995   4.456  31.116  0.2715 -0.9360  1.5605
   32TAL   C15928687   4.061   4.512  30.986 -0.2447 -0.1722  0.3650
   32TAL   C16028688   4.141   4.395  30.915  0.6469  0.3454 -0.2503
   33HTM   C16128689   4.052   5.005  31.438 -0.6650 -0.1647  0.1792
   33HTM   C16228690   4.145   4.919  31.490 -1.2432 -0.5965  0.5271
   33HTM   C16328691   4.211   4.970  31.607 -0.9671 -0.6068  0.3768
   33HTM   C16428692   4.169   5.094  31.645 -0.1780 -0.1827 -0.0856
   33HTM    S1728693   4.041   5.157  31.534  0.2810  0.2659 -0.3694
   34TAL   C16528694   4.331   4.884  31.669 -0.6953 -0.2967  0.3441
   34TAL   C16628695   4.479   4.891  31.601  0.2246 -0.3067  0.2429
   34TAL   C16728696   4.510   5.002  31.495  0.3700  1.1144  0.0784
   34TAL   C16828697   4.637   4.979  31.413 -0.6202  0.1311 -0.3386
   34TAL   C16928698   4.768   5.007  31.485 -1.0548 -0.0473  0.5789
   34TAL   C17028699   4.862   4.902  31.419 -0.1253  0.0527  0.0632
   35HTM   C17128700   4.201   5.185  31.753 -0.1099 -0.1912  0.4302
   35HTM   C17228701   4.304   5.272  31.776 -0.0492 -0.2112  0.2308
   35HTM   C17328702   4.282   5.360  31.887  0.0427  0.0147  0.0709
   35HTM   C17428703   4.162   5.341  31.950  0.0517  0.2069  0.1482
   35HTM    S1828704   4.067   5.209  31.872 -0.0555  0.1170  0.4313
   36TAL   C17528705   4.389   5.464  31.912  0.1732 -1.1475  0.3318
   36TAL   C17628706   4.389   5.593  31.813 -0.4219  0.1283 -0.2287
   36TAL   C17728707   4.475   5.697  31.878  0.4649  0.0606 -0.2492
   36TAL   C17828708   4.473   5.807  31.773  0.4293  1.0648  0.0327
   36TAL   C17928709   4.530   5.939  31.814  0.5221 -0.5221 -1.4309
   36TAL   C18028710   4.513   6.049  31.708  0.5362  0.4452  0.2655
   37HTM   C18128711   4.094   5.415  32.060  0.3302  0.4944 -0.3127
   37HTM   C18228712   3.961   5.428  32.087  0.2970  1.2094 -0.7524
   37HTM   C18328713   3.933   5.480  32.218  0.1449  1.1344 -0.7541
   37HTM   C18428714   4.045   5.507  32.291  0.0622  0.3625 -0.3157
   37HTM    S1928715   4.195   5.469  32.199  0.1708 -0.3353  0.1369
   38TAL   C18528716   3.793   5.473  32.278 -0.7805  0.0379  0.1416
   38TAL   C18628717   3.674   5.516  32.191  1.0119 -0.2731 -0.4990
   38TAL   C18728718   3.577   5.404  32.151  0.7661 -0.1738  0.1831
   38TAL   C18828719   3.618   5.297  32.047 -0.4166  0.0295 -0.6061
   38TAL   C18928720   3.528   5.170  32.037  0.0529 -0.3430  0.7400
   38TAL   C19028721   3.596   5.037  32.101 -0.1712 -0.7002  0.4259
   39HTM   C19128722   4.065   5.551  32.430 -0.2843 -0.4510 -0.0408
   39HTM   C19228723   3.994   5.646  32.498 -0.3085 -0.1289 -0.5110
   39HTM   C19328724   4.051   5.681  32.625 -0.4368  0.3644 -0.5850
   39HTM   C19428725   4.165   5.613  32.656 -0.5101  0.4185 -0.1711
   39HTM    S2028726   4.210   5.498  32.524 -0.4226 -0.1539  0.3480
   40TAL   C19528727   3.978   5.775  32.723 -0.3033 -1.0828 -0.1741
   40TAL   C19628728   3.865   5.687  32.787 -0.2848  0.7026 -0.3713
   40TAL   C19728729   3.776   5.764  32.888  0.2677 -0.2496 -0.3076
   40TAL   C19828730   3.713   5.680  32.998 -0.3683 -0.5559 -0.3656
   40TAL   C19928731   3.589   5.615  32.953 -0.0871 -0.5945  0.7049
   40TAL   C20028732   3.517   5.587  33.081  0.4459  0.6019  0.4365
   41HTM   C20128733   4.255   5.609  32.768 -0.0170  0.9109  0.4003
   41HTM   C20228734   4.344   5.706  32.804 -0.3821  1.0207  1.0481
   41HTM   C20328735   4.431   5.669  32.912 -0.2609  0.6294  0.8192
   41HTM   C20428736   4.409   5.543  32.959  0.1965  0.2212 -0.0032
   41HTM    S2128737   4.275   5.462  32.870  0.5123  0.3002 -0.5565
   42TAL   C20528738   4.533   5.766  32.977 -1.3886 -0.0288  0.6781
   42TAL   C20628739   4.522   5.924  32.957  0.5061  0.4181 -0.3545
   42TAL   C20728740   4.413   6.005  33.027 -0.3720 -0.5576  0.1412
   42TAL   C20828741   4.453   6.143  33.021 -0.0519 -0.1477 -0.1866
   42TAL   C20928742   4.368   6.237  33.105  0.3827  0.6477  0.1948
   42TAL   C21028743   4.369   6.375  33.049 -0.0760 -0.6507 -0.0345
   43HTM   C21128744   4.472   5.463  33.062 -0.5569  0.3441 -0.3505
   43HTM   C21228745   4.603   5.428  33.073 -0.4834  0.5962 -0.4041
   43HTM   C21328746   4.635   5.361  33.196 -0.2654  0.8193 -0.3383
   43HTM   C21428747   4.529   5.345  33.280 -0.1726  0.7377 -0.2346
   43HTM    S2228748   4.378   5.415  33.209 -0.3548  0.3695 -0.2118
   44TAL   C21528749   4.786   5.323  33.222 -0.3941 -0.2276 -0.0294
   44TAL   C21628750   4.883   5.414  33.296  0.1419 -0.5927  0.2339
   44TAL   C21728751   4.841   5.447  33.436 -0.0250  0.1690 -0.2420
   44TAL   C21828752   4.937   5.550  33.507  0.1830  1.1221  0.6735
   44TAL   C21928753   4.989   5.674  33.429  0.7518  0.0159 -0.0122
   44TAL   C22028754   4.891   5.765  33.361 -0.6961 -0.1801 -0.4151
   45HTM   C22128755   4.518   5.263  33.409  0.7546  0.2121  0.1819
   45HTM   C22228756   4.525   5.310  33.536  0.8144  0.3097  0.1425
   45HTM   C22328757   4.495   5.211  33.637  0.5106  0.4765  0.2183
   45HTM   C22428758   4.464   5.088  33.585  0.2190  0.5065  0.3151
   45HTM    S2328759   4.472   5.088  33.405  0.3064  0.3247  0.3184
   46TAL   C22528760   4.523   5.240  33.785  0.1898 -0.2188 -0.5749
   46TAL   C22628761   4.662   5.259  33.834 -0.3289  0.1126  0.0357
   46TAL   C22728762   4.749   5.139  33.789 -0.7604 -0.0130  0.1693
   46TAL   C22828763   4.901   5.138  33.826  1.2333 -0.9503  0.3297
   46TAL   C22928764   4.945   5.182  33.960 -0.3183 -0.0647  0.6983
   46TAL   C23028765   4.881   5.123  34.079  0.5451  0.0690  0.9743
   47HTM   C23128766   4.438   4.948  33.634 -0.1280  0.2492  0.0525
   47HTM   C23228767   4.443   4.840  33.551  0.2030  0.2970  0.0088
   47HTM   C23328768   4.412   4.715  33.616  0.3711  0.2025 -0.0902
   47HTM   C23428769   4.383   4.728  33.749  0.1684  0.0827 -0.1222
   47HTM    S2428770   4.392   4.900  33.802 -0.2538  0.0799 -0.0287
   48TAL   C23528771   4.412   4.585  33.526  0.3497 -0.1783 -0.8774
   48TAL   C23628772   4.380   4.447  33.591  0.6763  0.1071 -0.2414
   48TAL   C23728773   4.459   4.386  33.709  0.9297  0.3018  1.4498
   48TAL   C23828774   4.393   4.270  33.785  1.0438  0.6560 -0.2481
   48TAL   C23928775   4.238   4.269  33.801  0.2235 -0.3036 -0.6074
   48TAL   C24028776   4.178   4.168  33.897 -0.6557  0.0340 -0.0044
    1HTM     C128777   4.684   0.601  10.688 -0.5346  0.0372  0.1205
    1HTM     C228778   4.771   0.507  10.734 -0.7976 -0.1522  0.2332
    1HTM     C328779   4.847   0.442  10.630 -0.7871 -0.2998  0.3328
    1HTM     C428780   4.817   0.486  10.505 -0.5161 -0.2229  0.2961
    1HTM     S128781   4.691   0.615  10.508 -0.2511  0.0440  0.1314
    2TAL     C528782   4.938   0.325  10.663 -0.1419 -0.1680  0.2908
    2TAL     C628783   5.078   0.352  10.723  0.2715  0.4774 -0.4947
    2TAL     C728784   5.157   0.475  10.668  0.5211 -0.6120 -0.0000
    2TAL     C828785   5.195   0.472  10.519 -0.8024 -1.5958  0.4914
    2TAL     C928786   5.322   0.556  10.477 -0.3980 -0.1942 -0.6979
    2TAL    C1028787   5.454   0.469  10.471 -0.0380 -0.1246  0.8634
    3HTM    C1128788   4.841   0.441  10.370  0.6317  0.1431  0.4786
    3HTM    C1228789   4.810   0.503  10.252  0.9874  0.4925  0.5662
    3HTM    C1328790   4.849   0.429  10.136  0.7551  0.5328  0.4611
    3HTM    C1428791   4.910   0.310  10.164  0.2224  0.2143  0.2932
    3HTM     S228792   4.922   0.283  10.342 -0.0291 -0.1644  0.2546
    4TAL    C1528793   4.841   0.480   9.988  0.0797  0.5992 -0.9855
    4TAL    C1628794   4.712   0.550   9.956 -0.1664 -0.9478 -1.0968
    4TAL    C1728795   4.570   0.497   9.968  0.0350  0.7097  0.6326
    4TAL    C1828796   4.458   0.597   9.975 -0.1150 -0.1084 -0.0317
    4TAL    C1928797   4.314   0.549   9.979 -0.7215 -0.1715 -0.2218
    4TAL    C2028798   4.206   0.660   9.970  0.0501  0.0503  0.1590
    5HTM    C2128799   4.970   0.200  10.078  0.1572 -0.6479 -0.3347
    5HTM    C2228800   4.958   0.065  10.088  0.2525 -0.7032 -0.8795
    5HTM    C2328801   5.037  -0.008   9.992  0.4690 -0.2638 -1.0393
    5HTM    C2428802   5.108   0.072   9.908  0.5387  0.1265 -0.6163
    5HTM     S328803   5.082   0.247   9.944  0.3346 -0.0318  0.0219
    6TAL    C2528804   5.034  -0.162   9.998  0.5129 -0.5056 -0.4506
    6TAL    C2628805   4.977  -0.231  10.118  0.6300  0.3621 -1.0995
    6TAL    C2728806   5.014  -0.380  10.141  0.7169  0.0762  0.4492
    6TAL    C2828807   4.929  -0.455  10.245 -0.1262  0.7891 -0.2054
    6TAL    C2928808   4.945  -0.608  10.240  0.2220  0.1755 -0.5712
    6TAL    C3028809   5.084  -0.671  10.239  0.5539 -0.9272  0.0548
    7HTM    C3128810   5.192   0.038   9.797 -0.6495 -0.1066 -0.0194
    7HTM    C3228811   5.200   0.117   9.686 -0.1898  0.5455  0.4599
    7HTM    C3328812   5.292   0.067   9.587  0.5332  1.3458  0.7074
    7HTM    C3428813   5.354  -0.049   9.623  0.6248  1.3040  0.4170
    7HTM     S428814   5.301  -0.105   9.785 -0.2012  0.2423 -0.1961
    8TAL    C3528815   5.308   0.115   9.444  0.1282  1.8045 -0.7424
    8TAL    C3628816   5.316   0.267   9.413  0.4738 -0.3968  0.1023
    8TAL    C3728817   5.270   0.282   9.261 -0.3615 -0.5626  0.0776
    8TAL    C3828818   5.135   0.233   9.211 -0.6776  0.6489 -0.6599
    8TAL    C3928819   5.023   0.320   9.260 -0.7598 -0.9852 -0.1150
    8TAL    C4028820   4.883   0.258   9.234 -0.2170  0.0840 -0.7233
    9HTM    C4128821   5.424  -0.145   9.540  0.6842  0.5550  0.1924
    9HTM    C4228822   5.396  -0.278   9.552  0.7938  0.5894  0.9274
    9HTM    C4328823   5.486  -0.363   9.478  0.6875  0.2695  1.1604
    9HTM    C4428824   5.582  -0.295   9.409  0.4966 -0.0085  0.6034
    9HTM     S528825   5.567  -0.117   9.434  0.4362  0.1130 -0.2656
   10TAL    C4528826   5.458  -0.514   9.453 -0.3712 -0.0278 -0.4731
   10TAL    C4628827   5.415  -0.589   9.578 -0.2197 -0.4582  0.1256
   10TAL    C4728828   5.412  -0.743   9.567 -0.2993 -0.3933  0.1705
   10TAL    C4828829   5.335  -0.790   9.438 -0.3822 -0.6277  0.8228
   10TAL    C4928830   5.184  -0.790   9.426  0.5741  0.1841 -0.0218
   10TAL    C5028831   5.118  -0.730   9.300 -0.2662 -0.1306  0.1491
   11HTM    C5128832   5.701  -0.327   9.333 -0.5168  0.0679  0.4292
   11HTM    C5228833   5.806  -0.247   9.300 -0.2944  0.0095  0.9770
   11HTM    C5328834   5.908  -0.315   9.224 -0.2582  0.1243  0.9236
   11HTM    C5428835   5.881  -0.446   9.199 -0.4528  0.2701  0.3354
   11HTM     S628836   5.723  -0.495   9.270 -0.6992  0.2737 -0.2009
   12TAL    C5528837   6.035  -0.246   9.183 -1.2608  0.3058 -0.0790
   12TAL    C5628838   6.061  -0.099   9.190  0.2324 -0.1248  0.3457
   12TAL    C5728839   6.179  -0.027   9.114 -0.4846  1.3642 -0.3412
   12TAL    C5828840   6.319  -0.030   9.177  0.8177 -0.1845  0.3208
   12TAL    C5928841   6.431   0.040   9.097  0.5076 -1.0073  0.6516
   12TAL    C6028842   6.552   0.048   9.180  0.6838  0.7168  0.4579
   13HTM    C6128843   5.960  -0.548   9.124 -0.0992  0.0614  1.2562
   13HTM    C6228844   5.905  -0.667   9.086 -0.1395 -0.1869  2.0392
   13HTM    C6328845   6.000  -0.756   9.024 -0.4036 -0.1564  1.5817
   13HTM    C6428846   6.126  -0.706   9.016 -0.5646  0.1155  0.4499
   13HTM     S728847   6.136  -0.540   9.086 -0.3937  0.3558 -0.1304
   14TAL    C6528848   5.945  -0.892   8.980  0.5336  0.3539 -0.2899
   14TAL    C6628849   5.953  -1.011   9.080 -0.3026 -0.6256  0.1055
   14TAL    C6728850   5.911  -1.132   8.993  0.3233 -0.7389  0.3023
   14TAL    C6828851   5.906  -1.264   9.064  0.1038 -0.6083 -0.4680
   14TAL    C6928852   5.915  -1.375   8.966 -0.1437 -0.0121 -0.0790
   14TAL    C7028853   5.928  -1.513   9.036 -0.8265  0.0360 -0.0305
   15HTM    C7128854   6.251  -0.757   8.956 -0.1156 -0.0542  0.0381
   15HTM    C7228855   6.274  -0.884   8.912 -0.0728  0.0150 -0.1421
   15HTM    C7328856   6.393  -0.897   8.831 -0.1237  0.1878 -0.2456
   15HTM    C7428857   6.460  -0.780   8.814 -0.2052  0.2500 -0.1440
   15HTM     S828858   6.378  -0.643   8.898 -0.2241  0.0944  0.0913
   16TAL    C7528859   6.426  -1.039   8.773 -0.2202  0.3951 -0.6847
   16TAL    C7628860   6.479  -1.152   8.866  0.3548 -0.2179 -0.1381
   16TAL    C7728861   6.483  -1.299   8.830  0.2646  0.9495 -0.9666
   16TAL    C7828862   6.364  -1.362   8.759  0.1297  0.7585  0.3293
   16TAL    C7928863   6.398  -1.498   8.685  0.1281 -0.3094  0.9137
   16TAL    C8028864   6.413  -1.618   8.774  0.3760  0.0845  0.2852
   17HTM    C8128865   6.582  -0.748   8.744  0.0085 -0.2802  0.4682
   17HTM    C8228866   6.609  -0.622   8.700  0.0436 -0.1414  0.8743
   17HTM    C8328867   6.734  -0.611   8.628  0.0614  0.0627  0.9344
   17HTM    C8428868   6.801  -0.729   8.618  0.0398  0.0796  0.5737
   17HTM     S928869   6.713  -0.864   8.699 -0.0049 -0.1632  0.1269
   18TAL    C8528870   6.801  -0.481   8.588  0.2117 -0.3268 -0.3686
   18TAL    C8628871   6.700  -0.371   8.534 -0.4422  0.4006 -0.6211
   18TAL    C8728872   6.775  -0.242   8.480  0.8278 -0.3989 -0.5928
   18TAL    C8828873   6.703  -0.124   8.403 -0.6492  0.7110  0.3646
   18TAL    C8928874   6.760  -0.061   8.274 -0.8378 -0.5784 -0.0097
   18TAL    C9028875   6.764  -0.147   8.149  0.3397  1.1788 -0.7501
   19HTM    C9128876   6.912  -0.763   8.536  0.0005 -0.1608  0.8423
   19HTM    C9228877   6.912  -0.831   8.418 -0.4965  0.0012  0.7443
   19HTM    C9328878   7.043  -0.850   8.362 -0.7259  0.0426  0.1841
   19HTM    C9428879   7.143  -0.796   8.437 -0.4038 -0.0878 -0.1449
   19HTM    S1028880   7.079  -0.716   8.586  0.2187 -0.2744  0.2297
   20TAL    C9528881   7.073  -0.912   8.230  0.3519  0.0617 -0.2777
   20TAL    C9628882   7.045  -1.066   8.224 -0.7858  0.0650 -0.0452
   20TAL    C9728883   7.090  -1.136   8.099 -0.5837 -0.1187  0.7297
   20TAL    C9828884   7.126  -1.284   8.086 -0.4194  0.7057 -0.5446
   20TAL    C9928885   7.020  -1.397   8.096  0.3918 -0.8583 -0.4435
   20TAL   C10028886   7.047  -1.493   8.209 -0.0682 -0.1036 -0.9350
   21HTM   C10128887   7.288  -0.773   8.408  0.2611 -0.4630 -0.4550
   21HTM   C10228888   7.401  -0.848   8.424  0.0927 -0.7534 -0.6011
   21HTM   C10328889   7.522  -0.778   8.387  0.3010 -0.7718  0.0238
   21HTM   C10428890   7.500  -0.651   8.344  0.6282 -0.4955  0.6462
   21HTM    S1128891   7.325  -0.608   8.346  0.6991 -0.1879  0.4904
   22TAL   C10528892   7.654  -0.828   8.435  0.0780 -0.7087 -0.3098
   22TAL   C10628893   7.746  -0.897   8.329  0.2932  1.0406  0.0874
   22TAL   C10728894   7.867  -0.973   8.381  0.0608  0.8785  0.2942
   22TAL   C10828895   7.970  -0.892   8.437  0.2850 -0.3687  0.1108
   22TAL   C10928896   8.094  -0.971   8.490  0.1732  0.1836 -1.3848
   22TAL   C11028897   8.090  -1.080   8.591 -0.1900  0.0227 -0.9544
   23HTM   C11128898   7.594  -0.547   8.296 -0.0941 -0.7520 -0.7961
   23HTM   C11228899   7.727  -0.540   8.323 -0.1937 -0.6330 -0.3061
   23HTM   C11328900   7.789  -0.417   8.278 -0.3390 -0.0985  0.8879
   23HTM   C11428901   7.703  -0.331   8.218 -0.3502  0.1900  1.3076
   23HTM    S1228902   7.535  -0.398   8.212 -0.1767 -0.1941  0.2198
   24TAL   C11528903   7.937  -0.398   8.287 -0.2521 -0.7282  0.3069
   24TAL   C11628904   8.014  -0.357   8.420 -0.2275 -0.1190 -0.0870
   24TAL   C11728905   7.960  -0.236   8.515  0.1983  1.0397 -0.0290
   24TAL   C11828906   8.053  -0.184   8.620  0.2429  0.2646  0.3013
   24TAL   C11928907   8.105  -0.290   8.716  0.4275  0.2899 -0.7281
   24TAL   C12028908   8.222  -0.239   8.806  0.1131  0.8228  0.9208
   25HTM   C12128909   7.731  -0.200   8.176  0.4528 -0.4632 -0.0653
   25HTM   C12228910   7.770  -0.141   8.059  1.0063 -0.8379 -0.0701
   25HTM   C12328911   7.772   0.002   8.064  1.0619 -0.8222 -0.4981
   25HTM   C12428912   7.734   0.054   8.184  0.5509 -0.4357 -0.8192
   25HTM    S1328913   7.692  -0.076   8.301 -0.0449 -0.0585 -0.6044
   26TAL   C12528914   7.816   0.096   7.951 -1.3879  1.2491  0.6225
   26TAL   C12628915   7.752   0.073   7.809 -1.1661  0.1299 -0.6930
   26TAL   C12728916   7.612   0.118   7.792  0.4030 -0.3042  0.0500
   26TAL   C12828917   7.591   0.263   7.740 -0.0303  0.1493  0.6526
   26TAL   C12928918   7.440   0.317   7.765 -0.1030  0.2613 -0.1766
   26TAL   C13028919   7.375   0.313   7.905 -0.2824 -0.5328 -0.0877
   27HTM   C13128920   7.698   0.184   8.246 -0.0905  0.2753 -0.3153
   27HTM   C13228921   7.634   0.287   8.183 -0.1866  0.3251 -0.1373
   27HTM   C13328922   7.624   0.406   8.262 -0.3438  0.1632  0.0913
   27HTM   C13428923   7.682   0.396   8.386 -0.3675 -0.0101  0.0878
   27HTM    S1428924   7.753   0.232   8.411 -0.1917  0.0181 -0.2072
   28TAL   C13528925   7.552   0.528   8.210 -0.5854  0.1596 -0.0542
   28TAL   C13628926   7.397   0.515   8.222 -0.0946  0.0105  1.0575
   28TAL   C13728927   7.308   0.627   8.166 -1.1772 -0.1952  0.7037
   28TAL   C13828928   7.362   0.771   8.156  0.0415 -0.7141 -0.2535
   28TAL   C13928929   7.406   0.833   8.284  0.5007 -1.1494 -1.1276
   28TAL   C14028930   7.292   0.865   8.381  0.0574  0.0289 -0.6918
   29HTM   C14128931   7.705   0.491   8.493  0.1827  0.2201  0.5799
   29HTM   C14228932   7.752   0.467   8.618  0.5120  0.7062  0.5548
   29HTM   C14328933   7.753   0.583   8.703  0.3330  0.9458  0.2329
   29HTM   C14428934   7.707   0.696   8.642 -0.1328  0.6424  0.0121
   29HTM    S1528935   7.658   0.664   8.471 -0.3833  0.0258  0.1952
   30TAL   C14528936   7.787   0.568   8.853  0.3366 -0.4071  0.6678
   30TAL   C14628937   7.928   0.601   8.873  0.5223  0.4136 -1.0539
   30TAL   C14728938   7.997   0.538   8.999 -0.1863  0.3758 -0.0497
   30TAL   C14828939   8.142   0.575   8.984  0.3127 -0.0422  0.5371
   30TAL   C14928940   8.227   0.487   9.079  0.3309  0.7523 -0.4095
   30TAL   C15028941   8.377   0.486   9.052 -0.2012 -0.3240 -0.8388
   31HTM   C15128942   7.695   0.833   8.690 -0.2979 -0.1111 -0.0772
   31HTM   C15228943   7.639   0.881   8.804  0.0853 -0.0608  0.0892
   31HTM   C15328944   7.651   1.024   8.818  0.5839 -0.1131  0.2356
   31HTM   C15428945   7.716   1.084   8.714  0.5808 -0.2033  0.1809
   31HTM    S1628946   7.766   0.964   8.589 -0.0570 -0.2294 -0.0615
   32TAL   C15528947   7.565   1.099   8.927  0.4627 -1.0430  0.0505
   32TAL   C15628948   7.453   1.029   9.014  0.1563 -0.2335  0.3587
   32TAL   C15728949   7.362   1.141   9.063  0.1173  0.1718 -0.2794
   32TAL   C15828950   7.229   1.086   9.120 -0.5549  0.4900 -0.5422
   32TAL   C15928951   7.225   0.976   9.224 -0.3303 -0.0788  0.1904
   32TAL   C16028952   7.098   0.887   9.214 -0.6839 -0.0428  0.4874
   33HTM   C16128953   7.729   1.225   8.690  0.4862  0.0491 -0.3337
   33HTM   C16228954   7.680   1.300   8.586  0.7948  0.0481 -0.4811
   33HTM   C16328955   7.698   1.441   8.603  0.6004  0.0570 -0.3557
   33HTM   C16428956   7.759   1.475   8.720  0.1434  0.0648 -0.1126
   33HTM    S1728957   7.801   1.330   8.818 -0.0784  0.0615 -0.0221
   34TAL   C16528958   7.616   1.535   8.522 -0.2625 -0.5930  0.1152
   34TAL   C16628959   7.671   1.573   8.387 -0.7527  1.0102  0.3291
   34TAL   C16728960   7.573   1.650   8.311 -0.0926  0.6821 -0.4607
   34TAL   C16828961   7.626   1.701   8.174 -0.2716 -0.8382 -0.5897
   34TAL   C16928962   7.622   1.606   8.057 -0.0323 -0.3359 -0.2084
   34TAL   C17028963   7.624   1.663   7.918 -0.8334 -0.5447 -0.5923
   35HTM   C17128964   7.812   1.601   8.771 -0.0724 -0.0945 -0.1097
   35HTM   C17228965   7.841   1.705   8.688 -0.1957 -0.3042 -0.4213
   35HTM   C17328966   7.897   1.820   8.756 -0.1098 -0.1216 -0.7920
   35HTM   C17428967   7.909   1.802   8.891  0.0791  0.2272 -0.7628
   35HTM    S1828968   7.852   1.639   8.942  0.1637  0.3532 -0.2610
   36TAL   C17528969   7.953   1.935   8.666  0.4073  0.7991 -0.6054
   36TAL   C17628970   7.945   1.927   8.510 -0.1067  0.1988  0.0168
   36TAL   C17728971   8.010   2.053   8.470 -0.1638  0.6152 -0.0856
   36TAL   C17828972   8.056   2.059   8.325  0.4583  0.0743  0.5331
   36TAL   C17928973   7.957   2.059   8.208 -0.4739  0.2884 -0.0336
   36TAL   C18028974   8.018   2.109   8.084 -0.2806  0.2061 -0.5770
   37HTM   C18128975   7.955   1.893   8.991 -0.2568  0.1475 -0.0628
   37HTM   C18228976   7.908   1.888   9.119 -0.4158  0.4306 -0.1090
   37HTM   C18328977   7.990   1.959   9.214 -0.4198  0.4643 -0.1307
   37HTM   C18428978   8.099   2.018   9.158 -0.2639  0.2068 -0.1009
   37HTM    S1928979   8.108   1.989   8.981 -0.0986 -0.1005 -0.0427
   38TAL   C18528980   7.955   1.950   9.361 -0.9658  0.4152 -0.5572
   38TAL   C18628981   8.041   2.004   9.480  0.2174 -0.0847 -0.6410
   38TAL   C18728982   7.980   1.994   9.622 -0.7008  1.0971  0.5583
   38TAL   C18828983   7.917   1.864   9.673  1.2070  0.1690 -0.6275
   38TAL   C18928984   8.000   1.741   9.708 -0.1906 -0.5540  0.5887
   38TAL   C19028985   7.922   1.637   9.793 -0.1032 -0.0795  0.2597
   39HTM   C19128986   8.204   2.090   9.218  0.1352  0.3019 -0.0654
   39HTM   C19228987   8.305   2.044   9.296  0.4082  0.3882 -0.3633
   39HTM   C19328988   8.400   2.146   9.333  0.4638  0.4575 -0.6895
   39HTM   C19428989   8.371   2.269   9.283  0.2333  0.4242 -0.6394
   39HTM    S2028990   8.220   2.267   9.184 -0.0743  0.3017 -0.1732
   40TAL   C19528991   8.503   2.112   9.441  0.6063 -0.2657  1.2125
   40TAL   C19628992   8.447   2.099   9.583 -0.2738  0.6401  0.4374
   40TAL   C19728993   8.578   2.093   9.668  1.3510  1.0126  0.3981
   40TAL   C19828994   8.548   2.148   9.806 -0.5941  0.0841  0.6722
   40TAL   C19928995   8.671   2.106   9.892 -0.5831 -0.0363  0.5445
   40TAL   C20028996   8.688   2.173  10.023  0.2340  0.5481 -1.1380
   41HTM   C20128997   8.451   2.394   9.289  0.3547  0.5131 -0.2327
   41HTM   C20228998   8.407   2.522   9.272  0.4785  0.4854 -0.8337
   41HTM   C20328999   8.512   2.621   9.280  0.5349  0.4420 -1.0259
   41HTM   C20429000   8.635   2.568   9.303  0.4541  0.4368 -0.5719
   41HTM    S2129001   8.629   2.388   9.316  0.2994  0.4865  0.1394
   42TAL   C20529002   8.468   2.765   9.296 -0.7070  1.2234  0.4637
   42TAL   C20629003   8.438   2.812   9.429  0.2439  0.3789 -0.0750
   42TAL   C20729004   8.314   2.895   9.403  0.5230  0.0142 -1.0377
   42TAL   C20829005   8.259   2.945   9.535  0.7246 -1.2265  0.3882
   42TAL   C20929006   8.152   3.059   9.522  0.3473 -1.0724 -0.2326
   42TAL   C21029007   8.190   3.186   9.447  0.4293  1.0714  0.0361
   43HTM   C21129008   8.763   2.629   9.303  0.0238 -0.3626  0.2809
   43HTM   C21229009   8.793   2.762   9.303 -0.1929 -0.3124  0.5250
   43HTM   C21329010   8.933   2.790   9.318 -0.2260 -0.1140  0.4752
   43HTM   C21429011   9.010   2.678   9.329 -0.0345 -0.0130  0.1932
   43HTM    S2229012   8.911   2.528   9.322  0.2043 -0.1617 -0.0333
   44TAL   C21529013   8.998   2.927   9.317 -0.2772 -1.0896  0.8336
   44TAL   C21629014   8.914   3.049   9.301 -0.0987 -1.0932 -1.1646
   44TAL   C21729015   8.970   3.182   9.330  0.1537  0.1124  0.6232
   44TAL   C21829016   9.082   3.256   9.257  0.0926  0.6340  0.1129
   44TAL   C21929017   9.038   3.307   9.120  0.0320 -0.8180  0.1221
   44TAL   C22029018   8.969   3.450   9.122  0.4256 -0.2312 -0.0410
   45HTM   C22129019   9.156   2.644   9.348 -0.4237 -0.1100  0.1445
   45HTM   C22229020   9.224   2.538   9.297 -0.4587 -0.2830  0.4554
   45HTM   C22329021   9.364   2.537   9.330 -0.4416 -0.1854  0.3858
   45HTM   C22429022   9.403   2.643   9.406 -0.3934  0.0619  0.0215
   45HTM    S2329023   9.264   2.753   9.442 -0.3658  0.1918 -0.2634
   46TAL   C22529024   9.456   2.432   9.283 -0.9338 -0.2450  0.3136
   46TAL   C22629025   9.411   2.323   9.183  0.3087  0.4584  0.7413
   46TAL   C22729026   9.443   2.187   9.238  0.2396  0.8127 -0.2596
   46TAL   C22829027   9.406   2.058   9.167 -0.8255 -0.1610 -0.4441
   46TAL   C22929028   9.463   2.035   9.029  0.0490  0.5197 -0.2524
   46TAL   C23029029   9.621   2.024   9.039 -0.6386 -0.5701 -0.3522
   47HTM   C23129030   9.526   2.669   9.477 -0.3057  0.6256  0.0803
   47HTM   C23229031   9.649   2.682   9.421 -0.4899  1.6356 -0.1349
   47HTM   C23329032   9.756   2.685   9.517 -0.3066  1.9642 -0.3464
   47HTM   C23429033   9.715   2.675   9.646  0.0172  1.2049 -0.2923
   47HTM    S2429034   9.535   2.660   9.657  0.1167  0.0065  0.0325
   48TAL   C23529035   9.902   2.706   9.473  0.7871  0.6522  0.0382
   48TAL   C23629036   9.957   2.840   9.442  0.2389 -0.1651 -0.0310
   48TAL   C23729037   9.946   2.940   9.556  0.1964  0.4883 -1.1333
   48TAL   C23829038  10.014   3.075   9.524  0.5736  1.2872 -0.9944
   48TAL   C23929039   9.978   3.149   9.390 -0.7345  1.0206 -0.3971
   48TAL   C24029040   9.826   3.198   9.375 -0.8531 -0.2348 -0.5137
    1HTM     C129041   4.559   4.434   6.828  0.3066  0.1716  0.1791
    1HTM     C229042   4.441   4.380   6.788  0.2525 -0.1490  0.7515
    1HTM     C329043   4.444   4.327   6.655 -0.1535 -0.4588  0.8616
    1HTM     C429044   4.564   4.341   6.593 -0.4089 -0.3744  0.3734
    1HTM     S129045   4.685   4.422   6.699 -0.1545  0.1066 -0.2686
    2TAL     C529046   4.333   4.242   6.606 -0.3261  0.4373  0.2145
    2TAL     C629047   4.258   4.310   6.502 -0.2541 -1.3230  0.5036
    2TAL     C729048   4.171   4.238   6.412  0.1628  0.0571  0.8507
    2TAL     C829049   4.128   4.326   6.291  0.6377 -0.1020 -0.2626
    2TAL     C929050   4.028   4.262   6.201 -0.5055 -0.4430  0.3579
    2TAL    C1029051   4.030   4.345   6.076  0.0530 -0.5061 -0.3562
    3HTM    C1129052   4.618   4.311   6.463  0.0669  0.5872 -0.0092
    3HTM    C1229053   4.717   4.385   6.406 -0.1584  0.8067 -0.1225
    3HTM    C1329054   4.730   4.364   6.264 -0.1607  0.6998 -0.1075
    3HTM    C1429055   4.639   4.275   6.213  0.0630  0.3987  0.0176
    3HTM     S229056   4.531   4.210   6.342  0.2956  0.2253  0.1268
    4TAL    C1529057   4.838   4.442   6.189  0.3144  0.0813 -0.4075
    4TAL    C1629058   4.984   4.407   6.230  0.1683 -0.7892  0.6444
    4TAL    C1729059   5.114   4.455   6.163 -0.1686 -0.3387 -0.8615
    4TAL    C1829060   5.143   4.599   6.173 -0.2017 -0.7132  0.1369
    4TAL    C1929061   5.283   4.633   6.125 -0.0530  0.1675  0.3365
    4TAL    C2029062   5.379   4.629   6.232 -1.1474  0.0320 -0.8697
    5HTM    C2129063   4.614   4.216   6.087  0.1902  0.1989  0.2752
    5HTM    C2229064   4.499   4.215   6.014  0.2414  0.7939  0.1794
    5HTM    C2329065   4.517   4.172   5.878  0.2170  1.2085  0.0436
    5HTM    C2429066   4.646   4.140   5.847  0.1472  0.9297  0.0357
    5HTM     S329067   4.756   4.162   5.989  0.1065  0.1155  0.2005
    6TAL    C2529068   4.395   4.206   5.788 -0.2364  0.7922 -0.1024
    6TAL    C2629069   4.273   4.106   5.779  0.2536  0.1490 -0.1460
    6TAL    C2729070   4.279   4.018   5.657 -0.4338 -0.4975 -0.2333
    6TAL    C2829071   4.196   3.892   5.664  0.6948 -0.6035 -1.0078
    6TAL    C2929072   4.216   3.796   5.556  0.2825  0.1289 -0.1674
    6TAL    C3029073   4.342   3.710   5.545 -0.4147 -0.2981 -0.0366
    7HTM    C3129074   4.711   4.114   5.719 -0.0599  0.3305 -0.0479
    7HTM    C3229075   4.842   4.120   5.682  0.0447  0.9371  0.3982
    7HTM    C3329076   4.863   4.115   5.540  0.5484  1.2103  0.4563
    7HTM    C3429077   4.747   4.104   5.468  0.8279  0.8118  0.0549
    7HTM     S429078   4.602   4.101   5.575  0.4738  0.0549 -0.4319
    8TAL    C3529079   5.000   4.089   5.478  0.4331 -0.2105 -0.3798
    8TAL    C3629080   5.085   3.973   5.527 -0.4586 -0.1314  0.0605
    8TAL    C3729081   5.029   3.835   5.493 -0.2931  0.3811 -0.3822
    8TAL    C3829082   5.084   3.734   5.595 -0.0368 -0.0177  0.5903
    8TAL    C3929083   4.974   3.647   5.635 -0.4839  0.1697  0.1047
    8TAL    C4029084   4.932   3.676   5.773 -0.2601  0.1582  0.5125
    9HTM    C4129085   4.723   4.070   5.327  0.4912  0.0199 -0.0029
    9HTM    C4229086   4.653   3.967   5.270  0.6247 -0.1675  0.1696
    9HTM    C4329087   4.658   3.967   5.126  0.4878 -0.3080  0.1653
    9HTM    C4429088   4.730   4.069   5.073  0.2500 -0.2280 -0.0103
    9HTM     S529089   4.800   4.175   5.202  0.1801  0.0332 -0.1854
   10TAL    C4529090   4.582   3.862   5.049  0.1982  0.2243 -0.0446
   10TAL    C4629091   4.648   3.719   5.027  0.1040 -0.3458 -0.6336
   10TAL    C4729092   4.537   3.608   5.005  0.3109  0.6335 -0.6150
   10TAL    C4829093   4.576   3.454   4.998 -0.0196 -0.6246 -0.3914
   10TAL    C4929094   4.470   3.357   5.024 -0.1000 -0.6397 -0.6729
   10TAL    C5029095   4.532   3.218   5.033 -0.1616 -0.1225  0.3882
   11HTM    C5129096   4.762   4.104   4.934 -0.3743 -0.1877 -0.3065
   11HTM    C5229097   4.735   4.222   4.871 -1.1319 -0.6880 -0.9637
   11HTM    C5329098   4.798   4.234   4.742 -1.0582 -0.9243 -0.9516
   11HTM    C5429099   4.873   4.126   4.706 -0.2445 -0.6041 -0.2855
   11HTM     S629100   4.869   3.999   4.834  0.4976  0.0254  0.3836
   12TAL    C5529101   4.772   4.354   4.650  0.3897 -0.1102 -0.3248
   12TAL    C5629102   4.624   4.367   4.626  0.2501 -0.5540 -0.3662
   12TAL    C5729103   4.572   4.474   4.532 -0.9497 -0.0484 -0.4503
   12TAL    C5829104   4.606   4.449   4.390  0.8509 -1.1178  0.4425
   12TAL    C5929105   4.563   4.554   4.288  0.2677  0.1142 -0.1731
   12TAL    C6029106   4.624   4.686   4.309 -0.4200 -0.2030  0.9510
   13HTM    C6129107   4.943   4.093   4.584 -0.2221 -0.3025 -0.1783
   13HTM    C6229108   4.900   4.106   4.455 -0.0842 -1.1419 -0.3220
   13HTM    C6329109   4.999   4.070   4.357  0.1379 -1.4608  0.0170
   13HTM    C6429110   5.118   4.029   4.412  0.1692 -0.8645  0.4192
   13HTM     S729111   5.112   4.033   4.592 -0.0813  0.1540  0.4008
   14TAL    C6529112   4.982   4.073   4.206 -0.0338  0.0329 -0.2480
   14TAL    C6629113   4.908   4.175   4.134  0.5722  0.5305 -0.4939
   14TAL    C6729114   4.761   4.130   4.128 -0.1983  0.5992 -1.1260
   14TAL    C6829115   4.690   4.192   4.003  0.6868  0.0120 -0.1692
   14TAL    C6929116   4.729   4.180   3.847 -0.7955 -0.6978 -1.5852
   14TAL    C7029117   4.620   4.238   3.772  0.2864  0.7423  0.4902
   15HTM    C7129118   5.239   3.977   4.352 -0.2046 -0.5316 -0.0920
   15HTM    C7229119   5.299   4.015   4.236 -0.2284 -0.4292 -0.0708
   15HTM    C7329120   5.411   3.933   4.198  0.1680 -0.0071  0.1682
   15HTM    C7429121   5.437   3.832   4.286  0.4942  0.2124  0.3291
   15HTM     S829122   5.321   3.833   4.424  0.3246 -0.0995  0.1901
   16TAL    C7529123   5.467   3.945   4.059 -0.1325 -0.6296  0.7441
   16TAL    C7629124   5.559   4.074   4.034  0.6071 -0.6461 -0.5928
   16TAL    C7729125   5.692   4.096   4.113 -0.1247  1.0257  0.5034
   16TAL    C7829126   5.735   4.235   4.110  0.2714 -1.4661  0.5945
   16TAL    C7929127   5.847   4.264   4.205 -1.0909 -0.9298  0.0629
   16TAL    C8029128   5.882   4.413   4.202  0.8236 -0.6217 -0.0368
   17HTM    C8129129   5.526   3.722   4.293 -0.4979 -0.2097 -0.2984
   17HTM    C8229130   5.509   3.602   4.355 -0.4034 -0.0878 -0.0310
   17HTM    C8329131   5.615   3.507   4.329 -0.2240  0.0088  0.3496
   17HTM    C8429132   5.713   3.556   4.249 -0.1816 -0.0394  0.3725
   17HTM     S929133   5.679   3.725   4.197 -0.3663 -0.2118 -0.0884
   18TAL    C8529134   5.605   3.368   4.406 -0.0931  0.1869  1.0006
   18TAL    C8629135   5.500   3.267   4.348  0.3278  0.1716  0.8913
   18TAL    C8729136   5.502   3.236   4.198 -0.0966  0.3796  0.8405
   18TAL    C8829137   5.380   3.148   4.154  0.8631 -0.3544  0.1172
   18TAL    C8929138   5.375   3.015   4.216  0.3816 -0.0154  0.5331
   18TAL    C9029139   5.311   2.916   4.115 -0.1004  1.3953  0.2467
   19HTM    C9129140   5.830   3.484   4.187  0.1826  0.1764 -0.0610
   19HTM    C9229141   5.906   3.522   4.081  0.0252  0.1001 -0.2005
   19HTM    C9329142   6.023   3.440   4.061  0.0011  0.0920 -0.3091
   19HTM    C9429143   6.036   3.340   4.152  0.1400  0.1619 -0.2523
   19HTM    S1029144   5.901   3.341   4.272  0.3137  0.2442 -0.0560
   20TAL    C9529145   6.105   3.472   3.935 -1.3423  1.2780  0.4435
   20TAL    C9629146   6.093   3.595   3.845 -0.7597 -0.1963  0.4510
   20TAL    C9729147   5.955   3.605   3.781  0.1036  0.8987  0.3020
   20TAL    C9829148   5.939   3.729   3.693 -0.4119  0.0762  0.0361
   20TAL    C9929149   5.813   3.726   3.615  0.7164  1.1200 -1.3858
   20TAL   C10029150   5.693   3.742   3.714 -0.5757 -0.7856 -0.3937
   21HTM   C10129151   6.128   3.235   4.166 -0.3544 -0.3730  0.0072
   21HTM   C10229152   6.105   3.114   4.224 -0.4684 -0.5265 -0.3517
   21HTM   C10329153   6.216   3.022   4.213 -0.4408 -0.4915 -0.3644
   21HTM   C10429154   6.323   3.074   4.146 -0.3056 -0.3112 -0.0154
   21HTM    S1129155   6.292   3.243   4.092 -0.2019 -0.1707  0.3595
   22TAL   C10529156   6.225   2.892   4.288  1.0210  0.2432  0.2838
   22TAL   C10629157   6.081   2.843   4.333  0.5187 -0.0407  0.2042
   22TAL   C10729158   6.001   2.781   4.214 -0.5387 -0.7123  0.1050
   22TAL   C10829159   5.867   2.713   4.235 -0.7895 -0.3946  0.1159
   22TAL   C10929160   5.754   2.788   4.288  1.2229 -0.1978  0.2054
   22TAL   C11029161   5.630   2.695   4.322 -0.4629 -0.0191 -0.7343
   23HTM   C11129162   6.446   3.003   4.110 -0.2296 -0.1911  0.4121
   23HTM   C11229163   6.571   3.044   4.148 -0.1993 -0.7425  0.9435
   23HTM   C11329164   6.677   2.961   4.098 -0.3133 -0.7448  0.7027
   23HTM   C11429165   6.633   2.856   4.022 -0.4303 -0.1952 -0.0125
   23HTM    S1229166   6.453   2.855   4.008 -0.4059  0.3723 -0.4407
   24TAL   C11529167   6.819   3.009   4.122 -0.2897 -0.2173 -0.2723
   24TAL   C11629168   6.878   3.129   4.042 -0.4148 -0.1977  0.5313
   24TAL   C11729169   7.011   3.161   4.108  0.0929 -0.5935  0.0320
   24TAL   C11829170   7.085   3.281   4.049 -0.0370 -0.0703 -0.7052
   24TAL   C11929171   7.200   3.322   4.150  0.4938 -0.4984  0.0630
   24TAL   C12029172   7.164   3.384   4.282  0.2738  0.0133 -0.3467
   25HTM   C12129173   6.702   2.756   3.942 -0.2632  0.6154  0.0239
   25HTM   C12229174   6.690   2.621   3.955 -0.7869  0.6781  0.2747
   25HTM   C12329175   6.758   2.547   3.852 -1.0837  0.2218  0.3999
   25HTM   C12429176   6.821   2.626   3.760 -0.7865 -0.1889  0.2446
   25HTM    S1329177   6.800   2.801   3.798 -0.1032 -0.0300 -0.0743
   26TAL   C12529178   6.726   2.399   3.843 -0.3750  0.4823 -0.5350
   26TAL   C12629179   6.645   2.331   3.959 -0.7430  0.5168 -0.7320
   26TAL   C12729180   6.641   2.179   3.939 -0.2985  0.3855  0.0701
   26TAL   C12829181   6.543   2.112   3.847 -0.2839 -0.5119  1.1883
   26TAL   C12929182   6.576   1.968   3.818 -0.4725  0.0790  0.7833
   26TAL   C13029183   6.500   1.900   3.707 -0.4625 -0.3668  0.5181
   27HTM   C13129184   6.872   2.599   3.629  0.0679 -0.0443  0.4965
   27HTM   C13229185   6.979   2.517   3.607 -0.4013 -0.6747  0.4945
   27HTM   C13329186   6.998   2.481   3.469 -0.6489 -0.8394  0.5025
   27HTM   C13429187   6.905   2.536   3.385 -0.3686 -0.3346  0.5105
   27HTM    S1429188   6.786   2.637   3.475  0.2347  0.3936  0.5087
   28TAL   C13529189   7.118   2.396   3.417 -0.2405 -1.0108  1.7663
   28TAL   C13629190   7.112   2.243   3.431  0.5769 -0.3239  0.5167
   28TAL   C13729191   7.010   2.167   3.343  0.1257  0.3936 -0.2472
   28TAL   C13829192   7.018   2.013   3.386 -0.1916  0.1983  0.5352
   28TAL   C13929193   6.998   1.978   3.534  0.2392  0.3676 -0.2018
   28TAL   C14029194   6.886   2.003   3.628  0.6103  0.3466 -0.0473
   29HTM   C14129195   6.893   2.538   3.239  0.3151  0.1193  0.0113
   29HTM   C14229196   6.775   2.496   3.186  0.0913  0.0551  0.5512
   29HTM   C14329197   6.771   2.500   3.042 -0.4992 -0.1349  0.5567
   29HTM   C14429198   6.886   2.545   2.986 -0.7257 -0.2158  0.0210
   29HTM    S1529199   7.010   2.586   3.110 -0.2066 -0.0568 -0.5363
   30TAL   C14529200   6.658   2.445   2.956  0.3379 -0.5562  0.0813
   30TAL   C14629201   6.626   2.292   2.973 -0.2213  0.4400  0.6839
   30TAL   C14729202   6.493   2.248   2.907 -0.3283  1.3182  0.9193
   30TAL   C14829203   6.452   2.291   2.767  0.3109 -0.5593  0.4501
   30TAL   C14929204   6.563   2.285   2.655  0.2997  0.9265 -0.0536
   30TAL   C15029205   6.504   2.281   2.519  0.5239  1.0077  0.5171
   31HTM   C15129206   6.905   2.567   2.844  0.8118  0.7339 -0.3991
   31HTM   C15229207   6.851   2.672   2.776  1.7265  1.1582 -0.5033
   31HTM   C15329208   6.844   2.651   2.634  1.5280  1.0659 -0.4807
   31HTM   C15429209   6.893   2.531   2.594  0.4622  0.5711 -0.3591
   31HTM    S1629210   6.952   2.433   2.733 -0.3804  0.1804 -0.2632
   32TAL   C15529211   6.812   2.756   2.546  1.5923  0.0657  0.3181
   32TAL   C15629212   6.682   2.832   2.545 -0.0139 -0.6379 -0.2110
   32TAL   C15729213   6.677   2.941   2.446  0.5383 -0.5172  0.1558
   32TAL   C15829214   6.648   2.888   2.308 -0.8435  0.2729  1.1225
   32TAL   C15929215   6.664   2.959   2.173  0.1753  0.1608  0.4701
   32TAL   C16029216   6.790   3.028   2.123 -0.4499  0.1942  0.5665
   33HTM   C16129217   6.902   2.473   2.462  0.6124  1.1621 -0.4989
   33HTM   C16229218   6.999   2.388   2.419  1.1450  1.9634 -0.9335
   33HTM   C16329219   6.978   2.340   2.285  0.7653  1.5498 -0.7285
   33HTM   C16429220   6.865   2.388   2.226 -0.0572  0.4333 -0.1376
   33HTM    S1729221   6.776   2.499   2.337 -0.4185 -0.1874  0.2085
   34TAL   C16529222   7.102   2.263   2.231  0.4725 -1.0076 -0.8487
   34TAL   C16629223   7.087   2.116   2.247 -1.4034  0.6312 -0.3774
   34TAL   C16729224   7.013   2.016   2.152  0.1776 -0.7414 -0.4990
   34TAL   C16829225   7.028   1.988   2.003  0.2832  0.0066  1.3435
   34TAL   C16929226   7.023   2.114   1.912  0.1422  0.1877 -0.4985
   34TAL   C17029227   7.146   2.129   1.820 -0.7490  0.3967 -0.6597
   35HTM   C17129228   6.800   2.360   2.096  0.1299 -0.5859 -0.6713
   35HTM   C17229229   6.708   2.261   2.077  0.5890 -0.9145 -1.2529
   35HTM   C17329230   6.657   2.256   1.942  0.8819 -0.5914 -1.3805
   35HTM   C17429231   6.711   2.350   1.859  0.6459 -0.0165 -0.8960
   35HTM    S1829232   6.830   2.453   1.945  0.0308  0.1628 -0.2360
   36TAL   C17529233   6.565   2.126   1.904 -0.1014 -0.3501  0.4574
   36TAL   C17629234   6.631   1.987   1.899  0.0712  0.3400  0.7574
   36TAL   C17729235   6.692   1.924   1.772  0.0912 -0.6367  0.0519
   36TAL   C17829236   6.622   1.929   1.632 -0.3774 -1.1146  0.2521
   36TAL   C17929237   6.668   1.850   1.510  0.6041  0.5465 -0.1571
   36TAL   C18029238   6.702   1.708   1.535  0.0011 -0.8192  0.7911
   37HTM   C18129239   6.698   2.359   1.717  0.3887  0.1774  0.4393
   37HTM   C18229240   6.591   2.401   1.643  0.5805  0.4680  0.3199
   37HTM   C18329241   6.605   2.377   1.502  0.7122  0.5158  0.3247
   37HTM   C18429242   6.723   2.317   1.468  0.6204  0.2616  0.4478
   37HTM    S1929243   6.826   2.286   1.613  0.3589 -0.0602  0.5682
   38TAL   C18529244   6.498   2.407   1.391  0.7473 -0.4231 -0.6593
   38TAL   C18629245   6.368   2.471   1.436 -0.9223 -0.5763  0.8118
   38TAL   C18729246   6.280   2.380   1.521  0.3914  0.2409 -0.6328
   38TAL   C18829247   6.153   2.345   1.448 -0.3175 -0.2183 -0.2294
   38TAL   C18929248   6.037   2.277   1.519  0.3949 -0.7106 -0.9686
   38TAL   C19029249   5.934   2.201   1.436  1.0372  0.0129 -0.5323
   39HTM   C19129250   6.770   2.266   1.343 -0.5029  0.0484 -0.5607
   39HTM   C19229251   6.739   2.150   1.278 -0.3877  0.2034 -0.8972
   39HTM   C19329252   6.802   2.137   1.150  0.1664  0.3291 -0.6436
   39HTM   C19429253   6.882   2.242   1.116  0.4734  0.2701 -0.1136
   39HTM    S2029254   6.884   2.367   1.246  0.0836  0.0493  0.1079
   40TAL   C19529255   6.781   2.017   1.058 -0.6726  0.1109 -0.6764
   40TAL   C19629256   6.812   1.879   1.120 -0.5193 -0.1533  0.6818
   40TAL   C19729257   6.770   1.766   1.030 -0.8909 -1.0013 -0.2943
   40TAL   C19829258   6.801   1.622   1.075 -1.0611 -0.5536 -0.6459
   40TAL   C19929259   6.727   1.585   1.204  0.7336 -0.0140  0.3622
   40TAL   C20029260   6.741   1.428   1.234 -0.6077 -0.2119  0.0408
   41HTM   C20129261   6.944   2.262   0.980 -0.4009 -0.4628 -0.2199
   41HTM   C20229262   7.077   2.245   0.958 -0.3350 -0.2595  0.0062
   41HTM   C20329263   7.116   2.264   0.820 -0.0204  0.4588  0.1885
   41HTM   C20429264   7.013   2.297   0.738  0.1538  0.8030  0.1015
   41HTM    S2129265   6.857   2.305   0.828 -0.0679  0.2425 -0.2200
   42TAL   C20529266   7.257   2.240   0.776  0.2590  0.4954  0.7863
   42TAL   C20629267   7.311   2.102   0.737  0.3122 -0.1829  0.0171
   42TAL   C20729268   7.454   2.107   0.691 -0.1272  0.7054 -0.2155
   42TAL   C20829269   7.483   2.014   0.577 -0.4915  0.3431  1.1050
   42TAL   C20929270   7.613   2.037   0.508 -0.2381 -0.2684 -0.7620
   42TAL   C21029271   7.730   1.979   0.583 -0.3104 -0.7766  0.1346
   43HTM   C21129272   6.995   2.323   0.592 -0.2560 -1.0069 -0.0818
   43HTM   C21229273   6.874   2.323   0.530 -0.2917 -0.5887 -0.0174
   43HTM   C21329274   6.881   2.345   0.388 -0.3523  0.1028  0.0789
   43HTM   C21429275   7.009   2.362   0.342 -0.3631  0.2120  0.0881
   43HTM    S2229276   7.130   2.351   0.475 -0.2968 -0.5562 -0.0252
   44TAL   C21529277   6.755   2.369   0.313 -0.0777 -0.5598  0.7130
   44TAL   C21629278   6.716   2.516   0.278  0.3107  0.7614 -0.1612
   44TAL   C21729279   6.666   2.521   0.137  0.5854 -0.2799 -0.3576
   44TAL   C21829280   6.644   2.656   0.077 -0.2638 -1.1176 -0.1426
   44TAL   C21929281   6.507   2.713   0.076  0.0385 -0.1677  0.0798
   44TAL   C22029282   6.501   2.869   0.100 -0.1213  0.3891  0.5437
   45HTM   C22129283   7.054   2.380   0.196  0.3020  0.1939  0.5641
   45HTM   C22229284   7.039   2.486   0.112  0.3811  0.2492  0.6190
   45HTM   C22329285   7.102   2.468  -0.016  0.0373  0.1036  0.4649
   45HTM   C22429286   7.166   2.348  -0.029 -0.3040 -0.0628  0.2933
   45HTM    S2329287   7.151   2.248   0.120 -0.2169 -0.0484  0.3122
   46TAL   C22529288   7.106   2.580  -0.118  0.0775  0.5978  0.1064
   46TAL   C22629289   6.988   2.598  -0.214  0.2596 -0.3784  0.7799
   46TAL   C22729290   7.008   2.732  -0.297 -0.2963  1.4649 -0.6255
   46TAL   C22829291   6.892   2.743  -0.388  0.5885 -0.7994  0.3206
   46TAL   C22929292   6.915   2.856  -0.493 -0.2162 -0.0991  0.0565
   46TAL   C23029293   6.951   2.808  -0.636  0.7490  0.0789 -0.2380
   47HTM   C23129294   7.247   2.289  -0.137 -0.2273 -0.1661 -0.4247
   47HTM   C23229295   7.358   2.215  -0.109 -0.2756 -0.2367 -0.4201
   47HTM   C23329296   7.429   2.170  -0.226 -0.3264 -0.3230 -0.4182
   47HTM   C23429297   7.372   2.210  -0.343 -0.3167 -0.3183 -0.4211
   47HTM    S2429298   7.223   2.308  -0.314 -0.2423 -0.2037 -0.4269
   48TAL   C23529299   7.566   2.113  -0.208 -0.8962 -0.0996  0.5066
   48TAL   C23629300   7.619   2.024  -0.320 -0.1750  0.0973  0.0150
   48TAL   C23729301   7.758   1.965  -0.283  0.6308 -0.5788  0.4321
   48TAL   C23829302   7.779   1.841  -0.358  0.4423  0.3050  0.2451
   48TAL   C23929303   7.915   1.790  -0.345 -0.8162 -0.0990  0.5454
   48TAL   C24029304   7.949   1.655  -0.421 -0.3642 -0.7491  0.3809
    1HTM     C129305   3.263   3.895  14.046 -0.7074 -0.1184 -0.0532
    1HTM     C229306   3.366   3.893  14.136 -0.4851 -0.3147 -0.3104
    1HTM     C329307   3.379   4.014  14.212  0.1408 -0.2112 -0.5648
    1HTM     C429308   3.286   4.109  14.182  0.3959  0.0640 -0.5018
    1HTM     S129309   3.174   4.052  14.052 -0.1390  0.2149 -0.1129
    2TAL     C529310   3.474   4.030  14.329 -0.0780 -1.5849 -0.5352
    2TAL     C629311   3.601   4.113  14.293  0.6576  0.2210  0.4395
    2TAL     C729312   3.674   4.184  14.401 -0.5581 -0.3177 -0.2491
    2TAL     C829313   3.763   4.313  14.363  0.1750  0.4295 -0.0136
    2TAL     C929314   3.823   4.340  14.221  0.4772  0.4774  0.5280
    2TAL    C1029315   3.923   4.238  14.152  0.1151  0.2828 -0.4847
    3HTM    C1129316   3.269   4.257  14.219  0.5907  0.7223  0.6807
    3HTM    C1229317   3.285   4.314  14.342  1.1874  1.3325  0.3295
    3HTM    C1329318   3.256   4.455  14.343  0.6918  1.2431 -0.1280
    3HTM    C1429319   3.218   4.505  14.222 -0.2830  0.5648 -0.1256
    3HTM     S229320   3.216   4.377  14.095 -0.6533 -0.0179  0.4590
    4TAL    C1529321   3.244   4.523  14.480  0.0072  0.1888 -0.5788
    4TAL    C1629322   3.376   4.599  14.511 -0.3637  0.9157 -0.4597
    4TAL    C1729323   3.369   4.676  14.635 -0.5738  0.0660 -0.4319
    4TAL    C1829324   3.487   4.774  14.631 -0.1514  0.2110  0.1839
    4TAL    C1929325   3.466   4.916  14.661  0.0709 -0.5391  0.4665
    4TAL    C2029326   3.594   4.995  14.686  0.2619  0.4112  0.0912
    5HTM    C2129327   3.190   4.644  14.184 -0.3401 -0.0647 -0.6015
    5HTM    C2229328   3.108   4.678  14.081 -0.4508  0.3490 -0.3803
    5HTM    C2329329   3.095   4.820  14.061 -0.3527  0.4276  0.1049
    5HTM    C2429330   3.168   4.894  14.150 -0.1673  0.0738  0.2536
    5HTM     S329331   3.259   4.790  14.265 -0.1016 -0.3898 -0.2107
    6TAL    C2529332   3.036   4.867  13.929 -0.0731  0.1807 -0.9751
    6TAL    C2629333   2.887   4.873  13.910 -0.8814  0.9343 -0.7981
    6TAL    C2729334   2.797   4.758  13.957 -0.8997  1.1133  1.0071
    6TAL    C2829335   2.812   4.618  13.902 -0.2906 -0.0389 -0.0187
    6TAL    C2929336   2.739   4.597  13.776  0.4025 -0.8013  1.2191
    6TAL    C3029337   2.779   4.467  13.718 -0.3376 -0.2320  1.1633
    7HTM    C3129338   3.175   5.033  14.171 -0.4316 -0.4240 -0.2135
    7HTM    C3229339   3.108   5.141  14.122 -0.7067 -0.2677  0.4771
    7HTM    C3329340   3.181   5.265  14.134 -0.8465 -0.2242  0.8934
    7HTM    C3429341   3.303   5.251  14.193 -0.6780 -0.3473  0.5204
    7HTM     S429342   3.336   5.079  14.238 -0.3269 -0.5290 -0.3927
    8TAL    C3529343   3.134   5.399  14.091 -0.7860 -0.4642 -0.4621
    8TAL    C3629344   3.094   5.428  13.950 -0.3158 -1.0153 -0.9957
    8TAL    C3729345   3.185   5.381  13.835  0.2347  0.2548  0.2802
    8TAL    C3829346   3.342   5.417  13.839 -0.0386 -0.1175  0.1617
    8TAL    C3929347   3.427   5.351  13.728  0.6794 -0.1646  0.3974
    8TAL    C4029348   3.390   5.431  13.604  0.0614  0.7275  0.0627
    9HTM    C4129349   3.398   5.353  14.235 -0.5899 -0.1973  0.0223
    9HTM    C4229350   3.388   5.457  14.322 -0.5590  0.0107 -0.2198
    9HTM    C4329351   3.503   5.544  14.321 -0.4954 -0.0738 -0.3617
    9HTM    C4429352   3.600   5.506  14.233 -0.4779 -0.3462 -0.2281
    9HTM     S529353   3.553   5.357  14.144 -0.5409 -0.5188  0.0899
   10TAL    C4529354   3.517   5.667  14.414 -0.1927  0.0639  0.5972
   10TAL    C4629355   3.441   5.782  14.337  0.0283  0.5140  0.4462
   10TAL    C4729356   3.430   5.916  14.405 -0.2826 -0.0416  0.6996
   10TAL    C4829357   3.392   5.923  14.553 -0.4555 -0.7562 -0.0150
   10TAL    C4929358   3.417   6.056  14.635  1.0263 -0.3424  0.5944
   10TAL    C5029359   3.565   6.092  14.654 -0.1579  0.0610 -0.7118
   11HTM    C5129360   3.726   5.567  14.199  0.2900 -0.7004  0.3297
   11HTM    C5229361   3.832   5.552  14.283  0.4626 -0.9159  0.0787
   11HTM    C5329362   3.959   5.582  14.223  0.3425 -0.7758 -0.1078
   11HTM    C5429363   3.951   5.620  14.093  0.0785 -0.4536  0.0010
   11HTM     S629364   3.780   5.621  14.035 -0.0401 -0.3008  0.3500
   12TAL    C5529365   4.082   5.581  14.308  1.0176  0.2961  0.4198
   12TAL    C5629366   4.128   5.451  14.354  0.0571 -0.6371 -0.2463
   12TAL    C5729367   4.126   5.455  14.506 -0.6090  0.3742  0.3293
   12TAL    C5829368   4.245   5.376  14.536  0.0680  0.2462 -0.1292
   12TAL    C5929369   4.283   5.385  14.670 -0.3431 -0.1550  0.7229
   12TAL    C6029370   4.415   5.336  14.714  0.0992 -0.3897 -0.0709
   13HTM    C6129371   4.049   5.684  14.008  0.4024  0.4065 -0.0502
   13HTM    C6229372   4.029   5.775  13.908  0.9533  0.3508 -0.2224
   13HTM    C6329373   4.150   5.831  13.855  1.2807 -0.1521 -0.0238
   13HTM    C6429374   4.263   5.783  13.914  0.9794 -0.4799  0.3000
   13HTM     S729375   4.225   5.663  14.042  0.2533 -0.1767  0.3793
   14TAL    C6529376   4.129   5.921  13.735 -1.1357  0.0438 -1.7315
   14TAL    C6629377   4.240   6.037  13.708  0.9485 -0.9169  1.3525
   14TAL    C6729378   4.205   6.085  13.561 -0.3159  1.4793  0.8536
   14TAL    C6829379   4.075   6.158  13.563  0.8216  1.1514 -0.2026
   14TAL    C6929380   4.041   6.226  13.430  0.0531  0.3645  0.3126
   14TAL    C7029381   3.914   6.309  13.443  0.8297  0.2935 -1.4733
   15HTM    C7129382   4.405   5.788  13.886  0.4653 -0.4698  0.2123
   15HTM    C7229383   4.478   5.748  13.777  0.5511 -0.9469  0.4408
   15HTM    C7329384   4.619   5.775  13.789  0.5348 -0.8471  0.4141
   15HTM    C7429385   4.654   5.835  13.906  0.4366 -0.2939  0.1654
   15HTM     S829386   4.510   5.863  14.012  0.3563  0.1473 -0.0561
   16TAL    C7529387   4.705   5.755  13.665  0.3424 -0.1127  0.0126
   16TAL    C7629388   4.722   5.624  13.577  0.9781  0.2544 -0.8454
   16TAL    C7729389   4.797   5.510  13.648 -0.3498  0.3861  0.4498
   16TAL    C7829390   4.940   5.528  13.718  0.8083 -0.3942  0.2994
   16TAL    C7929391   5.007   5.391  13.752 -0.6207 -0.7847  1.3055
   16TAL    C8029392   4.945   5.312  13.869  0.5769  0.5112 -0.1308
   17HTM    C8129393   4.793   5.847  13.939  0.0902 -0.1373 -0.1789
   17HTM    C8229394   4.858   5.768  14.029  0.2394 -0.0623 -0.2189
   17HTM    C8329395   5.001   5.777  14.022  0.2221  0.2228 -0.2034
   17HTM    C8429396   5.046   5.864  13.927  0.0601  0.3652 -0.1510
   17HTM     S929397   4.910   5.941  13.838 -0.0846  0.1488 -0.1174
   18TAL    C8529398   5.099   5.706  14.113 -0.2881 -0.1307 -0.1118
   18TAL    C8629399   5.064   5.668  14.252  1.0956 -0.7714 -0.0991
   18TAL    C8729400   5.030   5.800  14.330  0.2656  0.2668  0.5377
   18TAL    C8829401   4.958   5.781  14.468  0.0197 -0.8785  0.6977
   18TAL    C8929402   5.025   5.710  14.587 -0.8318 -0.1696  0.4183
   18TAL    C9029403   5.163   5.766  14.622  0.0930 -0.1150 -0.0903
   19HTM    C9129404   5.179   5.902  13.884 -0.1828  0.2132 -0.0951
   19HTM    C9229405   5.254   6.015  13.890 -0.5950  0.5424 -0.9193
   19HTM    C9329406   5.368   6.014  13.802 -0.8162  0.4888 -1.2064
   19HTM    C9429407   5.380   5.900  13.729 -0.5728  0.1188 -0.6006
   19HTM    S1029408   5.247   5.783  13.766 -0.0411 -0.1934  0.3863
   20TAL    C9529409   5.456   6.136  13.798  0.5362 -0.7379 -0.7162
   20TAL    C9629410   5.555   6.155  13.916  0.7901  0.4404 -0.1168
   20TAL    C9729411   5.664   6.039  13.927  0.3076  0.4821  0.3338
   20TAL    C9829412   5.770   6.084  14.033  0.4724  0.2511  0.6149
   20TAL    C9929413   5.895   6.000  14.028  1.0422  0.3155  0.5310
   20TAL   C10029414   6.010   6.026  14.127  0.7347 -0.6375  0.5436
   21HTM   C10129415   5.470   5.858  13.624 -0.4327  0.1043  0.0906
   21HTM   C10229416   5.566   5.761  13.624 -0.6741 -0.1357 -0.0632
   21HTM   C10329417   5.653   5.766  13.509 -0.6585 -0.1675 -0.0527
   21HTM   C10429418   5.624   5.867  13.422 -0.4053  0.0480  0.1092
   21HTM    S1129419   5.483   5.964  13.479 -0.1650  0.3102  0.2618
   22TAL   C10529420   5.776   5.684  13.499 -0.7486 -0.0955  0.6721
   22TAL   C10629421   5.806   5.582  13.605  0.2353  0.0654  0.2234
   22TAL   C10729422   5.954   5.539  13.650 -0.3515 -0.3562  1.0604
   22TAL   C10829423   5.930   5.448  13.762 -0.2384  0.3541  1.0167
   22TAL   C10929424   6.049   5.393  13.846  0.1816  0.1956 -0.2919
   22TAL   C11029425   6.002   5.285  13.947  0.8408  0.0229  0.1202
   23HTM   C11129426   5.687   5.909  13.293 -0.3700  0.3030 -0.6943
   23HTM   C11229427   5.697   6.036  13.243 -0.1992  0.2317 -0.8435
   23HTM   C11329428   5.781   6.046  13.126  0.1304  0.0454 -0.6275
   23HTM   C11429429   5.834   5.927  13.087  0.2111 -0.0252 -0.3137
   23HTM    S1229430   5.783   5.792  13.195 -0.1257  0.1392 -0.2659
   24TAL   C11529431   5.813   6.183  13.073 -0.2083 -0.6741 -0.8416
   24TAL   C11629432   5.926   6.255  13.146  0.2404 -0.1654 -1.1517
   24TAL   C11729433   6.037   6.314  13.063  0.8074 -0.1155 -0.0269
   24TAL   C11829434   5.994   6.422  12.963 -0.0458 -0.5356 -0.2852
   24TAL   C11929435   6.098   6.417  12.852  0.2078 -0.0358  0.2242
   24TAL   C12029436   6.146   6.543  12.777 -0.4247 -0.1103 -0.0548
   25HTM   C12129437   5.932   5.900  12.982  0.5226  0.4733 -0.1439
   25HTM   C12229438   5.967   5.984  12.880  0.4972  0.3399 -0.2639
   25HTM   C12329439   6.063   5.928  12.789  0.1851  0.0771 -0.4344
   25HTM   C12429440   6.101   5.801  12.820 -0.0273  0.0100 -0.4443
   25HTM    S1329441   6.018   5.742  12.969  0.1514  0.2755 -0.2374
   26TAL   C12529442   6.130   6.021  12.688  0.9715  0.6918 -0.6552
   26TAL   C12629443   6.280   6.075  12.674  0.5000 -0.5406  0.4194
   26TAL   C12729444   6.357   6.151  12.785 -0.0097  0.1424  0.4439
   26TAL   C12829445   6.491   6.192  12.736 -0.1572 -0.8875  0.4357
   26TAL   C12929446   6.546   6.264  12.851  0.2043  0.5620 -0.4655
   26TAL   C13029447   6.497   6.401  12.883  0.0424 -0.5147 -1.0897
   27HTM   C13129448   6.215   5.719  12.774 -0.1113 -0.3058  0.6248
   27HTM   C13229449   6.250   5.686  12.646 -0.4048 -0.3226  0.5486
   27HTM   C13329450   6.347   5.580  12.638 -0.3650 -0.2708  0.3417
   27HTM   C13429451   6.386   5.532  12.759 -0.0412 -0.2141  0.2597
   27HTM    S1429452   6.304   5.618  12.894  0.2409 -0.2222  0.4392
   28TAL   C13529453   6.385   5.531  12.495  0.3510  0.9173 -0.0531
   28TAL   C13629454   6.422   5.380  12.474  0.6034 -0.7192 -0.2497
   28TAL   C13729455   6.496   5.353  12.345 -0.1376 -0.4031 -0.5300
   28TAL   C13829456   6.498   5.207  12.306  0.4235  0.6437  0.2431
   28TAL   C13929457   6.535   5.173  12.163  0.1497  0.2967 -0.3590
   28TAL   C14029458   6.540   5.018  12.140 -0.1054 -0.0084  1.7357
   29HTM   C14129459   6.480   5.429  12.800  0.3707 -0.2479  0.3688
   29HTM   C14229460   6.460   5.305  12.853  0.8974 -0.0349  1.1022
   29HTM   C14329461   6.581   5.237  12.891  1.2136  0.5374  1.1401
   29HTM   C14429462   6.694   5.309  12.866  0.9282  0.7608  0.4355
   29HTM    S1529463   6.656   5.470  12.793  0.2323  0.2619 -0.3357
   30TAL   C14529464   6.585   5.106  12.968  0.3451  0.3331 -0.0274
   30TAL   C14629465   6.459   5.027  13.005 -0.2064 -0.7686  0.2488
   30TAL   C14729466   6.481   4.921  13.112 -0.4323  0.6360 -0.7467
   30TAL   C14829467   6.558   4.940  13.236 -1.1505 -0.0835  0.3096
   30TAL   C14929468   6.529   4.870  13.375  0.8794 -0.2156 -0.3742
   30TAL   C15029469   6.380   4.808  13.382  0.7070 -0.0818 -0.7671
   31HTM   C15129470   6.835   5.267  12.877  0.2390  0.0673 -0.0509
   31HTM   C15229471   6.903   5.230  12.990  0.3953  0.7757  0.0997
   31HTM   C15329472   7.045   5.219  12.971  0.4209  1.1083  0.0958
   31HTM   C15429473   7.087   5.249  12.845  0.2841  0.6537 -0.0581
   31HTM    S1629474   6.948   5.292  12.738  0.1109 -0.2369 -0.2114
   32TAL   C15529475   7.140   5.171  13.086  1.1814  0.0228 -0.1176
   32TAL   C15629476   7.114   5.029  13.150  0.0718  0.0686  1.8403
   32TAL   C15729477   7.251   5.009  13.218 -0.4984 -0.9857  0.2673
   32TAL   C15829478   7.277   4.868  13.256  0.4530  0.3165  0.4941
   32TAL   C15929479   7.420   4.814  13.236  0.7745  0.2040  0.0147
   32TAL   C16029480   7.522   4.890  13.318  0.9874 -0.9951 -0.2678
   33HTM   C16129481   7.217   5.246  12.785  0.1631  0.3307 -0.1224
   33HTM   C16229482   7.339   5.252  12.846  0.2528  0.3242 -0.2995
   33HTM   C16329483   7.450   5.265  12.754  0.1411  0.0496 -0.4766
   33HTM   C16429484   7.412   5.270  12.623 -0.0337 -0.1536 -0.4350
   33HTM    S1729485   7.233   5.258  12.606 -0.0710 -0.0127 -0.1664
   34TAL   C16529486   7.586   5.272  12.800  0.5778 -0.3885 -0.2335
   34TAL   C16629487   7.647   5.158  12.878  1.0167  0.6256 -0.5100
   34TAL   C16729488   7.786   5.189  12.915 -0.0358 -0.7607 -0.6085
   34TAL   C16829489   7.844   5.058  12.949  0.3761 -0.1340  0.3540
   34TAL   C16929490   7.978   5.046  13.021  0.0620 -1.1370 -0.0614
   34TAL   C17029491   7.999   4.903  13.057 -0.3066  0.5473 -0.2085
   35HTM   C17129492   7.478   5.290  12.496  0.1346  0.6736  0.4046
   35HTM   C17229493   7.551   5.201  12.422  0.2462  0.3825  0.8538
   35HTM   C17329494   7.605   5.258  12.301  0.1430 -0.1745  0.5403
   35HTM   C17429495   7.573   5.389  12.283 -0.0473 -0.3081 -0.1484
   35HTM    S1829496   7.472   5.452  12.418 -0.1114  0.2637 -0.4558
   36TAL   C17529497   7.694   5.163  12.217 -0.1561  0.6753  0.0649
   36TAL   C17629498   7.645   5.029  12.148 -0.3423  1.2188 -0.2032
   36TAL   C17729499   7.663   5.025  11.991  0.5605  0.3397  0.1306
   36TAL   C17829500   7.799   5.041  11.931 -0.2450 -0.6376 -0.3936
   36TAL   C17929501   7.863   4.907  11.915 -0.1664 -0.3874  0.5148
   36TAL   C18029502   7.971   4.919  11.809  0.3027 -0.7236  0.1074
   37HTM   C18129503   7.609   5.490  12.187 -0.2528 -0.2131  0.1197
   37HTM   C18229504   7.612   5.626  12.202  0.0443 -0.2352  0.2875
   37HTM   C18329505   7.675   5.695  12.092  0.0657 -0.2291  0.3037
   37HTM   C18429506   7.721   5.611  11.994 -0.2149 -0.2021  0.1482
   37HTM    S1929507   7.687   5.438  12.033 -0.5306 -0.1824 -0.0325
   38TAL   C18529508   7.653   5.855  12.077 -0.8332  1.4586  0.0089
   38TAL   C18629509   7.541   5.919  12.144  0.7636 -1.7062 -0.6383
   38TAL   C18729510   7.545   5.918  12.291  0.2667 -0.0953  0.0131
   38TAL   C18829511   7.415   5.944  12.362  0.9359  0.1494  0.1303
   38TAL   C18929512   7.417   5.873  12.500 -0.7783  0.0413 -0.4017
   38TAL   C19029513   7.514   5.931  12.608  0.4437 -0.3602 -0.8913
   39HTM   C19129514   7.793   5.641  11.868 -0.1111 -0.0525 -0.3909
   39HTM   C19229515   7.787   5.752  11.789 -0.3627 -0.2674 -0.6759
   39HTM   C19329516   7.867   5.742  11.669 -0.1687 -0.3104 -0.5431
   39HTM   C19429517   7.934   5.624  11.658  0.2309 -0.1284 -0.1567
   39HTM    S2029518   7.901   5.515  11.798  0.3943  0.1135  0.0714
   40TAL   C19529519   7.867   5.846  11.562  1.0304 -0.7316 -0.1617
   40TAL   C19629520   7.766   5.959  11.559  0.8786 -0.3569  0.7993
   40TAL   C19729521   7.765   6.017  11.423  0.0106  0.2338 -0.7210
   40TAL   C19829522   7.647   6.090  11.372  0.5927 -0.1447 -0.2812
   40TAL   C19929523   7.696   6.172  11.256 -0.7696 -0.0163 -0.1557
   40TAL   C20029524   7.595   6.263  11.194  0.7371  0.0921 -0.4025
   41HTM   C20129525   8.023   5.574  11.560 -0.1489  0.0608 -0.0484
   41HTM   C20229526   8.014   5.589  11.425 -0.2359  0.1086 -0.0372
   41HTM   C20329527   8.133   5.550  11.354 -0.2256  0.2797 -0.1154
   41HTM   C20429528   8.233   5.505  11.435 -0.1307  0.3623 -0.1863
   41HTM    S2129529   8.184   5.509  11.609 -0.0464  0.2294 -0.1592
   42TAL   C20529530   8.117   5.549  11.198 -0.8057 -0.8478  0.1947
   42TAL   C20629531   7.983   5.586  11.132 -1.3082 -0.0730  0.3193
   42TAL   C20729532   7.957   5.589  10.985 -0.9012 -0.1054  0.5273
   42TAL   C20829533   8.043   5.686  10.908  0.2538 -0.0162  0.2124
   42TAL   C20929534   8.028   5.712  10.758  0.2921 -0.6849 -0.2442
   42TAL   C21029535   8.132   5.798  10.689 -0.0165  0.1846  0.0570
   43HTM   C21129536   8.355   5.431  11.402  0.2485 -0.0184  0.3614
   43HTM   C21229537   8.413   5.336  11.481  0.7305  0.4505  0.5796
   43HTM   C21329538   8.545   5.297  11.436  0.6657  0.5509  0.2973
   43HTM   C21429539   8.586   5.362  11.323  0.1342  0.1585 -0.1364
   43HTM    S2229540   8.461   5.478  11.265 -0.3292 -0.3724 -0.2224
   44TAL   C21529541   8.613   5.181  11.507  0.0093  0.2673  0.0475
   44TAL   C21629542   8.591   5.052  11.427  0.3896 -0.5085  0.1265
   44TAL   C21729543   8.696   4.952  11.441  0.5422  0.3663  0.0013
   44TAL   C21829544   8.676   4.830  11.351 -0.1489  0.2244 -0.1500
   44TAL   C21929545   8.789   4.732  11.397  0.3353 -1.0356 -0.3500
   44TAL   C22029546   8.841   4.643  11.284  0.4716 -0.8095 -0.3264
   45HTM   C22129547   8.716   5.341  11.246  0.0844 -0.3883 -0.1024
   45HTM   C22229548   8.823   5.260  11.272  0.2043 -0.2997 -0.3176
   45HTM   C22329549   8.917   5.253  11.164  0.1776  0.0669 -0.3693
   45HTM   C22429550   8.882   5.328  11.055  0.0373  0.2580 -0.1936
   45HTM    S2329551   8.726   5.414  11.082 -0.0728 -0.0125  0.0524
   46TAL   C22529552   9.035   5.162  11.189 -0.2905 -0.0644 -0.3181
   46TAL   C22629553   9.026   5.026  11.131  0.0836 -0.1869  1.8202
   46TAL   C22729554   9.139   4.931  11.148  0.6080 -0.1207  0.4869
   46TAL   C22829555   9.137   4.810  11.063 -0.8912 -0.0752 -0.0679
   46TAL   C22929556   9.138   4.813  10.909  0.4343  0.5416  0.5346
   46TAL   C23029557   9.097   4.675  10.860  0.3833  0.0876  0.1917
   47HTM   C23129558   8.949   5.346  10.932 -0.0935 -0.1266 -0.5171
   47HTM   C23229559   9.067   5.294  10.885 -0.0647  0.0902 -0.6909
   47HTM   C23329560   9.103   5.341  10.754 -0.0381  0.6237 -0.4964
   47HTM   C23429561   9.014   5.429  10.701 -0.0465  0.8138 -0.1745
   47HTM    S2429562   8.876   5.459  10.813 -0.0890  0.3299 -0.0907
   48TAL   C23529563   9.219   5.273  10.688 -0.0977  0.0717  0.6226
   48TAL   C23629564   9.245   5.123  10.685  0.4292  0.4242  0.6133
   48TAL   C23729565   9.322   5.070  10.561 -0.5811  0.3761  0.5420
   48TAL   C23829566   9.377   4.925  10.583 -0.0448 -0.0589 -0.1343
   48TAL   C23929567   9.495   4.905  10.681  0.5223  1.0251  0.3398
   48TAL   C24029568   9.505   4.765  10.762  0.6163 -1.3811  0.3982
    1HTM     C129569   1.908   4.526  14.202 -0.0410 -0.3796 -0.2289
    1HTM     C229570   1.914   4.526  14.338 -0.1619  0.0397 -0.2222
    1HTM     C329571   1.873   4.402  14.399 -0.3206  0.2596  0.1304
    1HTM     C429572   1.836   4.307  14.308 -0.3206  0.0083  0.3927
    1HTM     S129573   1.850   4.367  14.139 -0.1188 -0.5301  0.2131
    2TAL     C529574   1.864   4.381  14.546 -0.6157  0.5569 -0.6314
    2TAL     C629575   1.762   4.476  14.619 -0.1160  0.8444 -0.1280
    2TAL     C729576   1.712   4.448  14.759  0.1286  0.1696 -0.7890
    2TAL     C829577   1.644   4.570  14.816 -0.0744 -0.2616  0.0932
    2TAL     C929578   1.609   4.565  14.967  0.5584 -0.5240  0.6822
    2TAL    C1029579   1.727   4.582  15.064  0.7842 -0.3484  0.3490
    3HTM    C1129580   1.796   4.167  14.314  0.3636 -0.2890  0.2984
    3HTM    C1229581   1.804   4.086  14.423  0.4027 -0.3700  0.2360
    3HTM    C1329582   1.758   3.952  14.399  0.3153 -0.3294  0.1755
    3HTM    C1429583   1.715   3.931  14.271  0.2096 -0.2174  0.1914
    3HTM     S229584   1.730   4.080  14.171  0.2123 -0.1540  0.2854
    4TAL    C1529585   1.757   3.858  14.513  0.9061  0.1529  0.3676
    4TAL    C1629586   1.650   3.858  14.624 -0.3174 -0.3441  0.8391
    4TAL    C1729587   1.668   3.751  14.731 -0.2132  0.5086  0.5595
    4TAL    C1829588   1.531   3.696  14.791 -0.6774  0.5666  0.1372
    4TAL    C1929589   1.503   3.543  14.748  0.5106 -0.1582 -0.5029
    4TAL    C2029590   1.367   3.506  14.790 -0.0907  0.9068  0.6193
    5HTM    C2129591   1.630   3.823  14.210 -0.0390  0.0597  0.5929
    5HTM    C2229592   1.503   3.834  14.162 -0.2701  0.3837  1.2577
    5HTM    C2329593   1.447   3.710  14.115 -0.7387  0.5708  1.3113
    5HTM    C2429594   1.531   3.604  14.128 -0.8649  0.3895  0.6871
    5HTM     S329595   1.689   3.652  14.200 -0.3981 -0.0350 -0.0219
    6TAL    C2529596   1.313   3.721  14.037 -0.5944 -0.3350  0.1250
    6TAL    C2629597   1.320   3.738  13.884  0.0171 -0.6770  0.1856
    6TAL    C2729598   1.184   3.794  13.835  0.4172 -0.3073 -0.2794
    6TAL    C2829599   1.169   3.866  13.704  0.5097 -0.7677  0.1087
    6TAL    C2929600   1.037   3.931  13.708  0.4519  0.4807 -0.2959
    6TAL    C3029601   1.019   4.026  13.587 -0.6856  0.4073 -0.0411
    7HTM    C3129602   1.500   3.466  14.113  0.6777 -0.3309 -0.1708
    7HTM    C3229603   1.481   3.375  14.213  0.3268 -0.1519 -0.0730
    7HTM    C3329604   1.444   3.244  14.167 -0.4530  0.0022  0.0811
    7HTM    C3429605   1.435   3.234  14.031 -0.6967 -0.0590  0.1010
    7HTM     S429606   1.473   3.391  13.951  0.0456 -0.3184 -0.0751
    8TAL    C3529607   1.421   3.129  14.264  0.0938 -0.3509 -0.8097
    8TAL    C3629608   1.345   3.154  14.402  0.6968 -0.4397  0.6670
    8TAL    C3729609   1.287   3.025  14.446  0.0698  0.0186 -0.8674
    8TAL    C3829610   1.383   2.934  14.524  0.2127 -0.1786 -0.1212
    8TAL    C3929611   1.324   2.797  14.565 -0.2771 -0.3459  0.4698
    8TAL    C4029612   1.410   2.704  14.654  0.1117 -0.9188 -0.3440
    9HTM    C4129613   1.388   3.128  13.943 -0.0934  0.6415  0.4134
    9HTM    C4229614   1.434   3.090  13.821  0.3671  1.1235  0.4313
    9HTM    C4329615   1.350   2.994  13.754  0.8592  1.0221 -0.0596
    9HTM    C4429616   1.239   2.959  13.825  0.7739  0.4630 -0.4514
    9HTM     S529617   1.232   3.045  13.984  0.0600  0.0174 -0.2290
   10TAL    C4529618   1.381   2.930  13.619  0.1357 -0.4833 -0.6220
   10TAL    C4629619   1.494   2.831  13.631  0.4492  0.8311 -0.1856
   10TAL    C4729620   1.497   2.713  13.521  0.9051  0.1076 -0.0293
   10TAL    C4829621   1.570   2.584  13.562  0.5053 -0.3918 -0.7951
   10TAL    C4929622   1.582   2.475  13.458 -0.1447  0.0759 -0.5824
   10TAL    C5029623   1.662   2.356  13.507 -1.0308  0.1892 -0.2738
   11HTM    C5129624   1.131   2.867  13.798 -0.5449  0.0381 -0.1154
   11HTM    C5229625   1.082   2.774  13.885 -0.2381 -0.3595 -0.3574
   11HTM    C5329626   0.974   2.696  13.832 -0.1146 -0.4393 -0.4923
   11HTM    C5429627   0.940   2.728  13.704 -0.3273 -0.1027 -0.3533
   11HTM     S629628   1.044   2.862  13.640 -0.7029  0.3447 -0.0382
   12TAL    C5529629   0.900   2.598  13.917 -0.0979  0.3763  0.2224
   12TAL    C5629630   0.949   2.462  13.937 -0.5103  0.3680 -0.1689
   12TAL    C5729631   0.905   2.366  13.825 -0.7614  0.4554  0.4939
   12TAL    C5829632   0.948   2.217  13.848 -0.1306  0.7971 -1.4890
   12TAL    C5929633   0.914   2.113  13.746 -0.4949  0.4616 -0.3343
   12TAL    C6029634   0.769   2.070  13.720 -0.2905  0.2866 -0.4084
   13HTM    C6129635   0.848   2.660  13.614  0.8047 -0.4527 -0.6285
   13HTM    C6229636   0.866   2.629  13.482  0.6114 -0.7734 -0.5820
   13HTM    C6329637   0.751   2.568  13.420  0.2608 -0.2570 -0.4544
   13HTM    C6429638   0.645   2.552  13.505  0.1869  0.4576 -0.4037
   13HTM     S729639   0.683   2.614  13.670  0.5572  0.5343 -0.5141
   14TAL    C6529640   0.741   2.544  13.273 -0.2562  0.0984  0.4014
   14TAL    C6629641   0.826   2.429  13.244  0.2529 -0.8395  0.8089
   14TAL    C6729642   0.756   2.318  13.170 -0.1172  0.0303  0.1636
   14TAL    C6829643   0.841   2.196  13.185 -0.2160 -0.0494  0.1731
   14TAL    C6929644   0.805   2.092  13.293 -0.4577  0.4204  0.1648
   14TAL    C7029645   0.894   1.974  13.260 -0.7454  1.1936  0.3430
   15HTM    C7129646   0.511   2.493  13.507 -0.0338  0.0460  0.4599
   15HTM    C7229647   0.455   2.386  13.569 -0.0815  0.1775  0.6466
   15HTM    C7329648   0.314   2.371  13.544 -0.0722  0.1522  0.6099
   15HTM    C7429649   0.263   2.467  13.462 -0.0175  0.0015  0.3950
   15HTM     S829650   0.389   2.585  13.411  0.0269 -0.1213  0.2210
   16TAL    C7529651   0.248   2.250  13.606  0.1784 -0.3346 -0.1389
   16TAL    C7629652   0.242   2.262  13.760 -0.1937  0.4255 -0.6596
   16TAL    C7729653   0.185   2.138  13.822 -0.2373  0.8445  0.0563
   16TAL    C7829654   0.221   1.987  13.800 -0.0034  0.4108  0.3436
   16TAL    C7929655   0.358   1.930  13.841  0.0049 -0.7922 -0.0765
   16TAL    C8029656   0.378   1.801  13.784 -0.2299  0.2895  0.9314
   17HTM    C8129657   0.140   2.468  13.393 -0.3618 -0.3078  0.1874
   17HTM    C8229658   0.021   2.510  13.445 -0.4932  0.0256 -0.3631
   17HTM    C8329659  -0.089   2.503  13.352 -0.0458  0.5558 -0.9472
   17HTM    C8429660  -0.053   2.456  13.229  0.4271  0.6266 -0.8421
   17HTM     S929661   0.123   2.417  13.221  0.3428  0.0247  0.0095
   18TAL    C8529662  -0.220   2.570  13.397 -0.0686  0.6442 -1.6536
   18TAL    C8629663  -0.356   2.525  13.349  0.2732 -0.4669  0.3211
   18TAL    C8729664  -0.436   2.627  13.421 -0.3548 -0.1699 -0.3955
   18TAL    C8829665  -0.588   2.602  13.424 -0.5122  0.0284  0.6191
   18TAL    C8929666  -0.659   2.708  13.493  0.4652 -0.3576 -0.5376
   18TAL    C9029667  -0.812   2.676  13.507 -0.2311  0.6384 -0.2688
   19HTM    C9129668  -0.120   2.436  13.103  0.0120  0.3057  0.0408
   19HTM    C9229669  -0.114   2.325  13.024 -0.0949  0.2261  0.1435
   19HTM    C9329670  -0.190   2.336  12.902 -0.4051  0.0360  0.3147
   19HTM    C9429671  -0.253   2.456  12.888 -0.5347 -0.0293  0.3426
   19HTM    S1029672  -0.222   2.564  13.029 -0.2732  0.1456  0.1534
   20TAL    C9529673  -0.202   2.221  12.801 -0.3861  0.1294 -0.0107
   20TAL    C9629674  -0.243   2.077  12.835  0.8159 -0.1375  0.5210
   20TAL    C9729675  -0.394   2.035  12.833 -0.2085 -0.8475  0.1463
   20TAL    C9829676  -0.461   2.108  12.961 -0.5937  0.4467  0.0289
   20TAL    C9929677  -0.589   2.170  12.910  0.1385 -0.1905  0.7933
   20TAL   C10029678  -0.699   2.126  12.999 -0.1442 -0.2755  1.2906
   21HTM   C10129679  -0.343   2.505  12.795  0.0701 -0.0029 -0.0916
   21HTM   C10229680  -0.321   2.531  12.663  0.3277  0.4560  0.0389
   21HTM   C10329681  -0.431   2.596  12.598  0.4464  0.6627  0.0434
   21HTM   C10429682  -0.538   2.620  12.680  0.2794  0.3613 -0.0832
   21HTM    S1129683  -0.507   2.561  12.847 -0.0432 -0.2112 -0.2193
   22TAL   C10529684  -0.430   2.634  12.457 -0.5206  0.6985  0.1442
   22TAL   C10629685  -0.297   2.660  12.385 -0.7553  0.0245 -1.1107
   22TAL   C10729686  -0.317   2.737  12.252  0.6709  1.1900 -0.1068
   22TAL   C10829687  -0.230   2.701  12.135  0.5138  0.3751  0.6046
   22TAL   C10929688  -0.081   2.723  12.132  0.2349 -1.0378 -0.2157
   22TAL   C11029689  -0.009   2.665  12.011  0.0232 -0.7043 -0.0484
   23HTM   C11129690  -0.647   2.710  12.662 -0.0881  0.0738  0.2107
   23HTM   C11229691  -0.648   2.837  12.612  0.2528  0.4102  1.0357
   23HTM   C11329692  -0.780   2.895  12.603  0.3772  0.7097  1.1258
   23HTM   C11429693  -0.879   2.812  12.646  0.1307  0.6017  0.3698
   23HTM    S1229694  -0.814   2.653  12.701 -0.2803  0.1096 -0.5218
   24TAL   C11529695  -0.791   3.028  12.535  0.6144 -0.0745  0.8123
   24TAL   C11629696  -0.679   3.123  12.540 -0.7785 -0.1214  0.5456
   24TAL   C11729697  -0.721   3.282  12.533 -0.7310  0.5714 -0.5700
   24TAL   C11829698  -0.796   3.321  12.405  0.7020 -0.8499  0.0647
   24TAL   C11929699  -0.709   3.373  12.285  0.0663  0.7892  0.6727
   24TAL   C12029700  -0.777   3.464  12.185 -0.0707 -0.0790  1.3619
   25HTM   C12129701  -1.018   2.833  12.668 -0.6704 -0.3835 -0.1777
   25HTM   C12229702  -1.101   2.920  12.604 -0.9204 -0.2147  0.3614
   25HTM   C12329703  -1.223   2.947  12.675 -0.5069 -0.1355  1.0598
   25HTM   C12429704  -1.233   2.881  12.794  0.0585 -0.2439  1.0526
   25HTM    S1329705  -1.088   2.778  12.825  0.1129 -0.4561  0.1571
   26TAL   C12529706  -1.303   3.067  12.623  0.4749 -1.0607  0.1216
   26TAL   C12629707  -1.386   3.058  12.496  0.9888 -0.5349  0.4882
   26TAL   C12729708  -1.509   2.962  12.501 -0.5869 -1.0293 -0.9264
   26TAL   C12829709  -1.603   2.975  12.389  0.0077  0.1796 -0.4688
   26TAL   C12929710  -1.743   2.953  12.448 -0.1985 -0.0480 -0.3680
   26TAL   C13029711  -1.851   2.948  12.332 -0.3242  0.2352 -1.1719
   27HTM   C13129712  -1.354   2.851  12.865  0.3984 -0.4130 -0.2108
   27HTM   C13229713  -1.363   2.838  13.000  0.4433 -0.7535 -0.2382
   27HTM   C13329714  -1.498   2.822  13.048  0.3881 -0.1692 -0.1795
   27HTM   C13429715  -1.592   2.822  12.949  0.3011  0.6170 -0.1085
   27HTM    S1429716  -1.516   2.843  12.786  0.2818  0.6808 -0.1094
   28TAL   C13529717  -1.503   2.770  13.191  0.0237  0.0481 -0.0831
   28TAL   C13629718  -1.464   2.872  13.301 -0.1503 -1.3279 -0.3282
   28TAL   C13729719  -1.481   2.808  13.444  0.1168  0.2290  0.5427
   28TAL   C13829720  -1.397   2.676  13.464 -0.4622 -0.8821  0.0671
   28TAL   C13929721  -1.249   2.686  13.496 -0.8677 -0.2564  1.0057
   28TAL   C14029722  -1.162   2.566  13.528  0.4331  0.2246  0.1039
   29HTM   C14129723  -1.738   2.836  12.943 -0.0723 -0.1150 -0.4963
   29HTM   C14229724  -1.825   2.798  13.040  0.0764 -0.6213 -0.5577
   29HTM   C14329725  -1.964   2.817  13.005  0.0124 -0.7190 -0.3619
   29HTM   C14429726  -1.982   2.870  12.881 -0.1848 -0.2871 -0.1516
   29HTM    S1529727  -1.825   2.901  12.798 -0.3063  0.2809 -0.1844
   30TAL   C14529728  -2.078   2.781  13.105  0.2634  0.1855 -0.3730
   30TAL   C14629729  -2.037   2.759  13.257 -0.0296 -0.1056 -0.5768
   30TAL   C14729730  -2.149   2.686  13.333  0.4368 -0.8745  0.3644
   30TAL   C14829731  -2.183   2.743  13.475 -0.7349  0.2546 -0.4313
   30TAL   C14929732  -2.259   2.643  13.568  0.1201  0.3121  0.1905
   30TAL   C15029733  -2.241   2.686  13.717 -0.2096  0.1359  0.7125
   31HTM   C15129734  -2.099   2.927  12.805 -0.2335  0.4857 -0.2313
   31HTM   C15229735  -2.090   3.000  12.690 -0.6150  0.8319 -0.0451
   31HTM   C15329736  -2.217   3.027  12.628 -0.7734  0.4788  0.1206
   31HTM   C15429737  -2.323   2.974  12.696 -0.5127 -0.1366  0.0607
   31HTM    S1629738  -2.270   2.886  12.843 -0.0433 -0.3194 -0.2117
   32TAL   C15529739  -2.240   3.108  12.500  0.6440  0.5173  0.0091
   32TAL   C15629740  -2.177   3.242  12.494  0.4593 -0.1770 -0.0202
   32TAL   C15729741  -2.227   3.332  12.604 -0.5476 -0.0661 -0.0722
   32TAL   C15829742  -2.289   3.463  12.549  1.0391  0.0431 -0.2355
   32TAL   C15929743  -2.189   3.557  12.475  0.1256 -0.1703 -0.7618
   32TAL   C16029744  -2.258   3.683  12.434  0.3309 -0.6781  0.4506
   33HTM   C16129745  -2.466   2.990  12.666  0.1419  0.4395 -0.4555
   33HTM   C16229746  -2.567   3.048  12.736  0.0337  0.7282 -0.8395
   33HTM   C16329747  -2.698   3.001  12.699  0.1087  0.3648 -0.6545
   33HTM   C16429748  -2.697   2.907  12.600  0.2743 -0.2009 -0.1296
   33HTM    S1729749  -2.529   2.870  12.546  0.3487 -0.3196  0.1744
   34TAL   C16529750  -2.824   3.044  12.768  0.8125 -0.4845 -0.0136
   34TAL   C16629751  -2.835   2.984  12.913  0.8047  0.1722  0.1502
   34TAL   C16729752  -2.968   3.042  12.985  0.2413  0.4070 -0.1574
   34TAL   C16829753  -2.998   2.958  13.107 -0.8528  0.8148 -0.7616
   34TAL   C16929754  -2.895   2.969  13.231  0.6295  0.0264  0.2294
   34TAL   C17029755  -2.872   3.104  13.297  1.5028 -0.1895 -0.6316
   35HTM   C17129756  -2.803   2.822  12.548  0.1756  0.1764  0.4475
   35HTM   C17229757  -2.797   2.687  12.531  0.2506  0.1804  0.4418
   35HTM   C17329758  -2.923   2.627  12.495  0.2768  0.1080  0.4690
   35HTM   C17429759  -3.025   2.717  12.484  0.2216  0.0489  0.4957
   35HTM    S1829760  -2.969   2.885  12.519  0.1318  0.0803  0.4886
   36TAL   C17529761  -2.920   2.480  12.444  0.3497 -0.9747  0.4263
   36TAL   C17629762  -2.823   2.469  12.328 -0.9348  0.8290  0.0502
   36TAL   C17729763  -2.846   2.548  12.183 -0.2868  1.0604 -0.5468
   36TAL   C17829764  -2.719   2.552  12.101  0.0799  0.4261 -0.0110
   36TAL   C17929765  -2.653   2.416  12.091 -1.6264  0.6714  0.4659
   36TAL   C18029766  -2.552   2.393  11.977  0.5376  0.1566 -0.3141
   37HTM   C18129767  -3.171   2.686  12.470 -0.1188  0.4285  1.2378
   37HTM   C18229768  -3.241   2.580  12.518 -0.1624  0.5013  1.3356
   37HTM   C18329769  -3.384   2.593  12.503 -0.1193  0.1616  0.5233
   37HTM   C18429770  -3.422   2.709  12.443 -0.0430 -0.1704 -0.1937
   37HTM    S1929771  -3.280   2.812  12.401 -0.0194 -0.0789  0.1037
   38TAL   C18529772  -3.480   2.486  12.553  0.5134  0.0731  0.4534
   38TAL   C18629773  -3.441   2.433  12.693  0.1191  0.7792  0.1231
   38TAL   C18729774  -3.575   2.382  12.757  0.2166 -0.4859  0.6358
   38TAL   C18829775  -3.535   2.337  12.892  0.4723  0.6073  0.4816
   38TAL   C18929776  -3.663   2.332  12.969  0.2334  0.0049  0.1892
   38TAL   C19029777  -3.640   2.297  13.114 -0.7760  0.8842 -0.7458
   39HTM   C19129778  -3.559   2.758  12.438  0.0050  0.3653 -0.1996
   39HTM   C19229779  -3.575   2.887  12.399 -0.1138  0.3276 -0.2756
   39HTM   C19329780  -3.712   2.923  12.371 -0.1460  0.1845 -0.3033
   39HTM   C19429781  -3.800   2.820  12.390 -0.0517  0.1130 -0.2480
   39HTM    S2029782  -3.717   2.670  12.444  0.0860  0.2218 -0.1566
   40TAL   C19529783  -3.764   3.064  12.336 -0.5354 -0.4325  0.9524
   40TAL   C19629784  -3.671   3.180  12.346 -0.0507 -0.4940 -1.0546
   40TAL   C19729785  -3.714   3.307  12.273 -0.7537  0.7593 -0.0077
   40TAL   C19829786  -3.677   3.422  12.371  0.8028  0.7142  0.4692
   40TAL   C19929787  -3.680   3.557  12.307 -0.5465  0.7754 -0.5473
   40TAL   C20029788  -3.703   3.683  12.398  0.6328 -0.7154  0.4019
   41HTM   C20129789  -3.938   2.803  12.345 -0.6919  0.4782  0.0536
   41HTM   C20229790  -4.055   2.844  12.403 -0.8320  0.9128 -0.5229
   41HTM   C20329791  -4.172   2.810  12.327 -0.6322  0.6407 -0.7117
   41HTM   C20429792  -4.145   2.742  12.212 -0.3398 -0.0013 -0.2791
   41HTM    S2129793  -3.968   2.717  12.190 -0.2937 -0.3146  0.4055
   42TAL   C20529794  -4.303   2.877  12.391 -0.9685 -0.4971 -0.0154
   42TAL   C20629795  -4.405   2.783  12.451  0.3427  0.0827 -0.8811
   42TAL   C20729796  -4.361   2.675  12.562  0.3854 -0.1960  0.1716
   42TAL   C20829797  -4.459   2.573  12.623  0.0953 -0.2326  0.0622
   42TAL   C20929798  -4.450   2.426  12.567 -0.0692  0.5330  0.3874
   42TAL   C21029799  -4.475   2.419  12.416  0.2958  0.0934  1.2848
   43HTM   C21129800  -4.242   2.706  12.112 -0.7107  0.2350  0.4696
   43HTM   C21229801  -4.330   2.602  12.099 -0.0113 -0.3142 -0.0205
   43HTM   C21329802  -4.408   2.607  11.978  0.7513 -0.9174 -0.5600
   43HTM   C21429803  -4.380   2.715  11.899  0.6334 -0.8282 -0.4812
   43HTM    S2229804  -4.252   2.819  11.972 -0.4585  0.0313  0.2863
   44TAL   C21529805  -4.503   2.482  11.960  0.0824 -0.6479  1.1101
   44TAL   C21629806  -4.427   2.367  11.887  0.1002 -0.0558 -0.2766
   44TAL   C21729807  -4.488   2.236  11.861  1.0842  0.4742 -0.1418
   44TAL   C21829808  -4.582   2.215  11.735  0.4067 -1.6854 -0.1282
   44TAL   C21929809  -4.500   2.210  11.606 -0.5256 -0.2012  0.7496
   44TAL   C22029810  -4.581   2.204  11.479  0.5262  0.4733 -0.1706
   45HTM   C22129811  -4.455   2.770  11.788 -0.5154 -0.1122  0.2983
   45HTM   C22229812  -4.482   2.897  11.746 -0.6717 -0.0843  0.4802
   45HTM   C22329813  -4.571   2.903  11.633 -0.1402 -0.0665  0.0534
   45HTM   C22429814  -4.612   2.781  11.589  0.4213 -0.0807 -0.4540
   45HTM    S2329815  -4.541   2.647  11.687  0.3216 -0.1181 -0.4320
   46TAL   C22529816  -4.610   3.043  11.574 -2.0423 -0.1711 -0.6679
   46TAL   C22629817  -4.554   3.070  11.429  0.9964  0.3991  0.3254
   46TAL   C22729818  -4.532   3.210  11.377 -0.8296 -0.0950  0.1352
   46TAL   C22829819  -4.450   3.316  11.457 -0.0409 -0.0687 -0.6602
   46TAL   C22929820  -4.303   3.286  11.476  0.8288  0.6169 -0.4768
   46TAL   C23029821  -4.254   3.170  11.562 -0.1421 -0.6040  0.0042
   47HTM   C23129822  -4.707   2.744  11.486  0.0967  0.8167  0.5167
   47HTM   C23229823  -4.721   2.619  11.435  0.6421  0.5878  0.9055
   47HTM   C23329824  -4.821   2.609  11.332  0.9063 -0.1025  0.7007
   47HTM   C23429825  -4.884   2.727  11.305  0.5624 -0.4001  0.1555
   47HTM    S2429826  -4.820   2.861  11.408 -0.1273  0.1729 -0.1439
   48TAL   C23529827  -4.846   2.469  11.262 -0.5759 -0.0626  0.5651
   48TAL   C23629828  -4.924   2.463  11.130 -0.3132 -0.3070  0.1666
   48TAL   C23729829  -4.904   2.322  11.071 -0.6817  0.9481  0.3078
   48TAL   C23829830  -4.952   2.295  10.929 -0.2140  0.0126  0.0830
   48TAL   C23929831  -4.918   2.159  10.865  0.0131  0.3450 -0.0507
   48TAL   C24029832  -4.988   2.140  10.736  0.4149 -0.4469 -0.2447
    1HTM     C129833   2.607   5.103  17.113 -0.8570  0.0989  0.1678
    1HTM     C229834   2.660   5.005  17.192 -0.9536  0.0693  0.1950
    1HTM     C329835   2.714   4.894  17.119 -0.4227  0.3186  0.1974
    1HTM     C429836   2.703   4.906  16.984  0.0786  0.5384  0.1717
    1HTM     S129837   2.622   5.061  16.938 -0.0821  0.4467  0.1424
    2TAL     C529838   2.762   4.769  17.196 -1.1309 -0.9360 -0.2335
    2TAL     C629839   2.877   4.793  17.303  0.2013  0.6036  0.2377
    2TAL     C729840   2.967   4.685  17.355  0.1592 -0.8381 -0.0641
    2TAL     C829841   2.908   4.560  17.402 -0.0344  0.2985  0.1368
    2TAL     C929842   3.024   4.472  17.464  0.0192 -0.6986  1.0540
    2TAL    C1029843   2.979   4.383  17.584 -0.1508  0.8946  0.3904
    3HTM    C1129844   2.756   4.818  16.879 -0.0890  0.4705 -0.0004
    3HTM    C1229845   2.720   4.814  16.747 -0.3601  0.5158  0.0710
    3HTM    C1329846   2.795   4.719  16.670 -0.6360  0.4200 -0.0830
    3HTM    C1429847   2.888   4.651  16.742 -0.5754  0.3016 -0.2711
    3HTM     S229848   2.888   4.702  16.915 -0.1619  0.3020 -0.2689
    4TAL    C1529849   2.737   4.679  16.535 -0.6706 -0.7647  0.0032
    4TAL    C1629850   2.786   4.768  16.422  0.1322 -0.8964  0.0221
    4TAL    C1729851   2.745   4.727  16.284 -0.7338  0.5289  0.0712
    4TAL    C1829852   2.593   4.693  16.261  0.0955  0.8289 -0.3826
    4TAL    C1929853   2.501   4.818  16.215  0.4329  0.8815  0.4515
    4TAL    C2029854   2.358   4.776  16.184 -0.0930  0.6539  0.5332
    5HTM    C2129855   2.993   4.551  16.692  0.2541 -0.0983 -0.2436
    5HTM    C2229856   2.998   4.459  16.592  0.3008 -0.1962 -0.1516
    5HTM    C2329857   3.118   4.380  16.592  0.2391 -0.2924  0.0663
    5HTM    C2429858   3.205   4.412  16.692  0.1453 -0.2677  0.1398
    5HTM     S329859   3.141   4.545  16.795  0.1275 -0.1201 -0.0607
    6TAL    C2529860   3.139   4.260  16.492 -0.4790  0.1679  0.1244
    6TAL    C2629861   3.078   4.243  16.354 -0.9042 -0.9319  0.2229
    6TAL    C2729862   2.932   4.196  16.343  0.0431  0.4797  0.8665
    6TAL    C2829863   2.852   4.193  16.207 -0.5686 -0.4352  0.2247
    6TAL    C2929864   2.820   4.329  16.161  0.8644 -0.4113 -0.0874
    6TAL    C3029865   2.672   4.329  16.118  0.5598  0.5399  1.6654
    7HTM    C3129866   3.345   4.378  16.706 -0.2611 -0.0659  0.6547
    7HTM    C3229867   3.404   4.255  16.708 -0.3989 -0.1271  0.9446
    7HTM    C3329868   3.544   4.259  16.742 -0.3299 -0.1781  0.6652
    7HTM    C3429869   3.592   4.385  16.764 -0.1396 -0.1559  0.1633
    7HTM     S429870   3.463   4.509  16.745 -0.0317 -0.0680  0.0021
    8TAL    C3529871   3.617   4.127  16.747  0.4732  0.8027  0.6936
    8TAL    C3629872   3.628   4.057  16.885 -0.9658 -0.0089  0.6516
    8TAL    C3729873   3.672   3.908  16.861 -0.3178  0.4380  0.3932
    8TAL    C3829874   3.820   3.867  16.791  0.0412  0.5919 -0.6129
    8TAL    C3929875   3.846   3.717  16.768 -0.3022  0.0419 -0.2304
    8TAL    C4029876   3.852   3.671  16.622 -0.3118  0.5405  0.1673
    9HTM    C4129877   3.727   4.430  16.788 -0.0748 -0.9584 -0.3600
    9HTM    C4229878   3.750   4.565  16.787 -0.9240 -0.8019 -0.0286
    9HTM    C4329879   3.881   4.602  16.834 -1.2194 -0.0657  0.2518
    9HTM    C4429880   3.958   4.495  16.869 -0.5955  0.3390  0.1360
    9HTM     S529881   3.871   4.339  16.847  0.4215 -0.1820 -0.3418
   10TAL    C4529882   3.913   4.751  16.832 -0.3985  0.0859 -0.5326
   10TAL    C4629883   3.870   4.827  16.705  0.0319  0.6722  0.8065
   10TAL    C4729884   3.894   4.967  16.665  0.2232 -0.9202  1.7929
   10TAL    C4829885   3.833   5.073  16.762 -0.3742 -0.2667  0.6529
   10TAL    C4929886   3.839   5.225  16.750  0.3549 -0.7366  0.7889
   10TAL    C5029887   3.772   5.297  16.871 -0.1597 -0.1241 -0.0937
   11HTM    C5129888   4.085   4.500  16.931  0.2509  0.1181 -1.1103
   11HTM    C5229889   4.132   4.411  17.023  0.3448 -0.4429 -1.6809
   11HTM    C5329890   4.263   4.444  17.073  0.2840 -0.5926 -1.4219
   11HTM    C5429891   4.316   4.557  17.019  0.1437 -0.1458 -0.6538
   11HTM     S629892   4.204   4.632  16.900  0.0772  0.5038 -0.1936
   12TAL    C5529893   4.320   4.359  17.188  0.5531  0.3132  0.3371
   12TAL    C5629894   4.412   4.243  17.151  0.0339 -0.5641 -0.0415
   12TAL    C5729895   4.443   4.183  17.277 -1.3905  1.4038 -1.3984
   12TAL    C5829896   4.553   4.230  17.373 -0.4707  0.1911  0.0745
   12TAL    C5929897   4.509   4.169  17.501  0.1065  0.4724  0.4728
   12TAL    C6029898   4.584   4.206  17.622  0.4349  0.3637 -0.2945
   13HTM    C6129899   4.424   4.643  17.072  0.1965  0.0418  0.5682
   13HTM    C6229900   4.548   4.597  17.107  0.2319  0.3623  0.8769
   13HTM    C6329901   4.639   4.701  17.147  0.0126  0.6517  0.6328
   13HTM    C6429902   4.585   4.826  17.143 -0.1897  0.5518  0.1381
   13HTM     S729903   4.413   4.823  17.088 -0.1188  0.0809 -0.0597
   14TAL    C6529904   4.784   4.663  17.188 -0.0403  0.8992 -0.9170
   14TAL    C6629905   4.799   4.612  17.335  0.8828 -1.1013  0.1479
   14TAL    C6729906   4.928   4.549  17.379  0.6071 -0.9440  0.2628
   14TAL    C6829907   4.944   4.584  17.527  1.2052  0.1788 -0.5624
   14TAL    C6929908   4.845   4.521  17.638 -1.1105  0.6007  0.6641
   14TAL    C7029909   4.891   4.526  17.782  0.1284  0.5530 -0.3429
   15HTM    C7129910   4.645   4.954  17.150  0.0194 -0.2247 -0.5264
   15HTM    C7229911   4.764   4.979  17.212  0.1578 -0.3442 -0.7401
   15HTM    C7329912   4.808   5.115  17.200  0.1047 -0.3082 -0.5360
   15HTM    C7429913   4.724   5.194  17.129 -0.0743 -0.1614 -0.1658
   15HTM     S829914   4.580   5.102  17.071 -0.1907 -0.0563 -0.0469
   16TAL    C7529915   4.954   5.156  17.251  0.5787  0.5239  1.1382
   16TAL    C7629916   4.985   5.144  17.403 -0.1340 -0.3536  0.2844
   16TAL    C7729917   5.126   5.197  17.441 -0.4550  0.3000  0.2976
   16TAL    C7829918   5.171   5.189  17.581 -0.2269  0.1138 -0.1771
   16TAL    C7929919   5.159   5.048  17.648 -0.7668  0.0835  0.4090
   16TAL    C8029920   5.167   5.052  17.801 -0.9687  0.0108  1.3642
   17HTM    C8129921   4.742   5.330  17.097  0.4499  0.3110  0.4425
   17HTM    C8229922   4.682   5.436  17.159  0.1706  0.2446  0.2923
   17HTM    C8329923   4.699   5.561  17.089 -0.6434  0.1056 -0.1864
   17HTM    C8429924   4.772   5.550  16.974 -0.9847  0.0662 -0.4015
   17HTM     S929925   4.824   5.380  16.945 -0.2992  0.2025 -0.0120
   18TAL    C8529926   4.647   5.699  17.149 -0.8404 -0.7383 -0.0021
   18TAL    C8629927   4.725   5.760  17.268  0.2417 -0.8704  0.4613
   18TAL    C8729928   4.873   5.778  17.274 -0.1558 -0.0018  0.6941
   18TAL    C8829929   4.930   5.886  17.191 -1.2903  0.0416 -0.0288
   18TAL    C8929930   4.921   6.027  17.255 -0.1356  0.8955 -0.5204
   18TAL    C9029931   4.943   6.103  17.130 -0.0251 -0.1283  0.8711
   19HTM    C9129932   4.814   5.646  16.867 -0.5388  0.1236  0.3777
   19HTM    C9229933   4.901   5.631  16.763 -0.3660 -0.0362  0.5460
   19HTM    C9329934   4.934   5.754  16.696 -0.2034 -0.1303  0.4520
   19HTM    C9429935   4.872   5.863  16.748 -0.2522 -0.0423  0.2125
   19HTM    S1029936   4.766   5.819  16.888 -0.5091  0.1683  0.0860
   20TAL    C9529937   5.039   5.767  16.583  1.5096  0.5105  0.0220
   20TAL    C9629938   5.007   5.702  16.449  0.3676 -0.3448 -0.3191
   20TAL    C9729939   5.006   5.824  16.352  0.4439 -0.0503 -0.1373
   20TAL    C9829940   4.868   5.884  16.315  0.2890 -0.4621  0.2893
   20TAL    C9929941   4.756   5.794  16.284  1.6500 -0.7776  0.6034
   20TAL   C10029942   4.636   5.849  16.359 -0.3320 -0.7694 -0.1044
   21HTM   C10129943   4.880   6.002  16.724  1.0851  0.7646 -0.1629
   21HTM   C10229944   4.979   6.094  16.738  0.6024  1.3729 -0.5937
   21HTM   C10329945   4.948   6.223  16.682 -0.3414  1.1388 -0.6366
   21HTM   C10429946   4.824   6.229  16.626 -0.5783  0.3519 -0.2382
   21HTM    S1129947   4.737   6.072  16.639  0.3799 -0.1586  0.2245
   22TAL   C10529948   5.049   6.330  16.707  0.3326  0.7485  0.5860
   22TAL   C10629949   5.022   6.470  16.756  0.6515  0.0626  0.7250
   22TAL   C10729950   4.960   6.468  16.888  0.2815  0.7190  1.4780
   22TAL   C10829951   4.935   6.592  16.957 -0.2292 -0.1088 -1.3634
   22TAL   C10929952   4.904   6.583  17.109  0.1641 -0.1962 -0.3796
   22TAL   C11029953   4.757   6.514  17.120 -0.6501 -0.9917 -0.2073
   23HTM   C11129954   4.760   6.332  16.558  0.0675  0.1415  0.3562
   23HTM   C11229955   4.777   6.360  16.425  0.5382 -0.0058  0.3839
   23HTM   C11329956   4.708   6.479  16.382  0.7402 -0.0204  0.0191
   23HTM   C11429957   4.639   6.542  16.481  0.4231  0.1157 -0.2861
   23HTM    S1229958   4.655   6.455  16.638 -0.1594  0.2744 -0.1353
   24TAL   C11529959   4.721   6.535  16.240  0.0525 -0.1415  0.7046
   24TAL   C11629960   4.818   6.489  16.133 -0.0885 -0.4805  0.1633
   24TAL   C11729961   4.756   6.381  16.041  0.7822 -0.1457 -0.2878
   24TAL   C11829962   4.848   6.332  15.928  0.1381  0.5811  0.0866
   24TAL   C11929963   4.800   6.193  15.861 -0.1713 -0.5185  0.5534
   24TAL   C12029964   4.798   6.071  15.952 -1.0374 -0.2740 -0.8210
   25HTM   C12129965   4.572   6.671  16.464  0.1895 -0.1065  0.4113
   25HTM   C12229966   4.609   6.798  16.496 -0.0535 -0.1652  0.9480
   25HTM   C12329967   4.513   6.898  16.455  0.0280 -0.1290  0.8454
   25HTM   C12429968   4.404   6.847  16.392  0.3335 -0.0425  0.2306
   25HTM    S1329969   4.413   6.667  16.379  0.5430 -0.0000 -0.2711
   26TAL   C12529970   4.534   7.045  16.482  0.2464  0.3950 -0.0494
   26TAL   C12629971   4.622   7.116  16.392  0.0578 -0.2679  0.9781
   26TAL   C12729972   4.582   7.135  16.250 -0.5732 -0.6538  0.2274
   26TAL   C12829973   4.648   7.244  16.166 -0.4546 -0.7941 -0.0824
   26TAL   C12929974   4.568   7.381  16.154 -0.2060  1.0945 -0.6912
   26TAL   C13029975   4.578   7.479  16.276  0.2771  0.5301 -0.3646
   27HTM   C13129976   4.281   6.918  16.340  0.1221  0.0016  0.0130
   27HTM   C13229977   4.268   7.050  16.305  0.0244  0.0604  0.2670
   27HTM   C13329978   4.136   7.086  16.263  0.0328  0.0091  0.1960
   27HTM   C13429979   4.047   6.982  16.265  0.1369 -0.0888 -0.1114
   27HTM    S1429980   4.125   6.830  16.321  0.2332 -0.1241 -0.3370
   28TAL   C13529981   4.101   7.221  16.208 -0.7386 -0.4046  0.8342
   28TAL   C13629982   4.204   7.281  16.108  0.2845 -1.0893  0.2968
   28TAL   C13729983   4.212   7.206  15.970 -0.6767  0.4266 -1.3320
   28TAL   C13829984   4.086   7.204  15.882 -0.5262 -0.5697 -1.1178
   28TAL   C13929985   4.048   7.338  15.810 -1.1891 -0.7713 -0.4180
   28TAL   C14029986   3.931   7.331  15.727  0.0299  0.1095 -0.3581
   29HTM   C14129987   3.911   6.976  16.236 -0.3071 -0.4173  0.3113
   29HTM   C14229988   3.812   6.962  16.329 -0.4626 -0.9949  0.0701
   29HTM   C14329989   3.679   6.969  16.275 -0.3748 -1.0384 -0.1550
   29HTM   C14429990   3.676   6.989  16.140 -0.1524 -0.4941 -0.0853
   29HTM    S1529991   3.842   7.000  16.071 -0.0356  0.1206  0.2724
   30TAL   C14529992   3.565   6.943  16.360  0.8259 -0.5557 -0.2444
   30TAL   C14629993   3.531   6.799  16.412 -0.6858  0.0681  0.0285
   30TAL   C14729994   3.386   6.774  16.452 -0.3294 -1.4745 -0.4737
   30TAL   C14829995   3.295   6.771  16.331 -0.0168 -0.6616  0.7306
   30TAL   C14929996   3.158   6.709  16.331 -0.8494  1.0861  0.0612
   30TAL   C15029997   3.081   6.696  16.201  0.0074 -0.7596 -0.0802
   31HTM   C15129998   3.564   7.017  16.050  0.1671 -0.4819 -0.5384
   31HTM   C15229999   3.532   7.132  15.983  0.8038 -0.7973 -1.4336
   31HTM   C15330000   3.424   7.115  15.889  0.8399 -0.9820 -1.4431
   31HTM   C15430001   3.375   6.988  15.883  0.2309 -0.8072 -0.5548
   31HTM    S1630002   3.461   6.879  15.997 -0.4410 -0.3929  0.3703
   32TAL   C15530003   3.356   7.230  15.822 -0.0422 -0.1050 -0.2979
   32TAL   C15630004   3.224   7.279  15.882 -0.3253  1.7114  1.1841
   32TAL   C15730005   3.189   7.423  15.846 -0.1136 -1.1675 -0.0517
   32TAL   C15830006   3.054   7.459  15.888  0.0910 -0.2242  0.6156
   32TAL   C15930007   2.996   7.599  15.864  0.6510  0.4930 -0.0776
   32TAL   C16030008   2.967   7.626  15.720  0.6517 -0.4034  0.5912
   33HTM   C16130009   3.275   6.943  15.797  0.0599  0.0479  0.3819
   33HTM   C16230010   3.283   6.892  15.671 -0.0715  0.8734  0.0293
   33HTM   C16330011   3.156   6.850  15.617 -0.1438  1.3272 -0.1655
   33HTM   C16430012   3.051   6.868  15.702 -0.0677  0.8478  0.0383
   33HTM    S1730013   3.105   6.941  15.858  0.1026 -0.2227  0.4957
   34TAL   C16530014   3.172   6.783  15.485  0.3921  0.6655  0.0839
   34TAL   C16630015   3.104   6.651  15.481 -0.7702  0.0469  0.5402
   34TAL   C16730016   3.111   6.610  15.325 -0.1071  0.6793  0.1800
   34TAL   C16830017   3.046   6.486  15.265  0.9009  0.0692  0.5489
   34TAL   C16930018   2.890   6.525  15.266  0.8193  0.3295  0.5687
   34TAL   C17030019   2.797   6.405  15.255 -0.9227  0.2786 -0.0525
   35HTM   C17130020   2.913   6.828  15.690 -0.1992  0.4381  0.1088
   35HTM   C17230021   2.842   6.808  15.805 -0.3711  0.7352  0.0560
   35HTM   C17330022   2.706   6.767  15.782 -0.2575  0.4071 -0.0412
   35HTM   C17430023   2.673   6.755  15.650  0.0011 -0.1400 -0.0619
   35HTM    S1830024   2.812   6.796  15.543  0.1221 -0.2845  0.0399
   36TAL   C17530025   2.614   6.732  15.896 -0.0473  0.9169 -0.5303
   36TAL   C17630026   2.619   6.830  16.016  0.2544 -0.5833 -0.3517
   36TAL   C17730027   2.524   6.950  16.027  1.0705  0.1652 -0.7417
   36TAL   C17830028   2.368   6.928  15.999  0.4543  0.2508  0.1575
   36TAL   C17930029   2.273   7.053  15.999 -0.3165  1.0744 -0.8556
   36TAL   C18030030   2.149   7.040  15.912  0.0051  0.4684  0.7035
   37HTM   C18130031   2.544   6.713  15.578 -1.5070 -0.0240  0.2673
   37HTM   C18230032   2.413   6.741  15.602 -1.8433 -1.5105  0.3350
   37HTM   C18330033   2.322   6.667  15.519 -1.0560 -2.4061  0.2344
   37HTM   C18430034   2.384   6.583  15.431 -0.1193 -1.6025  0.0906
   37HTM    S1930035   2.563   6.591  15.447 -0.1594  0.3630  0.0704
   38TAL   C18530036   2.170   6.709  15.543  0.2106  0.1807 -0.3234
   38TAL   C18630037   2.110   6.844  15.507  0.5276  0.4526  0.2137
   38TAL   C18730038   2.148   6.915  15.372 -0.0906 -0.4468  0.2776
   38TAL   C18830039   2.124   6.856  15.241  0.5837  0.1339  0.4631
   38TAL   C18930040   1.981   6.816  15.200 -1.4694 -0.6747  0.2169
   38TAL   C19030041   1.979   6.751  15.061 -0.3589 -0.0736  0.7911
   39HTM   C19130042   2.328   6.494  15.340 -0.2380 -0.4785  0.6633
   39HTM   C19230043   2.398   6.393  15.281 -0.2220 -0.6702  1.0090
   39HTM   C19330044   2.318   6.308  15.196 -0.0305 -0.4262  0.5820
   39HTM   C19430045   2.187   6.345  15.189  0.0996 -0.0481 -0.0895
   39HTM    S2030046   2.154   6.490  15.291 -0.0104  0.0296 -0.2352
   40TAL   C19530047   2.379   6.212  15.103  0.9654  0.2003  0.5570
   40TAL   C19630048   2.504   6.127  15.152 -0.8630 -0.3971 -0.2449
   40TAL   C19730049   2.543   6.018  15.050  0.2664  0.2319 -0.1738
   40TAL   C19830050   2.649   5.923  15.090 -0.1797 -0.1718 -0.2609
   40TAL   C19930051   2.618   5.771  15.084  0.0632 -0.8356 -1.2583
   40TAL   C20030052   2.646   5.715  15.224 -0.0232 -0.1203  0.3987
   41HTM   C20130053   2.076   6.277  15.124 -0.9057 -0.3134  0.4242
   41HTM   C20230054   2.027   6.150  15.135 -1.6459 -0.0317  0.4301
   41HTM   C20330055   1.915   6.125  15.048 -1.4081  0.4325 -0.0238
   41HTM   C20430056   1.879   6.232  14.971 -0.4865  0.5049 -0.3763
   41HTM    S2130057   1.985   6.374  15.003  0.1574 -0.0116 -0.1603
   42TAL   C20530058   1.846   5.990  15.031  0.3556 -1.1335  0.3331
   42TAL   C20630059   1.771   5.915  15.143 -0.5487 -0.8284  0.7039
   42TAL   C20730060   1.673   6.013  15.222  0.4454  0.3613 -0.7898
   42TAL   C20830061   1.537   5.949  15.259  0.1604 -0.0416 -0.1011
   42TAL   C20930062   1.453   6.023  15.367 -1.2776  0.0060  0.5345
   42TAL   C21030063   1.308   5.978  15.385 -0.5953 -0.9618 -0.3356
   43HTM   C21130064   1.760   6.253  14.890  0.3506  0.1599 -0.2045
   43HTM   C21230065   1.730   6.379  14.849  0.0096  0.1498  0.0088
   43HTM   C21330066   1.615   6.386  14.762 -0.1051  0.0061  0.1481
   43HTM   C21430067   1.557   6.265  14.737  0.1485 -0.0933  0.0414
   43HTM    S2230068   1.645   6.132  14.821  0.5550 -0.0125 -0.2462
   44TAL   C21530069   1.569   6.520  14.709 -1.5160  0.0717  0.8554
   44TAL   C21630070   1.623   6.647  14.768  0.4799 -0.8198  0.4545
   44TAL   C21730071   1.630   6.769  14.668 -0.7169 -0.3616 -0.5918
   44TAL   C21830072   1.614   6.894  14.734 -0.7778 -0.8467  0.3235
   44TAL   C21930073   1.705   6.927  14.863 -1.0558 -0.3031  1.2058
   44TAL   C22030074   1.647   7.034  14.958  0.4741  0.3260  1.3526
   45HTM   C22130075   1.449   6.229  14.645  0.1770  0.0081  0.2994
   45HTM   C22230076   1.339   6.152  14.667 -0.3045  0.7238  0.5083
   45HTM   C22330077   1.256   6.135  14.551 -0.5856  1.1883  0.6406
   45HTM   C22430078   1.302   6.201  14.440 -0.3183  0.8266  0.5330
   45HTM    S2330079   1.455   6.289  14.475  0.3139 -0.1359  0.2537
   46TAL   C22530080   1.132   6.039  14.544  0.3725  0.3242  0.4371
   46TAL   C22630081   1.067   5.968  14.666 -0.2073  0.7216  0.3101
   46TAL   C22730082   0.931   5.926  14.616  0.2084 -0.0493 -0.9105
   46TAL   C22830083   0.822   5.923  14.709  0.9147  0.5557 -0.4068
   46TAL   C22930084   0.812   5.793  14.797 -0.6277 -0.2704 -0.1839
   46TAL   C23030085   0.696   5.797  14.891  0.3075 -0.5198  0.9088
   47HTM   C23130086   1.251   6.214  14.299 -0.4799 -0.1004  0.6198
   47HTM   C23230087   1.324   6.219  14.184 -0.0706 -0.6291  0.8492
   47HTM   C23330088   1.244   6.228  14.065  0.3490 -1.1654  0.5145
   47HTM   C23430089   1.110   6.231  14.089  0.2597 -1.0455  0.0301
   47HTM    S2430090   1.074   6.221  14.266 -0.3662 -0.2399 -0.0411
   48TAL   C23530091   1.298   6.252  13.922  0.6292 -0.1143 -0.0403
   48TAL   C23630092   1.234   6.157  13.809 -0.2228 -0.1327  0.1729
   48TAL   C23730093   1.271   6.194  13.659 -0.5924 -0.0085  0.4852
   48TAL   C23830094   1.228   6.332  13.615  0.3875 -0.5496 -0.8262
   48TAL   C23930095   1.295   6.374  13.478  0.6076  0.7455 -0.3280
   48TAL   C24030096   1.427   6.448  13.503 -0.1981  0.3306 -0.0773
    1HTM     C130097   0.617   1.646  11.374 -0.5869  0.3154 -0.0005
    1HTM     C230098   0.585   1.639  11.242 -0.5996  0.1846  0.0088
    1HTM     C330099   0.465   1.564  11.215 -0.3401 -0.2512  0.0494
    1HTM     C430100   0.405   1.513  11.326 -0.1296 -0.4527  0.0712
    1HTM     S130101   0.497   1.557  11.476 -0.2437 -0.1050  0.0420
    2TAL     C530102   0.445   1.520  11.065  0.5217 -0.4658 -1.4226
    2TAL     C630103   0.524   1.399  11.040  0.2655  0.0138  0.0936
    2TAL     C730104   0.503   1.377  10.890 -0.4503  1.0506  0.6122
    2TAL     C830105   0.574   1.246  10.830 -0.4212 -0.0981  0.1585
    2TAL     C930106   0.532   1.117  10.894 -0.0496 -0.5213 -0.1420
    2TAL    C1030107   0.396   1.066  10.890 -0.0745 -0.5891  0.1130
    3HTM    C1130108   0.287   1.431  11.334  0.0546 -0.0413 -0.1621
    3HTM    C1230109   0.232   1.339  11.249  0.4346 -0.5635  0.1442
    3HTM    C1330110   0.124   1.263  11.307  0.6078 -0.6685  0.3312
    3HTM    C1430111   0.097   1.297  11.437  0.3597 -0.2264  0.1667
    3HTM     S230112   0.206   1.428  11.495 -0.1155  0.3615 -0.2390
    4TAL    C1530113   0.044   1.174  11.216 -0.1003 -0.1650 -0.5246
    4TAL    C1630114  -0.068   1.239  11.130 -0.5737 -0.1497  0.2514
    4TAL    C1730115   0.004   1.232  10.988 -0.3172 -0.5396 -0.4439
    4TAL    C1830116  -0.063   1.324  10.888  0.6767  1.1145  0.1298
    4TAL    C1930117  -0.062   1.473  10.917 -0.2404 -0.4620  0.5213
    4TAL    C2030118   0.071   1.550  10.949  0.6334  0.2823 -0.4266
    5HTM    C2130119   0.015   1.226  11.535  0.3160  0.2672 -0.4014
    5HTM    C2230120  -0.047   1.285  11.642  0.3018  0.1430 -0.3412
    5HTM    C2330121  -0.111   1.191  11.730  0.6509  0.0039 -0.2313
    5HTM    C2430122  -0.099   1.061  11.691  0.9311  0.0220 -0.2079
    5HTM     S330123  -0.004   1.047  11.538  0.7747  0.2177 -0.3239
    6TAL    C2530124  -0.171   1.245  11.860  0.0273 -0.1654  0.2513
    6TAL    C2630125  -0.318   1.295  11.863  0.8030 -0.0283 -0.0303
    6TAL    C2730126  -0.343   1.402  11.754  0.8145 -0.1609 -0.6624
    6TAL    C2830127  -0.381   1.535  11.819  0.6892  0.1300  0.2131
    6TAL    C2930128  -0.521   1.586  11.791  0.6366 -1.5901  0.0264
    6TAL    C3030129  -0.635   1.507  11.854  0.0802 -0.4540 -0.1618
    7HTM    C3130130  -0.181   0.952  11.732  0.3286 -0.2255  0.4440
    7HTM    C3230131  -0.133   0.839  11.791  0.1107 -0.2329  0.6094
    7HTM    C3330132  -0.236   0.750  11.838 -0.0623 -0.1277  0.4306
    7HTM    C3430133  -0.363   0.795  11.814  0.0233 -0.0400  0.1287
    7HTM     S430134  -0.362   0.955  11.731  0.3320 -0.0839  0.0462
    8TAL    C3530135  -0.206   0.608  11.896  1.0200  0.3606 -0.6707
    8TAL    C3630136  -0.096   0.521  11.830 -0.2279  0.3318  0.5299
    8TAL    C3730137  -0.118   0.431  11.704 -0.3614 -0.0596 -0.3365
    8TAL    C3830138  -0.162   0.485  11.574 -0.1295 -0.4741 -0.2548
    8TAL    C3930139  -0.144   0.388  11.462 -0.4848 -0.1952 -0.3771
    8TAL    C4030140  -0.147   0.451  11.324  0.5807 -0.2207  0.1572
    9HTM    C4130141  -0.497   0.739  11.825  0.0026  0.1703  0.3202
    9HTM    C4230142  -0.609   0.756  11.749 -0.0751  0.2846  0.4606
    9HTM    C4330143  -0.718   0.671  11.787  0.0316  0.0796  0.3119
    9HTM    C4430144  -0.690   0.588  11.892  0.1905 -0.1908  0.0577
    9HTM     S530145  -0.521   0.612  11.951  0.2181 -0.2078 -0.0134
   10TAL    C4530146  -0.853   0.685  11.713  0.6236 -0.6264 -0.2747
   10TAL    C4630147  -0.832   0.696  11.560 -0.0105  0.5219  0.7456
   10TAL    C4730148  -0.957   0.755  11.493  0.1146  0.3929  0.1790
   10TAL    C4830149  -0.959   0.742  11.332 -0.1126  0.6027 -0.5195
   10TAL    C4930150  -0.883   0.861  11.264 -0.4413  0.0057  0.7468
   10TAL    C5030151  -0.915   1.007  11.305 -0.1148  0.2009 -0.5278
   11HTM    C5130152  -0.776   0.491  11.958 -0.3177 -0.0470 -0.1515
   11HTM    C5230153  -0.861   0.508  12.063 -0.2285 -0.1350 -0.0648
   11HTM    C5330154  -0.929   0.387  12.102  0.0066 -0.2263  0.0660
   11HTM    C5430155  -0.896   0.278  12.027  0.0967 -0.2079  0.0786
   11HTM     S630156  -0.775   0.320  11.900 -0.1101 -0.0728 -0.0741
   12TAL    C5530157  -1.014   0.377  12.226 -0.8702 -0.1112 -0.0423
   12TAL    C5630158  -1.108   0.478  12.285 -0.0200  0.3641  0.6322
   12TAL    C5730159  -1.197   0.548  12.176 -0.7636 -0.5842 -0.2412
   12TAL    C5830160  -1.242   0.675  12.244  0.1591  0.4079 -0.2741
   12TAL    C5930161  -1.346   0.750  12.172  0.1182  0.3435 -0.1624
   12TAL    C6030162  -1.344   0.895  12.230  0.3714 -0.3038 -0.1947
   13HTM    C6130163  -0.930   0.134  12.021  0.1245  0.2522 -0.3770
   13HTM    C6230164  -0.978   0.058  12.124 -0.0366  0.2278 -0.4706
   13HTM    C6330165  -0.974  -0.084  12.098  0.0037  0.2340 -0.4981
   13HTM    C6430166  -0.922  -0.116  11.977  0.1954  0.2629 -0.4247
   13HTM     S730167  -0.874   0.031  11.884  0.3411  0.2852 -0.3151
   14TAL    C6530168  -1.033  -0.188  12.194 -0.6818  0.5536  0.0745
   14TAL    C6630169  -0.941  -0.253  12.297  0.6971  0.2921 -0.6584
   14TAL    C6730170  -0.825  -0.167  12.354 -0.4698  0.2509 -0.0026
   14TAL    C6830171  -0.694  -0.234  12.374 -0.5982 -0.0567  0.2260
   14TAL    C6930172  -0.603  -0.177  12.266  0.4533 -1.1670 -0.7874
   14TAL    C7030173  -0.470  -0.242  12.247  0.0052  0.7706 -0.2690
   15HTM    C7130174  -0.907  -0.248  11.916 -0.3648 -0.0444  0.7728
   15HTM    C7230175  -1.011  -0.329  11.882 -0.3763 -0.2050  1.1771
   15HTM    C7330176  -0.973  -0.465  11.858 -0.3064 -0.2092  1.3082
   15HTM    C7430177  -0.839  -0.488  11.873 -0.2416 -0.0517  1.0035
   15HTM     S830178  -0.751  -0.338  11.920 -0.2638  0.1152  0.5240
   16TAL    C7530179  -1.083  -0.560  11.798 -0.0512  0.0030 -0.3244
   16TAL    C7630180  -1.076  -0.581  11.646  0.3782  0.6773  0.8036
   16TAL    C7730181  -1.176  -0.673  11.575  0.0417  0.5646  0.8808
   16TAL    C7830182  -1.186  -0.816  11.633 -0.2718 -0.6622 -0.7518
   16TAL    C7930183  -1.064  -0.907  11.595 -0.3146  0.1334  0.1099
   16TAL    C8030184  -1.062  -1.040  11.662  0.5211 -0.0732  0.6800
   17HTM    C8130185  -0.745  -0.606  11.845  0.4471  0.1744  0.9852
   17HTM    C8230186  -0.627  -0.608  11.777  0.7169  0.0384  1.4424
   17HTM    C8330187  -0.577  -0.740  11.752  0.5617 -0.0279  1.4782
   17HTM    C8430188  -0.656  -0.840  11.803  0.1737  0.0576  1.0487
   17HTM     S930189  -0.802  -0.773  11.885 -0.0275  0.2295  0.5609
   18TAL    C8530190  -0.448  -0.780  11.679 -0.7096 -0.1434 -0.0804
   18TAL    C8630191  -0.414  -0.707  11.555 -0.5702 -1.1055 -0.4707
   18TAL    C8730192  -0.299  -0.771  11.466 -0.6226 -0.8961  0.3396
   18TAL    C8830193  -0.252  -0.676  11.357  0.1862 -0.1053 -0.2980
   18TAL    C8930194  -0.177  -0.745  11.247  0.3774  0.5281 -0.0975
   18TAL    C9030195  -0.039  -0.682  11.212 -0.1579 -0.3795 -0.5751
   19HTM    C9130196  -0.657  -0.990  11.783 -0.5824  0.0949  0.1478
   19HTM    C9230197  -0.761  -1.076  11.803 -0.4995 -0.0263  0.0613
   19HTM    C9330198  -0.723  -1.215  11.798 -0.3847  0.0135 -0.1795
   19HTM    C9430199  -0.590  -1.234  11.773 -0.3798  0.1651 -0.2769
   19HTM    S1030200  -0.502  -1.078  11.755 -0.5212  0.2699 -0.0700
   20TAL    C9530201  -0.803  -1.342  11.838  0.5009 -0.3466  0.0368
   20TAL    C9630202  -0.931  -1.351  11.764 -0.0621 -0.1807  0.5679
   20TAL    C9730203  -1.036  -1.426  11.848  0.1803  0.9615 -0.4966
   20TAL    C9830204  -1.170  -1.469  11.785 -0.2183  0.1247  0.2390
   20TAL    C9930205  -1.270  -1.512  11.893 -0.2516  0.6219 -0.2051
   20TAL   C10030206  -1.410  -1.501  11.836 -1.0301 -0.0743 -0.5315
   21HTM   C10130207  -0.512  -1.343  11.725  0.3936  0.3772  0.3516
   21HTM   C10230208  -0.410  -1.326  11.637  0.4396  0.5708  0.4404
   21HTM   C10330209  -0.354  -1.450  11.589  0.4816  0.6744  0.2174
   21HTM   C10430210  -0.414  -1.561  11.641  0.4675  0.5599 -0.0408
   21HTM    S1130211  -0.547  -1.517  11.755  0.3996  0.3102 -0.0229
   22TAL   C10530212  -0.241  -1.430  11.487  0.3769 -1.1454 -0.3013
   22TAL   C10630213  -0.282  -1.357  11.359  0.1416  0.0202 -1.5586
   22TAL   C10730214  -0.369  -1.456  11.274  0.3736  0.4150 -0.6594
   22TAL   C10830215  -0.481  -1.403  11.191 -0.1277  0.7406 -1.0761
   22TAL   C10930216  -0.433  -1.306  11.089  0.1215 -1.1550  0.4161
   22TAL   C11030217  -0.393  -1.159  11.120 -0.6730 -0.8669  1.0926
   23HTM   C11130218  -0.384  -1.698  11.624  0.1474  0.1613 -1.0370
   23HTM   C11230219  -0.332  -1.757  11.512  0.2717 -0.0806 -0.8552
   23HTM   C11330220  -0.337  -1.901  11.515  0.2633 -0.0767 -0.5536
   23HTM   C11430221  -0.392  -1.952  11.628  0.1330  0.1681 -0.5055
   23HTM    S1230222  -0.443  -1.821  11.742  0.0095  0.4145 -0.8399
   24TAL   C11530223  -0.298  -1.980  11.394 -0.4059 -1.2178 -0.5910
   24TAL   C11630224  -0.164  -2.048  11.412  0.0345  0.2283  0.0522
   24TAL   C11730225  -0.109  -2.061  11.269 -0.2716  0.0279 -1.3535
   24TAL   C11830226  -0.001  -2.156  11.252 -0.3626 -0.3558 -0.0705
   24TAL   C11930227   0.005  -2.209  11.108  0.1233 -0.3888 -0.0564
   24TAL   C12030228   0.040  -2.119  10.989  0.7203  0.2400 -0.3065
   25HTM   C12130229  -0.435  -2.080  11.671 -0.0784  0.3940  1.6416
   25HTM   C12230230  -0.358  -2.182  11.718 -0.4110  0.1099  1.5762
   25HTM   C12330231  -0.431  -2.304  11.741 -0.5853 -0.0620  0.2830
   25HTM   C12430232  -0.564  -2.295  11.712 -0.3855  0.0908 -0.6381
   25HTM    S1330233  -0.607  -2.130  11.652  0.0414  0.4669  0.0625
   26TAL   C12530234  -0.370  -2.435  11.785  0.3788  0.6762 -0.5180
   26TAL   C12630235  -0.223  -2.441  11.836 -0.1364  0.6747  0.7589
   26TAL   C12730236  -0.169  -2.587  11.874 -0.1661  0.3409  0.2520
   26TAL   C12830237  -0.032  -2.569  11.926  0.7328  0.4852  0.0526
   26TAL   C12930238   0.028  -2.687  12.004 -0.5976 -0.4433  0.5234
   26TAL   C13030239   0.130  -2.738  11.897  0.5227 -0.2026 -0.2792
   27HTM   C13130240  -0.672  -2.388  11.712  0.4215  0.2704  0.2506
   27HTM   C13230241  -0.790  -2.369  11.646  0.6725  0.4191 -0.1647
   27HTM   C13330242  -0.884  -2.476  11.665  0.4680  0.5388 -0.4911
   27HTM   C13430243  -0.838  -2.576  11.746  0.0608  0.4816 -0.3252
   27HTM    S1430244  -0.671  -2.543  11.804 -0.0968  0.2702  0.2616
   28TAL   C13530245  -1.023  -2.469  11.605  0.0250 -0.0283 -0.5156
   28TAL   C13630246  -1.124  -2.369  11.679  1.2721  0.4321  1.0509
   28TAL   C13730247  -1.279  -2.374  11.625 -0.8300  0.3937  0.4813
   28TAL   C13830248  -1.299  -2.352  11.472 -0.1367 -0.3607  0.4605
   28TAL   C13930249  -1.430  -2.415  11.430  0.8757  0.3882 -0.6235
   28TAL   C14030250  -1.441  -2.404  11.274 -0.0502  0.2872  0.0025
   29HTM   C14130251  -0.909  -2.694  11.807 -0.2439  0.0392  0.0582
   29HTM   C14230252  -0.842  -2.774  11.894 -0.1134  0.1355  0.0479
   29HTM   C14330253  -0.923  -2.881  11.948  0.0465  0.0241  0.0670
   29HTM   C14430254  -1.051  -2.881  11.902  0.0376 -0.1573  0.0926
   29HTM    S1530255  -1.080  -2.746  11.786 -0.1748 -0.2018  0.0940
   30TAL   C14530256  -0.873  -2.981  12.051 -0.4684  0.2844 -0.1561
   30TAL   C14630257  -0.799  -3.112  12.006  0.0712 -0.5307 -0.1041
   30TAL   C14730258  -0.804  -3.227  12.106 -1.2410  0.5267  0.1491
   30TAL   C14830259  -0.937  -3.266  12.162  0.3878  0.2080  0.3288
   30TAL   C14930260  -0.937  -3.379  12.265  0.3462  0.0978  0.6853
   30TAL   C15030261  -1.080  -3.404  12.301 -0.0550  0.5941 -0.6186
   31HTM   C15130262  -1.169  -2.946  11.955 -0.5272  0.2200 -0.6556
   31HTM   C15230263  -1.212  -3.075  11.959 -0.8748  0.3005 -1.4346
   31HTM   C15330264  -1.332  -3.094  12.035 -0.8748  0.1487 -1.4708
   31HTM   C15430265  -1.381  -2.979  12.090 -0.5272 -0.0476 -0.7187
   31HTM    S1630266  -1.278  -2.837  12.048 -0.1703 -0.0557  0.0994
   32TAL   C15530267  -1.372  -3.239  12.074  0.3185 -0.0452  0.8095
   32TAL   C15630268  -1.431  -3.312  11.960  0.8058  0.1316  0.3717
   32TAL   C15730269  -1.522  -3.431  12.016  0.4041  0.0752 -0.3989
   32TAL   C15830270  -1.647  -3.393  12.092 -0.1808  0.1295 -0.8505
   32TAL   C15930271  -1.707  -3.495  12.195 -0.8311 -0.1172  0.1629
   32TAL   C16030272  -1.829  -3.446  12.260  0.5101  0.0041 -0.7568
   33HTM   C16130273  -1.508  -2.948  12.151  0.3611 -0.0454  0.4896
   33HTM   C16230274  -1.623  -3.019  12.171  0.5264 -0.2558  0.6883
   33HTM   C16330275  -1.729  -2.944  12.232  0.3611 -0.3392  0.5059
   33HTM   C16430276  -1.696  -2.814  12.258  0.0693 -0.1924  0.1678
   33HTM    S1730277  -1.526  -2.777  12.208 -0.0197  0.0643  0.0537
   34TAL   C16530278  -1.849  -3.021  12.275 -0.1291 -0.2216 -0.4919
   34TAL   C16630279  -1.963  -3.045  12.166 -0.3494  0.0343 -0.2532
   34TAL   C16730280  -2.035  -2.920  12.110 -0.7683 -0.1919  0.2496
   34TAL   C16830281  -2.089  -2.930  11.968  0.2869  0.8118  0.0679
   34TAL   C16930282  -2.098  -2.783  11.923  0.0394  0.9476  0.5639
   34TAL   C17030283  -2.119  -2.780  11.770 -0.0176 -0.7947 -0.6007
   35HTM   C17130284  -1.787  -2.719  12.296 -0.8320 -0.4643 -0.1996
   35HTM   C17230285  -1.840  -2.708  12.421 -1.2282 -0.8975 -0.3238
   35HTM   C17330286  -1.935  -2.600  12.435 -0.9090 -0.6385 -0.1309
   35HTM   C17430287  -1.954  -2.529  12.320 -0.2694 -0.0080  0.1399
   35HTM    S1830288  -1.853  -2.593  12.185 -0.0184  0.3104  0.1734
   36TAL   C17530289  -2.007  -2.582  12.563  0.9866 -0.9870  0.7131
   36TAL   C17630290  -1.949  -2.502  12.678 -0.1427  0.3432 -0.4560
   36TAL   C17730291  -1.903  -2.363  12.659  0.7654  0.0770  0.1255
   36TAL   C17830292  -1.812  -2.306  12.769  0.0153 -0.3291  0.2197
   36TAL   C17930293  -1.833  -2.153  12.772  0.1824 -0.1839 -0.5761
   36TAL   C18030294  -1.759  -2.068  12.874  0.7198  0.5542 -0.2466
   37HTM   C18130295  -2.013  -2.399  12.305  0.0568  0.1723  1.0986
   37HTM   C18230296  -1.956  -2.275  12.290  0.1653  0.1383  1.2290
   37HTM   C18330297  -2.052  -2.170  12.265  0.3275  0.0954  0.3612
   37HTM   C18430298  -2.181  -2.213  12.261  0.3426  0.0966 -0.4315
   37HTM    S1930299  -2.192  -2.391  12.288  0.1515  0.1525 -0.1404
   38TAL   C18530300  -2.002  -2.038  12.210 -0.3035  0.5459 -0.1056
   38TAL   C18630301  -1.955  -1.941  12.314 -0.3161  0.0202  0.3648
   38TAL   C18730302  -1.942  -1.797  12.256 -0.3167 -0.4371 -0.7279
   38TAL   C18830303  -1.888  -1.696  12.361 -0.3264  0.5025 -0.8954
   38TAL   C18930304  -1.863  -1.548  12.328  0.0576 -1.1287 -1.0448
   38TAL   C19030305  -1.790  -1.517  12.207 -0.6059  0.3691  0.2551
   39HTM   C19130306  -2.295  -2.140  12.228  0.4231  0.2399  0.7144
   39HTM   C19230307  -2.344  -2.099  12.107  0.5822 -0.2431  0.4835
   39HTM   C19330308  -2.457  -2.010  12.117  0.1458 -0.7243 -0.0327
   39HTM   C19430309  -2.494  -1.983  12.245 -0.3459 -0.6085 -0.1958
   39HTM    S2030310  -2.389  -2.068  12.364 -0.2957  0.1234  0.2937
   40TAL   C19530311  -2.520  -1.939  11.996 -0.9016 -0.2436  0.1954
   40TAL   C19630312  -2.429  -1.884  11.874 -0.9709 -0.0735  0.7421
   40TAL   C19730313  -2.401  -1.741  11.890 -0.0259 -0.0789  0.8385
   40TAL   C19830314  -2.278  -1.688  11.823  0.3581  0.0130  0.3226
   40TAL   C19930315  -2.283  -1.538  11.818 -0.7094 -0.1491  0.4859
   40TAL   C20030316  -2.170  -1.461  11.738 -0.0023 -0.4647 -0.1779
   41HTM   C20130317  -2.611  -1.921  12.315  0.4409  0.3743  0.2927
   41HTM   C20230318  -2.687  -1.965  12.420  0.0840 -0.1943 -0.1931
   41HTM   C20330319  -2.786  -1.870  12.463 -0.6213 -0.7557 -0.5341
   41HTM   C20430320  -2.786  -1.753  12.392 -0.8020 -0.6152 -0.3081
   41HTM    S2130321  -2.660  -1.755  12.263 -0.0898  0.2436  0.3576
   42TAL   C20530322  -2.872  -1.886  12.589  0.8035 -0.9958 -0.7007
   42TAL   C20630323  -2.934  -2.027  12.623  0.2867 -0.6749 -0.2793
   42TAL   C20730324  -2.926  -2.042  12.775  0.2930 -0.6760  0.0802
   42TAL   C20830325  -3.027  -2.124  12.839  0.0439  0.1200  0.2205
   42TAL   C20930326  -3.170  -2.098  12.801  0.1234  0.5811  0.2417
   42TAL   C21030327  -3.263  -2.180  12.899  0.7669 -0.6043 -0.2275
   43HTM   C21130328  -2.844  -1.618  12.415 -0.1306 -0.0173 -0.0463
   43HTM   C21230329  -2.894  -1.532  12.321  0.1069 -0.0322 -0.1864
   43HTM   C21330330  -2.962  -1.418  12.377  0.1688  0.0983 -0.3755
   43HTM   C21430331  -2.965  -1.417  12.513 -0.0214  0.2126 -0.3798
   43HTM    S2230332  -2.880  -1.561  12.583 -0.2957  0.1640 -0.1434
   44TAL   C21530333  -3.032  -1.339  12.272  0.5837  0.5169  0.1566
   44TAL   C21630334  -3.181  -1.380  12.242 -0.2647  0.5060 -0.4734
   44TAL   C21730335  -3.281  -1.353  12.359  0.5622  1.3558  1.2004
   44TAL   C21830336  -3.420  -1.321  12.318 -0.0202 -1.3511  0.2862
   44TAL   C21930337  -3.499  -1.238  12.416  0.4656  0.6661 -0.5617
   44TAL   C22030338  -3.587  -1.140  12.336  0.1462  0.4159 -0.4484
   45HTM   C22130339  -3.008  -1.310  12.612  0.0150 -0.1292 -0.4017
   45HTM   C22230340  -3.077  -1.197  12.582 -0.1822 -0.1906 -0.1872
   45HTM   C22330341  -3.119  -1.122  12.698 -0.0739 -0.3381 -0.0515
   45HTM   C22430342  -3.081  -1.178  12.816  0.2055 -0.3890 -0.1623
   45HTM    S2330343  -2.990  -1.331  12.791  0.3551 -0.2537 -0.4489
   46TAL   C22530344  -3.207  -0.995  12.686 -0.3522 -0.2327  0.5313
   46TAL   C22630345  -3.297  -0.976  12.564 -0.3334  0.1938 -0.0764
   46TAL   C22730346  -3.392  -0.847  12.568 -0.5076  0.4383 -0.3623
   46TAL   C22830347  -3.493  -0.824  12.686 -0.1003  0.9125  0.1735
   46TAL   C22930348  -3.552  -0.682  12.685  0.7848 -0.4645  0.1630
   46TAL   C23030349  -3.622  -0.656  12.813 -0.6517  0.2160  0.1881
   47HTM   C23130350  -3.099  -1.131  12.952  0.2942  0.7308 -0.4116
   47HTM   C23230351  -3.024  -1.170  13.059  0.2779  0.4102 -0.5140
   47HTM   C23330352  -3.044  -1.089  13.176 -0.0598 -0.2000 -0.1411
   47HTM   C23430353  -3.134  -0.989  13.159 -0.3008 -0.3448  0.2458
   47HTM    S2430354  -3.201  -0.988  12.991 -0.1185  0.2834  0.1690
   48TAL   C23530355  -2.985  -1.112  13.314  0.5260  0.1215 -0.3746
   48TAL   C23630356  -2.850  -1.188  13.329  0.6543  0.2142 -0.7646
   48TAL   C23730357  -2.869  -1.341  13.331  0.2495 -0.4532 -0.9491
   48TAL   C23830358  -2.779  -1.398  13.214  0.1851 -0.8615 -0.5929
   48TAL   C23930359  -2.830  -1.529  13.161 -0.1856 -1.2631  0.1040
   48TAL   C24030360  -2.828  -1.551  13.012 -0.1285  0.0707  0.3742
    1HTM     C130361   3.247   1.876  25.198 -0.7653 -0.2191  0.1780
    1HTM     C230362   3.132   1.809  25.169 -0.5711 -0.5277  0.1082
    1HTM     C330363   3.152   1.692  25.088 -0.2160 -0.4400  0.0644
    1HTM     C430364   3.282   1.669  25.055 -0.1396 -0.0645  0.0996
    1HTM     S130365   3.391   1.796  25.124 -0.5131  0.2095  0.1932
    2TAL     C530366   3.030   1.608  25.034 -0.7619  0.4888 -0.2976
    2TAL     C630367   2.910   1.591  25.115  0.4445  0.9407  0.6912
    2TAL     C730368   2.816   1.480  25.054 -0.1691  0.1742  0.8134
    2TAL     C830369   2.666   1.515  25.082  0.2368 -0.3173  0.6415
    2TAL     C930370   2.559   1.431  25.005  0.3237  0.1366  0.0803
    2TAL    C1030371   2.567   1.465  24.850  1.5924 -0.4192 -0.7412
    3HTM    C1130372   3.343   1.560  24.976  0.1141 -0.5151  0.2098
    3HTM    C1230373   3.334   1.424  24.986  0.1250 -0.5836 -0.5741
    3HTM    C1330374   3.419   1.353  24.896  0.2513 -0.0523 -0.8802
    3HTM    C1430375   3.495   1.434  24.816  0.3366  0.4213 -0.3291
    3HTM     S230376   3.463   1.608  24.850  0.2635  0.2316  0.6269
    4TAL    C1530377   3.437   1.203  24.881  0.4818 -0.3824  1.2431
    4TAL    C1630378   3.492   1.117  24.990 -0.5193  0.2150  0.0533
    4TAL    C1730379   3.633   1.149  25.052 -0.0769 -0.1107  1.4248
    4TAL    C1830380   3.718   1.042  25.124 -0.3189  0.2396  0.9166
    4TAL    C1930381   3.801   0.954  25.032  0.5582 -0.9566  0.8166
    4TAL    C2030382   3.733   0.877  24.920 -0.1781  0.5504  0.8610
    5HTM    C2130383   3.582   1.415  24.707 -0.4533 -0.5655  0.1994
    5HTM    C2230384   3.588   1.491  24.593 -0.1823  0.0181  0.5960
    5HTM    C2330385   3.693   1.452  24.503  0.1593  0.6089  0.7257
    5HTM    C2430386   3.767   1.346  24.547  0.1489  0.4758  0.4278
    5HTM     S330387   3.709   1.287  24.707 -0.2966 -0.4130 -0.0436
    6TAL    C2530388   3.707   1.538  24.375  0.3766 -0.3434 -0.7594
    6TAL    C2630389   3.824   1.634  24.375  0.8477 -0.4818 -0.6597
    6TAL    C2730390   3.869   1.681  24.241 -0.1827 -0.0631 -0.5275
    6TAL    C2830391   3.959   1.800  24.257  0.0195 -0.2341 -0.5827
    6TAL    C2930392   3.912   1.942  24.305 -0.1500  0.5305 -0.1797
    6TAL    C3030393   4.023   2.003  24.399  0.8845  0.1621 -0.0219
    7HTM    C3130394   3.891   1.283  24.514 -0.3121 -0.0465  0.5539
    7HTM    C3230395   3.944   1.255  24.391 -0.8223 -0.3395  0.3939
    7HTM    C3330396   4.080   1.206  24.396 -0.8318 -0.4190 -0.0482
    7HTM    C3430397   4.130   1.197  24.523 -0.3287 -0.1866 -0.2257
    7HTM     S430398   4.009   1.249  24.646  0.1999  0.1533  0.1550
    8TAL    C3530399   4.165   1.183  24.271  0.0909  1.0303  0.3277
    8TAL    C3630400   4.156   1.261  24.147 -0.0584  0.0395  0.8558
    8TAL    C3730401   4.202   1.410  24.159  1.4919 -1.0812  0.4502
    8TAL    C3830402   4.343   1.451  24.200  0.4523 -0.3329 -0.4396
    8TAL    C3930403   4.356   1.603  24.200  0.0272  0.3800 -0.4118
    8TAL    C4030404   4.384   1.679  24.073 -0.2740  0.1678  0.2531
    9HTM    C4130405   4.259   1.148  24.576  0.0727 -0.2612  0.3455
    9HTM    C4230406   4.268   1.068  24.686  0.4066 -0.7536 -0.0348
    9HTM    C4330407   4.404   1.044  24.729  0.5260 -0.7262 -0.3886
    9HTM    C4430408   4.498   1.106  24.652  0.2831 -0.2129 -0.2785
    9HTM     S530409   4.422   1.200  24.518 -0.1184  0.2794  0.2847
   10TAL    C4530410   4.431   0.963  24.855 -0.2875 -0.6706 -0.0355
   10TAL    C4630411   4.322   0.937  24.953  0.6741 -0.1412 -0.2889
   10TAL    C4730412   4.265   1.039  25.059  0.8356  1.1353 -0.4898
   10TAL    C4830413   4.153   0.974  25.133  0.3589 -0.6416 -0.2972
   10TAL    C4930414   4.111   1.044  25.258 -0.8303 -0.1205 -0.5571
   10TAL    C5030415   4.021   0.962  25.351 -0.6516  0.3357  0.5657
   11HTM    C5130416   4.639   1.108  24.665  0.1343 -0.1409  0.0243
   11HTM    C5230417   4.729   1.042  24.587 -0.1854 -0.4811 -0.0639
   11HTM    C5330418   4.862   1.037  24.643 -0.0936 -0.7708 -0.3018
   11HTM    C5430419   4.873   1.099  24.764  0.2961 -0.6515 -0.3952
   11HTM     S630420   4.715   1.169  24.817  0.5796 -0.1602 -0.1881
   12TAL    C5530421   4.979   0.977  24.575 -0.5796  0.4012  0.0288
   12TAL    C5630422   5.029   0.844  24.610 -0.0903  0.2806 -0.4046
   12TAL    C5730423   5.166   0.812  24.562  0.0237 -0.2924  0.1390
   12TAL    C5830424   5.209   0.667  24.609 -0.7935  0.5314  0.4505
   12TAL    C5930425   5.089   0.571  24.660  0.7318  0.3391  0.4523
   12TAL    C6030426   5.118   0.420  24.654  0.0531 -0.5967  0.5580
   13HTM    C6130427   4.992   1.104  24.859 -0.1467 -0.6001  0.0395
   13HTM    C6230428   5.125   1.111  24.831 -0.1537 -0.5410  0.0191
   13HTM    C6330429   5.209   1.106  24.948 -0.1491  0.0030  0.0391
   13HTM    C6430430   5.140   1.097  25.065 -0.1388  0.3588  0.0756
   13HTM     S730431   4.962   1.093  25.037 -0.1337  0.0318  0.0866
   14TAL    C6530432   5.359   1.084  24.924  0.2708 -1.2783  0.1009
   14TAL    C6630433   5.400   0.962  24.847  0.0058  0.2271  0.1698
   14TAL    C6730434   5.550   0.940  24.832 -0.0636  0.3361  0.0260
   14TAL    C6830435   5.588   0.827  24.727  0.0632 -0.0761  0.3878
   14TAL    C6930436   5.562   0.851  24.587 -0.2065  0.2554  0.8598
   14TAL    C7030437   5.599   0.745  24.475 -0.1969 -0.6276 -0.6375
   15HTM    C7130438   5.185   1.098  25.202  0.3303  0.5323 -0.3745
   15HTM    C7230439   5.103   1.131  25.305  0.2826  0.9653 -0.5465
   15HTM    C7330440   5.164   1.117  25.435 -0.0477  0.6744 -0.4196
   15HTM    C7430441   5.293   1.073  25.430 -0.2517  0.0196 -0.1520
   15HTM     S830442   5.348   1.046  25.260 -0.0409 -0.2827 -0.0375
   16TAL    C7530443   5.098   1.175  25.551 -0.1692 -0.2858 -0.4486
   16TAL    C7630444   5.069   1.333  25.550 -0.8707  1.7537  0.3984
   16TAL    C7730445   5.033   1.394  25.685 -0.3716  0.6870  0.7438
   16TAL    C7830446   5.124   1.375  25.796 -0.5056 -0.9119 -0.6395
   16TAL    C7930447   5.085   1.447  25.924  0.3674 -0.9324 -0.3425
   16TAL    C8030448   5.146   1.584  25.930  0.2800 -0.2347 -0.5056
   17HTM    C8130449   5.389   1.042  25.532 -0.0719  0.1583  0.5202
   17HTM    C8230450   5.375   0.996  25.660  0.2365  0.2305  0.5822
   17HTM    C8330451   5.500   0.962  25.724  0.3669 -0.0446  0.1864
   17HTM    C8430452   5.609   0.981  25.644  0.1577 -0.3266 -0.1772
   17HTM     S930453   5.563   1.045  25.482 -0.2229 -0.2661 -0.0472
   18TAL    C8530454   5.509   0.885  25.854 -0.9577 -0.3508 -0.0661
   18TAL    C8630455   5.500   0.990  25.968  0.3334  0.5007  0.7546
   18TAL    C8730456   5.427   0.943  26.098  0.0362  0.2889 -0.3004
   18TAL    C8830457   5.414   1.040  26.206  0.8438 -0.3076  0.2099
   18TAL    C8930458   5.361   1.175  26.212 -0.8294 -0.7235 -0.9723
   18TAL    C9030459   5.377   1.218  26.355  0.3119  0.0329  0.4176
   19HTM    C9130460   5.742   0.985  25.694 -0.2509 -0.1476 -0.2754
   19HTM    C9230461   5.840   0.890  25.686 -0.0087  0.1298 -0.6928
   19HTM    C9330462   5.970   0.937  25.727 -0.0720  0.3532 -0.7467
   19HTM    C9430463   5.971   1.067  25.767 -0.3622  0.2461 -0.3691
   19HTM    S1030464   5.807   1.142  25.754 -0.5798 -0.1484  0.0859
   20TAL    C9530465   6.090   0.838  25.736  0.0727  0.8292 -0.5669
   20TAL    C9630466   6.113   0.751  25.868  0.1547  0.9705  0.2874
   20TAL    C9730467   6.009   0.631  25.874 -1.1404 -0.0682 -0.1938
   20TAL    C9830468   6.055   0.519  25.970  0.7941  0.2657 -0.1588
   20TAL    C9930469   5.934   0.433  26.000 -0.2665  0.3171  0.4609
   20TAL   C10030470   5.850   0.483  26.107 -0.1100 -0.0892 -0.0737
   21HTM   C10130471   6.075   1.155  25.816 -0.0372  0.6247 -0.5116
   21HTM   C10230472   6.064   1.267  25.893 -0.0013  0.8689 -0.8535
   21HTM   C10330473   6.190   1.329  25.925  0.0551  0.6609 -0.6661
   21HTM   C10430474   6.298   1.264  25.871  0.0621  0.2581 -0.1804
   21HTM    S1130475   6.248   1.119  25.776 -0.0026  0.1091  0.0785
   22TAL   C10530476   6.209   1.445  26.018  1.2735 -0.2202 -0.5771
   22TAL   C10630477   6.130   1.570  25.999 -0.4171 -0.2827  0.1017
   22TAL   C10730478   6.118   1.629  25.856 -0.3448 -0.4866 -0.9028
   22TAL   C10830479   6.250   1.651  25.777 -0.0907 -0.2572 -0.3133
   22TAL   C10930480   6.223   1.728  25.652  0.2533 -0.0852  0.3242
   22TAL   C11030481   6.343   1.730  25.558  0.0450 -0.2901  0.2900
   23HTM   C11130482   6.437   1.267  25.892 -0.0923 -0.0435  0.3173
   23HTM   C11230483   6.526   1.368  25.869 -0.0364 -0.1634 -0.0129
   23HTM   C11330484   6.663   1.330  25.892  0.0268 -0.4116 -0.7339
   23HTM   C11430485   6.679   1.201  25.932  0.0190 -0.4811 -0.9529
   23HTM    S1230486   6.520   1.115  25.944 -0.0693 -0.2364 -0.2600
   24TAL   C11530487   6.783   1.419  25.875 -1.3842 -0.8249  0.4485
   24TAL   C11630488   6.784   1.529  25.762  0.2833  0.6621 -0.3673
   24TAL   C11730489   6.788   1.466  25.626 -0.1303 -0.0724 -0.0786
   24TAL   C11830490   6.742   1.553  25.511  0.2525 -0.3291  0.0984
   24TAL   C11930491   6.722   1.483  25.381 -0.2292  0.9379  0.5740
   24TAL   C12030492   6.652   1.579  25.288  0.0711 -0.5029 -0.2261
   25HTM   C12130493   6.794   1.120  25.971  0.1333 -0.0065 -0.0728
   25HTM   C12230494   6.849   1.081  26.090 -0.2481 -0.4674 -0.0424
   25HTM   C12330495   6.942   0.971  26.078 -0.2701 -0.4732 -0.1583
   25HTM   C12430496   6.957   0.927  25.950  0.0944 -0.0167 -0.2771
   25HTM    S1330497   6.856   1.020  25.834  0.4971  0.4596 -0.2524
   26TAL   C12530498   6.992   0.891  26.190  0.0188  0.7908 -0.3186
   26TAL   C12630499   6.895   0.804  26.276  0.3355 -1.2726  0.3451
   26TAL   C12730500   6.838   0.681  26.207  0.0915 -0.7625  0.7958
   26TAL   C12830501   6.711   0.622  26.275 -0.7754  0.3804 -0.5527
   26TAL   C12930502   6.631   0.545  26.174  0.5004 -0.0962 -0.3988
   26TAL   C13030503   6.490   0.514  26.202 -0.7339  0.0046 -0.0060
   27HTM   C13130504   7.050   0.821  25.905 -0.2519 -0.3501  0.2997
   27HTM   C13230505   7.031   0.719  25.818  0.0391  0.1024 -0.3066
   27HTM   C13330506   7.150   0.640  25.794  0.2172  0.4608 -0.6328
   27HTM   C13430507   7.259   0.683  25.864  0.0617  0.2815 -0.2770
   27HTM    S1430508   7.220   0.826  25.966 -0.3245 -0.3588  0.5053
   28TAL   C13530509   7.164   0.544  25.688 -1.1343 -0.3134 -0.0907
   28TAL   C13630510   7.051   0.497  25.612  0.3718  0.0950 -0.3410
   28TAL   C13730511   6.963   0.397  25.682  0.1436  0.1764  0.3621
   28TAL   C13830512   7.009   0.246  25.696  0.3377  0.1911 -0.2544
   28TAL   C13930513   7.144   0.226  25.774 -0.1715  1.0997 -0.0229
   28TAL   C14030514   7.164   0.065  25.800  0.9435 -0.5715  0.3386
   29HTM   C14130515   7.397   0.644  25.878  0.0901  0.7853  0.3605
   29HTM   C14230516   7.477   0.597  25.778 -0.1960  1.0219  0.0114
   29HTM   C14330517   7.612   0.568  25.821 -0.2002  0.4576 -0.3285
   29HTM   C14430518   7.634   0.594  25.953  0.0828 -0.2092 -0.2398
   29HTM    S1530519   7.485   0.656  26.034  0.3788 -0.1760  0.2845
   30TAL   C14530520   7.720   0.516  25.716  0.5636 -0.9157 -1.1971
   30TAL   C14630521   7.725   0.579  25.586  0.4659 -0.9926 -0.5344
   30TAL   C14730522   7.685   0.489  25.472  0.0485  0.7717  0.9908
   30TAL   C14830523   7.685   0.561  25.334  0.6329  1.1771  0.1310
   30TAL   C14930524   7.825   0.594  25.290  0.5762 -0.0366  0.0810
   30TAL   C15030525   7.829   0.663  25.152  0.2109 -0.1536  0.2621
   31HTM   C15130526   7.750   0.584  26.045  0.0059 -0.0970  0.0733
   31HTM   C15230527   7.754   0.612  26.178 -0.3610  0.4305 -0.0181
   31HTM   C15330528   7.878   0.575  26.241 -0.5685  0.5830  0.4883
   31HTM   C15430529   7.969   0.520  26.156 -0.3599  0.1719  0.9671
   31HTM    S1630530   7.904   0.510  25.988  0.1186 -0.4446  0.8128
   32TAL   C15530531   7.886   0.619  26.383 -0.2314 -0.2432  0.5484
   32TAL   C15630532   7.854   0.530  26.499 -0.0202  0.3517 -0.2156
   32TAL   C15730533   7.880   0.584  26.638 -0.1598 -0.0271  1.0314
   32TAL   C15830534   8.016   0.592  26.714  0.3155  0.2585 -0.4617
   32TAL   C15930535   8.071   0.452  26.759  0.4841 -0.2219  1.3448
   32TAL   C16030536   8.168   0.476  26.873 -0.7430 -0.3927  0.4747
   33HTM   C16130537   8.091   0.441  26.183  0.2999  0.0400 -0.0533
   33HTM   C16230538   8.148   0.351  26.097  0.5629  0.2130 -0.0606
   33HTM   C16330539   8.260   0.280  26.153  0.5340  0.2645  0.0629
   33HTM   C16430540   8.288   0.316  26.282  0.2489  0.1307  0.1640
   33HTM    S1730541   8.175   0.442  26.343 -0.0072 -0.0722  0.1115
   34TAL   C16530542   8.329   0.177  26.068 -0.4098 -0.4580  0.0142
   34TAL   C16630543   8.479   0.211  26.014  0.4946  0.9804 -0.9746
   34TAL   C16730544   8.547   0.094  25.946  0.2559  0.8587  0.7846
   34TAL   C16830545   8.569  -0.036  26.032 -0.2785  0.2373 -0.1681
   34TAL   C16930546   8.652  -0.054  26.158 -0.2016 -0.6633 -0.0313
   34TAL   C17030547   8.731   0.052  26.235  0.5701  0.6473 -0.4481
   35HTM   C17130548   8.387   0.268  26.383  0.2536  0.1136 -0.0984
   35HTM   C17230549   8.446   0.146  26.400  0.6210  0.2372 -0.4401
   35HTM   C17330550   8.523   0.135  26.521  0.2808 -0.0103 -0.2432
   35HTM   C17430551   8.523   0.249  26.597 -0.3461 -0.3226  0.2491
   35HTM    S1830552   8.425   0.380  26.520 -0.5570 -0.3284  0.5046
   36TAL   C17530553   8.606   0.012  26.565  0.7099  0.0186  0.9723
   36TAL   C17630554   8.534  -0.125  26.560  0.2358  1.2923 -0.3701
   36TAL   C17730555   8.610  -0.242  26.499 -1.2687  0.1643  0.1317
   36TAL   C17830556   8.762  -0.265  26.539  0.3437  1.5415 -0.4914
   36TAL   C17930557   8.796  -0.419  26.524 -0.0253 -0.4003 -0.8463
   36TAL   C18030558   8.946  -0.437  26.535  1.2797 -0.2440 -0.1695
   37HTM   C18130559   8.582   0.285  26.723 -0.2459 -0.5831  0.0872
   37HTM   C18230560   8.515   0.316  26.838 -0.2072  0.0745 -0.0596
   37HTM   C18330561   8.602   0.360  26.944 -0.1450  0.4308 -0.2527
   37HTM   C18430562   8.734   0.362  26.911 -0.1361  0.0449 -0.2530
   37HTM    S1930563   8.760   0.309  26.740 -0.2063 -0.8050 -0.0075
   38TAL   C18530564   8.534   0.370  27.075 -0.5989 -0.4103  0.6938
   38TAL   C18630565   8.432   0.269  27.128  0.4179  0.3984  0.4067
   38TAL   C18730566   8.368   0.264  27.268 -0.2312  0.8962  0.4157
   38TAL   C18830567   8.282   0.384  27.306  0.0767 -0.4804 -0.1162
   38TAL   C18930568   8.216   0.357  27.439 -0.1047 -0.0263  0.7134
   38TAL   C19030569   8.118   0.460  27.466 -0.9965 -0.0286 -1.0346
   39HTM   C19130570   8.852   0.411  26.986  0.2340  0.1881  0.5317
   39HTM   C19230571   8.857   0.475  27.106  0.3233  0.3156  0.4611
   39HTM   C19330572   8.990   0.511  27.147  0.3596  0.3062  0.3510
   39HTM   C19430573   9.087   0.476  27.057  0.2980  0.1716  0.3373
   39HTM    S2030574   9.016   0.393  26.913  0.1884  0.0452  0.4638
   40TAL   C19530575   9.003   0.599  27.268 -0.5232 -0.3593  0.2040
   40TAL   C19630576   8.887   0.697  27.303  0.6414 -0.3377 -0.9049
   40TAL   C19730577   8.873   0.717  27.462 -0.5492  0.2899  0.5790
   40TAL   C19830578   8.908   0.859  27.489 -0.4528  0.0557  0.5087
   40TAL   C19930579   8.979   0.869  27.617 -0.2393 -0.7751 -0.5805
   40TAL   C20030580   8.988   1.014  27.669  0.0272  0.3459  0.3788
   41HTM   C20130581   9.229   0.479  27.069 -0.1273 -0.2602 -0.0124
   41HTM   C20230582   9.304   0.552  27.157 -0.5801 -0.7225  0.7844
   41HTM   C20330583   9.444   0.520  27.155 -0.5395 -0.5869  1.2226
   41HTM   C20430584   9.476   0.422  27.066 -0.0557 -0.0211  0.7606
   41HTM    S2130585   9.331   0.362  26.977  0.3895  0.3873 -0.2723
   42TAL   C20530586   9.546   0.605  27.238  1.2986  0.0092  0.6736
   42TAL   C20630587   9.499   0.700  27.352  0.2250  0.3883 -0.0990
   42TAL   C20730588   9.605   0.794  27.394  0.1421  0.4938  0.1655
   42TAL   C20830589   9.715   0.714  27.465  0.5107 -0.7724 -0.1850
   42TAL   C20930590   9.858   0.761  27.442  0.2706 -1.0279 -0.5115
   42TAL   C21030591   9.950   0.715  27.554 -0.1380  0.6684 -0.9033
   43HTM   C21130592   9.595   0.352  27.032  0.8025  0.0401 -0.4834
   43HTM   C21230593   9.724   0.379  27.069  0.9212 -0.1478 -0.7505
   43HTM   C21330594   9.819   0.281  27.024  0.6106 -0.5826 -0.4745
   43HTM   C21430595   9.763   0.179  26.954  0.2550 -0.7263  0.0034
   43HTM    S2230596   9.585   0.198  26.938  0.2851 -0.3204  0.1432
   44TAL   C21530597   9.967   0.307  27.057  0.8011 -1.4623 -0.1660
   44TAL   C21630598  10.033   0.200  27.148 -0.1426  0.0519  0.4588
   44TAL   C21730599  10.171   0.250  27.211 -0.2875 -0.2437  0.3752
   44TAL   C21830600  10.158   0.355  27.333  0.0314 -0.6964 -0.0474
   44TAL   C21930601  10.292   0.416  27.370  0.1407 -0.7898 -0.5454
   44TAL   C22030602  10.368   0.492  27.255  0.4473 -0.1223 -0.0416
   45HTM   C22130603   9.817   0.066  26.893  0.0334  0.0222 -0.0307
   45HTM   C22230604   9.875  -0.032  26.969 -0.0079  0.0952  0.0963
   45HTM   C22330605   9.900  -0.154  26.897 -0.0335  0.0004  0.2470
   45HTM   C22430606   9.861  -0.149  26.766 -0.0117 -0.1448  0.2355
   45HTM    S2330607   9.789   0.011  26.724  0.0432 -0.1736  0.0305
   46TAL   C22530608   9.956  -0.268  26.971 -0.5220  0.0879 -0.6714
   46TAL   C22630609   9.862  -0.343  27.060  0.1264  0.6138  0.8176
   46TAL   C22730610   9.918  -0.438  27.171 -0.5496 -0.1403  0.2734
   46TAL   C22830611  10.015  -0.554  27.135 -0.3300  0.0003  0.3495
   46TAL   C22930612   9.947  -0.682  27.079  0.0398  1.0869  0.7582
   46TAL   C23030613  10.031  -0.806  27.076 -0.8111 -0.0101 -0.9430
   47HTM   C23130614   9.849  -0.252  26.673 -0.2928 -0.2674 -0.4247
   47HTM   C23230615   9.769  -0.256  26.562  0.0896 -0.3270 -0.7019
   47HTM   C23330616   9.787  -0.375  26.483  0.5627 -0.2427 -0.7272
   47HTM   C23430617   9.880  -0.461  26.533  0.5413 -0.1188 -0.4697
   47HTM    S2430618   9.953  -0.398  26.685 -0.0832 -0.0989 -0.1731
   48TAL   C23530619   9.700  -0.388  26.358  0.0319  0.0605 -0.1598
   48TAL   C23630620   9.685  -0.526  26.303  0.5288 -0.0365 -0.3012
   48TAL   C23730621   9.560  -0.594  26.375  0.0269  0.1106  0.6365
   48TAL   C23830622   9.526  -0.746  26.339  1.0944 -0.2382  0.4647
   48TAL   C23930623   9.541  -0.789  26.194  0.5672  0.7533  0.2904
   48TAL   C24030624   9.483  -0.923  26.179 -0.9496  0.0377  0.5865
    1HTM     C130625   4.135   2.718  11.253  0.2006  0.1316  0.4456
    1HTM     C230626   4.135   2.829  11.332  0.5125 -0.2054  0.9294
    1HTM     C330627   4.025   2.835  11.424  0.3995 -0.1898  0.7949
    1HTM     C430628   3.941   2.728  11.416  0.0015  0.1590  0.2081
    1HTM     S130629   3.994   2.611  11.289 -0.2635  0.4976 -0.2233
    2TAL     C530630   3.989   2.937  11.532 -0.2259  0.4635 -0.7757
    2TAL     C630631   4.031   3.074  11.481 -0.2046 -0.0451 -0.7227
    2TAL     C730632   4.038   3.186  11.591  0.5127  0.3224  0.8357
    2TAL     C830633   4.084   3.308  11.515  0.8703  0.4269  0.2475
    2TAL     C930634   4.004   3.427  11.560  0.9807  0.2815 -0.7716
    2TAL    C1030635   4.033   3.558  11.503 -0.4348  0.1186  0.1923
    3HTM    C1130636   3.816   2.688  11.476  0.2797  0.6563 -0.3718
    3HTM    C1230637   3.692   2.720  11.430  0.2484  0.7088 -0.2520
    3HTM    C1330638   3.585   2.666  11.510  0.3024  0.6597 -0.2127
    3HTM    C1430639   3.627   2.594  11.617  0.3748  0.5697 -0.3022
    3HTM     S230640   3.808   2.588  11.626  0.3805  0.5398 -0.4440
    4TAL    C1530641   3.441   2.695  11.463 -0.3885 -1.0222  0.1107
    4TAL    C1630642   3.338   2.751  11.570  0.4946  0.4087  0.5681
    4TAL    C1730643   3.212   2.792  11.499 -0.0694 -0.6476  0.4611
    4TAL    C1830644   3.132   2.693  11.415  0.4139  0.5660 -0.2847
    4TAL    C1930645   3.082   2.564  11.466  0.3153 -0.1324  0.2947
    4TAL    C2030646   3.160   2.440  11.424 -0.3723  0.2685  0.0548
    5HTM    C2130647   3.550   2.516  11.726 -0.4280  0.8820  0.0470
    5HTM    C2230648   3.447   2.430  11.706 -1.2156  1.7315  0.3014
    5HTM    C2330649   3.411   2.353  11.823 -1.0972  1.5421  0.2151
    5HTM    C2430650   3.487   2.382  11.932 -0.2194  0.5482 -0.1054
    5HTM     S330651   3.611   2.508  11.896  0.5318 -0.2317 -0.3243
    6TAL    C2530652   3.314   2.225  11.826  0.1825 -0.4697  0.9028
    6TAL    C2630653   3.251   2.150  11.703  0.4677 -0.3514 -0.2718
    6TAL    C2730654   3.336   2.081  11.595 -0.3338 -0.2427 -0.3668
    6TAL    C2830655   3.263   1.984  11.499 -0.3196  0.1500 -0.9247
    6TAL    C2930656   3.335   1.927  11.377  0.7126 -0.7053  0.5132
    6TAL    C3030657   3.430   2.018  11.283  2.0174 -0.4453  0.2529
    7HTM    C3130658   3.498   2.309  12.052  0.2455  0.1167  0.6882
    7HTM    C3230659   3.424   2.326  12.166  0.0376 -0.4355  0.6444
    7HTM    C3330660   3.465   2.242  12.275 -0.1145 -0.9155  0.3364
    7HTM    C3430661   3.570   2.160  12.245 -0.0228 -0.7293  0.1456
    7HTM     S430662   3.625   2.183  12.075  0.2653  0.0730  0.3412
    8TAL    C3530663   3.378   2.264  12.402 -0.2506 -0.6126  0.6649
    8TAL    C3630664   3.264   2.163  12.420 -0.8036 -0.8653 -0.2032
    8TAL    C3730665   3.206   2.176  12.560 -0.0452 -0.4673  0.5580
    8TAL    C3830666   3.098   2.063  12.606 -1.0232 -0.0276 -0.3003
    8TAL    C3930667   3.068   2.051  12.755  0.0456  0.1957  0.0724
    8TAL    C4030668   2.992   2.181  12.800  0.4834  0.2601  0.3260
    9HTM    C4130669   3.661   2.081  12.323  0.7097  0.2288 -0.5673
    9HTM    C4230670   3.663   1.945  12.318  0.9134  0.2503 -1.3125
    9HTM    C4330671   3.751   1.885  12.415  0.5174 -0.1608 -1.2009
    9HTM    C4430672   3.816   1.975  12.494  0.0118 -0.4958 -0.3710
    9HTM     S530673   3.771   2.144  12.452 -0.0034 -0.3167  0.3399
   10TAL    C4530674   3.754   1.730  12.432 -0.0571 -0.1192 -0.6977
   10TAL    C4630675   3.764   1.649  12.305 -1.0130 -1.1812 -0.5142
   10TAL    C4730676   3.778   1.498  12.304 -0.6533 -0.2569  0.2596
   10TAL    C4830677   3.648   1.425  12.344 -0.8743 -0.0847  0.2467
   10TAL    C4930678   3.537   1.429  12.249  0.0550  0.3349  0.5422
   10TAL    C5030679   3.412   1.378  12.317 -0.7794  0.0335 -1.3370
   11HTM    C5130680   3.926   1.970  12.589  0.3915 -0.5905  0.4571
   11HTM    C5230681   3.918   1.925  12.717  0.8072 -0.8208  0.4058
   11HTM    C5330682   4.030   1.963  12.799  0.9333 -0.7213  0.1903
   11HTM    C5430683   4.123   2.038  12.734  0.6141 -0.4151  0.0768
   11HTM     S630684   4.077   2.066  12.562  0.1254 -0.2272  0.2350
   12TAL    C5530685   4.026   1.953  12.953  0.2355 -0.1934  0.8285
   12TAL    C5630686   3.904   1.892  13.029  0.5904  0.2319 -0.4143
   12TAL    C5730687   3.898   1.872  13.186  0.4028 -0.6919  0.0685
   12TAL    C5830688   3.759   1.847  13.247 -0.8122  0.1793 -0.7605
   12TAL    C5930689   3.669   1.968  13.219  0.6957 -1.2155 -0.0188
   12TAL    C6030690   3.560   1.984  13.328  0.2830 -0.0880  0.3042
   13HTM    C6130691   4.244   2.099  12.796  0.1102  0.4527  0.4234
   13HTM    C6230692   4.270   2.233  12.793 -0.0312  0.4942  1.0014
   13HTM    C6330693   4.397   2.268  12.850 -0.0132  0.3729  1.0383
   13HTM    C6430694   4.469   2.162  12.895  0.1420  0.2389  0.4885
   13HTM     S730695   4.381   2.007  12.870  0.2784  0.2557 -0.1236
   14TAL    C6530696   4.454   2.404  12.826 -0.1195 -0.1161  0.5670
   14TAL    C6630697   4.348   2.523  12.851 -0.5103 -1.3767 -0.4047
   14TAL    C6730698   4.243   2.516  12.969 -0.2712 -1.1637 -0.2552
   14TAL    C6830699   4.274   2.537  13.112 -0.6672  0.2128 -0.3304
   14TAL    C6930700   4.400   2.475  13.184 -0.5854  0.2267  0.5139
   14TAL    C7030701   4.421   2.547  13.315 -0.1674 -0.4666  0.2522
   15HTM    C7130702   4.611   2.157  12.922 -0.4342 -0.2347  0.0199
   15HTM    C7230703   4.669   2.132  13.043 -0.3413 -0.3211 -0.0417
   15HTM    C7330704   4.812   2.145  13.043 -0.3678 -0.0248 -0.0694
   15HTM    C7430705   4.864   2.180  12.922 -0.4810  0.2874 -0.0289
   15HTM     S830706   4.735   2.200  12.798 -0.5637  0.2310  0.0479
   16TAL    C7530707   4.889   2.125  13.169 -0.1785 -0.9467 -0.3189
   16TAL    C7630708   4.893   2.004  13.250  0.3031 -0.5482 -0.4972
   16TAL    C7730709   5.001   1.914  13.187  0.1132 -0.8177 -0.4751
   16TAL    C7830710   4.996   1.785  13.264  0.0431  1.5960  0.1692
   16TAL    C7930711   5.130   1.700  13.258  1.0334 -0.5496  0.1635
   16TAL    C8030712   5.141   1.598  13.145  0.4250 -0.8252 -0.1705
   17HTM    C8130713   4.995   2.209  12.879 -0.3003  0.4228 -0.3790
   17HTM    C8230714   5.105   2.230  12.956 -0.4272  0.9410 -0.3362
   17HTM    C8330715   5.229   2.221  12.883 -0.3128  0.5970 -0.1020
   17HTM    C8430716   5.213   2.192  12.750 -0.0985 -0.1834  0.0339
   17HTM     S930717   5.039   2.174  12.707 -0.0238 -0.5472 -0.1247
   18TAL    C8530718   5.363   2.256  12.957  0.2532  0.3758  0.4703
   18TAL    C8630719   5.374   2.277  13.108 -0.3243  0.0777  0.4100
   18TAL    C8730720   5.511   2.345  13.139 -0.0512  0.0089  0.4913
   18TAL    C8830721   5.651   2.297  13.091  0.9160 -0.5669  0.3264
   18TAL    C8930722   5.753   2.374  13.190  1.2191 -0.1509 -0.0978
   18TAL    C9030723   5.898   2.344  13.180  0.4387 -0.0599 -0.2013
   19HTM    C9130724   5.301   2.149  12.640  0.2534  0.5048  0.1054
   19HTM    C9230725   5.260   2.154  12.510  0.3575  1.0868  0.0892
   19HTM    C9330726   5.360   2.109  12.417  0.2306  0.9527  0.0172
   19HTM    C9430727   5.477   2.070  12.476  0.0297  0.2686 -0.0217
   19HTM    S1030728   5.469   2.087  12.655 -0.0150 -0.2636  0.0300
   20TAL    C9530729   5.317   2.085  12.272 -0.1663 -0.8242  1.2168
   20TAL    C9630730   5.258   1.954  12.227  0.4011 -0.3562 -0.0637
   20TAL    C9730731   5.110   1.929  12.218 -0.3008 -0.0217  0.4517
   20TAL    C9830732   5.031   1.983  12.339 -0.2951  0.2210 -0.0433
   20TAL    C9930733   4.889   1.942  12.338 -0.3310  0.5480 -0.2706
   20TAL   C10030734   4.814   2.023  12.437  0.2782 -0.8606  0.4455
   21HTM   C10130735   5.603   2.034  12.420  0.3689  0.6816 -0.0868
   21HTM   C10230736   5.663   2.101  12.318  0.9584  0.9968  0.4563
   21HTM   C10330737   5.802   2.067  12.301  1.0017  0.8767  0.9959
   21HTM   C10430738   5.848   1.974  12.389  0.4451  0.4699  0.8641
   21HTM    S1130739   5.717   1.921  12.503 -0.1816  0.2049  0.0414
   22TAL   C10530740   5.866   2.118  12.172 -1.1826 -0.4565  0.0686
   22TAL   C10630741   5.893   2.014  12.057  0.7909  0.0820 -0.2989
   22TAL   C10730742   6.019   2.044  11.968  0.5630 -0.5302 -0.0889
   22TAL   C10830743   6.160   2.085  12.017 -0.1372 -0.6278 -0.4769
   22TAL   C10930744   6.272   2.093  11.921 -0.1405  0.2114 -0.0036
   22TAL   C11030745   6.260   2.195  11.815  0.0805  0.8456  0.7155
   23HTM   C11130746   5.972   1.901  12.411 -0.3724  0.1909  0.4824
   23HTM   C11230747   6.101   1.920  12.370 -0.5199  0.2502  0.0300
   23HTM   C11330748   6.197   1.844  12.445 -0.2433  0.0784 -0.4914
   23HTM   C11430749   6.142   1.766  12.543  0.1152 -0.1119 -0.4370
   23HTM    S1230750   5.962   1.784  12.547  0.1312 -0.0887  0.2831
   24TAL   C11530751   6.341   1.850  12.410  0.7083  0.3929 -0.7589
   24TAL   C11630752   6.395   1.871  12.268  0.0922 -0.4869 -0.1096
   24TAL   C11730753   6.367   1.765  12.165  0.0062  0.1922  0.6916
   24TAL   C11830754   6.426   1.788  12.031 -0.1008 -0.0896  0.2779
   24TAL   C11930755   6.406   1.675  11.937  0.1674  0.1947 -0.7015
   24TAL   C12030756   6.264   1.642  11.909  0.8553  0.3151  0.1919
   25HTM   C12130757   6.198   1.665  12.622 -0.4439 -0.4156  0.0476
   25HTM   C12230758   6.146   1.540  12.642 -0.3246 -0.3905  0.5472
   25HTM   C12330759   6.230   1.453  12.719  0.0900 -0.2312  0.2811
   25HTM   C12430760   6.347   1.511  12.759  0.2869 -0.1348 -0.4213
   25HTM    S1330761   6.360   1.681  12.700 -0.0386 -0.2387 -0.8041
   26TAL   C12530762   6.198   1.312  12.716  0.9831  0.1586 -0.7492
   26TAL   C12630763   6.163   1.226  12.594 -0.2694 -0.1425 -0.9971
   26TAL   C12730764   6.285   1.216  12.505 -0.2213 -0.8244  0.2715
   26TAL   C12830765   6.274   1.138  12.373  0.2541  0.3903 -0.2748
   26TAL   C12930766   6.215   1.200  12.248 -0.4981  0.3125 -0.3157
   26TAL   C13030767   6.303   1.291  12.172  0.5555  0.8946  0.5527
   27HTM   C13130768   6.459   1.452  12.831 -0.3097 -0.0372 -0.0938
   27HTM   C13230769   6.568   1.523  12.870 -0.3240  0.1582 -0.4079
   27HTM   C13330770   6.657   1.451  12.958 -0.1918  0.4833 -0.2701
   27HTM   C13430771   6.615   1.324  12.986 -0.0766  0.5358  0.1491
   27HTM    S1430772   6.459   1.286  12.904 -0.1266  0.1759  0.4040
   28TAL   C13530773   6.769   1.521  13.036  0.1983 -0.2452 -0.8256
   28TAL   C13630774   6.904   1.547  12.974  0.0096 -0.0919  0.3037
   28TAL   C13730775   6.917   1.638  12.849 -0.0075  0.8208  0.3808
   28TAL   C13830776   6.875   1.586  12.703 -0.4011 -0.3958 -0.8833
   28TAL   C13930777   6.908   1.688  12.597  0.0488  1.0258 -0.2556
   28TAL   C14030778   6.805   1.799  12.580  0.0658 -0.5054 -0.2011
   29HTM   C14130779   6.686   1.210  13.050  0.3024  0.1999 -0.4985
   29HTM   C14230780   6.734   1.198  13.177  0.1285  0.3250 -0.4208
   29HTM   C14330781   6.770   1.064  13.213 -0.1254  0.3236 -0.1643
   29HTM   C14430782   6.750   0.973  13.113 -0.1450  0.1974 -0.0460
   29HTM    S1530783   6.683   1.051  12.965  0.1579  0.0696 -0.2518
   30TAL   C14530784   6.816   1.022  13.354  0.6195  0.2905  0.3912
   30TAL   C14630785   6.795   1.118  13.473 -0.6784  0.1969  0.1650
   30TAL   C14730786   6.813   1.021  13.585 -0.1055 -0.2652  0.3030
   30TAL   C14830787   6.819   1.080  13.725 -0.1434 -0.0632  2.2874
   30TAL   C14930788   6.787   0.989  13.837  0.7404 -0.7099 -1.2543
   30TAL   C15030789   6.777   1.032  13.990 -0.4035 -0.1743 -0.3263
   31HTM   C15130790   6.757   0.823  13.110 -0.4382  0.0581  0.3210
   31HTM   C15230791   6.661   0.738  13.065 -0.4629 -0.1197  0.7100
   31HTM   C15330792   6.693   0.599  13.083 -0.3006 -0.0548  0.9222
   31HTM   C15430793   6.815   0.578  13.141 -0.1520  0.1723  0.6955
   31HTM    S1630794   6.898   0.734  13.178 -0.2060  0.3232  0.1923
   32TAL   C15530795   6.610   0.485  13.027 -0.8549  0.5791  0.4325
   32TAL   C15630796   6.600   0.480  12.876 -0.4960 -0.0775  0.7437
   32TAL   C15730797   6.552   0.357  12.791  0.1894  0.4847  0.5938
   32TAL   C15830798   6.569   0.383  12.646  0.4390  0.4705 -0.4802
   32TAL   C15930799   6.695   0.464  12.606  0.2289  0.0586  0.0871
   32TAL   C16030800   6.718   0.467  12.448 -0.5232  0.2019 -0.0659
   33HTM   C16130801   6.889   0.466  13.182 -0.1911 -0.4257  0.2968
   33HTM   C16230802   6.954   0.455  13.302 -0.5352 -0.7791  0.4532
   33HTM   C16330803   7.033   0.335  13.314 -0.7995 -0.9576  0.4439
   33HTM   C16430804   7.030   0.256  13.203 -0.6569 -0.7403  0.2801
   33HTM    S1730805   6.925   0.326  13.074 -0.1737 -0.2899  0.1240
   34TAL   C16530806   7.104   0.311  13.446 -0.0582  0.7066 -0.4207
   34TAL   C16630807   7.044   0.369  13.574 -0.0294  0.7828 -0.4982
   34TAL   C16730808   7.112   0.331  13.701  0.0621 -0.6789  0.5507
   34TAL   C16830809   7.049   0.402  13.829 -0.4593  0.1134 -0.2193
   34TAL   C16930810   7.139   0.387  13.950  0.4380 -0.0561 -0.4612
   34TAL   C17030811   7.160   0.238  14.005  0.0005 -0.0631  0.8950
   35HTM   C17130812   7.095   0.127  13.182 -0.2831 -0.5625  0.4566
   35HTM   C17230813   7.037   0.018  13.123  0.2768 -0.8248  0.3791
   35HTM   C17330814   7.123  -0.097  13.117  0.8959 -0.3656  0.2501
   35HTM   C17430815   7.246  -0.076  13.171  0.8082  0.2469  0.2290
   35HTM    S1830816   7.263   0.092  13.235 -0.0700  0.2914  0.3718
   36TAL   C17530817   7.073  -0.223  13.050 -0.6490 -0.3754  0.7736
   36TAL   C17630818   6.967  -0.285  13.132 -0.4860 -0.5763 -0.5905
   36TAL   C17730819   6.830  -0.328  13.079  0.0816  0.3704 -0.3442
   36TAL   C17830820   6.830  -0.382  12.942 -0.2164  0.4284  0.4299
   36TAL   C17930821   6.688  -0.391  12.884  0.3993 -0.5927 -0.8204
   36TAL   C18030822   6.701  -0.483  12.768  0.1395 -0.0417 -0.8233
   37HTM   C18130823   7.363  -0.157  13.175 -0.5077  0.3367  0.2491
   37HTM   C18230824   7.490  -0.120  13.145 -0.6388  0.3473 -0.3245
   37HTM   C18330825   7.585  -0.229  13.151 -0.6683  0.2563 -1.2088
   37HTM   C18430826   7.529  -0.348  13.186 -0.5599  0.1761 -1.3095
   37HTM    S1930827   7.352  -0.333  13.213 -0.4108  0.2098 -0.2872
   38TAL   C18530828   7.736  -0.216  13.122 -0.2688 -0.7274 -0.1661
   38TAL   C18630829   7.765  -0.192  12.975 -0.2110  0.4141  0.6416
   38TAL   C18730830   7.703  -0.285  12.869  0.2089  0.6355 -0.4491
   38TAL   C18830831   7.744  -0.272  12.723  0.2559 -0.4872 -0.3848
   38TAL   C18930832   7.685  -0.173  12.626 -0.6105  0.4787  0.2753
   38TAL   C19030833   7.747  -0.192  12.493 -0.5571 -0.3849 -0.1196
   39HTM   C19130834   7.587  -0.480  13.221 -0.4794 -0.1973  0.3445
   39HTM   C19230835   7.685  -0.530  13.303 -0.7335 -0.2296  0.6340
   39HTM   C19330836   7.693  -0.673  13.302 -0.6049 -0.2221  0.4513
   39HTM   C19430837   7.602  -0.733  13.220 -0.2526 -0.1843  0.0227
   39HTM    S2030838   7.498  -0.612  13.137 -0.0545 -0.1549 -0.1855
   40TAL   C19530839   7.792  -0.752  13.398 -0.1052  0.0711  0.0029
   40TAL   C19630840   7.941  -0.699  13.406  0.3311  0.3903  0.4530
   40TAL   C19730841   8.025  -0.718  13.278  0.2040 -1.0185 -0.1475
   40TAL   C19830842   8.050  -0.862  13.226 -0.1541  0.3593  0.2380
   40TAL   C19930843   8.157  -0.869  13.120  1.3340 -0.5391 -0.5269
   40TAL   C20030844   8.147  -1.005  13.067 -0.6040 -0.8511 -0.2647
   41HTM   C20130845   7.583  -0.876  13.188 -0.5855  0.0335 -0.1540
   41HTM   C20230846   7.670  -0.958  13.123 -0.5982 -0.2422  0.1678
   41HTM   C20330847   7.611  -1.082  13.078 -0.7035 -0.2607  0.3560
   41HTM   C20430848   7.478  -1.093  13.109 -0.7711  0.0012  0.1777
   41HTM    S2130849   7.419  -0.949  13.199 -0.7065  0.2933 -0.2451
   42TAL   C20530850   7.709  -1.177  12.999 -0.0476 -0.1506 -0.1313
   42TAL   C20630851   7.716  -1.154  12.843  0.3437  0.3139 -0.4892
   42TAL   C20730852   7.819  -1.256  12.803  1.2212 -0.2847  0.6349
   42TAL   C20830853   7.961  -1.244  12.854  0.2175 -0.2645  0.0969
   42TAL   C20930854   8.060  -1.333  12.790  0.0263 -0.5285  0.3672
   42TAL   C21030855   8.179  -1.363  12.875 -0.7946 -0.7032 -0.1780
   43HTM   C21130856   7.388  -1.198  13.068 -0.3988 -0.3620  1.1075
   43HTM   C21230857   7.415  -1.331  13.057 -0.6739 -0.4129  1.0407
   43HTM   C21330858   7.298  -1.412  13.032 -0.7263 -0.0634  0.0823
   43HTM   C21430859   7.183  -1.340  13.023 -0.4911  0.2542 -0.5817
   43HTM    S2230860   7.212  -1.163  13.047 -0.1829  0.1353 -0.0438
   44TAL   C21530861   7.308  -1.561  12.988  0.3946 -0.4209  0.7983
   44TAL   C21630862   7.309  -1.675  13.093  0.0498  0.4107 -0.5673
   44TAL   C21730863   7.184  -1.698  13.178 -1.0808 -1.1280 -0.1490
   44TAL   C21830864   7.054  -1.750  13.125  0.3468 -0.2137  0.8116
   44TAL   C21930865   6.928  -1.724  13.203  0.2488 -0.6832  0.7875
   44TAL   C22030866   6.812  -1.807  13.150  0.3151  0.7930 -0.5263
   45HTM   C22130867   7.040  -1.368  13.003 -0.1363  0.0198 -0.1450
   45HTM   C22230868   6.973  -1.406  12.891 -0.2875 -1.0982  0.3004
   45HTM   C22330869   6.831  -1.423  12.911 -0.1605 -1.6199  0.8101
   45HTM   C22430870   6.791  -1.397  13.039  0.0877 -0.8997  0.7534
   45HTM    S2330871   6.930  -1.350  13.144  0.1806  0.5041  0.0466
   46TAL   C22530872   6.748  -1.454  12.795  0.7604 -0.2565  1.0119
   46TAL   C22630873   6.797  -1.579  12.719  0.5656 -0.0363  0.3904
   46TAL   C22730874   6.884  -1.554  12.586  0.5047  0.4942 -0.2250
   46TAL   C22830875   6.993  -1.658  12.565 -0.6479 -0.4832  1.0135
   46TAL   C22930876   7.046  -1.660  12.419  1.2784 -0.5050 -0.4602
   46TAL   C23030877   7.161  -1.759  12.423 -1.1285 -0.3352 -0.4155
   47HTM   C23130878   6.653  -1.410  13.103 -0.2325  0.0822  0.4219
   47HTM   C23230879   6.579  -1.319  13.172 -0.4452 -0.1084  0.4487
   47HTM   C23330880   6.446  -1.363  13.202 -0.4687 -0.2787  0.1056
   47HTM   C23430881   6.418  -1.488  13.156 -0.2740 -0.2183 -0.1827
   47HTM    S2430882   6.559  -1.560  13.070 -0.0439  0.0607 -0.0424
   48TAL   C23530883   6.342  -1.289  13.276 -0.2245 -1.0070  0.7361
   48TAL   C23630884   6.234  -1.354  13.354  0.3379  0.3426 -0.2369
   48TAL   C23730885   6.140  -1.265  13.426 -0.8406 -0.7116 -0.2876
   48TAL   C23830886   6.032  -1.346  13.487 -0.3745 -0.7213 -0.4392
   48TAL   C23930887   5.925  -1.279  13.576  0.3975 -0.8025 -0.9858
   48TAL   C24030888   5.976  -1.180  13.682 -0.6810 -0.2081 -0.1149
    1HTM     C130889   1.044   3.114   9.019 -0.1503 -0.4129  0.3765
    1HTM     C230890   1.005   3.064   8.899 -0.0279 -0.1916  0.2427
    1HTM     C330891   1.105   2.983   8.834  0.2364  0.3667 -0.0579
    1HTM     C430892   1.221   2.972   8.905  0.3156  0.5712 -0.1536
    1HTM     S130893   1.212   3.063   9.061  0.0605  0.0705  0.1310
    2TAL     C530894   1.088   2.916   8.696 -0.1621  1.6492 -0.6184
    2TAL     C630895   0.967   2.840   8.665 -0.4630 -0.3897  0.1676
    2TAL     C730896   0.936   2.723   8.762 -0.1267 -0.0709  1.2438
    2TAL     C830897   0.986   2.589   8.741 -1.3457 -0.4656 -0.2239
    2TAL     C930898   0.953   2.513   8.872 -0.1606  0.4115  0.3595
    2TAL    C1030899   1.017   2.370   8.886 -0.4455 -0.2063  1.1751
    3HTM    C1130900   1.347   2.912   8.873  0.1927  0.0703  0.4304
    3HTM    C1230901   1.471   2.968   8.873  0.3507 -0.2706  0.2615
    3HTM    C1330902   1.578   2.872   8.875  0.0980 -0.5731 -0.3178
    3HTM    C1430903   1.536   2.742   8.876 -0.2525 -0.4631 -0.5910
    3HTM     S230904   1.356   2.732   8.874 -0.2911  0.0351 -0.1338
    4TAL    C1530905   1.721   2.922   8.883 -0.7208  0.5864 -0.0889
    4TAL    C1630906   1.788   2.911   9.017 -0.4258  0.0640 -0.1429
    4TAL    C1730907   1.935   2.945   9.039  0.0383  0.7153 -0.1431
    4TAL    C1830908   1.979   2.938   9.190 -0.0245  0.4757  0.3967
    4TAL    C1930909   2.118   3.002   9.218 -0.2100 -0.1581  0.1049
    4TAL    C2030910   2.129   3.151   9.210 -0.4799  0.6352 -1.1520
    5HTM    C2130911   1.623   2.631   8.867 -0.4075  0.0120 -0.5291
    5HTM    C2230912   1.627   2.520   8.947 -0.9679 -0.0844 -0.6328
    5HTM    C2330913   1.731   2.427   8.913 -0.7853 -0.0907 -0.0734
    5HTM    C2430914   1.808   2.468   8.807 -0.0857  0.0009  0.4565
    5HTM     S330915   1.754   2.627   8.743  0.4005  0.1029  0.2891
    6TAL    C2530916   1.737   2.302   8.987  0.6299  0.1653 -0.0128
    6TAL    C2630917   1.630   2.195   8.939  0.4104 -0.6306 -0.1285
    6TAL    C2730918   1.487   2.211   8.994 -0.5129 -0.0888 -0.4591
    6TAL    C2830919   1.401   2.114   8.919  0.6526  0.2331 -0.8617
    6TAL    C2930920   1.348   2.005   9.008  0.3878 -0.6706 -0.2057
    6TAL    C3030921   1.203   1.991   8.956  0.0385 -0.0524 -0.0351
    7HTM    C3130922   1.921   2.404   8.745  0.3935 -0.1115 -0.1872
    7HTM    C3230923   2.055   2.429   8.755  0.4774 -0.3437 -0.6690
    7HTM    C3330924   2.136   2.340   8.678  0.0517 -0.5697 -0.8645
    7HTM    C3430925   2.065   2.246   8.609 -0.3567 -0.5099 -0.5317
    7HTM     S430926   1.888   2.264   8.637 -0.2345 -0.1607  0.0589
    8TAL    C3530927   2.293   2.360   8.689  0.2408  0.1774  0.1261
    8TAL    C3630928   2.367   2.332   8.816  0.7416  0.6296  0.4558
    8TAL    C3730929   2.479   2.237   8.824 -1.6314 -0.2766 -0.3080
    8TAL    C3830930   2.526   2.215   8.974  0.1777  0.6133 -0.2258
    8TAL    C3930931   2.663   2.138   8.993 -0.2243 -0.0349 -0.2727
    8TAL    C4030932   2.678   2.071   9.130  0.5729  0.4261  0.0795
    9HTM    C4130933   2.119   2.142   8.516  0.6663  0.9041 -0.8874
    9HTM    C4230934   2.230   2.063   8.516  0.8622  1.1768 -1.3454
    9HTM    C4330935   2.228   1.960   8.415  0.4467  0.8257 -0.9851
    9HTM    C4430936   2.115   1.960   8.339 -0.0661  0.2855 -0.2527
    9HTM     S530937   2.001   2.091   8.389 -0.0640  0.1773  0.0413
   10TAL    C4530938   2.329   1.847   8.423 -0.4276  0.5710  1.0464
   10TAL    C4630939   2.460   1.853   8.504  0.1025 -0.0576  0.3006
   10TAL    C4730940   2.566   1.965   8.475  0.2156  0.3068 -0.1466
   10TAL    C4830941   2.632   1.975   8.335 -0.1229 -0.1477 -0.3466
   10TAL    C4930942   2.667   2.124   8.319 -0.4159 -0.0896 -1.2323
   10TAL    C5030943   2.740   2.157   8.194  0.2467 -0.0139 -0.0741
   11HTM    C5130944   2.079   1.874   8.228  0.1194 -0.1110  0.2233
   11HTM    C5230945   1.951   1.860   8.183  0.1081 -0.0547  0.2387
   11HTM    C5330946   1.933   1.750   8.092  0.1273  0.1784 -0.0491
   11HTM    C5430947   2.047   1.680   8.068  0.1530  0.2998 -0.2840
   11HTM     S630948   2.187   1.748   8.158  0.1552  0.1279 -0.1586
   12TAL    C5530949   1.803   1.738   8.014 -0.8659  0.3383  0.1191
   12TAL    C5630950   1.778   1.826   7.886  0.1947 -0.6628 -1.1808
   12TAL    C5730951   1.740   1.975   7.889 -0.3485 -0.5560  0.2152
   12TAL    C5830952   1.859   2.086   7.901 -0.2245 -0.3827 -0.6202
   12TAL    C5930953   1.936   2.102   7.772 -0.2977  0.0522  0.0051
   12TAL    C6030954   2.030   2.212   7.802  0.9181 -0.8245  0.0567
   13HTM    C6130955   2.077   1.559   7.985  0.5902  0.6331 -0.5618
   13HTM    C6230956   1.988   1.481   7.917  0.5341  0.9714 -0.8796
   13HTM    C6330957   2.047   1.364   7.857  0.2729  0.6345 -0.4909
   13HTM    C6430958   2.181   1.353   7.879  0.1299  0.0394  0.1232
   13HTM     S730959   2.244   1.489   7.978  0.3154 -0.1431  0.2596
   14TAL    C6530960   1.969   1.276   7.755  0.1298  0.0014  0.2786
   14TAL    C6630961   1.903   1.143   7.796  0.3797  0.1106  0.8901
   14TAL    C6730962   1.850   1.067   7.675 -0.6797 -0.0743  0.6926
   14TAL    C6830963   1.722   0.984   7.678  0.1566  0.7408 -0.9690
   14TAL    C6930964   1.595   1.064   7.699  0.8180  1.2961  0.4924
   14TAL    C7030965   1.465   0.984   7.679 -0.2366 -0.3307  0.9524
   15HTM    C7130966   2.275   1.237   7.857 -0.2352  0.7251 -0.4432
   15HTM    C7230967   2.389   1.231   7.931 -0.4389  0.8693 -0.1177
   15HTM    C7330968   2.485   1.135   7.884 -0.3700  0.6627  0.4247
   15HTM    C7430969   2.444   1.067   7.773 -0.1136  0.3610  0.5125
   15HTM     S830970   2.280   1.120   7.719  0.0620  0.3140 -0.0876
   16TAL    C7530971   2.611   1.120   7.962 -0.4269  0.4186  0.0622
   16TAL    C7630972   2.729   1.177   7.902 -0.2149 -1.0388 -0.6728
   16TAL    C7730973   2.827   1.060   7.870 -0.4277 -0.9489 -0.3914
   16TAL    C7830974   2.961   1.070   7.784  0.5201 -0.7805 -0.1602
   16TAL    C7930975   3.009   0.926   7.744  0.8653  0.5276 -0.4258
   16TAL    C8030976   3.138   0.922   7.667  0.0547  0.0836 -0.0846
   17HTM    C8130977   2.494   0.948   7.699 -0.1721  0.0679 -0.0787
   17HTM    C8230978   2.462   0.909   7.573  0.0654 -0.0470 -0.1056
   17HTM    C8330979   2.508   0.777   7.539  0.3489  0.0199  0.0129
   17HTM    C8430980   2.575   0.715   7.640  0.3274  0.1859  0.1302
   17HTM     S930981   2.586   0.820   7.786 -0.0554  0.2712  0.0997
   18TAL    C8530982   2.474   0.720   7.398 -0.4169 -0.0898  0.2243
   18TAL    C8630983   2.339   0.758   7.335 -0.4736  0.6956 -0.4742
   18TAL    C8730984   2.229   0.682   7.409  0.6521  0.9408 -0.4881
   18TAL    C8830985   2.086   0.699   7.352 -0.0546  0.3038 -0.3441
   18TAL    C8930986   2.042   0.847   7.350  1.4813  1.5450  0.1078
   18TAL    C9030987   1.929   0.866   7.244  0.3841  0.4265  0.2296
   19HTM    C9130988   2.650   0.590   7.637  0.3252  0.3293 -0.3187
   19HTM    C9230989   2.747   0.562   7.729  0.1318  0.4716 -0.0675
   19HTM    C9330990   2.783   0.422   7.735  0.0154  0.4556  0.3328
   19HTM    C9430991   2.714   0.344   7.648  0.1201  0.3010  0.3870
   19HTM    S1030992   2.596   0.441   7.551  0.3758  0.1626 -0.0669
   20TAL    C9530993   2.906   0.384   7.822  1.5620 -0.3406  0.2468
   20TAL    C9630994   3.038   0.411   7.756 -0.8140  0.1437  0.0294
   20TAL    C9730995   3.154   0.392   7.855 -0.5875 -0.1556 -0.0071
   20TAL    C9830996   3.279   0.411   7.771  0.7953  0.2326  0.0713
   20TAL    C9930997   3.324   0.556   7.747  0.1555 -0.1822  0.5024
   20TAL   C10030998   3.456   0.550   7.674 -0.2152  0.8195 -0.1115
   21HTM   C10130999   2.749   0.205   7.606 -0.0712 -0.1398 -0.2443
   21HTM   C10231000   2.813   0.102   7.670 -0.6654 -0.3321  0.0595
   21HTM   C10331001   2.825  -0.017   7.589 -0.8318 -0.4426  0.1967
   21HTM   C10431002   2.770  -0.005   7.465 -0.3647 -0.3347 -0.0026
   21HTM    S1131003   2.699   0.159   7.439  0.3271 -0.0829 -0.3817
   22TAL   C10531004   2.899  -0.135   7.641  0.0754  0.1254 -0.3598
   22TAL   C10631005   3.046  -0.127   7.668 -0.4962  0.0726  0.1627
   22TAL   C10731006   3.106  -0.011   7.753 -0.2828 -0.0839 -0.7815
   22TAL   C10831007   3.254  -0.003   7.783 -0.3645  0.7707 -0.2370
   22TAL   C10931008   3.362   0.069   7.699 -0.1105 -0.1063  0.3328
   22TAL   C11031009   3.491   0.056   7.767  0.9309  0.6805 -0.5141
   23HTM   C11131010   2.773  -0.090   7.354 -0.3472  0.3199  0.5864
   23HTM   C11231011   2.843  -0.088   7.237 -0.2856  0.6303  0.6263
   23HTM   C11331012   2.819  -0.202   7.153 -0.2127  0.8334  0.3264
   23HTM   C11431013   2.730  -0.291   7.206 -0.2189  0.6781  0.0575
   23HTM    S1231014   2.670  -0.237   7.367 -0.3178  0.2599  0.1633
   24TAL   C11531015   2.907  -0.218   7.027 -1.4860 -0.4060  0.4351
   24TAL   C11631016   2.964  -0.356   6.966 -0.1239 -0.1955  0.8603
   24TAL   C11731017   3.071  -0.317   6.862 -0.3802  0.7176  0.2468
   24TAL   C11831018   3.182  -0.429   6.820  0.8714 -0.0704  0.4939
   24TAL   C11931019   3.286  -0.470   6.930  1.2884  0.6879  0.0221
   24TAL   C12031020   3.396  -0.366   6.934 -0.3343  0.0325 -1.1479
   25HTM   C12131021   2.664  -0.409   7.145  0.6460 -0.3249 -0.4094
   25HTM   C12231022   2.684  -0.538   7.183  0.4394 -0.3954 -0.5372
   25HTM   C12331023   2.613  -0.634   7.102 -0.2419 -0.1667 -0.2276
   25HTM   C12431024   2.539  -0.578   7.002 -0.5548  0.0780  0.1365
   25HTM    S1331025   2.554  -0.398   7.003 -0.0090  0.0385  0.1162
   26TAL   C12531026   2.618  -0.789   7.120 -0.5967 -0.0965 -0.5885
   26TAL   C12631027   2.741  -0.847   7.198 -0.4353  0.2476 -0.1340
   26TAL   C12731028   2.763  -1.003   7.209 -0.4795 -0.1055  0.5285
   26TAL   C12831029   2.634  -1.083   7.241  0.9662 -0.6309 -0.4635
   26TAL   C12931030   2.550  -1.164   7.143  0.5078  0.1290 -0.1935
   26TAL   C13031031   2.631  -1.255   7.050  0.6777  0.6097 -0.0259
   27HTM   C13131032   2.449  -0.639   6.904 -0.2885  0.0491 -0.4547
   27HTM   C13231033   2.354  -0.569   6.836 -0.6863 -0.4200 -0.3908
   27HTM   C13331034   2.279  -0.649   6.742 -0.6738 -0.8924 -0.0073
   27HTM   C13431035   2.317  -0.780   6.738 -0.2665 -0.7833  0.2212
   27HTM    S1431036   2.452  -0.813   6.854  0.1361 -0.0702 -0.0323
   28TAL   C13531037   2.155  -0.598   6.672 -0.3202 -1.2926 -0.1410
   28TAL   C13631038   2.087  -0.465   6.727  0.3277 -0.3095  0.5338
   28TAL   C13731039   1.992  -0.407   6.618  0.4681  0.7729  0.7587
   28TAL   C13831040   1.996  -0.256   6.605  0.0450 -0.4191  0.2297
   28TAL   C13931041   1.893  -0.192   6.505  0.7264  0.2035 -0.5467
   28TAL   C14031042   1.829  -0.057   6.533 -0.6869  0.0195 -0.7121
   29HTM   C14131043   2.269  -0.892   6.655 -0.2855 -0.5279  0.1332
   29HTM   C14231044   2.242  -1.015   6.708 -1.0889 -0.4416 -0.0529
   29HTM   C14331045   2.171  -1.103   6.618 -1.3143  0.0138 -0.3296
   29HTM   C14431046   2.145  -1.047   6.497 -0.6829  0.2749 -0.3540
   29HTM    S1531047   2.207  -0.878   6.486  0.2529 -0.0366 -0.0274
   30TAL   C14531048   2.144  -1.243   6.672  0.2952 -0.6194 -0.4885
   30TAL   C14631049   2.262  -1.346   6.689 -0.7760 -0.0227  0.4111
   30TAL   C14731050   2.281  -1.430   6.814  0.0783 -0.5036 -0.7004
   30TAL   C14831051   2.154  -1.505   6.836  1.1206 -1.0161  0.9499
   30TAL   C14931052   2.132  -1.568   6.966 -0.2622 -0.0602 -0.0590
   30TAL   C15031053   2.034  -1.691   6.974 -0.7787 -0.2430 -0.3743
   31HTM   C15131054   2.070  -1.084   6.384  0.0846 -0.3702 -0.1035
   31HTM   C15231055   2.080  -1.024   6.262 -0.5349 -0.0085  0.0167
   31HTM   C15331056   2.021  -1.099   6.155 -1.0149  0.2754  0.0778
   31HTM   C15431057   1.965  -1.217   6.195 -0.7614  0.1300  0.0043
   31HTM    S1631058   1.984  -1.242   6.373  0.1099 -0.3806 -0.1491
   32TAL   C15531059   2.031  -1.075   6.003 -0.2438  0.2187 -1.1466
   32TAL   C15631060   2.156  -1.004   5.961  0.0510  0.9459 -0.3520
   32TAL   C15731061   2.173  -0.961   5.812  0.9524 -0.4845  0.1720
   32TAL   C15831062   2.131  -1.056   5.705  0.1620 -0.2236 -0.8961
   32TAL   C15931063   2.169  -1.007   5.561  0.5073  0.4177 -0.2437
   32TAL   C16031064   2.175  -1.100   5.437  0.0088 -0.2827 -0.0214
   33HTM   C16131065   1.899  -1.331   6.125 -0.5291  0.3254 -0.6310
   33HTM   C16231066   1.910  -1.384   6.000 -0.7141 -0.2302 -0.4194
   33HTM   C16331067   1.819  -1.493   5.975 -0.6211 -0.4728  0.2574
   33HTM   C16431068   1.739  -1.523   6.081 -0.3653 -0.1021  0.5616
   33HTM    S1731069   1.773  -1.416   6.222 -0.2208  0.5874  0.0129
   34TAL   C16531070   1.842  -1.566   5.837  0.2157  0.7161 -0.8599
   34TAL   C16631071   1.965  -1.527   5.759 -0.4372  0.3265 -0.5905
   34TAL   C16731072   1.947  -1.624   5.643 -0.1301  0.0497 -0.4153
   34TAL   C16831073   2.070  -1.608   5.558  0.5859  0.6095 -0.3429
   34TAL   C16931074   2.043  -1.683   5.430 -0.0595 -0.8331  0.3181
   34TAL   C17031075   2.136  -1.699   5.308  0.2249 -0.6542  0.2044
   35HTM   C17131076   1.627  -1.613   6.083 -0.4946  0.6370  0.2325
   35HTM   C17231077   1.533  -1.647   5.991 -0.4986  0.9208  0.1318
   35HTM   C17331078   1.419  -1.715   6.046 -0.4553  0.6697 -0.0820
   35HTM   C17431079   1.426  -1.733   6.181 -0.4184  0.1946 -0.1444
   35HTM    S1831080   1.578  -1.665   6.249 -0.4354  0.0262  0.0636
   36TAL   C17531081   1.313  -1.750   5.950 -0.0288 -0.5222  0.8968
   36TAL   C17631082   1.237  -1.881   5.957 -0.6179 -0.3881 -0.4129
   36TAL   C17731083   1.136  -1.902   5.846 -0.3139 -0.0550 -0.8643
   36TAL   C17831084   1.077  -2.037   5.823 -1.1030  0.0426 -0.0913
   36TAL   C17931085   0.976  -2.056   5.723 -0.8078  0.6171 -0.1820
   36TAL   C18031086   0.910  -2.199   5.762 -0.3582 -0.3601  0.2053
   37HTM   C18131087   1.336  -1.776   6.289 -0.5437  0.0034  0.2909
   37HTM   C18231088   1.274  -1.699   6.382 -0.7988 -0.0569  0.1727
   37HTM   C18331089   1.191  -1.774   6.473 -0.6496 -0.1769  0.2102
   37HTM   C18431090   1.190  -1.909   6.449 -0.2807 -0.2076  0.3566
   37HTM    S1931091   1.295  -1.951   6.308 -0.0916 -0.0869  0.4598
   38TAL   C18531092   1.096  -1.703   6.573 -0.5360  0.1992  0.9073
   38TAL   C18631093   1.152  -1.583   6.657  1.0201  0.6602 -0.3703
   38TAL   C18731094   1.032  -1.509   6.733 -0.2913  0.5858  0.4391
   38TAL   C18831095   1.079  -1.376   6.775  0.3485 -0.1465  0.2427
   38TAL   C18931096   1.012  -1.267   6.688 -0.3851  0.7336 -0.2587
   38TAL   C19031097   1.060  -1.135   6.752 -0.5972  0.1699  0.1975
   39HTM   C19131098   1.136  -2.019   6.520  0.0201 -0.0678 -1.0159
   39HTM   C19231099   1.136  -2.038   6.655  0.5207  0.3378 -0.9526
   39HTM   C19331100   1.064  -2.155   6.698  0.6398  0.4821 -0.3270
   39HTM   C19431101   1.008  -2.225   6.595  0.2300  0.1862  0.0868
   39HTM    S2031102   1.044  -2.149   6.435 -0.3425 -0.3011 -0.2846
   40TAL   C19531103   1.027  -2.196   6.839  0.5140  0.8788  0.3699
   40TAL   C19631104   1.136  -2.252   6.931 -0.3104 -1.3038  0.0776
   40TAL   C19731105   1.226  -2.352   6.877 -0.4916  0.5458 -0.5018
   40TAL   C19831106   1.363  -2.330   6.945 -0.0103  0.0056  0.2459
   40TAL   C19931107   1.466  -2.425   6.896 -0.1137 -1.1297  0.2265
   40TAL   C20031108   1.471  -2.552   6.976 -0.6367  0.0407 -0.0642
   41HTM   C20131109   0.915  -2.330   6.578 -0.2880  0.2400  0.0909
   41HTM   C20231110   0.908  -2.449   6.644 -0.7090  0.1926 -0.0342
   41HTM   C20331111   0.814  -2.542   6.586 -0.4910  0.3062 -0.5859
   41HTM   C20431112   0.749  -2.493   6.477  0.0963  0.4403 -0.8818
   41HTM    S2131113   0.802  -2.325   6.437  0.4220  0.4332 -0.4832
   42TAL   C20531114   0.808  -2.695   6.620 -0.0875 -0.7316 -0.5228
   42TAL   C20631115   0.806  -2.739   6.762  0.5498 -0.6467 -0.6222
   42TAL   C20731116   0.911  -2.705   6.862  0.2567 -0.0594  0.0010
   42TAL   C20831117   1.063  -2.689   6.829  0.1166 -0.5817  0.1292
   42TAL   C20931118   1.113  -2.797   6.745  0.2783  0.0477 -0.0710
   42TAL   C21031119   1.240  -2.757   6.679  1.0175  0.3524  1.3605
   43HTM   C21131120   0.621  -2.537   6.421  0.1340 -0.2731 -0.1912
   43HTM   C21231121   0.512  -2.578   6.492  0.3337 -1.0664 -0.3246
   43HTM   C21331122   0.396  -2.605   6.411  0.4208 -1.2134 -0.4002
   43HTM   C21431123   0.417  -2.585   6.277  0.2877 -0.5319 -0.3241
   43HTM    S2231124   0.585  -2.529   6.244  0.0399  0.3549 -0.1501
   44TAL   C21531125   0.270  -2.661   6.467 -0.4215  1.0117  0.1070
   44TAL   C21631126   0.223  -2.609   6.601  1.0628  0.4265 -0.4106
   44TAL   C21731127   0.119  -2.696   6.675  0.8307  0.4182 -0.0568
   44TAL   C21831128   0.049  -2.629   6.802 -0.2270  0.3901  0.6614
   44TAL   C21931129  -0.033  -2.731   6.891  0.3438  0.5340 -0.5409
   44TAL   C22031130  -0.039  -2.712   7.038  0.5918 -0.0326 -0.5289
   45HTM   C22131131   0.328  -2.589   6.162 -0.1802  0.3636  0.7861
   45HTM   C22231132   0.336  -2.676   6.057  0.3171 -0.1801  1.2614
   45HTM   C22331133   0.238  -2.652   5.955  0.5228 -0.9712  0.8652
   45HTM   C22431134   0.155  -2.547   5.981  0.1824 -1.0307  0.0879
   45HTM    S2331135   0.195  -2.469   6.139 -0.4292 -0.0847 -0.2063
   46TAL   C22531136   0.227  -2.729   5.823  0.7975 -0.0116  0.6263
   46TAL   C22631137   0.325  -2.840   5.771  0.4322  0.3064 -0.1722
   46TAL   C22731138   0.475  -2.813   5.773  0.0884  1.3303  0.2260
   46TAL   C22831139   0.530  -2.692   5.697 -0.9461  0.8685  0.1510
   46TAL   C22931140   0.685  -2.687   5.676  1.3484 -1.2002  0.4221
   46TAL   C23031141   0.717  -2.552   5.602  0.1973 -0.5118  0.4035
   47HTM   C23131142   0.046  -2.485   5.907 -0.2783 -0.1308 -0.1656
   47HTM   C23231143  -0.079  -2.535   5.887 -0.1837 -0.1913 -0.6278
   47HTM   C23331144  -0.169  -2.441   5.825 -0.0694 -0.1515 -0.7349
   47HTM   C23431145  -0.113  -2.320   5.798 -0.0770 -0.0607 -0.3546
   47HTM    S2431146   0.060  -2.315   5.849 -0.2301 -0.0179  0.1728
   48TAL   C23531147  -0.320  -2.470   5.808  0.8856 -1.0569 -0.5599
   48TAL   C23631148  -0.376  -2.609   5.851  0.4742 -1.0878  0.6781
   48TAL   C23731149  -0.523  -2.612   5.815 -0.2731  0.7292 -0.7383
   48TAL   C23831150  -0.609  -2.739   5.851 -0.3669  0.5021  0.1060
   48TAL   C23931151  -0.757  -2.694   5.876  0.7751 -0.6081 -0.2929
   48TAL   C24031152  -0.879  -2.775   5.928  0.9367  0.6320  0.5518
    1HTM     C131153   7.081   2.666   0.705 -0.1991 -0.0945 -0.2819
    1HTM     C231154   7.042   2.797   0.711 -0.1508 -0.0948  0.0882
    1HTM     C331155   7.129   2.880   0.789  0.1854 -0.2387 -0.1307
    1HTM     C431156   7.235   2.814   0.842  0.3934 -0.3480 -0.6676
    1HTM     S131157   7.233   2.639   0.798  0.1791 -0.2772 -0.9407
    2TAL     C531158   7.087   3.020   0.809  0.6465 -1.3411  0.0602
    2TAL     C631159   7.119   3.097   0.936  0.3905  1.0152 -0.0692
    2TAL     C731160   7.110   3.246   0.896 -0.3841  0.6221  0.5519
    2TAL     C831161   7.245   3.308   0.858  0.0380 -0.8482  0.5730
    2TAL     C931162   7.223   3.453   0.801 -0.7230 -0.4120 -0.4170
    2TAL    C1031163   7.346   3.541   0.827  0.6035 -0.3248 -0.5150
    3HTM    C1131164   7.353   2.860   0.912 -0.3441  0.2269 -0.3111
    3HTM    C1231165   7.372   2.918   1.034 -0.8008 -0.4412  0.0927
    3HTM    C1331166   7.511   2.922   1.074 -0.9538 -0.7011  0.6621
    3HTM    C1431167   7.596   2.867   0.983 -0.6138 -0.2310  0.6922
    3HTM     S231168   7.508   2.806   0.838 -0.0696  0.5826 -0.0013
    4TAL    C1531169   7.560   2.996   1.194 -0.2749 -0.1803  0.1655
    4TAL    C1631170   7.502   3.133   1.223 -0.1350 -0.0470  0.2620
    4TAL    C1731171   7.579   3.236   1.322 -0.1709 -0.1017  0.3545
    4TAL    C1831172   7.724   3.262   1.296  0.1146 -0.4705 -0.1666
    4TAL    C1931173   7.766   3.359   1.189 -0.8802  0.3689  0.2248
    4TAL    C2031174   7.886   3.446   1.225  0.0823 -0.3882 -0.5055
    5HTM    C2131175   7.740   2.850   0.979  0.5959  0.5258 -0.4288
    5HTM    C2231176   7.841   2.887   1.063  0.6082  0.5167 -0.4396
    5HTM    C2331177   7.971   2.841   1.021  0.5483  0.1519 -0.2372
    5HTM    C2431178   7.969   2.770   0.905  0.4903 -0.1172 -0.0720
    5HTM     S331179   7.802   2.755   0.839  0.5070  0.0707 -0.1600
    6TAL    C2531180   8.097   2.870   1.100 -0.0295 -0.2392 -0.3899
    6TAL    C2631181   8.073   2.942   1.232  0.0331 -0.1759  0.3443
    6TAL    C2731182   8.213   2.971   1.293  0.7997 -0.0484  1.3283
    6TAL    C2831183   8.214   3.061   1.418  0.0535 -0.5369 -0.0776
    6TAL    C2931184   8.174   2.990   1.547  0.8602 -0.3739  0.2444
    6TAL    C3031185   8.249   2.863   1.581 -1.2075 -0.8697 -0.2283
    7HTM    C3131186   8.077   2.713   0.840  0.2894  0.4718  0.5716
    7HTM    C3231187   8.130   2.747   0.719  0.4541  0.9188  0.7640
    7HTM    C3331188   8.253   2.679   0.688  0.2810  0.7192  0.5054
    7HTM    C3431189   8.294   2.593   0.786 -0.0155  0.1200  0.1158
    7HTM     S431190   8.180   2.591   0.926 -0.0999 -0.2415  0.0447
    8TAL    C3531191   8.323   2.671   0.552  1.2580  0.5791 -0.3623
    8TAL    C3631192   8.262   2.739   0.428 -0.0606 -0.3039  0.9154
    8TAL    C3731193   8.119   2.710   0.382 -0.4548 -0.1678  0.6825
    8TAL    C3831194   8.069   2.796   0.270  0.1243 -1.1779 -0.1549
    8TAL    C3931195   7.924   2.761   0.227 -0.4821 -0.3425 -0.2695
    8TAL    C4031196   7.892   2.824   0.097  0.1070  0.1958  0.2733
    9HTM    C4131197   8.402   2.495   0.795 -0.1301 -0.2232 -0.1121
    9HTM    C4231198   8.530   2.495   0.749 -0.0133 -0.1613  0.2129
    9HTM    C4331199   8.603   2.374   0.781 -0.0289 -0.1206  0.4084
    9HTM    C4431200   8.529   2.282   0.850 -0.1577 -0.1512  0.2326
    9HTM     S531201   8.362   2.342   0.881 -0.2701 -0.2347 -0.1970
   10TAL    C4531202   8.749   2.367   0.754  0.5681  0.4972 -0.6227
   10TAL    C4631203   8.794   2.304   0.621 -0.7490  0.9263  0.1003
   10TAL    C4731204   8.810   2.422   0.517  0.0537  1.2661  0.1356
   10TAL    C4831205   8.880   2.365   0.395 -0.2975 -0.9004  0.3408
   10TAL    C4931206   8.801   2.278   0.294 -0.2120 -0.5750  0.2961
   10TAL    C5031207   8.891   2.218   0.187  0.9428  0.1016 -0.2935
   11HTM    C5131208   8.555   2.151   0.906  0.0048 -0.0530  0.0376
   11HTM    C5231209   8.460   2.055   0.929  0.0609 -0.1482 -0.1237
   11HTM    C5331210   8.513   1.934   0.985  0.1053 -0.1411 -0.1494
   11HTM    C5431211   8.648   1.936   1.005  0.0828 -0.0403 -0.0077
   11HTM     S631212   8.719   2.094   0.954  0.0035  0.0541  0.1706
   12TAL    C5531213   8.421   1.824   1.022 -0.2185  0.1711  0.2316
   12TAL    C5631214   8.398   1.793   1.173  0.1721  0.0708 -0.4810
   12TAL    C5731215   8.362   1.654   1.218  0.2010 -0.7825  0.0860
   12TAL    C5831216   8.480   1.561   1.198  1.4240  0.5660 -0.8832
   12TAL    C5931217   8.474   1.436   1.301 -0.2493 -0.1589  1.2346
   12TAL    C6031218   8.593   1.407   1.369  0.5652 -0.0304 -0.6589
   13HTM    C6131219   8.724   1.836   1.081  0.2579 -0.2659 -0.0488
   13HTM    C6231220   8.788   1.724   1.038  0.6067 -0.1801  0.2301
   13HTM    C6331221   8.859   1.654   1.142  0.5503  0.1184  0.4714
   13HTM    C6431222   8.850   1.714   1.264  0.1585  0.2601  0.3767
   13HTM     S731223   8.750   1.864   1.257 -0.1722  0.0259 -0.0280
   14TAL    C6531224   8.903   1.508   1.106  0.1424 -0.0723 -0.7039
   14TAL    C6631225   8.980   1.429   1.208  0.4221  0.1036  1.0345
   14TAL    C6731226   8.992   1.284   1.159  0.7243 -0.0653 -0.3786
   14TAL    C6831227   9.121   1.221   1.192 -0.3914  0.0191  0.2089
   14TAL    C6931228   9.148   1.075   1.162  0.1106 -0.0672 -0.1806
   14TAL    C7031229   9.297   1.039   1.131  0.5949 -0.0876  0.2214
   15HTM    C7131230   8.916   1.693   1.381  0.4680  0.1652 -0.1239
   15HTM    C7231231   8.885   1.625   1.495  0.3124  0.4207 -0.0123
   15HTM    C7331232   8.992   1.619   1.591  0.2725  0.4033  0.0315
   15HTM    C7431233   9.106   1.683   1.550  0.3975  0.1347 -0.0466
   15HTM     S831234   9.085   1.756   1.386  0.5768 -0.1193 -0.1827
   16TAL    C7531235   8.957   1.553   1.722 -0.1962  0.4410 -0.0852
   16TAL    C7631236   8.912   1.401   1.715  0.2855 -0.6121 -0.2736
   16TAL    C7731237   8.961   1.279   1.636  0.4835  0.0526 -0.1453
   16TAL    C7831238   9.096   1.224   1.665 -1.0627 -0.4698 -0.6394
   16TAL    C7931239   9.198   1.308   1.588 -0.0613  0.7434  0.2879
   16TAL    C8031240   9.334   1.253   1.635  0.1229 -0.7247  0.3051
   17HTM    C8131241   9.232   1.682   1.601  0.0838  0.4984 -0.3120
   17HTM    C8231242   9.350   1.678   1.532  0.2373  0.6543 -0.0617
   17HTM    C8331243   9.466   1.671   1.617  0.0501  0.4382  0.1813
   17HTM    C8431244   9.437   1.669   1.750 -0.2462  0.1177  0.1163
   17HTM     S931245   9.260   1.677   1.779 -0.3122  0.0634 -0.2599
   18TAL    C8531246   9.608   1.692   1.560 -1.0841  0.8408  0.2573
   18TAL    C8631247   9.650   1.822   1.490  0.1206  0.3210 -0.4016
   18TAL    C8731248   9.788   1.810   1.424  0.1279  0.5560  0.4743
   18TAL    C8831249   9.891   1.929   1.399  1.1008  0.0583 -0.1290
   18TAL    C8931250   9.844   2.038   1.303  0.4930  1.5276  0.0267
   18TAL    C9031251   9.711   2.108   1.343  0.1278  0.5449 -0.1506
   19HTM    C9131252   9.533   1.668   1.865 -0.2662  0.0083 -0.1726
   19HTM    C9231253   9.639   1.585   1.882 -0.1702  0.0165 -0.7015
   19HTM    C9331254   9.703   1.598   2.010  0.2432 -0.2369 -0.8780
   19HTM    C9431255   9.645   1.691   2.091  0.4624 -0.4384 -0.4838
   19HTM    S1031256   9.505   1.771   2.011  0.1613 -0.3228  0.1461
   20TAL    C9531257   9.829   1.522   2.048  0.5793  0.1132  0.2318
   20TAL    C9631258   9.948   1.601   2.020 -0.0524 -1.1912 -0.3523
   20TAL    C9731259  10.068   1.524   2.050  0.1893  0.9502 -0.5841
   20TAL    C9831260  10.167   1.585   2.146 -0.1400  0.5735  0.6578
   20TAL    C9931261  10.290   1.507   2.183 -0.0995 -0.3775 -0.0352
   20TAL   C10031262  10.383   1.483   2.071 -0.5057 -0.0193 -0.3928
   21HTM   C10131263   9.668   1.747   2.222 -0.6150  0.5271  0.2123
   21HTM   C10231264   9.587   1.743   2.333 -0.3377  0.6074  0.4188
   21HTM   C10331265   9.646   1.805   2.449  0.2123  0.1429  0.3972
   21HTM   C10431266   9.771   1.855   2.427  0.3543 -0.2916  0.1740
   21HTM    S1131267   9.824   1.829   2.257 -0.1998 -0.1467 -0.0275
   22TAL   C10531268   9.571   1.833   2.574 -0.1985 -0.6405  0.2974
   22TAL   C10631269   9.455   1.936   2.564 -0.2781  0.6726  0.3153
   22TAL   C10731270   9.437   1.999   2.692 -0.3108 -0.2907 -0.5171
   22TAL   C10831271   9.300   2.052   2.692  0.5680  0.3588 -0.4522
   22TAL   C10931272   9.261   2.159   2.791 -0.3600 -0.1849  0.1701
   22TAL   C11031273   9.332   2.183   2.922  0.8239 -0.2849 -0.4041
   23HTM   C11131274   9.862   1.911   2.524 -0.1209  0.1280  0.1672
   23HTM   C11231275   9.967   1.853   2.588  0.4889  0.4320 -0.5282
   23HTM   C11331276  10.028   1.937   2.688  0.6121  0.4402 -0.6096
   23HTM   C11431277   9.969   2.059   2.699  0.0963  0.1426  0.0236
   23HTM    S1231278   9.831   2.078   2.584 -0.5904 -0.1736  0.7778
   24TAL   C11531279  10.151   1.912   2.756 -0.4915 -0.2501 -0.5229
   24TAL   C11631280  10.256   1.808   2.705 -0.1204 -0.2837  0.6034
   24TAL   C11731281  10.286   1.813   2.550  0.6781  0.1232 -0.9269
   24TAL   C11831282  10.381   1.712   2.487  0.5823  0.7432  0.4199
   24TAL   C11931283  10.524   1.678   2.529 -0.3387 -0.5744 -0.0684
   24TAL   C12031284  10.623   1.797   2.570  0.2992  0.6471 -0.0757
   25HTM   C12131285  10.020   2.179   2.771  0.2445 -0.3174  0.4763
   25HTM   C12231286  10.142   2.240   2.777  0.4055 -0.6958  1.2217
   25HTM   C12331287  10.143   2.362   2.854  0.2871 -0.6416  1.1374
   25HTM   C12431288  10.021   2.394   2.907  0.0357 -0.2219  0.3274
   25HTM    S1331289   9.895   2.272   2.862 -0.0718  0.1403 -0.3970
   26TAL   C12531290  10.270   2.438   2.887 -0.3267  0.6336 -0.3330
   26TAL   C12631291  10.405   2.398   2.832 -0.6107  0.5836 -0.2791
   26TAL   C12731292  10.466   2.260   2.855 -0.1789 -0.8966 -0.5471
   26TAL   C12831293  10.604   2.254   2.792  0.7786 -0.5693  0.5607
   26TAL   C12931294  10.621   2.142   2.697  0.0316  0.0612  0.9847
   26TAL   C13031295  10.732   2.160   2.601  0.2343 -0.8923 -0.1108
   27HTM   C13131296   9.979   2.530   2.948 -0.3538 -0.0966  0.4786
   27HTM   C13231297   9.846   2.558   2.947 -0.3465 -0.0633  0.2097
   27HTM   C13331298   9.815   2.695   2.976 -0.3498  0.0561 -0.3325
   27HTM   C13431299   9.925   2.772   2.999 -0.3594  0.1139 -0.4771
   27HTM    S1431300  10.077   2.676   2.986 -0.3653  0.0212  0.0644
   28TAL   C13531301   9.666   2.731   2.968  0.5151 -0.1429 -0.8348
   28TAL   C13631302   9.590   2.728   2.820 -0.6794 -0.4877  0.1279
   28TAL   C13731303   9.676   2.780   2.699  0.4542 -0.3451 -1.2948
   28TAL   C13831304   9.753   2.674   2.607  0.5397  0.3881  0.5393
   28TAL   C13931305   9.869   2.741   2.533 -0.9661  0.1097  0.5174
   28TAL   C14031306   9.879   2.658   2.417 -0.4920  0.7208 -0.6297
   29HTM   C14131307   9.937   2.914   3.052  0.1672  0.0510  0.6962
   29HTM   C14231308  10.042   2.970   3.118 -0.3673  0.0584  1.5615
   29HTM   C14331309  10.024   3.109   3.149 -0.6196  0.0619  1.4000
   29HTM   C14431310   9.905   3.160   3.105 -0.2775  0.0572  0.4117
   29HTM    S1531311   9.806   3.034   3.022  0.3949  0.0479 -0.3981
   30TAL   C14531312  10.138   3.195   3.191 -0.0469  0.4098  0.5633
   30TAL   C14631313  10.226   3.258   3.081  0.1520 -0.0913 -1.2206
   30TAL   C14731314  10.347   3.332   3.140 -0.8476 -0.1486 -0.0217
   30TAL   C14831315  10.447   3.356   3.035  0.0509 -1.2326  0.2698
   30TAL   C14931316  10.575   3.401   3.088  0.3994 -0.5834 -0.2965
   30TAL   C15031317  10.705   3.367   3.026  0.1093 -0.0830  0.3777
   31HTM   C15131318   9.847   3.293   3.128  0.1055 -0.3921  0.5995
   31HTM   C15231319   9.719   3.323   3.167  0.1606 -0.2617  0.6843
   31HTM   C15331320   9.687   3.463   3.160  0.2193 -0.2592  0.4624
   31HTM   C15431321   9.790   3.541   3.116  0.2090 -0.3877  0.2082
   31HTM    S1631322   9.937   3.442   3.080  0.1235 -0.5229  0.2297
   32TAL   C15531323   9.551   3.499   3.221 -0.1904  0.3129 -0.5081
   32TAL   C15631324   9.430   3.568   3.150 -0.4126  0.1475  0.3305
   32TAL   C15731325   9.310   3.561   3.235  0.1591  0.0601  0.1524
   32TAL   C15831326   9.326   3.660   3.341 -0.4718 -0.3120 -0.9348
   32TAL   C15931327   9.215   3.769   3.368 -0.4289  0.2885  0.9280
   32TAL   C16031328   9.257   3.883   3.439 -0.8017  0.5069 -0.2078
   33HTM   C16131329   9.817   3.681   3.082 -0.2484 -0.4264 -0.4110
   33HTM   C16231330   9.921   3.736   3.014  0.2732 -0.5826  0.2406
   33HTM   C16331331   9.922   3.880   3.014  0.9503 -0.5784  0.9196
   33HTM   C16431332   9.819   3.935   3.083  0.9451 -0.4190  0.7859
   33HTM    S1731333   9.711   3.808   3.153  0.0779 -0.2606 -0.2159
   34TAL   C16531334  10.038   3.956   2.941 -1.0469 -0.4858 -0.5214
   34TAL   C16631335  10.172   3.960   3.017  0.5209  0.4609 -0.3442
   34TAL   C16731336  10.275   4.050   2.970 -0.2302  0.3473  0.1759
   34TAL   C16831337  10.264   4.196   2.944 -0.1863 -1.0760 -0.6749
   34TAL   C16931338  10.409   4.265   2.944  0.0045  1.0721 -0.9580
   34TAL   C17031339  10.399   4.405   2.904 -0.3758  0.2777 -0.3674
   35HTM   C17131340   9.773   4.074   3.103  0.7466 -0.2350  0.1103
   35HTM   C17231341   9.668   4.117   3.177  0.8652 -0.4791  0.4272
   35HTM   C17331342   9.642   4.259   3.165  0.2914 -0.5959  0.2296
   35HTM   C17431343   9.728   4.323   3.081 -0.2649 -0.4409 -0.2378
   35HTM    S1831344   9.849   4.209   3.011 -0.1058 -0.1328 -0.4665
   36TAL   C17531345   9.527   4.331   3.237  0.5711  0.1525  0.9688
   36TAL   C17631346   9.377   4.293   3.204  1.0548  0.6171 -0.3968
   36TAL   C17731347   9.265   4.396   3.242  0.8860  1.1363  0.3348
   36TAL   C17831348   9.248   4.446   3.381 -0.5022  0.0037  0.1165
   36TAL   C17931349   9.134   4.554   3.380  0.1728 -0.3443  0.9291
   36TAL   C18031350   9.070   4.565   3.511 -0.3827  0.1679 -0.1688
   37HTM   C18131351   9.775   4.461   3.074  0.5774 -0.0011 -0.0362
   37HTM   C18231352   9.782   4.561   3.166  0.6810 -0.0104 -0.0342
   37HTM   C18331353   9.858   4.676   3.121  0.5842  0.0168 -0.1284
   37HTM   C18431354   9.908   4.662   2.994  0.4069  0.0465 -0.2022
   37HTM    S1931355   9.863   4.503   2.922  0.3480  0.0429 -0.1580
   38TAL   C18531356   9.889   4.796   3.209 -0.1263 -0.2316  0.1845
   38TAL   C18631357   9.787   4.873   3.288 -0.8117 -0.1225  0.2994
   38TAL   C18731358   9.671   4.910   3.205 -0.1329 -0.7172  0.8008
   38TAL   C18831359   9.681   5.040   3.118  0.5433 -0.3981  0.3272
   38TAL   C18931360   9.724   5.178   3.184 -1.0307  0.7880 -0.2380
   38TAL   C19031361   9.649   5.228   3.297  0.8179  0.9726 -0.5072
   39HTM   C19131362   9.990   4.756   2.921  0.2619  0.5674 -0.1530
   39HTM   C19231363   9.983   4.892   2.914  0.4602  0.5658 -0.4106
   39HTM   C19331364  10.078   4.950   2.822  0.5730  0.2578 -0.4925
   39HTM   C19431365  10.157   4.859   2.760  0.4608  0.0247 -0.2975
   39HTM    S2031366  10.118   4.690   2.812  0.2019  0.1772  0.0073
   40TAL   C19531367  10.085   5.094   2.798 -0.6075 -0.1923 -1.0270
   40TAL   C19631368  10.023   5.189   2.896 -0.7478  0.7243  0.2533
   40TAL   C19731369  10.019   5.334   2.854 -0.2625 -0.4990  0.3080
   40TAL   C19831370  10.146   5.419   2.904 -0.4343  0.7046  0.1625
   40TAL   C19931371  10.154   5.404   3.058 -1.2118 -1.0104 -0.0885
   40TAL   C20031372  10.277   5.491   3.110  0.9274  0.7198 -0.6359
   41HTM   C20131373  10.274   4.889   2.678  0.1550  0.3794 -0.3869
   41HTM   C20231374  10.397   4.833   2.691 -0.1310 -0.3461 -0.6556
   41HTM   C20331375  10.497   4.892   2.605 -0.0243 -1.1133 -1.0724
   41HTM   C20431376  10.449   4.992   2.526  0.3430 -0.9726 -1.1215
   41HTM    S2131377  10.273   5.020   2.554  0.5844  0.1484 -0.6413
   42TAL   C20531378  10.638   4.846   2.617 -0.4498  0.1346  0.4049
   42TAL   C20631379  10.720   4.891   2.739  0.9723  0.4685 -0.0239
   42TAL   C20731380  10.839   4.793   2.767 -0.3008 -0.9763  0.4031
   42TAL   C20831381  10.879   4.779   2.920  0.3219 -0.0838  0.0212
   42TAL   C20931382  10.895   4.917   2.988 -0.2163 -0.8232  0.1551
   42TAL   C21031383  11.030   4.987   2.960  0.3289 -0.1327  0.2990
   43HTM   C21131384  10.514   5.093   2.443 -0.3994  0.0639  0.1141
   43HTM   C21231385  10.640   5.143   2.434 -0.5311  0.5713  0.9091
   43HTM   C21331386  10.656   5.242   2.331 -0.3104  0.7539  1.1156
   43HTM   C21431387  10.542   5.267   2.260 -0.0103  0.3858  0.4779
   43HTM    S2231388  10.404   5.167   2.320  0.0169 -0.2249 -0.4399
   44TAL   C21531389  10.786   5.314   2.286  0.4287  0.2646 -1.1212
   44TAL   C21631390  10.845   5.392   2.406 -0.7284 -1.1117  0.0574
   44TAL   C21731391  10.932   5.502   2.355 -0.5019 -0.1634 -0.5977
   44TAL   C21831392  10.951   5.602   2.469 -0.8761 -0.3815  0.2051
   44TAL   C21931393  10.999   5.732   2.417 -0.9892 -0.0486 -0.4378
   44TAL   C22031394  10.976   5.833   2.532  0.4144  0.1179  0.0520
   45HTM   C22131395  10.526   5.374   2.161  0.1544 -0.3714 -0.0320
   45HTM   C22231396  10.523   5.509   2.185  0.5326 -0.4071  0.2485
   45HTM   C22331397  10.482   5.587   2.070  0.1692 -0.1037  0.5787
   45HTM   C22431398  10.455   5.512   1.960 -0.4862  0.1633  0.5499
   45HTM    S2331399  10.479   5.336   1.991 -0.6968  0.0512  0.1000
   46TAL   C22531400  10.489   5.739   2.086 -0.7328 -0.2640  0.5232
   46TAL   C22631401  10.365   5.824   2.113  0.6241  0.4275  0.2931
   46TAL   C22731402  10.281   5.867   1.983 -0.1472  0.5762 -1.2344
   46TAL   C22831403  10.333   6.000   1.932  0.6461  0.2168  0.7093
   46TAL   C22931404  10.269   6.010   1.786  0.9011 -0.0373 -0.7021
   46TAL   C23031405  10.314   6.136   1.718 -0.4629 -0.9016 -0.6908
   47HTM   C23131406  10.415   5.543   1.826  0.2876 -0.2055 -0.0254
   47HTM   C23231407  10.475   5.626   1.735  0.8609 -0.8774 -0.2804
   47HTM   C23331408  10.429   5.607   1.600  0.8734 -1.0973 -0.2550
   47HTM   C23431409  10.333   5.511   1.588  0.3097 -0.5934  0.0195
   47HTM    S2431410  10.295   5.435   1.747 -0.2853  0.2046  0.2691
   48TAL   C23531411  10.480   5.681   1.480  0.5122 -0.0581 -0.1859
   48TAL   C23631412  10.608   5.762   1.506 -0.3833  0.2330 -0.5616
   48TAL   C23731413  10.643   5.863   1.404 -0.3693 -0.1286 -0.3412
   48TAL   C23831414  10.729   5.977   1.451  0.5114  0.4901  0.4283
   48TAL   C23931415  10.741   6.098   1.356  0.1535  0.0904 -0.1831
   48TAL   C24031416  10.610   6.160   1.304 -0.0961 -0.1303  0.5364
    1HTM     C131417   5.449   7.107   5.750  0.0575 -1.0738  0.6432
    1HTM     C231418   5.333   7.172   5.782  0.0919 -1.0861  0.7970
    1HTM     C331419   5.214   7.101   5.741  0.0594 -0.8035  0.3920
    1HTM     C431420   5.240   6.983   5.678  0.0002 -0.5756 -0.0706
    1HTM     S131421   5.417   6.951   5.666 -0.0193 -0.7014 -0.0303
    2TAL     C531422   5.073   7.150   5.779 -0.6135  0.0073  1.1472
    2TAL     C631423   5.022   7.272   5.705 -1.0736  0.4256  0.3136
    2TAL     C731424   4.913   7.335   5.778  0.5118 -0.8970 -0.8749
    2TAL     C831425   4.865   7.477   5.731  0.1547 -0.1818  0.0157
    2TAL     C931426   4.736   7.463   5.660  1.7760 -0.8527 -0.1669
    2TAL    C1031427   4.619   7.477   5.755 -0.4270  0.1011  0.0223
    3HTM    C1131428   5.151   6.880   5.626  0.3600  0.1063 -0.4123
    3HTM    C1231429   5.170   6.746   5.645  0.5467  0.0571 -0.9058
    3HTM    C1331430   5.060   6.665   5.598  0.5455  0.0967 -0.9720
    3HTM    C1431431   4.958   6.736   5.543  0.3580  0.1760 -0.5288
    3HTM     S231432   4.992   6.913   5.546  0.1668  0.2070  0.0106
    4TAL    C1531433   5.073   6.510   5.616  0.0052 -0.5000 -0.4287
    4TAL    C1631434   5.060   6.441   5.759 -0.0870 -1.2086  0.2507
    4TAL    C1731435   5.094   6.293   5.748 -0.2037 -0.4917 -0.6612
    4TAL    C1831436   5.059   6.215   5.873  0.4317 -0.4877 -1.0415
    4TAL    C1931437   5.007   6.083   5.847 -0.0065  0.8682 -0.8305
    4TAL    C2031438   4.987   6.007   5.983 -0.1162 -0.1896  0.2511
    5HTM    C2131439   4.857   6.685   5.454 -0.2693  0.5975  0.2454
    5HTM    C2231440   4.766   6.584   5.468 -0.2397  0.5965  0.4400
    5HTM    C2331441   4.671   6.576   5.360 -0.1160  0.2384  0.3556
    5HTM    C2431442   4.690   6.671   5.264 -0.0515 -0.0339  0.0968
    5HTM     S331443   4.829   6.778   5.303 -0.1425  0.1424 -0.0618
    6TAL    C2531444   4.547   6.476   5.353  0.3221 -2.0972  1.8341
    6TAL    C2631445   4.520   6.403   5.479  0.3433  0.2336  0.2886
    6TAL    C2731446   4.451   6.265   5.462 -0.3552  0.5493  0.1595
    6TAL    C2831447   4.416   6.173   5.585  0.2667 -0.5191 -0.2691
    6TAL    C2931448   4.491   6.186   5.728 -0.6290 -0.5410  0.1638
    6TAL    C3031449   4.648   6.185   5.745 -0.0229 -0.4903 -0.6858
    7HTM    C3131450   4.625   6.695   5.140  0.3638 -0.4493  0.1310
    7HTM    C3231451   4.493   6.707   5.108  0.3678 -0.6342  0.0464
    7HTM    C3331452   4.467   6.698   4.966  0.4646 -0.7235  0.0337
    7HTM    C3431453   4.579   6.680   4.891  0.5343 -0.6069  0.1087
    7HTM     S431454   4.727   6.673   4.993  0.4828 -0.3730  0.2018
    8TAL    C3531455   4.316   6.706   4.922  0.2050  0.3597 -0.1703
    8TAL    C3631456   4.267   6.582   4.844  0.3266 -0.0890 -0.4794
    8TAL    C3731457   4.130   6.580   4.776  0.2901 -0.2830  0.4642
    8TAL    C3831458   4.092   6.681   4.669  0.7175 -0.0083 -0.0248
    8TAL    C3931459   4.167   6.678   4.543 -0.6316 -0.2699  0.4712
    8TAL    C4031460   4.119   6.762   4.427 -0.3058  1.2241 -0.2919
    9HTM    C4131461   4.597   6.676   4.746 -0.3083 -0.1961 -0.2815
    9HTM    C4231462   4.537   6.731   4.636 -0.7646 -0.9873 -0.4495
    9HTM    C4331463   4.599   6.693   4.512 -0.7881 -1.2640 -0.3790
    9HTM    C4431464   4.706   6.610   4.526 -0.3496 -0.6835 -0.1570
    9HTM     S531465   4.736   6.571   4.700  0.1307  0.2648 -0.0189
   10TAL    C4531466   4.547   6.717   4.367 -0.3280 -0.3294  0.1272
   10TAL    C4631467   4.457   6.834   4.358 -0.1654 -0.6442 -0.2642
   10TAL    C4731468   4.407   6.840   4.208 -0.4359  0.4520 -0.0247
   10TAL    C4831469   4.515   6.859   4.095 -0.3330 -0.3336 -0.0412
   10TAL    C4931470   4.466   6.917   3.956 -0.3231  0.2719  0.3507
   10TAL    C5031471   4.579   6.957   3.867  0.4500 -1.5746  0.1608
   11HTM    C5131472   4.791   6.542   4.431 -0.3304 -0.5147  0.2573
   11HTM    C5231473   4.812   6.411   4.397  0.0070 -0.4596  0.2415
   11HTM    C5331474   4.915   6.392   4.298 -0.0256 -0.1711  0.1503
   11HTM    C5431475   4.973   6.509   4.257 -0.3879 -0.0064  0.0964
   11HTM     S631476   4.901   6.652   4.339 -0.7185 -0.2047  0.1573
   12TAL    C5531477   4.958   6.249   4.273 -0.2646 -1.0181 -0.7066
   12TAL    C5631478   4.869   6.138   4.247  1.0311  0.3281  0.9770
   12TAL    C5731479   4.957   6.021   4.218 -0.8067  0.5095 -0.0904
   12TAL    C5831480   4.888   5.895   4.161 -0.2787 -1.0559 -0.5842
   12TAL    C5931481   4.965   5.764   4.196  0.5309 -0.4160 -0.4790
   12TAL    C6031482   4.877   5.655   4.271 -0.0077  0.0404  0.7608
   13HTM    C6131483   5.069   6.534   4.165 -0.2644  0.1189 -0.8180
   13HTM    C6231484   5.166   6.630   4.163 -0.4953  0.3551 -0.9115
   13HTM    C6331485   5.266   6.609   4.061 -0.3448  0.3933 -0.7734
   13HTM    C6431486   5.244   6.498   3.985  0.0010  0.1860 -0.5750
   13HTM     S731487   5.095   6.410   4.037  0.1644 -0.0754 -0.5466
   14TAL    C6531488   5.380   6.707   4.038 -0.5508  0.1691  0.5943
   14TAL    C6631489   5.415   6.809   4.139  0.4650 -0.2982  0.5959
   14TAL    C6731490   5.471   6.763   4.272  0.3418  0.1498 -0.7084
   14TAL    C6831491   5.504   6.857   4.391  0.2400  0.5414 -0.7518
   14TAL    C6931492   5.620   6.957   4.392 -0.1732 -0.4400  0.5665
   14TAL    C7031493   5.674   6.981   4.534 -0.2395  0.3305  0.9026
   15HTM    C7131494   5.300   6.465   3.861  0.1018 -0.4752 -0.0402
   15HTM    C7231495   5.259   6.484   3.732 -0.0434 -0.3152  0.0292
   15HTM    C7331496   5.360   6.456   3.634 -0.0168  0.2294 -0.1035
   15HTM    C7431497   5.479   6.416   3.687  0.1484  0.4848 -0.2740
   15HTM     S831498   5.472   6.410   3.868  0.2846  0.0537 -0.2803
   16TAL    C7531499   5.337   6.458   3.486  0.4789 -0.1789  0.9761
   16TAL    C7631500   5.204   6.489   3.406 -0.5821  0.2869  0.0617
   16TAL    C7731501   5.201   6.475   3.254  0.0013 -0.4402 -0.7733
   16TAL    C7831502   5.258   6.350   3.188 -0.6667 -0.0596 -0.2593
   16TAL    C7931503   5.183   6.216   3.238 -0.2282  0.6791  0.4214
   16TAL    C8031504   5.255   6.089   3.173 -0.3751 -0.0821 -0.4711
   17HTM    C8131505   5.601   6.388   3.617 -0.1325 -0.3573  0.5842
   17HTM    C8231506   5.707   6.474   3.602 -0.3885 -0.0088  0.7443
   17HTM    C8331507   5.817   6.417   3.529 -0.3873  0.6083  0.2525
   17HTM    C8431508   5.796   6.289   3.488 -0.1306  0.7303 -0.2826
   17HTM     S931509   5.634   6.229   3.539  0.1316  0.0704 -0.2064
   18TAL    C8531510   5.952   6.490   3.505  0.7061 -0.4580  0.9013
   18TAL    C8631511   5.973   6.596   3.598  0.7691 -1.9289  0.3900
   18TAL    C8731512   6.097   6.676   3.599 -0.4781 -0.6901  0.2674
   18TAL    C8831513   6.097   6.809   3.517 -0.2075  0.1803 -0.2005
   18TAL    C8931514   6.219   6.832   3.421 -1.6024 -0.3462 -0.4978
   18TAL    C9031515   6.364   6.798   3.444  0.3455 -0.5659 -0.5556
   19HTM    C9131516   5.886   6.201   3.391 -0.3279 -0.0593  0.2916
   19HTM    C9231517   5.883   6.066   3.405 -0.1756 -0.0209  0.7326
   19HTM    C9331518   5.991   5.998   3.337 -0.0314 -0.1132  1.0518
   19HTM    C9431519   6.076   6.082   3.272 -0.0739 -0.2222  0.8542
   19HTM    S1031520   6.026   6.255   3.291 -0.3010 -0.2166  0.2448
   20TAL    C9531521   6.004   5.851   3.349 -0.2434  0.1305  0.5554
   20TAL    C9631522   6.028   5.794   3.486 -0.6001  0.5761  0.6891
   20TAL    C9731523   6.115   5.662   3.461  0.0257 -0.4395  0.5361
   20TAL    C9831524   6.253   5.678   3.395  0.4698 -0.6519 -0.0710
   20TAL    C9931525   6.343   5.773   3.474 -0.0330  0.0027 -0.5009
   20TAL   C10031526   6.493   5.765   3.468 -0.4453  1.0809 -0.3049
   21HTM   C10131527   6.191   6.056   3.183  0.0846  0.0400 -0.3945
   21HTM   C10231528   6.188   6.048   3.047  0.0432  0.0798 -0.3963
   21HTM   C10331529   6.318   6.030   2.987 -0.0074 -0.2173 -0.4194
   21HTM   C10431530   6.420   6.025   3.078 -0.0042 -0.4837 -0.4353
   21HTM    S1131531   6.360   6.043   3.247  0.0629 -0.3791 -0.4223
   22TAL   C10531532   6.324   6.011   2.833  0.0595  0.4780 -1.0503
   22TAL   C10631533   6.375   5.882   2.779  0.1734 -0.1272 -0.6837
   22TAL   C10731534   6.379   5.885   2.624 -0.5331  0.1147  0.6276
   22TAL   C10831535   6.447   5.771   2.566 -0.2459  0.4053  0.6750
   22TAL   C10931536   6.441   5.773   2.414 -0.2311 -0.1359 -0.0725
   22TAL   C11031537   6.507   5.661   2.336  0.3905 -0.7613 -0.4807
   23HTM   C11131538   6.557   5.989   3.075  0.0219  0.3259  0.1901
   23HTM   C11231539   6.621   5.904   3.161  0.0466  0.4438  0.2888
   23HTM   C11331540   6.753   5.866   3.118 -0.1029  0.1045  0.1272
   23HTM   C11431541   6.790   5.921   2.999 -0.2415 -0.2721 -0.0947
   23HTM    S1231542   6.660   6.027   2.932 -0.1936 -0.2273 -0.1170
   24TAL   C11531543   6.840   5.771   3.199 -0.1720 -0.3302  0.0171
   24TAL   C11631544   6.900   5.831   3.319  0.0182 -0.0266 -0.4422
   24TAL   C11731545   6.959   5.976   3.313  0.6331 -0.1373  0.5019
   24TAL   C11831546   7.102   5.997   3.343  0.3080 -0.5065 -0.1590
   24TAL   C11931547   7.162   6.138   3.330  0.9933  0.1888  0.8053
   24TAL   C12031548   7.315   6.144   3.353 -0.1085  0.2975  0.0712
   25HTM   C12131549   6.918   5.902   2.924 -0.3188 -0.7079  0.3329
   25HTM   C12231550   6.940   5.851   2.799 -0.5107 -0.8303  0.3477
   25HTM   C12331551   7.080   5.836   2.767 -0.5469 -0.3363 -0.0664
   25HTM   C12431552   7.164   5.876   2.867 -0.3826  0.1626 -0.3970
   25HTM    S1331553   7.072   5.936   3.011 -0.1679  0.0464 -0.2094
   26TAL   C12531554   7.106   5.799   2.621 -0.0274  0.2179 -0.2706
   26TAL   C12631555   7.114   5.648   2.593  0.0196  0.6582  0.7439
   26TAL   C12731556   7.160   5.630   2.449  0.4104  0.9786  0.2792
   26TAL   C12831557   7.200   5.488   2.395  0.8063  0.3799 -0.5878
   26TAL   C12931558   7.337   5.463   2.338 -0.0324 -1.3589  0.8515
   26TAL   C13031559   7.418   5.576   2.275  0.9930  0.3024  1.1410
   27HTM   C13131560   7.307   5.859   2.876  0.5408 -0.8549 -0.2678
   27HTM   C13231561   7.406   5.871   2.783  0.7422 -0.5842 -0.0220
   27HTM   C13331562   7.539   5.855   2.837  0.6446 -0.3902  0.2790
   27HTM   C13431563   7.541   5.831   2.971  0.3687 -0.5127  0.2627
   27HTM    S1431564   7.374   5.826   3.041  0.2096 -0.8858 -0.1372
   28TAL   C13531565   7.661   5.880   2.737  0.4575 -0.0510 -1.0125
   28TAL   C13631566   7.737   5.764   2.687 -0.3258  0.3522 -0.2530
   28TAL   C13731567   7.812   5.793   2.552  0.3473 -0.0606 -0.5279
   28TAL   C13831568   7.834   5.683   2.452  0.2304 -0.5836 -0.8505
   28TAL   C13931569   7.941   5.717   2.350  0.6312 -0.0688  1.1135
   28TAL   C14031570   8.088   5.744   2.367 -0.7601  0.2155  0.6049
   29HTM   C14131571   7.643   5.804   3.063 -0.1945 -0.2836  0.0069
   29HTM   C14231572   7.684   5.882   3.168 -0.1588 -0.1817 -0.0828
   29HTM   C14331573   7.809   5.841   3.225  0.1344  0.2040 -0.4358
   29HTM   C14431574   7.864   5.731   3.164  0.3221  0.3960 -0.6152
   29HTM    S1531575   7.761   5.672   3.029  0.1419  0.1025 -0.3503
   30TAL   C14531576   7.874   5.911   3.347 -0.3247  0.7431  0.3453
   30TAL   C14631577   7.891   6.063   3.335 -0.4179  0.2716 -0.1545
   30TAL   C14731578   7.923   6.129   3.468 -0.2618  0.0260 -0.3097
   30TAL   C14831579   8.050   6.076   3.554 -0.4246  0.6737 -0.5148
   30TAL   C14931580   8.038   6.143   3.690 -1.1424 -0.7653 -0.2372
   30TAL   C15031581   8.121   6.067   3.805 -0.5317 -0.0080 -0.4166
   31HTM   C15131582   7.972   5.649   3.181  0.9721 -0.2084  0.3375
   31HTM   C15231583   8.071   5.649   3.275  1.3043 -0.7976  0.0026
   31HTM   C15331584   8.161   5.538   3.265  0.8719 -1.1033 -0.5882
   31HTM   C15431585   8.131   5.452   3.163  0.2100 -0.7472 -0.7040
   31HTM    S1631586   7.986   5.507   3.071  0.0804  0.0077 -0.0707
   32TAL   C15531587   8.280   5.536   3.363  0.3422  1.6228 -0.0906
   32TAL   C15631588   8.400   5.623   3.331 -0.2648 -0.3729  0.9176
   32TAL   C15731589   8.526   5.637   3.427  1.0555 -0.5315 -0.3398
   32TAL   C15831590   8.502   5.725   3.551 -0.2896 -0.9748  0.8504
   32TAL   C15931591   8.432   5.678   3.682 -0.5130  0.0124  0.1170
   32TAL   C16031592   8.420   5.786   3.793 -0.3582  0.6145  1.3289
   33HTM   C16131593   8.207   5.340   3.119 -0.0502  0.5815 -0.3981
   33HTM   C16231594   8.317   5.282   3.174  0.1087  0.8475 -0.4305
   33HTM   C16331595   8.365   5.167   3.101  0.0553  0.6516 -0.1605
   33HTM   C16431596   8.290   5.138   2.990 -0.1444  0.2363  0.0778
   33HTM    S1731597   8.154   5.254   2.970 -0.2815  0.0590 -0.0211
   34TAL   C16531598   8.472   5.083   3.176 -0.0073 -0.8252  0.2456
   34TAL   C16631599   8.568   5.149   3.279  0.9520  0.5302  0.0968
   34TAL   C16731600   8.640   5.273   3.248  0.4246  0.1415 -0.5795
   34TAL   C16831601   8.743   5.317   3.359 -0.7529 -0.0511 -0.1094
   34TAL   C16931602   8.831   5.418   3.286  0.3977 -0.0501  0.1759
   34TAL   C17031603   8.961   5.410   3.356 -0.4921 -1.0342 -0.4585
   35HTM   C17131604   8.295   5.039   2.884  0.1739  0.2453 -0.3100
   35HTM   C17231605   8.195   4.994   2.803  0.3365  0.4411 -0.6244
   35HTM   C17331606   8.232   4.878   2.725  0.3990  0.4512 -0.6102
   35HTM   C17431607   8.360   4.836   2.747  0.2840  0.2632 -0.2850
   35HTM    S1831608   8.444   4.940   2.868  0.0864  0.0569  0.0311
   36TAL   C17531609   8.121   4.785   2.676  1.2076 -0.6504  1.1437
   36TAL   C17631610   8.043   4.710   2.773 -0.0589  0.1501 -0.2303
   36TAL   C17731611   7.945   4.608   2.719 -0.3275  0.7090 -0.6919
   36TAL   C17831612   7.878   4.518   2.826 -0.7596  0.7866 -0.5875
   36TAL   C17931613   7.839   4.391   2.745  0.4832 -0.1851 -0.1735
   36TAL   C18031614   7.778   4.284   2.840 -0.4418  0.0401  0.4777
   37HTM   C18131615   8.429   4.716   2.707  0.0328  0.0050 -0.0767
   37HTM   C18231616   8.485   4.709   2.582  0.1966 -0.3250  0.0141
   37HTM   C18331617   8.559   4.588   2.559  0.0731 -0.4709  0.3687
   37HTM   C18431618   8.561   4.503   2.666 -0.1848 -0.2524  0.5482
   37HTM    S1931619   8.467   4.570   2.805 -0.2926  0.1581  0.2813
   38TAL   C18531620   8.610   4.544   2.426 -0.5419  0.2611 -0.7060
   38TAL   C18631621   8.728   4.638   2.389 -0.7438 -0.4516 -0.9327
   38TAL   C18731622   8.764   4.625   2.246 -0.3672 -0.0577 -0.8197
   38TAL   C18831623   8.825   4.758   2.192  0.6325  1.3405 -0.1004
   38TAL   C18931624   8.742   4.881   2.221  0.1266 -0.0914 -0.1775
   38TAL   C19031625   8.787   5.016   2.171  0.5191  0.1000 -0.0248
   39HTM   C19131626   8.631   4.378   2.691  0.5338  0.0528 -0.1741
   39HTM   C19231627   8.727   4.342   2.781  0.4855 -0.1084 -0.1876
   39HTM   C19331628   8.767   4.204   2.770  0.0966 -0.2345 -0.0480
   39HTM   C19431629   8.701   4.135   2.672 -0.1516 -0.1696  0.0721
   39HTM    S2031630   8.583   4.240   2.586  0.0885  0.0578  0.0175
   40TAL   C19531631   8.861   4.134   2.867  0.6881 -0.4027  0.8184
   40TAL   C19631632   8.971   4.219   2.925 -0.5903 -0.5276 -0.3217
   40TAL   C19731633   9.058   4.165   3.049 -0.3059  0.6732 -0.6143
   40TAL   C19831634   8.970   4.137   3.176 -1.0621  0.9845 -0.0233
   40TAL   C19931635   8.901   4.265   3.221 -0.5992 -0.0474 -0.0054
   40TAL   C20031636   8.826   4.250   3.349 -0.1190 -0.4063 -1.6059
   41HTM   C20131637   8.727   4.011   2.618  0.1951  0.6162 -0.4468
   41HTM   C20231638   8.842   3.940   2.601  0.3316  1.0025 -1.2428
   41HTM   C20331639   8.822   3.811   2.542  0.3344  0.8911 -1.0045
   41HTM   C20431640   8.692   3.783   2.513  0.2000  0.4199 -0.0270
   41HTM    S2131641   8.583   3.919   2.559  0.0586  0.0775  0.6741
   42TAL   C20531642   8.947   3.723   2.523 -0.5640  0.2746  0.1113
   42TAL   C20631643   9.064   3.766   2.436  0.1044  0.5364  0.1446
   42TAL   C20731644   9.060   3.776   2.280  0.4431  0.0333  0.4503
   42TAL   C20831645   9.004   3.653   2.211 -0.0564 -0.9576 -0.2638
   42TAL   C20931646   9.025   3.669   2.061 -0.4307 -0.9458  0.2264
   42TAL   C21031647   8.969   3.560   1.961 -0.7995 -0.9136  0.0070
   43HTM   C21131648   8.635   3.663   2.451 -0.7002  0.2341  0.2123
   43HTM   C21231649   8.625   3.535   2.496 -1.2796  0.2816  0.2320
   43HTM   C21331650   8.571   3.443   2.399 -0.8550  0.3429 -0.0634
   43HTM   C21431651   8.541   3.501   2.279  0.0480  0.3422 -0.3083
   43HTM    S2231652   8.577   3.678   2.281  0.4353  0.2635 -0.1839
   44TAL   C21531653   8.575   3.294   2.422 -0.5004  0.0707  0.3477
   44TAL   C21631654   8.654   3.249   2.549  0.6273  0.6902  1.0895
   44TAL   C21731655   8.564   3.195   2.649  0.2905  0.4441 -0.4432
   44TAL   C21831656   8.632   3.121   2.764  0.2298  0.0346 -0.1400
   44TAL   C21931657   8.536   3.068   2.869  0.0024  1.2779 -0.1524
   44TAL   C22031658   8.508   3.184   2.972 -0.0661  0.0346 -0.5124
   45HTM   C22131659   8.503   3.456   2.152  0.4914 -0.1665  0.3031
   45HTM   C22231660   8.417   3.353   2.125  1.3085 -0.9373  0.5478
   45HTM   C22331661   8.403   3.324   1.985  1.3675 -1.2453  0.6034
   45HTM   C22431662   8.477   3.405   1.905  0.5955 -0.7092  0.4011
   45HTM    S2331663   8.572   3.525   2.000 -0.2728  0.2333  0.1225
   46TAL   C22531664   8.299   3.233   1.923 -0.5570 -0.6943  0.1702
   46TAL   C22631665   8.345   3.099   1.876 -0.1599  0.0855 -0.3301
   46TAL   C22731666   8.407   3.000   1.972  0.3646  0.0418 -0.4303
   46TAL   C22831667   8.555   2.955   1.954 -0.1158 -0.1996  0.1666
   46TAL   C22931668   8.654   3.058   1.978 -0.4978 -0.4021  1.0387
   46TAL   C23031669   8.802   3.009   2.001 -0.2442 -0.3847 -0.4187
   47HTM   C23131670   8.489   3.420   1.765  0.7294  0.0176  0.0767
   47HTM   C23231671   8.397   3.435   1.665  0.5051 -0.2688  0.2369
   47HTM   C23331672   8.456   3.438   1.533  0.2105 -0.6630  0.0917
   47HTM   C23431673   8.591   3.427   1.533  0.2101 -0.6771 -0.1792
   47HTM    S2431674   8.657   3.410   1.700  0.5847 -0.1899 -0.2727
   48TAL   C23531675   8.364   3.458   1.406 -1.1060  0.0750 -1.1704
   48TAL   C23631676   8.440   3.483   1.278  0.4171 -1.2792 -0.0302
   48TAL   C23731677   8.481   3.625   1.266 -0.3412 -0.2681  0.0389
   48TAL   C23831678   8.392   3.732   1.208 -0.0757 -0.0382 -0.3268
   48TAL   C23931679   8.469   3.863   1.169 -0.1480  0.1414  0.6293
   48TAL   C24031680   8.403   4.005   1.185  0.0848  0.1547 -0.4213
    1HTM     C131681   6.851   0.847   1.490 -0.5534  0.0577 -0.3208
    1HTM     C231682   6.776   0.818   1.380 -0.5326  0.0515 -0.3333
    1HTM     C331683   6.691   0.703   1.396 -0.5059  0.0284 -0.3568
    1HTM     C431684   6.701   0.644   1.519 -0.5067  0.0169 -0.3623
    1HTM     S131685   6.819   0.730   1.624 -0.5409  0.0346 -0.3379
    2TAL     C531686   6.593   0.639   1.292 -0.5464 -0.1322  0.2619
    2TAL     C631687   6.570   0.720   1.160 -0.1131  1.0984  0.0811
    2TAL     C731688   6.465   0.672   1.048 -0.2777 -0.3788  0.5839
    2TAL     C831689   6.531   0.559   0.958  0.8059 -0.1563  0.3145
    2TAL     C931690   6.638   0.601   0.863 -0.2233 -0.9160  1.0065
    2TAL    C1031691   6.715   0.492   0.796 -0.3385 -0.3954  0.6077
    3HTM    C1131692   6.615   0.554   1.590  0.2311  0.3635  0.4750
    3HTM    C1231693   6.657   0.449   1.666  0.2048  0.8171  1.1308
    3HTM    C1331694   6.552   0.383   1.738  0.0937  0.9123  1.0564
    3HTM    C1431695   6.429   0.438   1.717  0.0352  0.5313  0.3439
    3HTM     S231696   6.436   0.578   1.604  0.1166  0.0187 -0.2934
    4TAL    C1531697   6.591   0.266   1.828 -0.3036  1.1602  0.4404
    4TAL    C1631698   6.625   0.305   1.963 -0.2586  0.0199  0.2340
    4TAL    C1731699   6.643   0.182   2.049  0.4801  0.7913  0.0079
    4TAL    C1831700   6.599   0.172   2.193  0.0816  0.4062 -0.3897
    4TAL    C1931701   6.692   0.063   2.256 -0.0544 -1.0257  0.0171
    4TAL    C2031702   6.715   0.091   2.410  0.0854  0.7040  0.5300
    5HTM    C2131703   6.298   0.423   1.778 -0.0930 -0.5561  0.0446
    5HTM    C2231704   6.227   0.307   1.775 -0.6471 -0.2164 -0.2573
    5HTM    C2331705   6.104   0.313   1.850 -0.7533  0.2533 -0.4611
    5HTM    C2431706   6.082   0.433   1.910 -0.2802  0.2717 -0.3147
    5HTM     S331707   6.216   0.550   1.876  0.3410 -0.3072  0.0952
    6TAL    C2531708   6.017   0.181   1.851 -0.6577 -0.2843  0.3413
    6TAL    C2631709   5.960   0.122   1.731  0.6443 -0.0283  0.7070
    6TAL    C2731710   5.883  -0.006   1.742  0.2649  1.3844 -0.1543
    6TAL    C2831711   5.949  -0.148   1.736  0.2566 -0.5302  0.0733
    6TAL    C2931712   6.085  -0.176   1.817  0.7075  0.6242  1.0247
    6TAL    C3031713   6.083  -0.335   1.829 -0.3680 -0.1048 -0.3655
    7HTM    C3131714   5.969   0.480   1.995  0.4525  0.5608 -0.2434
    7HTM    C3231715   5.847   0.420   2.005  0.3334  0.6833 -0.8612
    7HTM    C3331716   5.757   0.487   2.096  0.0553  0.5835 -1.0595
    7HTM    C3431717   5.811   0.597   2.155 -0.0378  0.3850 -0.5928
    7HTM     S431718   5.980   0.626   2.100  0.2209  0.3080  0.1390
    8TAL    C3531719   5.615   0.428   2.120  0.4960  0.4928 -0.1370
    8TAL    C3631720   5.571   0.399   2.267  0.2354  0.1999 -0.5871
    8TAL    C3731721   5.446   0.318   2.295  0.3117 -0.5819 -0.3912
    8TAL    C3831722   5.463   0.169   2.308 -0.4745 -0.1827  0.4397
    8TAL    C3931723   5.394   0.093   2.427 -0.0285  0.2741  0.2596
    8TAL    C4031724   5.425   0.139   2.569  0.7514 -0.0627 -0.0135
    9HTM    C4131725   5.757   0.683   2.256  0.5941  0.2793  0.7458
    9HTM    C4231726   5.791   0.668   2.387  0.2726  0.5687  0.8667
    9HTM    C4331727   5.709   0.744   2.477 -0.2787  0.3806  0.5382
    9HTM    C4431728   5.613   0.818   2.415 -0.3778 -0.0522  0.1669
    9HTM     S531729   5.618   0.796   2.236  0.2223 -0.2574  0.2036
   10TAL    C4531730   5.731   0.768   2.622  0.7879  0.6738 -0.5185
   10TAL    C4631731   5.844   0.858   2.656 -0.7274  0.2936  0.7280
   10TAL    C4731732   5.861   0.888   2.805  0.3435 -0.2860  0.6651
   10TAL    C4831733   5.778   1.000   2.862 -0.3727  0.6782  0.7904
   10TAL    C4931734   5.733   0.998   3.009 -0.7068  0.3477 -0.3312
   10TAL    C5031735   5.853   1.025   3.100  0.2072  0.2191 -0.3740
   11HTM    C5131736   5.498   0.883   2.470  0.3830 -0.7817  0.8402
   11HTM    C5231737   5.509   0.997   2.545  0.5779 -0.9184  1.0214
   11HTM    C5331738   5.382   1.055   2.580  0.6872 -0.2634  0.3612
   11HTM    C5431739   5.274   0.987   2.531  0.5756  0.3727 -0.3235
   11HTM     S631740   5.326   0.842   2.437  0.3219  0.1925 -0.1863
   12TAL    C5531741   5.375   1.184   2.663 -0.5447  0.0055  0.3634
   12TAL    C5631742   5.280   1.295   2.608  0.5300 -0.4811 -0.6892
   12TAL    C5731743   5.259   1.392   2.728 -0.4900  0.2677 -0.0637
   12TAL    C5831744   5.131   1.479   2.719 -0.5643  1.0938  0.4108
   12TAL    C5931745   4.996   1.444   2.797 -0.9460 -0.6430 -0.5054
   12TAL    C6031746   4.992   1.373   2.935 -0.7055 -0.3583 -0.1945
   13HTM    C6131747   5.130   1.000   2.544 -0.2269  0.3733 -0.2817
   13HTM    C6231748   5.035   0.947   2.461 -0.4541  0.9582 -0.4065
   13HTM    C6331749   4.901   0.959   2.511 -0.3718  1.1180 -0.2227
   13HTM    C6431750   4.893   1.022   2.632 -0.0821  0.6549  0.0422
   13HTM     S731751   5.056   1.070   2.692  0.1111 -0.0241  0.0804
   14TAL    C6531752   4.790   0.893   2.434  0.4369  0.1628 -0.1733
   14TAL    C6631753   4.754   0.768   2.497 -0.0894 -0.0545 -0.5308
   14TAL    C6731754   4.624   0.690   2.450  0.3480 -0.7653  0.2198
   14TAL    C6831755   4.503   0.763   2.401 -0.2715 -0.2336  0.4602
   14TAL    C6931756   4.370   0.694   2.403  0.1261  0.1775  0.3594
   14TAL    C7031757   4.276   0.756   2.303  0.5054 -0.2229 -0.2751
   15HTM    C7131758   4.764   1.062   2.691 -0.4990 -0.3723 -0.2649
   15HTM    C7231759   4.705   1.022   2.807 -0.5593 -0.4741 -0.3300
   15HTM    C7331760   4.597   1.108   2.850 -0.2331 -0.2095 -0.0329
   15HTM    C7431761   4.575   1.213   2.767  0.0759  0.0940  0.2589
   15HTM     S831762   4.688   1.212   2.626 -0.0218  0.0690  0.1804
   16TAL    C7531763   4.516   1.081   2.983  0.4129  0.4971 -0.1942
   16TAL    C7631764   4.607   1.053   3.100 -0.2176 -0.0774  0.3578
   16TAL    C7731765   4.682   1.174   3.169  1.1735  0.8356 -0.0704
   16TAL    C7831766   4.765   1.118   3.284 -0.3018  1.0552  0.1034
   16TAL    C7931767   4.825   1.234   3.352  0.5366  0.2525 -0.2061
   16TAL    C8031768   4.923   1.196   3.456 -0.8122 -0.0555 -0.2465
   17HTM    C8131769   4.467   1.301   2.772 -0.0995 -0.0168 -0.6557
   17HTM    C8231770   4.369   1.335   2.684 -0.1402  0.3769 -0.4638
   17HTM    C8331771   4.276   1.433   2.734  0.1477  0.4948 -0.1547
   17HTM    C8431772   4.303   1.473   2.862  0.4081  0.1909 -0.1110
   17HTM     S931773   4.448   1.390   2.928  0.3089 -0.2712 -0.4596
   18TAL    C8531774   4.138   1.460   2.670 -0.0572  0.1498 -1.0627
   18TAL    C8631775   4.114   1.413   2.528  0.3548 -0.8884 -0.1336
   18TAL    C8731776   4.109   1.269   2.514 -0.2201 -0.1704  1.1289
   18TAL    C8831777   4.082   1.206   2.379  0.3837  0.2229 -0.2712
   18TAL    C8931778   4.049   1.070   2.422  0.2310  0.5763 -0.1879
   18TAL    C9031779   3.937   1.012   2.329 -0.0472  0.1061  0.1865
   19HTM    C9131780   4.223   1.570   2.955 -0.2348  0.4073 -0.0669
   19HTM    C9231781   4.161   1.689   2.931 -0.0223  0.6115  0.3669
   19HTM    C9331782   4.083   1.737   3.042  0.3370  0.5153  0.6627
   19HTM    C9431783   4.087   1.656   3.151  0.3983  0.2376  0.4544
   19HTM    S1031784   4.189   1.510   3.121  0.0041  0.0749 -0.1360
   20TAL    C9531785   3.988   1.857   3.019  0.8566  0.6806  0.4876
   20TAL    C9631786   3.859   1.844   2.928  0.1860 -0.5330  0.1018
   20TAL    C9731787   3.888   1.789   2.785  0.8146  0.2372 -1.3993
   20TAL    C9831788   3.758   1.763   2.703  0.4703 -0.8457  0.1224
   20TAL    C9931789   3.690   1.619   2.724  0.5467 -0.3689  0.3774
   20TAL   C10031790   3.564   1.612   2.641 -0.5844 -0.1314 -0.1154
   21HTM   C10131791   4.015   1.665   3.282  0.1509  0.0701 -0.4872
   21HTM   C10231792   4.027   1.572   3.381  0.8838  0.3076 -0.3350
   21HTM   C10331793   3.972   1.615   3.507  0.8701  0.2196 -0.3109
   21HTM   C10431794   3.919   1.740   3.505  0.1269 -0.0849 -0.4447
   21HTM    S1131795   3.935   1.815   3.341 -0.6193 -0.2857 -0.6128
   22TAL   C10531796   3.995   1.535   3.635  0.2359 -0.6537  1.2495
   22TAL   C10631797   3.991   1.388   3.648 -1.2310 -0.0351  0.9188
   22TAL   C10731798   3.871   1.324   3.591  0.4151  0.7634 -0.2171
   22TAL   C10831799   3.851   1.181   3.600 -0.7476  0.0432 -0.4749
   22TAL   C10931800   3.837   1.137   3.749 -0.8001 -0.3987  0.2060
   22TAL   C11031801   3.777   0.996   3.754 -0.1726  0.6862  0.6692
   23HTM   C11131802   3.869   1.824   3.614 -0.2596  0.0190 -0.3508
   23HTM   C11231803   3.938   1.917   3.687 -0.4844  0.5770 -0.8323
   23HTM   C11331804   3.864   1.968   3.800 -0.4586  0.6763 -0.8606
   23HTM   C11431805   3.739   1.915   3.812 -0.2142  0.1940 -0.4007
   23HTM    S1231806   3.705   1.794   3.682  0.0041 -0.4277  0.1077
   24TAL   C11531807   3.921   2.062   3.904 -0.0051  1.0166 -0.9440
   24TAL   C11631808   3.970   1.994   4.032 -0.1486  0.4275  0.5996
   24TAL   C11731809   4.003   2.086   4.146  0.5276  0.3429  0.5827
   24TAL   C11831810   4.035   1.995   4.269 -0.3579 -0.1445 -0.4669
   24TAL   C11931811   4.033   2.085   4.392  0.4954  1.5145 -0.6122
   24TAL   C12031812   4.182   2.119   4.421 -0.1991 -0.1411 -0.2147
   25HTM   C12131813   3.632   1.939   3.910  0.4605 -0.2970  0.6612
   25HTM   C12231814   3.589   2.062   3.949  0.5671 -0.2859  0.7435
   25HTM   C12331815   3.473   2.059   4.034  0.2072 -0.2155  0.2624
   25HTM   C12431816   3.427   1.933   4.059 -0.1737 -0.1729 -0.1872
   25HTM    S1331817   3.528   1.808   3.977 -0.1070 -0.2187 -0.0360
   26TAL   C12531818   3.428   2.190   4.091  0.3917  0.0979 -0.0629
   26TAL   C12631819   3.519   2.304   4.154  1.4147  0.2231 -0.6739
   26TAL   C12731820   3.630   2.263   4.250 -0.1319  0.1918 -0.1005
   26TAL   C12831821   3.703   2.381   4.305  0.4276 -0.6564  0.8650
   26TAL   C12931822   3.749   2.366   4.446 -0.2378 -0.4490  0.8080
   26TAL   C13031823   3.850   2.481   4.493  0.6093 -0.0655  0.5989
   27HTM   C13131824   3.307   1.891   4.127 -0.0530 -0.2316  0.1898
   27HTM   C13231825   3.187   1.857   4.071 -0.2351  0.6011  0.0445
   27HTM   C13331826   3.083   1.834   4.168 -0.4437  1.0547 -0.0678
   27HTM   C13431827   3.124   1.851   4.297 -0.4207  0.5678 -0.0083
   27HTM    S1431828   3.298   1.897   4.307 -0.1315 -0.5098  0.1961
   28TAL   C13531829   2.951   1.793   4.119 -0.5696 -1.2610 -1.0855
   28TAL   C13631830   2.855   1.896   4.055  1.4964  0.0864  0.5590
   28TAL   C13731831   2.778   1.995   4.146 -0.8052 -1.1901  0.5391
   28TAL   C13831832   2.732   2.122   4.081 -0.1720 -0.7278  0.8552
   28TAL   C13931833   2.657   2.217   4.169 -0.0699  0.0398  0.4231
   28TAL   C14031834   2.745   2.319   4.242  0.2962 -0.5189  0.3349
   29HTM   C14131835   3.061   1.843   4.423 -0.1406 -0.3128 -0.4208
   29HTM   C14231836   2.932   1.818   4.459 -0.1162 -0.1451 -0.2183
   29HTM   C14331837   2.910   1.820   4.602  0.0628  0.1089 -0.1925
   29HTM   C14431838   3.023   1.845   4.674  0.1749  0.1350 -0.3753
   29HTM    S1531839   3.166   1.869   4.567  0.0623 -0.1616 -0.5961
   30TAL   C14531840   2.783   1.794   4.679  0.7181 -0.5386  0.0913
   30TAL   C14631841   2.737   1.650   4.656  1.0351 -0.5718 -0.5545
   30TAL   C14731842   2.592   1.607   4.707  0.3903 -0.3249  0.0475
   30TAL   C14831843   2.484   1.704   4.749 -0.3385 -0.1592  0.8553
   30TAL   C14931844   2.355   1.624   4.762 -0.3578  0.5874 -0.2772
   30TAL   C15031845   2.237   1.715   4.761 -0.7248  0.6250 -0.2967
   31HTM   C15131846   3.040   1.868   4.818  0.4533  0.0836 -0.0350
   31HTM   C15231847   3.126   1.955   4.877  0.1314  0.0345  0.5223
   31HTM   C15331848   3.133   1.942   5.020 -0.4135 -0.3125  0.5229
   31HTM   C15431849   3.052   1.844   5.070 -0.5072 -0.5279 -0.0342
   31HTM    S1631850   2.960   1.761   4.939  0.0902 -0.3076 -0.6067
   32TAL   C15531851   3.243   2.033   5.069  0.5103 -0.2842 -0.5848
   32TAL   C15631852   3.193   2.154   5.159 -0.1103  0.4061  0.2823
   32TAL   C15731853   3.103   2.256   5.088  0.7958 -0.1579 -0.2582
   32TAL   C15831854   3.044   2.374   5.173 -0.2464  0.5796  0.3062
   32TAL   C15931855   3.140   2.440   5.266 -0.6148 -0.1214  0.1607
   32TAL   C16031856   3.068   2.557   5.343 -0.5801  0.4738 -0.0268
   33HTM   C16131857   3.019   1.803   5.205 -0.4737  0.3715  0.0494
   33HTM   C16231858   2.906   1.730   5.226 -1.2599  1.6395  0.4920
   33HTM   C16331859   2.899   1.668   5.356 -1.6149  1.9745  0.6368
   33HTM   C16431860   3.007   1.695   5.434 -1.0993  0.9619  0.3048
   33HTM    S1731861   3.127   1.800   5.350 -0.1177 -0.5047 -0.2207
   34TAL   C16531862   2.768   1.586   5.388 -0.3559  0.6776 -0.2764
   34TAL   C16631863   2.650   1.679   5.387 -0.3119 -0.7773 -0.0066
   34TAL   C16731864   2.562   1.708   5.264  0.4094 -0.6836  0.3555
   34TAL   C16831865   2.542   1.589   5.163  0.5335  0.3597  0.6238
   34TAL   C16931866   2.430   1.482   5.193 -0.1069  0.2065 -0.1232
   34TAL   C17031867   2.414   1.393   5.070 -0.1657 -1.3446 -0.7553
   35HTM   C17131868   3.027   1.643   5.570 -0.2431 -0.2096  0.1077
   35HTM   C17231869   2.939   1.597   5.664 -0.0925 -0.2584  0.2239
   35HTM   C17331870   3.003   1.552   5.785  0.0684  0.1466  0.2944
   35HTM   C17431871   3.139   1.563   5.783  0.0407  0.5042  0.2320
   35HTM    S1831872   3.197   1.632   5.627 -0.1928  0.3561  0.0781
   36TAL   C17531873   2.916   1.505   5.900 -0.4479 -0.4548 -1.4607
   36TAL   C17631874   2.770   1.463   5.885  0.4113 -0.3800  0.9518
   36TAL   C17731875   2.729   1.325   5.843  0.2564  0.7222  0.2816
   36TAL   C17831876   2.820   1.204   5.900 -0.1037 -0.5001  0.1103
   36TAL   C17931877   2.741   1.072   5.896  1.4284  0.7812 -0.5495
   36TAL   C18031878   2.596   1.055   5.958 -0.3016 -0.1842  0.9125
   37HTM   C18131879   3.220   1.556   5.907  0.6876  0.1294  0.0576
   37HTM   C18231880   3.317   1.643   5.944  0.6495 -0.0231  0.5281
   37HTM   C18331881   3.379   1.611   6.070  0.2710 -0.3485  0.6340
   37HTM   C18431882   3.328   1.499   6.129  0.0208 -0.4441  0.2443
   37HTM    S1931883   3.198   1.425   6.029  0.2453 -0.1282 -0.2911
   38TAL   C18531884   3.483   1.699   6.134  0.1730 -0.2925  0.9628
   38TAL   C18631885   3.423   1.838   6.158  0.0989  0.0883  0.5225
   38TAL   C18731886   3.517   1.907   6.257  0.0471  0.9138  0.0449
   38TAL   C18831887   3.503   2.051   6.287 -0.2410  0.4557  0.6853
   38TAL   C18931888   3.617   2.111   6.346 -0.5827 -0.4808  0.3760
   38TAL   C19031889   3.599   2.265   6.344 -1.4581  0.1920 -0.7431
   39HTM   C19131890   3.357   1.435   6.255 -0.0642 -0.1296  0.1862
   39HTM   C19231891   3.303   1.456   6.379 -0.3962 -0.4536  0.1004
   39HTM   C19331892   3.369   1.384   6.484 -0.4659 -0.4690  0.1336
   39HTM   C19431893   3.473   1.307   6.441 -0.1872 -0.1568  0.2448
   39HTM    S2031894   3.496   1.321   6.262  0.1879  0.1834  0.3168
   40TAL   C19531895   3.348   1.400   6.632  0.3956 -1.2809 -0.1254
   40TAL   C19631896   3.232   1.476   6.704  0.7159  0.3959  0.6921
   40TAL   C19731897   3.087   1.450   6.660 -2.2019 -0.5439  0.2303
   40TAL   C19831898   3.055   1.308   6.629  0.8182  0.5718 -0.3502
   40TAL   C19931899   2.926   1.286   6.544 -0.5041  0.0494 -0.4636
   40TAL   C20031900   2.796   1.345   6.597  0.7768 -0.0020  0.4146
   41HTM   C20131901   3.585   1.231   6.502  0.3449 -0.1264 -0.0524
   41HTM   C20231902   3.714   1.276   6.506  0.2819  0.0243  0.2885
   41HTM   C20331903   3.806   1.184   6.568  0.2585  0.0571  0.3729
   41HTM   C20431904   3.747   1.069   6.610  0.3037 -0.0688  0.0962
   41HTM    S2131905   3.570   1.067   6.576  0.3798 -0.2397 -0.2954
   42TAL   C20531906   3.955   1.208   6.570 -0.6511 -0.9032 -0.5631
   42TAL   C20631907   4.007   1.344   6.616  0.3792 -0.6787 -0.9751
   42TAL   C20731908   3.969   1.416   6.752 -0.9208  0.3359  0.0453
   42TAL   C20831909   3.993   1.327   6.881 -0.0014  0.4105  0.4359
   42TAL   C20931910   4.131   1.307   6.911  1.1088  0.5548 -0.3985
   42TAL   C21031911   4.156   1.235   7.040 -0.3500  0.5570 -0.3701
   43HTM   C21131912   3.779   0.951   6.690  0.0898 -0.0004 -0.4948
   43HTM   C21231913   3.698   0.842   6.703  0.1231 -0.0949 -1.0284
   43HTM   C21331914   3.760   0.732   6.771 -0.0509 -0.1822 -1.0110
   43HTM   C21431915   3.888   0.756   6.810 -0.2170 -0.1543 -0.4642
   43HTM    S2231916   3.941   0.922   6.763 -0.1661 -0.0145  0.0756
   44TAL   C21531917   3.681   0.609   6.808  0.1843 -0.6530 -0.2922
   44TAL   C21631918   3.593   0.644   6.932  0.0777  0.2269  0.1514
   44TAL   C21731919   3.478   0.542   6.950 -0.8609  0.8811  0.4349
   44TAL   C21831920   3.355   0.590   6.886  0.9874  0.5157 -0.5404
   44TAL   C21931921   3.249   0.478   6.887  0.4042 -0.5206 -0.0535
   44TAL   C22031922   3.133   0.524   6.804 -0.5128 -0.1670 -0.1019
   45HTM   C22131923   3.981   0.687   6.891 -1.1183  0.0331  0.6447
   45HTM   C22231924   4.028   0.560   6.878 -0.5928  0.2751  0.0942
   45HTM   C22331925   4.120   0.521   6.982  0.3413  0.5240 -0.6155
   45HTM   C22431926   4.143   0.619   7.074  0.5281  0.4717 -0.6058
   45HTM    S2331927   4.049   0.768   7.037 -0.4691  0.1012  0.3074
   46TAL   C22531928   4.161   0.374   6.982  0.0079  0.1206  0.2920
   46TAL   C22631929   4.048   0.266   7.016  0.1086  0.1096  0.8910
   46TAL   C22731930   3.949   0.233   6.899 -0.3078  0.2780 -0.4253
   46TAL   C22831931   3.885   0.096   6.916  0.3037  0.9051 -0.1635
   46TAL   C22931932   3.798   0.082   7.047 -0.3986 -0.2305 -0.5518
   46TAL   C23031933   3.755  -0.060   7.040 -0.8234 -0.1841  0.3264
   47HTM   C23131934   4.221   0.637   7.192  0.3137 -0.1354 -0.1776
   47HTM   C23231935   4.224   0.741   7.280  0.2043  0.0497 -0.3912
   47HTM   C23331936   4.324   0.727   7.382 -0.2215  0.0411  0.0324
   47HTM   C23431937   4.398   0.613   7.372 -0.4369 -0.1505  0.5692
   47HTM    S2431938   4.346   0.513   7.232 -0.1161 -0.3365  0.5813
   48TAL   C23531939   4.360   0.828   7.490  0.1507 -0.1646  0.2612
   48TAL   C23631940   4.482   0.921   7.458  0.6887 -0.9802 -0.3206
   48TAL   C23731941   4.474   1.052   7.542  0.4527  0.1291  0.8052
   48TAL   C23831942   4.598   1.145   7.516  0.0813  0.5799  0.1876
   48TAL   C23931943   4.739   1.087   7.554  1.3607  0.4774  0.4313
   48TAL   C24031944   4.725   1.061   7.706 -1.2664  0.1678  0.3447
    1HTM     C131945   2.912   6.965  10.211 -0.0386 -0.2601 -0.2921
    1HTM     C231946   2.829   6.871  10.264 -0.2146 -0.1903 -0.4401
    1HTM     C331947   2.775   6.780  10.166 -0.4584  0.1193 -0.5963
    1HTM     C431948   2.816   6.805  10.039 -0.4682  0.2858 -0.5668
    1HTM     S131949   2.928   6.947  10.032 -0.1680  0.0627 -0.3380
    2TAL     C531950   2.680   6.687  10.227  0.1009 -1.1338 -0.0877
    2TAL     C631951   2.542   6.751  10.274 -0.0489 -0.1475  0.0217
    2TAL     C731952   2.414   6.746  10.181 -0.3845  0.2539 -0.0521
    2TAL     C831953   2.333   6.611  10.198  1.0797 -0.2507 -0.5736
    2TAL     C931954   2.381   6.469  10.158 -0.1391 -0.4155  0.7011
    2TAL    C1031955   2.358   6.458  10.007  1.2233 -0.3516  0.7684
    3HTM    C1131956   2.777   6.741   9.918 -0.1229  0.0267  0.4596
    3HTM    C1231957   2.855   6.706   9.811  0.1791 -0.6306  0.8831
    3HTM    C1331958   2.780   6.658   9.698  0.4430 -0.6298  0.7071
    3HTM    C1431959   2.645   6.657   9.718  0.3422  0.0282  0.1489
    3HTM     S231960   2.602   6.716   9.882 -0.0972  0.7030 -0.2000
    4TAL    C1531961   2.842   6.588   9.580  0.3600  0.6605  1.3963
    4TAL    C1631962   2.973   6.655   9.524 -0.2737 -0.0736  1.0705
    4TAL    C1731963   2.961   6.800   9.481 -0.5490  0.3923 -0.1144
    4TAL    C1831964   3.100   6.851   9.429  0.3763  0.5650 -0.2758
    4TAL    C1931965   3.177   6.775   9.304 -0.2911  0.0295 -0.3156
    4TAL    C2031966   3.325   6.795   9.292  0.2942 -0.4399 -0.0920
    5HTM    C2131967   2.542   6.629   9.625  0.3181 -0.4753  0.0703
    5HTM    C2231968   2.502   6.710   9.523  0.4439 -0.6194 -0.0937
    5HTM    C2331969   2.369   6.682   9.475  0.5320 -0.7374 -0.2708
    5HTM    C2431970   2.307   6.580   9.540  0.4731 -0.6834 -0.2419
    5HTM     S331971   2.413   6.510   9.669  0.3006 -0.4776  0.0133
    6TAL    C2531972   2.290   6.770   9.375  0.1030 -1.2599 -0.3946
    6TAL    C2631973   2.337   6.758   9.231 -0.7352 -0.7199  0.2094
    6TAL    C2731974   2.278   6.844   9.116 -0.3420 -0.4147 -0.4534
    6TAL    C2831975   2.338   6.840   8.984 -0.5551  0.4736  0.1753
    6TAL    C2931976   2.325   6.716   8.906 -0.3805  0.4954  0.2933
    6TAL    C3031977   2.239   6.710   8.779  0.9959 -0.0601  0.8873
    7HTM    C3131978   2.180   6.518   9.527  0.2480 -0.3077  0.2497
    7HTM    C3231979   2.120   6.450   9.629 -0.5869  0.5294  0.3517
    7HTM    C3331980   1.999   6.382   9.589 -0.9886  1.2792  0.2615
    7HTM    C3431981   1.966   6.399   9.458 -0.4599  1.0138  0.0910
    7HTM     S431982   2.087   6.503   9.373  0.5944 -0.2132  0.0306
    8TAL    C3531983   1.943   6.280   9.686  0.0450  0.0326  0.7494
    8TAL    C3631984   1.790   6.298   9.696  0.1854  0.1377  0.1537
    8TAL    C3731985   1.726   6.199   9.796 -0.3912  0.0413  0.1665
    8TAL    C3831986   1.579   6.172   9.799 -0.3281 -0.7021  0.6169
    8TAL    C3931987   1.519   6.098   9.911  0.6191  0.4370 -0.8466
    8TAL    C4031988   1.363   6.103   9.931 -1.5866 -0.4571  0.3412
    9HTM    C4131989   1.862   6.344   9.378  0.0362 -0.1903  0.3781
    9HTM    C4231990   1.863   6.252   9.277  0.3080 -0.3916  0.5617
    9HTM    C4331991   1.739   6.243   9.205  0.5632 -0.3886  0.1125
    9HTM    C4431992   1.643   6.329   9.251  0.4860 -0.1851 -0.4135
    9HTM     S531993   1.703   6.427   9.390  0.0818  0.0201 -0.3821
   10TAL    C4531994   1.734   6.141   9.087 -0.1278 -0.6968  0.0318
   10TAL    C4631995   1.715   6.228   8.951 -0.3345 -0.8689 -1.0303
   10TAL    C4731996   1.694   6.131   8.827  1.4147 -0.8411 -0.7328
   10TAL    C4831997   1.590   6.182   8.719 -1.1078 -1.0336  0.2625
   10TAL    C4931998   1.621   6.310   8.632 -0.1648 -0.0013  0.2837
   10TAL    C5031999   1.749   6.311   8.546  0.4778 -0.7479  0.5758
   11HTM    C5132000   1.501   6.357   9.217 -0.1729  0.2104  0.2282
   11HTM    C5232001   1.418   6.456   9.260 -0.2368  0.2998 -0.0944
   11HTM    C5332002   1.285   6.447   9.206 -0.0712  0.3785 -0.5252
   11HTM    C5432003   1.266   6.342   9.122  0.1189  0.3493 -0.5308
   11HTM     S632004   1.417   6.244   9.104  0.1035  0.2192  0.0113
   12TAL    C5532005   1.178   6.547   9.234 -0.0495  0.5032 -1.2331
   12TAL    C5632006   1.163   6.589   9.376  1.4539  0.5229 -0.6646
   12TAL    C5732007   1.095   6.717   9.407 -0.8566 -0.0713 -0.7147
   12TAL    C5832008   0.977   6.750   9.314 -0.0290  0.3762  0.0718
   12TAL    C5932009   0.994   6.831   9.185 -0.3511 -0.3637  0.0170
   12TAL    C6032010   0.902   6.812   9.063  0.8466  0.5938 -0.6957
   13HTM    C6132011   1.154   6.285   9.047  0.8690 -0.3278  0.7896
   13HTM    C6232012   1.159   6.253   8.915  0.7441 -0.4070  0.8035
   13HTM    C6332013   1.051   6.169   8.871  0.3410  0.1050  0.8109
   13HTM    C6432014   0.962   6.138   8.970  0.1585  0.5746  0.8027
   13HTM     S732015   1.010   6.211   9.128  0.4842  0.4054  0.7848
   14TAL    C6532016   1.048   6.132   8.716  1.1681  0.9768 -0.9010
   14TAL    C6632017   1.122   6.208   8.618 -0.7120  0.1295  1.2596
   14TAL    C6732018   1.195   6.140   8.495 -0.3880  0.0870 -0.2575
   14TAL    C6832019   1.143   6.019   8.402  0.5317  0.4647 -0.6612
   14TAL    C6932020   1.228   5.957   8.295 -0.2321  0.9103  0.5532
   14TAL    C7032021   1.286   6.043   8.182  0.5549  0.3963 -0.7567
   15HTM    C7132022   0.841   6.067   8.969 -0.0629 -0.7063 -0.5287
   15HTM    C7232023   0.767   6.016   8.867 -0.1125 -1.6459 -0.0494
   15HTM    C7332024   0.641   5.961   8.908  0.1043 -1.6960  0.5665
   15HTM    C7432025   0.618   5.970   9.042  0.3193 -0.7944  0.5567
   15HTM     S832026   0.756   6.049   9.127  0.2641  0.1955 -0.2370
   16TAL    C7532027   0.566   5.912   8.789  0.8581  0.4399 -0.0790
   16TAL    C7632028   0.474   6.010   8.727  0.3821 -0.2947 -0.7849
   16TAL    C7732029   0.415   5.985   8.590 -0.0810 -0.2932  0.1164
   16TAL    C7832030   0.518   5.973   8.470 -0.1335  0.5377 -0.3970
   16TAL    C7932031   0.453   5.977   8.332 -2.1519  0.3598 -0.0235
   16TAL    C8032032   0.560   5.946   8.226  0.7459  0.9357 -1.1600
   17HTM    C8132033   0.494   5.935   9.111  0.0602  1.0401 -0.5662
   17HTM    C8232034   0.480   5.937   9.246  0.2628  1.5371 -0.5488
   17HTM    C8332035   0.356   5.880   9.292  0.5620  1.2221 -0.1233
   17HTM    C8432036   0.276   5.833   9.192  0.5876  0.4849  0.1832
   17HTM     S932037   0.352   5.859   9.030  0.2330  0.1286 -0.0431
   18TAL    C8532038   0.322   5.866   9.441  0.4188 -0.3521  0.3196
   18TAL    C8632039   0.264   5.997   9.499 -0.5617  0.3161  0.1928
   18TAL    C8732040   0.217   5.990   9.645  0.6943  0.8306  1.1677
   18TAL    C8832041   0.128   6.099   9.677 -0.1002 -0.1968 -1.2110
   18TAL    C8932042   0.123   6.081   9.830  0.1389 -1.0065  0.0752
   18TAL    C9032043   0.031   6.177   9.911 -0.7552  0.1153 -1.1251
   19HTM    C9132044   0.141   5.780   9.178 -0.1517  0.8209  0.7217
   19HTM    C9232045   0.058   5.778   9.070  0.1303  0.7994  0.5031
   19HTM    C9332046  -0.063   5.703   9.091  0.4158  0.1569 -0.0579
   19HTM    C9432047  -0.072   5.648   9.215  0.3516 -0.3116 -0.2670
   19HTM    S1032048   0.072   5.686   9.316 -0.0779  0.0251  0.2323
   20TAL    C9532049  -0.173   5.697   8.976 -1.1536 -0.2096 -0.4819
   20TAL    C9632050  -0.151   5.590   8.871 -0.2508 -0.7127  0.6638
   20TAL    C9732051  -0.255   5.623   8.773  0.4452  0.0048  0.6410
   20TAL    C9832052  -0.252   5.535   8.656 -0.1820  0.1895 -0.9429
   20TAL    C9932053  -0.285   5.613   8.529  0.4647  0.6337  0.0886
   20TAL   C10032054  -0.260   5.515   8.412 -0.2296 -0.0849  0.5307
   21HTM   C10132055  -0.169   5.547   9.268 -0.3441  0.3043 -0.2136
   21HTM   C10232056  -0.185   5.425   9.208 -0.1249  0.3040 -0.2756
   21HTM   C10332057  -0.251   5.328   9.292  0.2071  0.0887 -0.2606
   21HTM   C10432058  -0.285   5.376   9.415  0.2410 -0.0750 -0.1874
   21HTM    S1132059  -0.236   5.549   9.435 -0.1468  0.0308 -0.1307
   22TAL   C10532060  -0.302   5.194   9.251  0.0013 -0.2946  0.0971
   22TAL   C10632061  -0.422   5.204   9.150 -0.7902  0.0648  0.1642
   22TAL   C10732062  -0.364   5.203   9.013  0.4332  0.0864  0.2205
   22TAL   C10832063  -0.474   5.211   8.904 -0.6777 -0.1501 -0.3608
   22TAL   C10932064  -0.409   5.227   8.768  0.1548 -0.1179 -0.9546
   22TAL   C11032065  -0.516   5.254   8.671 -0.5811  0.0830  0.3409
   23HTM   C11132066  -0.383   5.333   9.514  0.3380 -0.0266  0.3950
   23HTM   C11232067  -0.483   5.407   9.569  0.4904  0.0167  0.6168
   23HTM   C11332068  -0.554   5.339   9.674  0.1447 -0.2782  0.1991
   23HTM   C11432069  -0.508   5.213   9.699 -0.2713 -0.5465 -0.3416
   23HTM    S1232070  -0.370   5.170   9.591 -0.2586 -0.4465 -0.3648
   24TAL   C11532071  -0.664   5.403   9.759  0.0997  0.3054  1.0629
   24TAL   C11632072  -0.651   5.557   9.780  0.7101  0.2564  0.5834
   24TAL   C11732073  -0.525   5.622   9.845  0.7710  0.8506  1.2336
   24TAL   C11832074  -0.558   5.726   9.942 -0.0981  0.3110 -0.8096
   24TAL   C11932075  -0.408   5.768   9.992  0.0607 -0.4409  0.1433
   24TAL   C12032076  -0.407   5.869  10.106  0.4542 -0.3165  0.5351
   25HTM   C12132077  -0.568   5.104   9.779  0.1925  0.2481  0.0384
   25HTM   C12232078  -0.675   5.025   9.749 -0.0491  0.6013 -0.0389
   25HTM   C12332079  -0.706   4.928   9.851 -0.2637  0.5091 -0.1910
   25HTM   C12432080  -0.623   4.933   9.959 -0.1859  0.0856 -0.2298
   25HTM    S1332081  -0.497   5.061   9.940  0.1672 -0.2322 -0.0759
   26TAL   C12532082  -0.810   4.825   9.818 -0.0198  0.1494 -0.0444
   26TAL   C12632083  -0.763   4.677   9.812  0.1566 -0.1517 -0.4148
   26TAL   C12732084  -0.876   4.583   9.809  0.7519  0.3432  0.9946
   26TAL   C12832085  -0.828   4.435   9.782  0.5699  0.4228 -0.1614
   26TAL   C12932086  -0.796   4.405   9.639  0.1125 -0.1663 -0.0332
   26TAL   C13032087  -0.703   4.286   9.620  0.2942 -0.3073 -0.7690
   27HTM   C13132088  -0.619   4.862  10.087 -0.0194 -0.6276 -0.4598
   27HTM   C13232089  -0.512   4.834  10.167  0.2207  0.0976 -0.5157
   27HTM   C13332090  -0.548   4.779  10.295  0.6305  0.6562 -0.1485
   27HTM   C13432091  -0.683   4.765  10.312  0.7032  0.3567  0.1874
   27HTM    S1432092  -0.775   4.820  10.167  0.2559 -0.6618  0.0653
   28TAL   C13532093  -0.433   4.731  10.384  0.8807  1.2420  1.3474
   28TAL   C13632094  -0.286   4.746  10.350  0.2267 -0.5447 -0.9778
   28TAL   C13732095  -0.225   4.847  10.450 -0.8202  0.2391  0.9736
   28TAL   C13832096  -0.160   4.783  10.568 -0.8056 -0.5782  0.1259
   28TAL   C13932097  -0.110   4.903  10.662  0.5784  0.0575 -0.6347
   28TAL   C14032098  -0.011   4.827  10.748 -0.1076  0.6445  0.2287
   29HTM   C14132099  -0.749   4.725  10.433 -0.4122  0.4181  0.4238
   29HTM   C14232100  -0.880   4.740  10.470 -0.4272 -0.1642  0.6204
   29HTM   C14332101  -0.908   4.692  10.603 -0.1684 -0.9292  0.4110
   29HTM   C14432102  -0.799   4.641  10.667  0.0439 -0.9300  0.0551
   29HTM    S1532103  -0.651   4.649  10.564 -0.0673  0.0425 -0.0442
   30TAL   C14532104  -1.045   4.693  10.660  0.5000  0.2174  0.5073
   30TAL   C14632105  -1.149   4.803  10.616 -0.0732  0.2460 -0.8330
   30TAL   C14732106  -1.285   4.804  10.703  0.1372 -0.8086  0.8244
   30TAL   C14832107  -1.323   4.939  10.767 -0.0841  0.4324 -0.5381
   30TAL   C14932108  -1.335   5.065  10.682  0.2045  0.2006  0.9360
   30TAL   C15032109  -1.322   5.209  10.743  1.2073 -0.5839 -0.5538
   31HTM   C15132110  -0.806   4.560  10.782  0.3450  0.3116  0.4366
   31HTM   C15232111  -0.820   4.608  10.909  1.1640  0.2131  0.5786
   31HTM   C15332112  -0.801   4.509  11.011  1.0026 -0.0579  0.3469
   31HTM   C15432113  -0.773   4.384  10.963  0.0604 -0.1662  0.0285
   31HTM    S1632114  -0.767   4.384  10.782 -0.7019  0.0676 -0.0039
   32TAL   C15532115  -0.799   4.563  11.150 -0.1639 -1.1836  0.1632
   32TAL   C15632116  -0.931   4.624  11.198  0.1132  0.4225  0.6867
   32TAL   C15732117  -0.957   4.767  11.234 -0.0012 -0.3377  0.0046
   32TAL   C15832118  -0.897   4.877  11.146 -0.3223 -0.5347  0.1077
   32TAL   C15932119  -0.913   5.024  11.186 -0.4017 -0.2447 -0.3682
   32TAL   C16032120  -0.879   5.123  11.075 -0.0481 -0.0812  0.2947
   33HTM   C16132121  -0.745   4.253  11.021  0.2334 -0.1516 -0.2197
   33HTM   C16232122  -0.807   4.139  10.978  0.8273 -0.3595 -0.5348
   33HTM   C16332123  -0.770   4.021  11.052  1.1765 -0.3192 -0.6371
   33HTM   C16432124  -0.681   4.045  11.153  0.8492 -0.0805 -0.3997
   33HTM    S1732125  -0.636   4.220  11.161  0.0680  0.1133 -0.0258
   34TAL   C16532126  -0.842   3.883  11.018  0.4441 -0.5012  0.8132
   34TAL   C16632127  -0.987   3.862  11.042  0.7560  0.4410 -0.5667
   34TAL   C16732128  -1.034   3.747  10.968 -0.3118  0.6510 -0.0071
   34TAL   C16832129  -1.178   3.704  10.984 -0.3193 -0.6329 -0.8372
   34TAL   C16932130  -1.203   3.576  10.909 -0.0198  0.3829  0.6013
   34TAL   C17032131  -1.355   3.544  10.892 -0.7052 -0.3304  0.5082
   35HTM   C17132132  -0.625   3.961  11.249 -0.2151  0.0728 -0.0383
   35HTM   C17232133  -0.700   3.887  11.335 -0.5089  0.8191  0.3619
   35HTM   C17332134  -0.629   3.844  11.452 -0.5387  0.7604  0.3581
   35HTM   C17432135  -0.499   3.884  11.456 -0.2674 -0.0309 -0.0449
   35HTM    S1832136  -0.456   3.981  11.310  0.0489 -0.7687 -0.4541
   36TAL   C17532137  -0.693   3.748  11.554  0.6983  0.4992 -0.3628
   36TAL   C17632138  -0.833   3.691  11.524  0.2380  0.1192  0.5508
   36TAL   C17732139  -0.920   3.595  11.610  0.3601 -0.7295  0.5810
   36TAL   C17832140  -0.906   3.611  11.757 -0.0914  0.6453  0.0266
   36TAL   C17932141  -1.041   3.624  11.813  0.7457 -0.4406 -0.0938
   36TAL   C18032142  -1.032   3.659  11.961 -0.2429 -0.8306 -0.5379
   37HTM   C18132143  -0.378   3.875  11.535 -0.3103  0.1186  0.0468
   37HTM   C18232144  -0.268   3.955  11.531 -0.5358  0.4449  0.2761
   37HTM   C18332145  -0.160   3.911  11.616 -0.5368  0.6978  0.4106
   37HTM   C18432146  -0.189   3.797  11.685 -0.3122  0.5642  0.2843
   37HTM    S1932147  -0.354   3.736  11.648 -0.0802  0.1053 -0.0171
   38TAL   C18532148  -0.027   3.968  11.614  0.0720  0.2336 -0.2448
   38TAL   C18632149   0.060   3.952  11.482  0.1805 -0.6125  0.4567
   38TAL   C18732150   0.202   4.010  11.507 -0.2608 -0.8156  0.1875
   38TAL   C18832151   0.298   4.076  11.395  1.1307  0.0241 -0.2590
   38TAL   C18932152   0.285   4.009  11.260  0.0099 -0.5989  0.1324
   38TAL   C19032153   0.410   3.997  11.182 -0.2447  0.6092 -0.2890
   39HTM   C19132154  -0.112   3.713  11.781 -0.2148  0.2208 -0.0106
   39HTM   C19232155  -0.130   3.579  11.801 -0.3481  0.2078 -0.2196
   39HTM   C19332156  -0.045   3.523  11.902 -0.3234 -0.0589 -0.3843
   39HTM   C19432157   0.038   3.614  11.961 -0.1713 -0.2494 -0.3016
   39HTM    S2032158   0.015   3.779  11.891 -0.0464 -0.1055 -0.0064
   40TAL   C19532159  -0.039   3.377  11.935  0.2912 -0.4187  0.3540
   40TAL   C19632160  -0.061   3.266  11.820  0.1966 -0.4450 -0.1341
   40TAL   C19732161  -0.070   3.131  11.886  0.2416  0.1118  0.4331
   40TAL   C19832162  -0.070   3.026  11.775 -1.0668 -0.7881 -0.2687
   40TAL   C19932163  -0.186   3.011  11.682 -0.6970 -0.9654  0.2384
   40TAL   C20032164  -0.188   2.882  11.602 -0.9060  0.1668 -0.3839
   41HTM   C20132165   0.135   3.612  12.069  0.5798 -0.3598 -0.4947
   41HTM   C20232166   0.172   3.513  12.155  0.9976 -0.7181 -1.0726
   41HTM   C20332167   0.268   3.554  12.253  0.9176 -0.9196 -0.9079
   41HTM   C20432168   0.305   3.685  12.242  0.4388 -0.7150 -0.2044
   41HTM    S2132169   0.220   3.767  12.106  0.0487 -0.2483  0.3088
   42TAL   C20532170   0.335   3.458  12.350 -0.6525  1.4310  0.7375
   42TAL   C20632171   0.292   3.312  12.365  0.3573 -0.1039 -0.6262
   42TAL   C20732172   0.310   3.260  12.507 -0.5120 -0.1567  0.6065
   42TAL   C20832173   0.361   3.120  12.488 -0.3010  1.1610 -0.7893
   42TAL   C20932174   0.388   3.039  12.615 -0.5745  0.4434  0.7265
   42TAL   C21032175   0.442   2.895  12.591 -0.7243  0.4838  0.0595
   43HTM   C21132176   0.401   3.767  12.323  0.2803  0.2449 -0.5188
   43HTM   C21232177   0.501   3.716  12.400  0.0162 -0.1916 -0.4611
   43HTM   C21332178   0.593   3.815  12.450  0.1521 -0.5312 -0.0193
   43HTM   C21432179   0.563   3.942  12.410  0.5199 -0.3535  0.2590
   43HTM    S2232180   0.416   3.946  12.306  0.7246  0.2611 -0.0165
   44TAL   C21532181   0.718   3.774  12.539  0.5580  0.3857  0.1378
   44TAL   C21632182   0.693   3.723  12.682  0.3779 -0.5589 -0.2592
   44TAL   C21732183   0.732   3.827  12.786  0.0955 -1.5558 -0.1531
   44TAL   C21832184   0.880   3.819  12.803 -0.2256 -0.2400 -0.2476
   44TAL   C21932185   0.947   3.868  12.941 -0.4314 -0.3356 -1.9970
   44TAL   C22032186   1.101   3.854  12.933 -0.5446 -0.9319  0.0582
   45HTM   C22132187   0.622   4.071  12.431 -0.2237 -0.5466  0.2548
   45HTM   C22232188   0.572   4.191  12.392 -0.6498 -0.7135  0.2689
   45HTM   C22332189   0.667   4.299  12.402 -1.0088 -0.3892  0.2239
   45HTM   C22432190   0.789   4.261  12.449 -0.8564  0.0250  0.1757
   45HTM    S2332191   0.793   4.084  12.485 -0.2429  0.0377  0.1834
   46TAL   C22532192   0.636   4.443  12.373  1.0995 -0.6722  0.1862
   46TAL   C22632193   0.645   4.494  12.223 -0.2459 -0.8619 -0.9431
   46TAL   C22732194   0.785   4.496  12.166  0.3042  0.1990  0.1955
   46TAL   C22832195   0.765   4.550  12.031  0.0452  0.3482  0.6737
   46TAL   C22932196   0.882   4.559  11.941 -0.2874  0.2805 -0.3120
   46TAL   C23032197   0.880   4.469  11.815  0.0694  0.7578 -0.1915
   47HTM   C23132198   0.916   4.345  12.470  0.8058  0.3061 -0.3935
   47HTM   C23232199   1.041   4.294  12.454  0.9328  0.8075 -1.1079
   47HTM   C23332200   1.145   4.394  12.456  0.5973  1.1578 -0.9854
   47HTM   C23432201   1.098   4.521  12.473  0.2147  0.9235 -0.1773
   47HTM    S2432202   0.919   4.524  12.488  0.2485  0.2368  0.4967
   48TAL   C23532203   1.289   4.356  12.432 -0.5310 -0.2337  0.7648
   48TAL   C23632204   1.335   4.214  12.369  1.0538 -0.5232  0.7185
   48TAL   C23732205   1.355   4.118  12.494  0.2167  0.1783  0.6720
   48TAL   C23832206   1.308   3.973  12.474 -0.4539 -0.2439 -0.3257
   48TAL   C23932207   1.163   3.929  12.441  0.1230  0.7262  0.6232
   48TAL   C24032208   1.150   3.778  12.408 -0.5782 -0.5279  0.7959
    1HTM     C132209   5.797   4.313  17.428 -0.2629 -0.0900  0.1442
    1HTM     C232210   5.665   4.343  17.447 -0.2843 -0.1694  0.1183
    1HTM     C332211   5.591   4.360  17.325 -0.1965  0.1190  0.1054
    1HTM     C432212   5.667   4.345  17.212 -0.1078  0.4180  0.1222
    1HTM     S132213   5.838   4.306  17.252 -0.1290  0.3585  0.1548
    2TAL     C532214   5.441   4.380  17.328 -0.0560  0.3179  0.5197
    2TAL     C632215   5.342   4.257  17.307 -0.4467  0.1836 -0.4948
    2TAL     C732216   5.209   4.270  17.366  0.4342  0.3289  0.1356
    2TAL     C832217   5.113   4.163  17.322  0.4208  0.6239 -0.1245
    2TAL     C932218   4.966   4.202  17.376  0.3822 -0.2373 -0.0410
    2TAL    C1032219   4.889   4.077  17.397  0.2442  0.6071  0.0006
    3HTM    C1132220   5.635   4.353  17.060 -0.4294  0.8188  0.2578
    3HTM    C1232221   5.632   4.470  16.990 -0.7282  0.6707  0.0172
    3HTM    C1332222   5.558   4.462  16.867 -0.7164  0.2323  0.0353
    3HTM    C1432223   5.505   4.339  16.842 -0.4084  0.0459  0.2907
    3HTM     S232224   5.544   4.223  16.974 -0.1072  0.4126  0.5286
    4TAL    C1532225   5.556   4.580  16.775 -0.0071  0.4035 -0.6185
    4TAL    C1632226   5.605   4.720  16.809  0.4925  0.0197  0.4520
    4TAL    C1732227   5.587   4.791  16.676 -0.2738 -0.0213 -0.3781
    4TAL    C1832228   5.682   4.911  16.665 -0.7202 -0.3920 -0.3667
    4TAL    C1932229   5.657   5.008  16.541 -0.0066  0.0073 -0.2624
    4TAL    C2032230   5.771   5.108  16.517  0.0088  0.3169 -0.0172
    5HTM    C2132231   5.415   4.301  16.735 -0.1586  0.2228 -0.0203
    5HTM    C2232232   5.346   4.183  16.729  0.2490 -0.0082 -0.3490
    5HTM    C2332233   5.266   4.169  16.610  0.8155 -0.2532 -0.7043
    5HTM    C2432234   5.275   4.275  16.524  0.8399 -0.2090 -0.6469
    5HTM     S332235   5.386   4.403  16.589  0.1437  0.1483 -0.1349
    6TAL    C2532236   5.201   4.038  16.573 -0.5404  0.9955 -0.6478
    6TAL    C2632237   5.052   4.034  16.601  0.3045  0.1752 -1.0524
    6TAL    C2732238   4.979   3.945  16.500 -0.6690 -0.0007  0.1797
    6TAL    C2832239   4.827   3.921  16.522  0.4185  0.4336 -0.1158
    6TAL    C2932240   4.739   4.043  16.540  0.2789  0.3806 -0.6074
    6TAL    C3032241   4.731   4.148  16.424  0.0361  0.6666  0.6187
    7HTM    C3132242   5.200   4.311  16.409 -0.0224 -0.3290  0.2967
    7HTM    C3232243   5.108   4.411  16.405  0.1318 -0.1876  0.2007
    7HTM    C3332244   5.026   4.411  16.287  0.3505  0.0254  0.0486
    7HTM    C3432245   5.057   4.311  16.199  0.3630  0.0463  0.0290
    7HTM     S432246   5.192   4.208  16.260  0.0973 -0.2031  0.2018
    8TAL    C3532247   4.908   4.501  16.275  0.2511 -1.0210 -0.7560
    8TAL    C3632248   4.841   4.537  16.413 -0.4119  1.3829 -0.2712
    8TAL    C3732249   4.763   4.667  16.435 -0.8155 -0.3862  0.1658
    8TAL    C3832250   4.720   4.702  16.575  0.4943  0.0038  0.4027
    8TAL    C3932251   4.611   4.614  16.632 -0.2025  0.0195  0.0766
    8TAL    C4032252   4.511   4.698  16.700 -0.0909  0.3715  0.8180
    9HTM    C4132253   5.003   4.277  16.071  0.0731 -0.1386  0.1017
    9HTM    C4232254   5.069   4.258  15.953  0.2327 -0.2062  0.2007
    9HTM    C4332255   4.983   4.224  15.843  0.3723 -0.1962  0.0873
    9HTM    C4432256   4.851   4.216  15.877  0.3190 -0.1208 -0.0982
    9HTM     S532257   4.826   4.252  16.052  0.0866 -0.0560 -0.1441
   10TAL    C4532258   5.029   4.198  15.704  0.2455  0.4589 -0.3366
   10TAL    C4632259   5.138   4.290  15.633 -0.0170  0.5012 -0.6193
   10TAL    C4732260   5.174   4.236  15.497 -0.0298 -0.2641  0.5596
   10TAL    C4832261   5.204   4.093  15.471 -0.6175 -0.0061 -0.8294
   10TAL    C4932262   5.208   4.052  15.321  0.6622 -0.1723 -0.4047
   10TAL    C5032263   5.264   3.913  15.281  1.0270 -0.1074 -0.7597
   11HTM    C5132264   4.728   4.204  15.797  0.3063 -0.5994  0.3610
   11HTM    C5232265   4.611   4.269  15.823  0.4288 -0.3819  0.3800
   11HTM    C5332266   4.511   4.253  15.720  0.5794  0.2815  0.1209
   11HTM    C5432267   4.553   4.176  15.615  0.5713  0.5702 -0.0954
   11HTM     S632268   4.722   4.118  15.639  0.3718  0.0218  0.0119
   12TAL    C5532269   4.398   4.348  15.732 -0.2269  0.5067 -0.3430
   12TAL    C5632270   4.421   4.480  15.672 -1.0931 -0.4232  0.6712
   12TAL    C5732271   4.318   4.550  15.609  0.1243 -0.6337  0.2424
   12TAL    C5832272   4.355   4.693  15.570  0.0762 -0.8324 -0.3675
   12TAL    C5932273   4.265   4.799  15.633 -1.3200  0.1522 -0.4220
   12TAL    C6032274   4.330   4.947  15.627  0.2253 -0.5178  0.2637
   13HTM    C6132275   4.473   4.122  15.508  0.2433  0.0810  0.1653
   13HTM    C6232276   4.515   4.091  15.382  0.4618  0.3160  0.1781
   13HTM    C6332277   4.408   4.051  15.294  0.6782 -0.0376  0.0699
   13HTM    C6432278   4.285   4.052  15.352  0.6247 -0.5421 -0.0259
   13HTM     S732279   4.295   4.103  15.525  0.2943 -0.6106  0.0142
   14TAL    C6532280   4.429   3.965  15.166  0.4769 -0.0887 -1.0755
   14TAL    C6632281   4.570   3.911  15.170 -0.9570  0.2872  0.7327
   14TAL    C6732282   4.638   3.854  15.033  0.0199 -0.3070  0.3876
   14TAL    C6832283   4.558   3.780  14.935  0.2903  0.3377  0.2800
   14TAL    C6932284   4.637   3.725  14.804  0.4787 -0.2881 -0.2214
   14TAL    C7032285   4.739   3.613  14.824  0.4336 -0.2756 -0.9587
   15HTM    C7132286   4.152   4.024  15.297 -0.2092 -0.1404  0.0678
   15HTM    C7232287   4.075   4.113  15.229 -0.2564 -0.0966  0.1793
   15HTM    C7332288   3.945   4.062  15.194 -0.1271 -0.2179 -0.1268
   15HTM    C7432289   3.924   3.933  15.235  0.0186 -0.3543 -0.4719
   15HTM     S832290   4.067   3.867  15.322  0.0038 -0.3400 -0.4366
   16TAL    C7532291   3.837   4.146  15.122  0.2467 -0.1284 -0.0043
   16TAL    C7632292   3.880   4.281  15.060  1.4466  0.4982  0.1052
   16TAL    C7732293   3.766   4.370  15.032 -0.3278  0.5452 -0.0539
   16TAL    C7832294   3.664   4.331  14.923 -1.0137 -0.0549 -1.0147
   16TAL    C7932295   3.534   4.411  14.947  0.3533  0.3039 -0.4651
   16TAL    C8032296   3.520   4.563  14.928 -0.2469  0.4911  0.1190
   17HTM    C8132297   3.818   3.838  15.231 -0.2398 -0.4571  0.2402
   17HTM    C8232298   3.737   3.823  15.340 -0.3558 -0.6177  0.1330
   17HTM    C8332299   3.612   3.758  15.311 -0.4327 -0.3520 -0.1445
   17HTM    C8432300   3.597   3.723  15.180 -0.3755  0.0111 -0.2489
   17HTM     S932301   3.741   3.771  15.082 -0.2186  0.0461 -0.0032
   18TAL    C8532302   3.507   3.727  15.414 -0.6678  0.1150  0.8364
   18TAL    C8632303   3.502   3.813  15.539 -0.2191 -0.2085 -0.5161
   18TAL    C8732304   3.376   3.832  15.612  0.3385 -0.5174  0.1316
   18TAL    C8832305   3.361   3.922  15.733 -0.3958 -0.2815 -0.3464
   18TAL    C8932306   3.336   4.071  15.704  0.1160  0.9322 -0.2925
   18TAL    C9032307   3.313   4.154  15.824  0.0412 -0.0402 -0.0295
   19HTM    C9132308   3.490   3.654  15.116 -0.3867  0.4116  0.0687
   19HTM    C9232309   3.356   3.668  15.141 -0.4333  0.3756 -0.1557
   19HTM    C9332310   3.273   3.585  15.058 -0.2617  0.2213 -0.1757
   19HTM    C9432311   3.343   3.508  14.970 -0.0843  0.1397  0.0343
   19HTM    S1032312   3.520   3.534  14.985 -0.1204  0.2522  0.2744
   20TAL    C9532313   3.128   3.567  15.077 -0.7339 -0.1771  0.5425
   20TAL    C9632314   3.058   3.699  15.120  0.0538  0.1081 -0.0024
   20TAL    C9732315   2.903   3.704  15.114 -0.1075  0.9233 -0.0701
   20TAL    C9832316   2.827   3.735  14.986 -0.2964 -0.4363  0.7673
   20TAL    C9932317   2.896   3.856  14.907  0.9786  0.0100  0.1017
   20TAL   C10032318   2.884   3.993  14.958  0.1672  0.6084  0.4417
   21HTM   C10132319   3.303   3.411  14.859  0.2130 -0.1826 -0.1444
   21HTM   C10232320   3.296   3.275  14.861  1.1451 -0.2499 -0.6180
   21HTM   C10332321   3.265   3.217  14.733  1.4268 -0.0174 -0.7944
   21HTM   C10432322   3.247   3.310  14.634  0.7094  0.2271 -0.4551
   21HTM    S1132323   3.270   3.478  14.695 -0.3860  0.1822  0.1179
   22TAL   C10532324   3.257   3.066  14.718  0.6901 -1.1265 -0.0879
   22TAL   C10632325   3.369   2.981  14.653 -0.1415 -0.2353  0.3530
   22TAL   C10732326   3.347   2.834  14.644 -0.7100 -0.1277  0.6016
   22TAL   C10832327   3.240   2.785  14.539  0.3237  0.6785  0.1840
   22TAL   C10932328   3.257   2.816  14.388  0.5445  0.1776  0.4820
   22TAL   C11032329   3.122   2.799  14.321  0.0543  0.1301 -0.4147
   23HTM   C11132330   3.210   3.304  14.491  0.0349  0.5131  0.1330
   23HTM   C11232331   3.121   3.213  14.442  0.1596  0.2820  0.3333
   23HTM   C11332332   3.109   3.214  14.299  0.0433  0.0558  0.3393
   23HTM   C11432333   3.189   3.307  14.238 -0.1702  0.1145  0.1443
   23HTM    S1232334   3.286   3.399  14.359 -0.2414  0.4627 -0.0641
   24TAL   C11532335   3.003   3.122  14.233  0.5247  0.5265  0.0651
   24TAL   C11632336   2.904   3.183  14.142 -0.3330  0.3219  0.0350
   24TAL   C11732337   2.879   3.092  14.027 -0.1313 -0.7255 -0.8390
   24TAL   C11832338   2.790   3.142  13.924 -0.1101  0.0426 -0.3305
   24TAL   C11932339   2.826   3.074  13.796 -0.0472  0.6801  0.1547
   24TAL   C12032340   2.786   3.152  13.675  0.0504 -0.3531 -0.7738
   25HTM   C12132341   3.222   3.338  14.101  0.5823 -0.1305  0.0732
   25HTM   C12232342   3.269   3.257  14.003  0.7555 -0.0932  0.1240
   25HTM   C12332343   3.298   3.325  13.880  0.4340 -0.1351  0.0224
   25HTM   C12432344   3.273   3.459  13.884  0.0154 -0.2044 -0.1057
   25HTM    S1332345   3.211   3.510  14.046 -0.0051 -0.2221 -0.1081
   26TAL   C12532346   3.360   3.261  13.761  0.2179 -0.8007  0.3401
   26TAL   C12632347   3.329   3.124  13.710  0.1918  0.1062 -0.2757
   26TAL   C12732348   3.187   3.085  13.681  0.0923 -0.7023 -0.1133
   26TAL   C12832349   3.116   3.149  13.560 -0.5762 -0.9911 -0.4381
   26TAL   C12932350   3.168   3.099  13.427 -0.5214 -0.0520  0.6257
   26TAL   C13032351   3.075   3.127  13.315  0.9668 -0.3199  0.1558
   27HTM   C13132352   3.282   3.573  13.789 -0.1207  0.1505 -0.6456
   27HTM   C13232353   3.384   3.603  13.703 -0.2044  0.0921 -0.7679
   27HTM   C13332354   3.368   3.730  13.638 -0.1056  0.1998 -0.5856
   27HTM   C13432355   3.254   3.797  13.672  0.0537  0.3402 -0.3239
   27HTM    S1432356   3.157   3.703  13.792  0.0915  0.3475 -0.2873
   28TAL   C13532357   3.456   3.766  13.528  0.2396  0.1473  0.5113
   28TAL   C13632358   3.597   3.717  13.522 -1.1021 -0.1194  0.0366
   28TAL   C13732359   3.703   3.748  13.642  0.1950 -0.1263  1.0177
   28TAL   C13832360   3.719   3.898  13.661  0.3926 -0.7865 -0.0701
   28TAL   C13932361   3.643   3.927  13.789  0.8351 -0.2599 -0.4418
   28TAL   C14032362   3.619   4.074  13.829 -0.2307  0.2042 -0.1631
   29HTM   C14132363   3.201   3.919  13.634 -0.3233 -0.0560  0.0772
   29HTM   C14232364   3.074   3.965  13.613 -0.2878 -0.1532 -0.3643
   29HTM   C14332365   3.067   4.107  13.587 -0.2800 -0.2110 -0.6993
   29HTM   C14432366   3.189   4.168  13.589 -0.3096 -0.1579 -0.5131
   29HTM    S1532367   3.322   4.052  13.623 -0.3498 -0.0295  0.1042
   30TAL   C14532368   2.927   4.168  13.570 -0.4656 -0.3630  0.5788
   30TAL   C14632369   2.881   4.143  13.425 -1.0222 -0.6714 -0.1700
   30TAL   C14732370   2.733   4.102  13.403 -0.4604  0.3325 -0.1305
   30TAL   C14832371   2.623   4.203  13.426  0.2294  0.6925 -0.2885
   30TAL   C14932372   2.472   4.183  13.374 -0.2553  0.4232 -0.8637
   30TAL   C15032373   2.401   4.310  13.342  0.2161 -0.0716 -0.5611
   31HTM   C15132374   3.207   4.310  13.566  0.5562 -0.0439  0.5699
   31HTM   C15232375   3.290   4.395  13.634  0.5106  0.3071  0.1984
   31HTM   C15332376   3.289   4.529  13.584  0.0995  0.1892 -0.1230
   31HTM   C15432377   3.207   4.548  13.477 -0.1686 -0.2515  0.0037
   31HTM    S1632378   3.122   4.395  13.431  0.0795 -0.5542  0.5430
   32TAL   C15532379   3.352   4.640  13.662 -0.3690 -0.1428  0.0409
   32TAL   C15632380   3.461   4.611  13.775  1.4989 -0.4752  0.9247
   32TAL   C15732381   3.476   4.741  13.839 -0.7958 -0.9305  0.5645
   32TAL   C15832382   3.616   4.749  13.903 -0.2885  0.3457 -0.1269
   32TAL   C15932383   3.634   4.840  14.024 -0.2904  0.2210 -0.1085
   32TAL   C16032384   3.649   4.992  14.008 -0.0485 -0.0482 -0.3809
   33HTM   C16132385   3.162   4.666  13.404  0.2341 -0.2131  0.1903
   33HTM   C16232386   3.040   4.679  13.345  0.5382 -0.3152 -0.4885
   33HTM   C16332387   3.005   4.815  13.311  0.6591 -0.3581 -0.7854
   33HTM   C16432388   3.102   4.905  13.344  0.4473 -0.2886 -0.3335
   33HTM    S1732389   3.244   4.826  13.420  0.0756 -0.1628  0.5088
   34TAL   C16532390   2.859   4.859  13.271 -0.2774  0.1328  1.3731
   34TAL   C16632391   2.737   4.795  13.342 -0.8301 -0.6510 -0.1130
   34TAL   C16732392   2.600   4.834  13.299  0.0279 -0.5233 -0.8699
   34TAL   C16832393   2.580   4.975  13.243 -0.0987  0.2426 -1.3657
   34TAL   C16932394   2.571   5.080  13.343 -0.1645 -1.2698 -0.3860
   34TAL   C17032395   2.551   5.223  13.304  0.6199 -0.5020  0.1138
   35HTM   C17132396   3.094   5.048  13.328  0.1479  0.5420 -0.1071
   35HTM   C17232397   3.134   5.127  13.224  0.6932  0.7503  0.2506
   35HTM   C17332398   3.102   5.266  13.241  0.4209  0.6865  0.2780
   35HTM   C17432399   3.038   5.294  13.359 -0.3321  0.4297 -0.0588
   35HTM    S1832400   3.013   5.145  13.457 -0.7590  0.2471 -0.4394
   36TAL   C17532401   3.139   5.376  13.140 -0.0785  0.5072 -0.6544
   36TAL   C17632402   3.261   5.362  13.065  0.2321 -0.5716 -0.7050
   36TAL   C17732403   3.394   5.355  13.138  0.5367 -0.1484 -0.6790
   36TAL   C17832404   3.467   5.488  13.151  0.6062  0.7582 -0.5297
   36TAL   C17932405   3.612   5.470  13.132  0.1664 -0.2165  0.3189
   36TAL   C18032406   3.693   5.406  13.246  1.1356 -0.5297  0.7642
   37HTM   C18132407   2.990   5.414  13.416 -0.1188 -0.0271  0.4571
   37HTM   C18232408   2.862   5.447  13.449  0.0270 -0.1799  1.2004
   37HTM   C18332409   2.848   5.579  13.506  0.1794 -0.1405  1.1451
   37HTM   C18432410   2.966   5.647  13.515  0.1495  0.0420  0.3602
   37HTM    S1932411   3.104   5.548  13.453 -0.0748  0.1797 -0.3761
   38TAL   C18532412   2.704   5.608  13.542  0.0151 -0.2733  1.1721
   38TAL   C18632413   2.596   5.638  13.429 -0.0323 -0.5108 -1.0862
   38TAL   C18732414   2.611   5.770  13.347  0.5031  0.3430 -1.0186
   38TAL   C18832415   2.599   5.908  13.421  1.0128  0.4335  0.1759
   38TAL   C18932416   2.627   6.019  13.324  0.8382  0.3861  0.3899
   38TAL   C19032417   2.767   6.048  13.278  0.0834 -0.1544  0.1869
   39HTM   C19132418   3.005   5.783  13.558  0.1682 -0.1338  0.0187
   39HTM   C19232419   3.128   5.842  13.553  0.1508 -0.1154 -0.2642
   39HTM   C19332420   3.126   5.982  13.585  0.1946 -0.1031 -0.3173
   39HTM   C19432421   3.002   6.031  13.613  0.2454 -0.1119 -0.0747
   39HTM    S2032422   2.876   5.902  13.602  0.2418 -0.1371  0.2423
   40TAL   C19532423   3.254   6.075  13.552 -0.1840  0.9098 -0.1803
   40TAL   C19632424   3.338   6.128  13.671  0.1335 -0.4155  0.2482
   40TAL   C19732425   3.481   6.084  13.728  0.8198  0.0003  1.1515
   40TAL   C19832426   3.594   6.068  13.632 -0.5637  0.1393  0.3762
   40TAL   C19932427   3.626   5.932  13.594 -1.1891 -0.2062 -0.3202
   40TAL   C20032428   3.752   5.928  13.506 -0.5689  0.0946 -0.5657
   41HTM   C20132429   2.960   6.160  13.654  0.5812 -0.0707 -0.1084
   41HTM   C20232430   2.952   6.276  13.583  1.0339  0.0279 -0.0055
   41HTM   C20332431   2.893   6.385  13.656  0.7551 -0.0178 -0.1590
   41HTM   C20432432   2.856   6.352  13.783  0.0898 -0.1509 -0.3795
   41HTM    S2132433   2.893   6.179  13.820 -0.2388 -0.2297 -0.4099
   42TAL   C20532434   2.868   6.518  13.591 -0.3256  0.8072  0.2213
   42TAL   C20632435   2.822   6.535  13.451 -0.8113  0.2133  0.4779
   42TAL   C20732436   2.943   6.584  13.368 -0.5442 -0.8419  0.5686
   42TAL   C20832437   2.982   6.487  13.255 -0.7678  0.2952 -0.1346
   42TAL   C20932438   3.121   6.499  13.187  0.2350  0.0681 -0.5719
   42TAL   C21032439   3.119   6.448  13.057  0.7001 -0.0627  0.7184
   43HTM   C21132440   2.796   6.422  13.897  0.0120  0.7584  0.0685
   43HTM   C21232441   2.823   6.544  13.953 -0.6323  0.7316  0.4585
   43HTM   C21332442   2.745   6.572  14.071 -0.9991  0.0700  0.3853
   43HTM   C21432443   2.660   6.472  14.105 -0.6345 -0.4074 -0.0601
   43HTM    S2232444   2.670   6.333  13.991  0.2069 -0.0558 -0.4250
   44TAL   C21532445   2.767   6.702  14.154 -0.3711  0.2796  0.4869
   44TAL   C21632446   2.863   6.811  14.106 -0.6525 -0.0856 -0.0849
   44TAL   C21732447   2.798   6.943  14.152  0.0039 -0.4809 -0.7483
   44TAL   C21832448   2.905   7.063  14.160  0.6829 -0.4473  0.3277
   44TAL   C21932449   2.860   7.189  14.232 -0.0196  1.2056 -0.5436
   44TAL   C22032450   2.972   7.292  14.229 -0.2621  0.1403 -0.0204
   45HTM   C22132451   2.579   6.433  14.221  0.6738 -1.0615  0.5788
   45HTM   C22232452   2.513   6.319  14.256  1.2138 -1.1485  1.3859
   45HTM   C22332453   2.451   6.325  14.385  0.5128 -0.2036  1.0288
   45HTM   C22432454   2.470   6.444  14.450 -0.5617  0.6035 -0.0505
   45HTM    S2332455   2.568   6.558  14.351 -0.7733  0.2302 -0.7049
   46TAL   C22532456   2.372   6.204  14.436 -1.0966 -0.0961 -0.3322
   46TAL   C22632457   2.239   6.158  14.376  0.1790 -0.4881  0.3397
   46TAL   C22732458   2.145   6.275  14.334  0.0214  1.1551  0.2182
   46TAL   C22832459   1.993   6.245  14.326 -0.4437 -0.2733 -0.2099
   46TAL   C22932460   1.925   6.230  14.467 -0.1306  0.1385 -0.0787
   46TAL   C23032461   1.890   6.363  14.535  0.3769 -0.3958 -0.5264
   47HTM   C23132462   2.439   6.483  14.589 -0.1946  0.1337  0.0573
   47HTM   C23232463   2.515   6.555  14.676 -0.1935  0.5276 -0.2644
   47HTM   C23332464   2.449   6.586  14.800 -0.0591  0.7530 -0.2482
   47HTM   C23432465   2.321   6.538  14.807  0.0425  0.5309  0.0863
   47HTM    S2432466   2.275   6.449  14.657 -0.0245  0.0157  0.4093
   48TAL   C23532467   2.522   6.645  14.909 -0.0097 -0.8795  0.2601
   48TAL   C23632468   2.459   6.693  15.046  0.3529 -0.3029  0.2004
   48TAL   C23732469   2.417   6.849  15.053 -0.6306  0.1489 -0.3161
   48TAL   C23832470   2.525   6.963  15.086 -1.3356  0.1954 -0.3358
   48TAL   C23932471   2.610   6.948  15.216 -0.1436 -0.0435  0.1384
   48TAL   C24032472   2.708   7.064  15.243 -0.2428  0.5809 -0.3065
    1HTM     C132473   2.073   5.593   6.486 -0.2321 -0.2677 -0.1952
    1HTM     C232474   1.986   5.536   6.574 -0.0715 -0.2447 -0.0187
    1HTM     C332475   2.003   5.394   6.590  0.0834 -0.2096  0.1347
    1HTM     C432476   2.104   5.342   6.514  0.0409 -0.2058  0.0751
    1HTM     S132477   2.185   5.470   6.416 -0.2000 -0.2465 -0.1812
    2TAL     C532478   1.914   5.326   6.691  0.3985  1.6768 -0.1205
    2TAL     C632479   1.992   5.242   6.809  0.4248 -1.1279  1.0258
    2TAL     C732480   1.911   5.162   6.907 -0.0908  1.0293 -0.6872
    2TAL     C832481   1.827   5.222   7.012  0.2941 -0.2382  0.1068
    2TAL     C932482   1.722   5.138   7.083  0.0247 -0.4695  0.4168
    2TAL    C1032483   1.690   5.185   7.226  0.2690 -0.6727 -0.2165
    3HTM    C1132484   2.147   5.204   6.511 -0.6047  0.2112  0.0357
    3HTM    C1232485   2.097   5.115   6.420 -0.9109  0.0329  0.3761
    3HTM    C1332486   2.171   4.992   6.411 -0.9475  0.0111  0.3735
    3HTM    C1432487   2.279   4.987   6.495 -0.6690  0.1724  0.0311
    3HTM     S232488   2.294   5.138   6.592 -0.3364  0.3663 -0.3173
    4TAL    C1532489   2.131   4.893   6.304 -0.3169  0.6791  1.1660
    4TAL    C1632490   2.118   4.967   6.158 -0.2997  0.0185  0.1502
    4TAL    C1732491   2.132   4.890   6.022 -0.7634 -0.1825 -0.9111
    4TAL    C1832492   2.281   4.859   5.993 -0.6358 -0.7911 -0.1485
    4TAL    C1932493   2.303   4.838   5.841  0.3120  0.9092 -0.1379
    4TAL    C2032494   2.437   4.786   5.817 -0.5923 -0.7002  0.9215
    5HTM    C2132495   2.369   4.877   6.508 -0.3863  0.1727  0.1731
    5HTM    C2232496   2.367   4.748   6.463 -0.1209  0.0739  0.4426
    5HTM    C2332497   2.490   4.677   6.486  0.1180  0.4559  0.3537
    5HTM    C2432498   2.586   4.752   6.547  0.0346  0.8457  0.0163
    5HTM     S332499   2.528   4.919   6.581 -0.3549  0.7602 -0.2170
    6TAL    C2532500   2.517   4.534   6.441  0.1785  0.2203  0.0496
    6TAL    C2632501   2.417   4.421   6.468 -0.6346  0.2900  0.7644
    6TAL    C2732502   2.456   4.304   6.378 -0.1879  0.5528 -0.4456
    6TAL    C2832503   2.344   4.201   6.368  0.9235 -0.6397 -0.2969
    6TAL    C2932504   2.185   4.228   6.359 -0.0771 -0.4681  0.4849
    6TAL    C3032505   2.105   4.102   6.399  0.3198  0.4975 -0.6576
    7HTM    C3132506   2.727   4.710   6.579 -0.0745  0.7695 -0.1579
    7HTM    C3232507   2.777   4.695   6.705 -0.2619  1.4879  0.0113
    7HTM    C3332508   2.905   4.629   6.709 -0.4269  1.1910  0.5983
    7HTM    C3432509   2.952   4.594   6.586 -0.3654  0.2463  0.8766
    7HTM     S432510   2.839   4.642   6.455 -0.0921 -0.3462  0.4155
    8TAL    C3532511   2.978   4.599   6.839  0.4552  0.4434  0.0853
    8TAL    C3632512   2.909   4.540   6.959  0.4679  0.4312  0.4374
    8TAL    C3732513   2.950   4.602   7.099 -0.4341  0.6419  0.3717
    8TAL    C3832514   2.843   4.563   7.197  0.7615 -1.1902  0.3451
    8TAL    C3932515   2.725   4.658   7.214  0.3964 -0.6628  0.3731
    8TAL    C4032516   2.627   4.599   7.304 -0.4874 -0.1317 -1.0105
    9HTM    C4132517   3.074   4.518   6.552 -0.0174  0.4604  0.2686
    9HTM    C4232518   3.155   4.432   6.621  0.0433  0.4882  0.2319
    9HTM    C4332519   3.275   4.396   6.550 -0.1008  0.3256  0.0710
    9HTM    C4432520   3.285   4.453   6.427 -0.2714  0.1738 -0.0149
    9HTM     S532521   3.144   4.559   6.391 -0.2631  0.2249  0.1015
   10TAL    C4532522   3.380   4.312   6.611 -0.5444 -0.5657 -0.5780
   10TAL    C4632523   3.332   4.182   6.684  0.3048 -0.1073  0.3921
   10TAL    C4732524   3.267   4.073   6.592  0.4373 -0.1028  0.8614
   10TAL    C4832525   3.275   3.930   6.646 -0.2120 -0.9910 -0.1450
   10TAL    C4932526   3.207   3.888   6.778  0.1739  0.1034  0.4871
   10TAL    C5032527   3.052   3.882   6.801  0.1011  0.1647 -0.7673
   11HTM    C5132528   3.395   4.438   6.335 -0.2613  0.0915 -0.2296
   11HTM    C5232529   3.498   4.527   6.322  0.0656 -0.1675  0.4609
   11HTM    C5332530   3.593   4.489   6.220  0.4846 -0.2427  0.8764
   11HTM    C5432531   3.563   4.372   6.157  0.4771 -0.0412  0.5027
   11HTM     S632532   3.410   4.300   6.221 -0.0639  0.2617 -0.4100
   12TAL    C5532533   3.695   4.598   6.183 -0.5208  0.6519  0.3672
   12TAL    C5632534   3.837   4.591   6.247  0.6826  0.5730  0.4428
   12TAL    C5732535   3.922   4.707   6.225 -0.9199 -0.5769 -0.0518
   12TAL    C5832536   3.892   4.821   6.327  0.2410 -0.6566  0.4928
   12TAL    C5932537   4.018   4.911   6.355 -1.0139  0.5969  0.7044
   12TAL    C6032538   3.999   5.020   6.457  0.5059  0.4564  0.0010
   13HTM    C6132539   3.628   4.312   6.034 -0.3109 -0.0286  0.1503
   13HTM    C6232540   3.676   4.375   5.923  0.2266  0.1591  0.4811
   13HTM    C6332541   3.707   4.285   5.815  0.6779  0.3475  0.4483
   13HTM    C6432542   3.682   4.154   5.843  0.4845  0.3037  0.0923
   13HTM     S732543   3.617   4.134   6.010 -0.2886  0.0186 -0.2314
   14TAL    C6532544   3.761   4.340   5.683  0.5084  0.5010 -0.8120
   14TAL    C6632545   3.836   4.472   5.677  1.0514 -0.1320 -0.2043
   14TAL    C6732546   3.897   4.497   5.540  0.1017 -0.6329 -0.1563
   14TAL    C6832547   4.036   4.444   5.512 -0.1186 -1.0946 -0.9608
   14TAL    C6932548   4.125   4.484   5.631 -0.7208 -0.2625  0.5071
   14TAL    C7032549   4.267   4.455   5.586  0.6083  0.0762  0.2383
   15HTM    C7132550   3.674   4.044   5.753 -0.0355 -0.0077 -0.0195
   15HTM    C7232551   3.573   3.952   5.763 -0.1770  0.1336 -0.1252
   15HTM    C7332552   3.563   3.864   5.649 -0.3178  0.2854 -0.2301
   15HTM    C7432553   3.655   3.889   5.552 -0.2838  0.2599 -0.2045
   15HTM     S832554   3.763   4.027   5.597 -0.0696  0.0403 -0.0446
   16TAL    C7532555   3.472   3.748   5.622  0.2555  1.1104 -0.5294
   16TAL    C7632556   3.341   3.757   5.709 -0.3492  1.1236 -0.3318
   16TAL    C7732557   3.343   3.680   5.850  1.1858  0.2294 -0.3666
   16TAL    C7832558   3.201   3.682   5.907  0.0124  0.1350  0.3083
   16TAL    C7932559   3.183   3.652   6.055  0.8352  0.6946 -0.7047
   16TAL    C8032560   3.051   3.702   6.120  0.1337 -0.5169  0.0077
   17HTM    C8132561   3.666   3.838   5.415  0.5827  0.3746  0.2714
   17HTM    C8232562   3.688   3.921   5.309  1.1667  0.4000  0.4042
   17HTM    C8332563   3.711   3.852   5.185  1.0329  0.4339  0.3601
   17HTM    C8432564   3.707   3.716   5.196  0.3468  0.4343  0.1938
   17HTM     S932565   3.673   3.665   5.366 -0.1876  0.3916  0.0791
   18TAL    C8532566   3.725   3.924   5.051  1.0240  0.4592 -0.6092
   18TAL    C8632567   3.832   4.018   5.030 -0.1939 -0.4795 -0.9682
   18TAL    C8732568   3.811   4.132   4.926  0.9131  0.5047 -0.4763
   18TAL    C8832569   3.774   4.078   4.789  0.8314 -0.9026  1.0961
   18TAL    C8932570   3.871   3.996   4.711 -0.1582 -0.7098 -0.1221
   18TAL    C9032571   3.839   4.017   4.565  1.0281 -0.1090  0.2585
   19HTM    C9132572   3.747   3.616   5.099  0.1222  0.3154  0.1718
   19HTM    C9232573   3.875   3.577   5.073  0.1946  0.5803  0.1241
   19HTM    C9332574   3.885   3.480   4.967  0.3624  0.6463  0.0793
   19HTM    C9432575   3.765   3.445   4.912  0.4179  0.4318  0.0929
   19HTM    S1032576   3.628   3.533   4.991  0.2613  0.1275  0.1640
   20TAL    C9532577   4.025   3.427   4.934 -1.0181  0.4064  0.7049
   20TAL    C9632578   4.125   3.532   4.876 -0.5088  0.0843 -0.9533
   20TAL    C9732579   4.164   3.657   4.962  0.1557  0.1030  0.2367
   20TAL    C9832580   4.183   3.761   4.846 -0.1317 -0.5884 -0.1602
   20TAL    C9932581   4.234   3.896   4.903 -0.0347 -0.5994 -1.0214
   20TAL   C10032582   4.208   4.022   4.823 -0.6395  0.6356 -0.0410
   21HTM   C10132583   3.736   3.352   4.811  0.0473 -0.4398  0.1927
   21HTM   C10232584   3.622   3.284   4.782  0.0513 -0.3350 -0.0790
   21HTM   C10332585   3.636   3.188   4.676  0.1327 -0.1214 -0.2621
   21HTM   C10432586   3.762   3.183   4.623  0.1908 -0.0633 -0.1301
   21HTM    S1132587   3.873   3.299   4.704  0.1467 -0.2755  0.2386
   22TAL   C10532588   3.529   3.093   4.636 -0.0122 -0.0226 -0.0754
   22TAL   C10632589   3.377   3.126   4.657 -0.7205  0.1587 -0.5041
   22TAL   C10732590   3.266   3.019   4.632  0.1986  0.8306 -0.0107
   22TAL   C10832591   3.308   2.870   4.645 -0.2282 -0.6302  0.3546
   22TAL   C10932592   3.335   2.792   4.516 -0.0770  0.5852 -0.6658
   22TAL   C11032593   3.423   2.665   4.545 -0.9948 -1.2754  0.7334
   23HTM   C11132594   3.827   3.099   4.510  0.0785 -0.1743 -0.6053
   23HTM   C11232595   3.793   2.976   4.464  0.1437  0.0646 -1.3187
   23HTM   C11332596   3.872   2.932   4.351  0.4895  0.5561 -1.2720
   23HTM   C11432597   3.966   3.023   4.312  0.6880  0.6921 -0.5230
   23HTM    S1232598   3.962   3.171   4.414  0.4518  0.2061  0.1871
   24TAL   C11532599   3.842   2.796   4.284  0.2727 -0.0055 -0.4056
   24TAL   C11632600   3.739   2.786   4.183  0.9290 -0.3313  0.6739
   24TAL   C11732601   3.589   2.824   4.215 -1.0675 -0.1038 -0.1157
   24TAL   C11832602   3.488   2.803   4.106  1.2701 -0.1339  0.3445
   24TAL   C11932603   3.412   2.665   4.081 -0.4467 -0.4082 -0.0198
   24TAL   C12032604   3.286   2.658   3.992 -0.0768  0.3770 -0.4132
   25HTM   C12132605   4.068   3.002   4.211 -0.8719  0.3060 -0.0916
   25HTM   C12232606   4.196   3.049   4.210 -0.9526  0.5425  0.2699
   25HTM   C12332607   4.267   3.023   4.087 -0.5301  0.5946  0.4976
   25HTM   C12432608   4.192   2.957   3.994 -0.1272  0.3977  0.3097
   25HTM    S1332609   4.026   2.922   4.055 -0.2510  0.1292 -0.1731
   26TAL   C12532610   4.413   3.067   4.078  0.1059 -1.1481  0.3859
   26TAL   C12632611   4.487   3.181   4.161 -0.6734  0.3261  0.1661
   26TAL   C12732612   4.491   3.166   4.311 -0.8170 -0.9932 -0.7626
   26TAL   C12832613   4.522   3.030   4.382  0.4620  0.0291  0.6029
   26TAL   C12932614   4.510   3.071   4.525 -0.3041  1.0811 -0.7555
   26TAL   C13032615   4.520   2.944   4.623  0.1310  0.9903 -0.2254
   27HTM   C13132616   4.231   2.908   3.860  0.0172  0.1591  0.1984
   27HTM   C13232617   4.147   2.845   3.773 -0.2505  0.7943 -0.0196
   27HTM   C13332618   4.206   2.819   3.644 -0.3475  0.9496 -0.0963
   27HTM   C13432619   4.335   2.862   3.633 -0.1535  0.4329  0.0634
   27HTM    S1432620   4.392   2.940   3.785  0.1688 -0.2957  0.3250
   28TAL   C13532621   4.123   2.731   3.553  0.7533 -0.0228 -0.6735
   28TAL   C13632622   4.115   2.581   3.584  0.5133  0.1406  0.2539
   28TAL   C13732623   4.005   2.495   3.512 -0.9345 -0.5236  0.0623
   28TAL   C13832624   4.021   2.346   3.522 -0.1897  1.5081 -0.2597
   28TAL   C13932625   3.947   2.243   3.440  0.9172 -0.5758  0.5836
   28TAL   C14032626   3.968   2.243   3.287 -0.5376 -0.6554 -0.0491
   29HTM   C14132627   4.421   2.852   3.514  0.0599  0.3455 -0.6412
   29HTM   C14232628   4.413   2.798   3.389  0.1014  1.1027 -0.9772
   29HTM   C14332629   4.525   2.831   3.305  0.2843  1.3591 -0.6379
   29HTM   C14432630   4.619   2.910   3.366  0.3822  0.7975 -0.0432
   29HTM    S1532631   4.572   2.948   3.536  0.2500 -0.1060  0.1358
   30TAL   C14532632   4.537   2.764   3.166  0.1558 -0.0904 -0.3846
   30TAL   C14632633   4.583   2.616   3.179 -0.1289 -0.9773  0.4996
   30TAL   C14732634   4.626   2.548   3.048  0.2429  0.0296 -0.4462
   30TAL   C14832635   4.760   2.600   2.993  0.0595 -0.5317  0.8994
   30TAL   C14932636   4.893   2.556   3.056  0.6116 -0.9153  0.2080
   30TAL   C15032637   5.011   2.572   2.958 -0.5249  0.2965 -0.5985
   31HTM   C15132638   4.741   2.977   3.322  0.0777  0.0013 -0.1326
   31HTM   C15232639   4.773   3.108   3.335 -0.0813  0.1046 -0.7087
   31HTM   C15332640   4.902   3.143   3.280 -0.1103  0.0126 -0.8337
   31HTM   C15432641   4.968   3.037   3.224  0.0265 -0.1609 -0.3530
   31HTM    S1632642   4.872   2.885   3.238  0.2039 -0.2218  0.3000
   32TAL   C15532643   4.968   3.285   3.288 -0.0171  0.6284  0.5823
   32TAL   C15632644   4.897   3.394   3.371 -0.1144 -1.6032  0.1091
   32TAL   C15732645   4.987   3.522   3.382  0.6648 -0.7395  0.0828
   32TAL   C15832646   5.114   3.517   3.457 -0.4246  0.2729 -0.3942
   32TAL   C15932647   5.180   3.648   3.430 -0.0089 -0.2939  0.5838
   32TAL   C16032648   5.239   3.690   3.552 -1.3955  1.4872 -1.3608
   33HTM   C16132649   5.089   3.017   3.165  0.4969 -0.1268  0.3954
   33HTM   C16232650   5.180   2.917   3.184  0.4609 -0.2356  0.0179
   33HTM   C16332651   5.289   2.918   3.090 -0.0123 -0.4675 -0.5432
   33HTM   C16432652   5.281   3.019   2.999 -0.3368 -0.5354 -0.5936
   33HTM    S1732653   5.135   3.121   3.025 -0.0680 -0.3101  0.0689
   34TAL   C16532654   5.398   2.813   3.098  0.0181  0.3886  0.1566
   34TAL   C16632655   5.465   2.787   3.237 -0.8356  0.1324 -0.8717
   34TAL   C16732656   5.556   2.893   3.304 -0.5546 -0.8909  0.9544
   34TAL   C16832657   5.680   2.947   3.232 -0.2807 -0.8289 -0.4121
   34TAL   C16932658   5.790   2.846   3.210 -0.5516  0.4409 -0.2033
   34TAL   C17032659   5.932   2.904   3.171  0.3915  0.3128 -0.6942
   35HTM   C17132660   5.359   3.044   2.882 -0.2865  0.3071 -0.1456
   35HTM   C17232661   5.483   2.999   2.848 -0.2910  0.1620  0.0260
   35HTM   C17332662   5.528   3.044   2.719 -0.0914  0.0469  0.0538
   35HTM   C17432663   5.438   3.123   2.654  0.0652  0.1043 -0.0965
   35HTM    S1832664   5.288   3.148   2.753 -0.0275  0.3096 -0.2864
   36TAL   C17532665   5.666   2.989   2.656  0.7786 -0.5359 -0.3382
   36TAL   C17632666   5.667   2.833   2.670 -0.7746 -0.4735  0.6685
   36TAL   C17732667   5.761   2.778   2.783  0.2770 -0.0681  1.3223
   36TAL   C17832668   5.727   2.637   2.806  1.2718  0.3683  0.3641
   36TAL   C17932669   5.703   2.607   2.958 -0.9310  1.0136 -0.2175
   36TAL   C18032670   5.640   2.475   3.015 -0.4909 -0.0885  0.2025
   37HTM   C18132671   5.431   3.151   2.511  0.0136  0.7837  0.1343
   37HTM   C18232672   5.317   3.156   2.437 -0.3086  1.2135  0.6508
   37HTM   C18332673   5.339   3.171   2.296 -0.8835  0.9019  0.5221
   37HTM   C18432674   5.471   3.177   2.261 -0.9996  0.2342 -0.0924
   37HTM    S1932675   5.578   3.165   2.406 -0.3869 -0.0546 -0.5600
   38TAL   C18532676   5.216   3.190   2.197 -0.2747  0.1794  0.9704
   38TAL   C18632677   5.071   3.179   2.239 -0.2021  0.2627  0.3548
   38TAL   C18732678   4.963   3.207   2.142  0.7350  0.0928 -0.1322
   38TAL   C18832679   4.824   3.165   2.184  0.5795  0.1519  0.8232
   38TAL   C18932680   4.738   3.268   2.251 -0.2406 -0.8120 -0.8765
   38TAL   C19032681   4.616   3.223   2.316  0.6508 -0.7157 -0.5727
   39HTM   C19132682   5.544   3.180   2.134  0.0531 -0.5225 -0.0482
   39HTM   C19232683   5.521   3.122   2.013  0.2283 -0.4401 -0.1221
   39HTM   C19332684   5.620   3.155   1.913  0.1937 -0.1103 -0.0498
   39HTM   C19432685   5.718   3.238   1.958 -0.0079  0.0588  0.0791
   39HTM    S2032686   5.693   3.282   2.131 -0.1711 -0.1873  0.1196
   40TAL   C19532687   5.598   3.125   1.770  0.0675 -1.0549 -0.0934
   40TAL   C19632688   5.674   2.993   1.740 -0.0460 -1.0035  0.5441
   40TAL   C19732689   5.658   2.984   1.592 -0.0874 -0.0404 -0.8602
   40TAL   C19832690   5.680   2.844   1.528  0.5457  0.1443 -0.4786
   40TAL   C19932691   5.562   2.739   1.555 -0.4722  0.0955  0.7046
   40TAL   C20032692   5.433   2.778   1.469 -0.3374  0.4853 -0.0558
   41HTM   C20132693   5.822   3.317   1.889  0.3119  0.4684  0.4674
   41HTM   C20232694   5.874   3.439   1.922  0.7286  0.3890  0.1268
   41HTM   C20332695   5.997   3.471   1.853  0.5053  0.0524 -0.4384
   41HTM   C20432696   6.038   3.373   1.767 -0.0817 -0.1250 -0.5288
   41HTM    S2132697   5.925   3.233   1.767 -0.4007  0.1212  0.0978
   42TAL   C20532698   6.059   3.607   1.882  0.0512 -0.1262  0.4539
   42TAL   C20632699   6.162   3.590   1.990 -1.3068  0.0431 -0.7313
   42TAL   C20732700   6.195   3.715   2.076  0.1186 -0.5141 -0.0557
   42TAL   C20832701   6.266   3.837   2.002 -0.9920  0.2817  0.6195
   42TAL   C20932702   6.404   3.782   1.965 -1.4523  0.2638 -0.3321
   42TAL   C21032703   6.483   3.886   1.893  0.3227  1.0656  0.4858
   43HTM   C21132704   6.139   3.382   1.662 -0.5707  0.1410  0.1374
   43HTM   C21232705   6.223   3.482   1.625 -1.4523  0.7499 -0.2695
   43HTM   C21332706   6.293   3.456   1.502 -1.4694  1.0236 -0.3389
   43HTM   C21432707   6.263   3.336   1.446 -0.6004  0.6234  0.0152
   43HTM    S2232708   6.142   3.245   1.545  0.3138 -0.1361  0.4672
   44TAL   C21532709   6.392   3.547   1.444  0.7823  0.5164 -0.0755
   44TAL   C21632710   6.529   3.546   1.515  0.1193  1.0461 -0.3276
   44TAL   C21732711   6.643   3.627   1.451  0.1814 -0.1463 -0.0241
   44TAL   C21832712   6.779   3.618   1.510 -0.5402 -0.5873 -1.0725
   44TAL   C21932713   6.803   3.691   1.649 -0.4831  0.0611  0.3578
   44TAL   C22032714   6.926   3.664   1.720 -0.8925  0.1121 -0.1984
   45HTM   C22132715   6.294   3.295   1.308  0.3955  0.1692 -0.3501
   45HTM   C22232716   6.416   3.277   1.250  0.2961  1.1733 -0.9235
   45HTM   C22332717   6.410   3.218   1.119  0.1546  1.4113 -1.0249
   45HTM   C22432718   6.284   3.191   1.076  0.1462  0.5884 -0.5290
   45HTM    S2332719   6.161   3.239   1.199  0.3178 -0.5596  0.1096
   46TAL   C22532720   6.545   3.183   1.050  0.7736 -0.0184 -0.3237
   46TAL   C22632721   6.679   3.238   1.100  1.0693 -0.4839 -0.6521
   46TAL   C22732722   6.699   3.385   1.078  0.7192  0.0959 -0.2033
   46TAL   C22832723   6.831   3.419   1.143  0.6994 -0.2904  0.6049
   46TAL   C22932724   6.859   3.564   1.092 -0.1896 -0.7957  0.0951
   46TAL   C23032725   6.961   3.644   1.186  0.0200 -0.1511  0.0413
   47HTM   C23132726   6.234   3.118   0.963 -0.4540  0.4555  0.1594
   47HTM   C23232727   6.303   3.071   0.855 -0.3815  0.6066  0.1393
   47HTM   C23332728   6.221   3.002   0.759 -0.2890  0.5898  0.0715
   47HTM   C23432729   6.089   2.997   0.794 -0.2911  0.4259  0.0401
   47HTM    S2432730   6.059   3.079   0.951 -0.4108  0.2788  0.0940
   48TAL   C23532731   6.273   2.925   0.635  0.5968 -0.1364  0.0368
   48TAL   C23632732   6.172   2.851   0.537 -1.4059 -0.9163  0.6318
   48TAL   C23732733   6.265   2.759   0.467  0.6259 -0.7605  0.1092
   48TAL   C23832734   6.197   2.673   0.359  0.4790  0.2908 -0.8262
   48TAL   C23932735   6.278   2.557   0.305  0.5460  0.1406 -0.2162
   48TAL   C24032736   6.194   2.476   0.211 -0.3337  0.3960  0.8426
    1HTM     C132737   3.548   4.337  17.493  0.1445 -0.5040 -0.3864
    1HTM     C232738   3.461   4.391  17.583 -0.2373 -0.8336 -0.5512
    1HTM     C332739   3.522   4.485  17.673 -0.6868 -0.8961 -0.1726
    1HTM     C432740   3.655   4.503  17.651 -0.6476 -0.6139  0.2805
    1HTM     S132741   3.715   4.402  17.515 -0.0352 -0.2448  0.2647
    2TAL     C532742   3.425   4.533  17.792  0.3692  1.0389  1.3012
    2TAL     C632743   3.320   4.630  17.758  0.7147 -0.4981 -0.2703
    2TAL     C732744   3.250   4.652  17.891 -0.1779 -0.9564  0.7482
    2TAL     C832745   3.126   4.759  17.872 -0.3312  0.8033  0.9518
    2TAL     C932746   2.982   4.711  17.895  0.2164 -0.2291  0.3850
    2TAL    C1032747   2.949   4.728  18.048  0.0773 -0.5592  0.0012
    3HTM    C1132748   3.745   4.611  17.686  0.0876 -0.1324 -0.0678
    3HTM    C1232749   3.847   4.673  17.620  0.6680 -0.5225  0.4382
    3HTM    C1332750   3.912   4.776  17.696  0.4857 -0.5692  0.6571
    3HTM    C1432751   3.859   4.793  17.821 -0.2338 -0.2147  0.3184
    3HTM     S232752   3.723   4.679  17.852 -0.7408  0.2090 -0.3093
    4TAL    C1532753   4.034   4.842  17.635  0.5352 -0.0855  0.5596
    4TAL    C1632754   4.069   4.819  17.490 -0.6018 -0.8316 -1.0303
    4TAL    C1732755   4.215   4.862  17.447 -0.4778 -1.0712 -0.2090
    4TAL    C1832756   4.330   4.771  17.457  0.4517 -0.6146  0.5495
    4TAL    C1932757   4.380   4.743  17.594 -0.5466  0.4725  0.9495
    4TAL    C2032758   4.506   4.657  17.556 -0.2464 -0.0117 -0.2038
    5HTM    C2132759   3.915   4.866  17.933  0.2541 -0.7073  0.3001
    5HTM    C2232760   3.857   4.980  17.982 -0.3852 -1.3192  1.0056
    5HTM    C2332761   3.945   5.059  18.064 -0.6925 -1.1046  1.1315
    5HTM    C2432762   4.070   5.007  18.076 -0.2875 -0.3290  0.5215
    5HTM     S332763   4.087   4.852  17.986  0.5197  0.1945 -0.2647
    6TAL    C2532764   3.889   5.195  18.116  0.0029  0.0818  0.1161
    6TAL    C2632765   3.785   5.186  18.225  0.4039 -0.0295  0.2144
    6TAL    C2732766   3.732   5.317  18.292  1.0723 -0.8005  0.5962
    6TAL    C2832767   3.612   5.362  18.211  0.4277 -1.0709  0.0584
    6TAL    C2932768   3.520   5.465  18.278  0.2554 -0.1803  0.3669
    6TAL    C3032769   3.580   5.595  18.309  0.5647 -0.4169  0.5675
    7HTM    C3132770   4.187   5.065  18.137 -0.3561  0.2283  0.0629
    7HTM    C3232771   4.293   4.993  18.184 -0.5572 -0.0087  0.1531
    7HTM    C3332772   4.392   5.072  18.253 -0.6242 -0.2847  0.5765
    7HTM    C3432773   4.361   5.205  18.258 -0.4742 -0.2581  0.8098
    7HTM     S432774   4.205   5.240  18.176 -0.2348  0.1205  0.5106
    8TAL    C3532775   4.529   5.008  18.289  0.5532  0.0786 -0.1417
    8TAL    C3632776   4.510   4.931  18.427 -0.1130 -1.0206  1.0174
    8TAL    C3732777   4.627   4.851  18.466  0.3142 -0.0176 -0.6874
    8TAL    C3832778   4.606   4.765  18.599  0.1975 -0.3625  0.6324
    8TAL    C3932779   4.747   4.707  18.624  0.2460  0.3322 -0.8526
    8TAL    C4032780   4.744   4.556  18.656 -0.7466  0.1772 -0.0989
    9HTM    C4132781   4.417   5.321  18.329  0.3324 -0.5692 -0.2204
    9HTM    C4232782   4.380   5.450  18.310 -0.1413 -0.7058 -0.2532
    9HTM    C4332783   4.457   5.545  18.387 -0.5878 -0.4146 -0.1550
    9HTM    C4432784   4.553   5.487  18.465 -0.4546 -0.0559 -0.0470
    9HTM     S532785   4.554   5.307  18.446  0.2507 -0.0583 -0.0620
   10TAL    C4532786   4.422   5.686  18.404  0.0165 -0.6309  0.1559
   10TAL    C4632787   4.441   5.777  18.276  1.2394  0.5255  0.4935
   10TAL    C4732788   4.423   5.929  18.301 -0.2661  0.0154 -0.0058
   10TAL    C4832789   4.324   5.986  18.398  0.2461 -0.2387  0.7051
   10TAL    C4932790   4.370   6.110  18.480  0.6916 -0.5910 -0.5125
   10TAL    C5032791   4.498   6.102  18.562  0.3638  0.2927  0.1979
   11HTM    C5132792   4.669   5.532  18.553 -0.2177 -0.5143  0.7649
   11HTM    C5232793   4.695   5.640  18.631 -0.0712 -0.7049  0.9832
   11HTM    C5332794   4.828   5.642  18.686  0.1596 -0.6504  0.4301
   11HTM    C5432795   4.904   5.535  18.649  0.1892 -0.4184 -0.2091
   11HTM     S632796   4.812   5.423  18.542 -0.0741 -0.2493 -0.1628
   12TAL    C5532797   4.854   5.774  18.771 -0.3635 -0.1186  0.0151
   12TAL    C5632798   4.975   5.875  18.729  0.9767  0.4770 -0.8666
   12TAL    C5732799   4.970   5.964  18.603  0.7020  0.7281  0.5926
   12TAL    C5832800   4.898   6.100  18.622 -1.3727 -0.2489  0.6837
   12TAL    C5932801   4.929   6.213  18.500 -0.1770  0.2959 -1.4949
   12TAL    C6032802   4.897   6.353  18.534  0.2505 -0.0334 -0.0850
   13HTM    C6132803   5.040   5.486  18.684  0.1675 -0.1873 -0.0508
   13HTM    C6232804   5.124   5.398  18.623  0.7756  0.2955  0.0749
   13HTM    C6332805   5.243   5.370  18.700  0.7125  0.7982  0.3667
   13HTM    C6432806   5.249   5.436  18.818  0.0567  0.6984  0.4637
   13HTM     S732807   5.104   5.541  18.843 -0.5370 -0.0438  0.1914
   14TAL    C6532808   5.346   5.271  18.640  0.1458 -0.0156  0.2977
   14TAL    C6632809   5.338   5.234  18.489  0.7691 -0.1015  0.1044
   14TAL    C6732810   5.431   5.122  18.453 -0.3879 -0.0530  0.4213
   14TAL    C6832811   5.412   4.994  18.517  1.6975  0.6041  0.0241
   14TAL    C6932812   5.523   4.891  18.494 -0.2099  0.6594  0.1370
   14TAL    C7032813   5.468   4.738  18.513 -0.5110  0.4635  0.9348
   15HTM    C7132814   5.337   5.403  18.926 -0.0898 -0.2400  0.3484
   15HTM    C7232815   5.308   5.333  19.039  0.3668 -0.4017  0.3691
   15HTM    C7332816   5.418   5.325  19.132  0.6505 -0.2843  0.0467
   15HTM    C7432817   5.530   5.389  19.089  0.4104 -0.0328 -0.2191
   15HTM     S832818   5.506   5.465  18.927 -0.1976  0.0759 -0.0823
   16TAL    C7532819   5.398   5.237  19.255 -0.0369 -0.2033  0.0155
   16TAL    C7632820   5.290   5.252  19.355  0.7109 -0.1841  0.6106
   16TAL    C7732821   5.247   5.401  19.392  0.2540  0.0546 -0.3446
   16TAL    C7832822   5.361   5.488  19.455  0.7234  0.1915  1.5085
   16TAL    C7932823   5.439   5.426  19.567 -0.5965 -1.0841  0.1449
   16TAL    C8032824   5.442   5.513  19.695 -0.2796 -0.0612  0.2191
   17HTM    C8132825   5.663   5.393  19.139 -0.3011 -0.0179 -0.0415
   17HTM    C8232826   5.711   5.423  19.263  0.0383 -0.3510 -0.0849
   17HTM    C8332827   5.853   5.447  19.267  0.0328 -0.2563 -0.4301
   17HTM    C8432828   5.913   5.435  19.145 -0.3105  0.1491 -0.6508
   17HTM     S932829   5.795   5.392  19.016 -0.6565  0.4450 -0.4371
   18TAL    C8532830   5.930   5.492  19.393 -0.9232  0.2642  0.4679
   18TAL    C8632831   5.924   5.402  19.517  0.1631  0.0577  0.2380
   18TAL    C8732832   5.993   5.443  19.651 -0.0515  0.7754  0.1203
   18TAL    C8832833   6.143   5.467  19.621  0.4339 -1.0220  1.1075
   18TAL    C8932834   6.245   5.514  19.733  0.0808 -0.2721  0.3292
   18TAL    C9032835   6.253   5.409  19.844  0.4468 -0.5505 -0.1641
   19HTM    C9132836   6.054   5.443  19.108 -0.0770  0.3442 -0.0959
   19HTM    C9232837   6.093   5.459  18.978  0.0682  0.8384  0.0014
   19HTM    C9332838   6.235   5.480  18.963  0.1031  0.7800  0.2337
   19HTM    C9432839   6.303   5.481  19.081 -0.0157  0.2412  0.3126
   19HTM    S1032840   6.194   5.455  19.222 -0.1819 -0.2380  0.0981
   20TAL    C9532841   6.295   5.498  18.828 -0.1493 -0.1975 -0.4617
   20TAL    C9632842   6.261   5.429  18.703  0.2421  0.7299 -0.0574
   20TAL    C9732843   6.393   5.453  18.619  0.5191 -0.0729 -1.1358
   20TAL    C9832844   6.385   5.426  18.472  0.6945  0.9580 -0.3109
   20TAL    C9932845   6.518   5.434  18.403 -0.4117  0.1900 -0.7877
   20TAL   C10032846   6.507   5.435  18.253  0.4298  0.2180 -0.3982
   21HTM   C10132847   6.444   5.500  19.113  0.4086  0.1622 -0.0464
   21HTM   C10232848   6.528   5.602  19.079  0.3191  0.4101  0.4497
   21HTM   C10332849   6.651   5.602  19.153  0.0761  0.5040  0.8574
   21HTM   C10432850   6.661   5.500  19.244 -0.0195  0.3277  0.6726
   21HTM    S1132851   6.513   5.396  19.242  0.1915  0.0269 -0.0369
   22TAL   C10532852   6.763   5.706  19.149  1.0763  0.6283  0.2081
   22TAL   C10632853   6.793   5.759  19.009  0.4293 -0.3069 -0.0055
   22TAL   C10732854   6.918   5.845  19.015 -0.2929  0.3252  0.2390
   22TAL   C10832855   7.037   5.817  18.918 -0.2732 -0.6975 -0.8474
   22TAL   C10932856   7.179   5.858  18.953  0.9597 -0.5416 -0.0110
   22TAL   C11032857   7.278   5.864  18.834  0.3191 -0.2198 -0.2604
   23HTM   C11132858   6.768   5.445  19.327 -0.0120 -0.3067 -0.0833
   23HTM   C11232859   6.873   5.504  19.392 -0.1547 -0.0521 -0.0815
   23HTM   C11332860   6.944   5.414  19.479 -0.1040  0.1886  0.1283
   23HTM   C11432861   6.894   5.287  19.480  0.0772  0.1178  0.2853
   23HTM    S1232862   6.752   5.271  19.371  0.1988 -0.2617  0.1797
   24TAL   C11532863   7.050   5.461  19.580  0.0500 -1.0923 -0.2810
   24TAL   C11632864   7.194   5.465  19.539 -0.1655 -0.1220  0.9754
   24TAL   C11732865   7.299   5.540  19.615  0.9280  0.1019 -0.3846
   24TAL   C11832866   7.274   5.683  19.649  0.1697 -1.3454  0.2516
   24TAL   C11932867   7.333   5.725  19.776 -0.5366 -0.7543  0.7760
   24TAL   C12032868   7.311   5.881  19.806 -0.6825 -0.4832 -0.0036
   25HTM   C12132869   6.947   5.159  19.534 -0.0869  0.2149  0.5242
   25HTM   C12232870   7.076   5.121  19.555 -0.0144  0.1520 -0.0153
   25HTM   C12332871   7.090   4.983  19.594  0.1545 -0.0782 -0.8402
   25HTM   C12432872   6.972   4.916  19.603  0.2107 -0.1908 -0.9302
   25HTM    S1332873   6.832   5.023  19.563  0.0532 -0.0134  0.0276
   26TAL   C12532874   7.220   4.924  19.649 -1.4354  1.4604  0.1454
   26TAL   C12632875   7.357   4.995  19.659  0.1416 -0.7312 -0.4006
   26TAL   C12732876   7.360   5.128  19.750 -0.5105  0.0917 -0.3836
   26TAL   C12832877   7.475   5.230  19.775  0.5923  0.6003 -0.0887
   26TAL   C12932878   7.603   5.169  19.841  0.1028  0.4496  0.0399
   26TAL   C13032879   7.680   5.285  19.888 -0.9604  0.0001 -0.1590
   27HTM   C13132880   6.943   4.774  19.609 -0.3489  0.0885 -0.1119
   27HTM   C13232881   6.975   4.674  19.523 -0.3672  0.1435 -0.1826
   27HTM   C13332882   6.956   4.542  19.578 -0.4177  0.1068 -0.2856
   27HTM   C13432883   6.910   4.543  19.707 -0.4377  0.0239 -0.2923
   27HTM    S1432884   6.886   4.711  19.768 -0.3941 -0.0148 -0.1686
   28TAL   C13532885   6.946   4.419  19.476 -0.1487 -0.6539 -1.0387
   28TAL   C13632886   7.037   4.396  19.361  1.2236  0.4072 -0.3917
   28TAL   C13732887   6.975   4.313  19.249  0.0263 -0.3691  0.2116
   28TAL   C13832888   7.065   4.317  19.128  0.1219  0.0549 -0.1697
   28TAL   C13932889   7.003   4.250  19.011  0.1163 -0.6796  0.0048
   28TAL   C14032890   7.093   4.171  18.930  0.5669  0.1125 -0.8371
   29HTM   C14132891   6.835   4.429  19.770 -0.8676 -0.4710 -0.3757
   29HTM   C14232892   6.700   4.428  19.791 -0.8924 -1.1613 -0.5441
   29HTM   C14332893   6.653   4.308  19.856 -0.3417 -1.3422 -0.4687
   29HTM   C14432894   6.752   4.219  19.885  0.1033 -0.7898 -0.2415
   29HTM    S1532895   6.914   4.279  19.831 -0.1408  0.0080 -0.1050
   30TAL   C14532896   6.506   4.283  19.877 -0.1418  0.5442  0.3515
   30TAL   C14632897   6.446   4.325  20.008 -0.4375  0.3660 -0.4057
   30TAL   C14732898   6.297   4.342  20.034  0.0415 -0.5597  0.1662
   30TAL   C14832899   6.209   4.223  20.039  0.3900 -0.8421 -0.6389
   30TAL   C14932900   6.176   4.142  19.911  0.6112 -0.9723  0.0099
   30TAL   C15032901   6.094   4.023  19.949 -0.7982 -0.0727 -0.6917
   31HTM   C15132902   6.758   4.082  19.938 -0.2733 -0.8332  0.5911
   31HTM   C15232903   6.802   4.026  20.055 -1.0424 -1.2470  0.6962
   31HTM   C15332904   6.798   3.882  20.055 -1.2460 -1.2463  0.2408
   31HTM   C15432905   6.752   3.828  19.939 -0.6319 -0.8318 -0.2118
   31HTM    S1632906   6.708   3.956  19.819  0.2578 -0.4070 -0.0975
   32TAL   C15532907   6.855   3.794  20.162 -1.0621  0.1574  1.2671
   32TAL   C15632908   6.859   3.836  20.301  0.7877 -0.5354 -0.7241
   32TAL   C15732909   6.719   3.870  20.362 -0.2275  0.5536  0.5782
   32TAL   C15832910   6.612   3.756  20.379 -0.0882 -1.2199 -0.3675
   32TAL   C15932911   6.488   3.832  20.436 -0.8927  0.1307 -0.0208
   32TAL   C16032912   6.449   3.768  20.565  0.4772  0.8500 -0.3231
   33HTM   C16132913   6.726   3.694  19.894  0.1400  0.0842 -1.1628
   33HTM   C16232914   6.813   3.591  19.876  0.3771  0.4355 -2.2025
   33HTM   C16332915   6.750   3.466  19.841  0.4848  0.2527 -1.7591
   33HTM   C16432916   6.614   3.475  19.832  0.3298 -0.2381 -0.3818
   33HTM    S1732917   6.555   3.642  19.867  0.0335 -0.5094  0.4692
   34TAL   C16532918   6.838   3.345  19.828 -0.3025 -0.4122  0.1696
   34TAL   C16632919   6.878   3.330  19.690 -1.0150  0.2835 -0.2848
   34TAL   C16732920   7.019   3.286  19.657  1.6050  0.0604 -0.3941
   34TAL   C16832921   7.029   3.303  19.509 -0.1209  0.7304  0.5246
   34TAL   C16932922   7.165   3.259  19.463 -0.7434 -0.3038 -0.6165
   34TAL   C17032923   7.217   3.361  19.362 -0.3532 -0.0327 -0.8876
   35HTM   C17132924   6.511   3.374  19.817 -0.0995  0.1663 -0.1768
   35HTM   C17232925   6.520   3.241  19.842  0.1704  0.1994 -0.0896
   35HTM   C17332926   6.395   3.170  19.825  0.3574 -0.0969 -0.2432
   35HTM   C17432927   6.292   3.250  19.787  0.2300 -0.3559 -0.4460
   35HTM    S1832928   6.343   3.422  19.770 -0.1387 -0.2449 -0.4598
   36TAL   C17532929   6.383   3.027  19.876  1.1330  0.6595  0.6690
   36TAL   C17632930   6.485   2.928  19.824 -0.7561 -0.7565  0.4839
   36TAL   C17732931   6.456   2.906  19.677 -0.0686 -0.7656  1.2639
   36TAL   C17832932   6.525   2.799  19.588  0.5210  0.6177  0.4929
   36TAL   C17932933   6.437   2.740  19.479 -0.8963 -0.4721  0.1417
   36TAL   C18032934   6.504   2.686  19.355  0.0085  0.5072 -0.3443
   37HTM   C18132935   6.150   3.222  19.763 -0.1387  0.1905  0.0504
   37HTM   C18232936   6.089   3.105  19.732 -0.2232  0.2214  0.0992
   37HTM   C18332937   5.946   3.115  19.719 -0.2084  0.3338  0.0253
   37HTM   C18432938   5.898   3.241  19.741 -0.1126  0.3886 -0.0793
   37HTM    S1932939   6.031   3.357  19.779 -0.0331  0.3019 -0.0931
   38TAL   C18532940   5.858   2.993  19.688 -0.2808 -0.2627 -0.5868
   38TAL   C18632941   5.872   2.877  19.798 -0.0499 -0.0239 -1.0896
   38TAL   C18732942   5.781   2.754  19.796 -0.2968 -1.2144  0.2839
   38TAL   C18832943   5.627   2.771  19.802  0.5054  1.1446  1.1045
   38TAL   C18932944   5.557   2.864  19.890 -0.1803  0.4935 -0.0111
   38TAL   C19032945   5.407   2.897  19.871  0.1131  0.1024  0.0048
   39HTM   C19132946   5.763   3.298  19.741  0.2969 -0.5255 -0.5991
   39HTM   C19232947   5.735   3.427  19.777  0.8132 -0.2307 -1.1935
   39HTM   C19332948   5.597   3.464  19.756  0.9406  0.1979 -1.2841
   39HTM   C19432949   5.521   3.364  19.703  0.5210  0.2300 -0.7578
   39HTM    S2032950   5.618   3.214  19.676 -0.0719 -0.2824 -0.1031
   40TAL   C19532951   5.562   3.606  19.797  0.1810 -0.0366 -0.5658
   40TAL   C19632952   5.549   3.622  19.954  0.0780 -0.0235  0.2447
   40TAL   C19732953   5.519   3.770  20.003 -0.8908  0.9970 -0.9214
   40TAL   C19832954   5.484   3.787  20.154  0.1657  0.5557  0.6041
   40TAL   C19932955   5.443   3.926  20.186  0.1446  0.6337 -0.8796
   40TAL   C20032956   5.442   3.943  20.338  0.0492 -0.5166  0.5385
   41HTM   C20132957   5.379   3.353  19.675  0.1510 -0.6275 -0.7019
   41HTM   C20232958   5.298   3.244  19.688  0.3335 -0.7746 -0.7987
   41HTM   C20332959   5.161   3.267  19.650  0.1829 -0.8289 -0.3109
   41HTM   C20432960   5.138   3.395  19.607 -0.1148 -0.7233  0.1563
   41HTM    S2132961   5.287   3.495  19.613 -0.2283 -0.5456  0.0169
   42TAL   C20532962   5.054   3.172  19.680  0.0974  0.1200 -0.0830
   42TAL   C20632963   4.939   3.195  19.777 -0.2008  0.1595 -0.2358
   42TAL   C20732964   4.886   3.080  19.859  0.3563  0.1626 -0.1808
   42TAL   C20832965   4.986   2.978  19.921 -0.0983  0.4505  0.5597
   42TAL   C20932966   4.908   2.872  19.995 -0.0992  0.7397 -0.3145
   42TAL   C21032967   4.818   2.908  20.110  1.0340 -0.9418  0.1340
   43HTM   C21132968   5.010   3.458  19.584 -0.2935 -0.0966  0.9224
   43HTM   C21232969   4.962   3.575  19.634 -0.5614 -0.2589  1.0490
   43HTM   C21332970   4.848   3.627  19.563 -0.3142 -0.1400  0.7396
   43HTM   C21432971   4.810   3.549  19.458  0.1421  0.1128  0.3772
   43HTM    S2232972   4.915   3.403  19.441  0.2963  0.2213  0.3986
   44TAL   C21532973   4.780   3.753  19.600  0.8911 -0.6020  0.9277
   44TAL   C21632974   4.705   3.757  19.731 -0.7484  0.3461 -0.0534
   44TAL   C21732975   4.633   3.886  19.755  0.0674 -0.6139  0.2207
   44TAL   C21832976   4.573   3.922  19.887  0.4636 -0.2311 -1.4295
   44TAL   C21932977   4.535   4.070  19.919  0.1840 -0.2082 -0.3424
   44TAL   C22032978   4.641   4.173  19.879 -0.3559  0.4746  0.0040
   45HTM   C22132979   4.692   3.554  19.374  0.6204  0.9699 -0.2722
   45HTM   C22232980   4.641   3.452  19.300  0.6627  0.5686  0.2456
   45HTM   C22332981   4.523   3.487  19.225  0.1954 -0.0726  0.6552
   45HTM   C22432982   4.485   3.617  19.242 -0.2034 -0.1604  0.4495
   45HTM    S2332983   4.596   3.705  19.354 -0.0179  0.5658 -0.2832
   46TAL   C22532984   4.477   3.383  19.137  1.0183  0.4224  0.4234
   46TAL   C22632985   4.386   3.273  19.209 -0.3361  0.3052  1.3112
   46TAL   C22732986   4.346   3.158  19.118 -0.0205 -0.3044  0.2866
   46TAL   C22832987   4.264   3.202  19.001  0.7864  0.4822 -0.2106
   46TAL   C22932988   4.208   3.091  18.909 -0.3305 -0.9675  0.4149
   46TAL   C23032989   4.163   2.955  18.962 -0.8173  0.4830  0.3594
   47HTM   C23132990   4.391   3.696  19.164 -0.3610 -0.1453  0.1564
   47HTM   C23232991   4.361   3.825  19.198 -0.6462 -0.3102  0.5531
   47HTM   C23332992   4.276   3.891  19.103 -0.4431 -0.0762  0.5312
   47HTM   C23432993   4.239   3.813  18.998 -0.0029  0.2671  0.1183
   47HTM    S2432994   4.311   3.648  19.009  0.1906  0.3221 -0.2783
   48TAL   C23532995   4.248   4.042  19.122  0.8609 -0.1641  1.3230
   48TAL   C23632996   4.128   4.114  19.052 -0.2983  0.5751 -0.3095
   48TAL   C23732997   4.054   4.234  19.110 -0.7141  1.0669 -0.0634
   48TAL   C23832998   4.009   4.258  19.252 -0.2941 -0.3674 -0.1960
   48TAL   C23932999   3.951   4.153  19.341  0.2518  0.4964 -0.4016
   48TAL   C24033000   3.884   4.209  19.472  0.1060  0.7888 -0.1703
    1HTM     C133001   4.130   5.925  20.305  0.2514 -0.2150  0.0982
    1HTM     C233002   4.218   5.895  20.206  0.1470 -0.2375  0.0129
    1HTM     C333003   4.214   5.757  20.164 -0.1564 -0.1646 -0.2089
    1HTM     C433004   4.123   5.682  20.233 -0.2833 -0.0868 -0.2928
    1HTM     S133005   4.034   5.781  20.355 -0.0275 -0.0998 -0.0956
    2TAL     C533006   4.311   5.713  20.054  0.3285  0.0979 -0.1538
    2TAL     C633007   4.457   5.751  20.067 -0.7881 -0.5640  0.1957
    2TAL     C733008   4.533   5.747  19.938 -0.6436 -0.3057  0.0609
    2TAL     C833009   4.676   5.788  19.940  0.0328 -0.6098 -0.1511
    2TAL     C933010   4.767   5.685  20.013  0.1720 -0.4273  0.3500
    2TAL    C1033011   4.916   5.708  19.981  1.0442  0.3123  0.3768
    3HTM    C1133012   4.090   5.542  20.228 -0.3441 -0.0123  0.1991
    3HTM    C1233013   4.001   5.481  20.312 -0.5981 -0.1922 -0.1945
    3HTM    C1333014   3.969   5.346  20.274 -0.3647 -0.1661 -0.4916
    3HTM    C1433015   4.033   5.304  20.161  0.0671  0.0336 -0.3240
    3HTM     S233016   4.140   5.432  20.094  0.2138  0.2055  0.2254
    4TAL    C1533017   3.862   5.271  20.364 -0.2622  0.2658 -0.5798
    4TAL    C1633018   3.940   5.161  20.435 -0.6977  0.0518  0.9377
    4TAL    C1733019   3.846   5.093  20.533 -0.4535 -0.0533 -0.7319
    4TAL    C1833020   3.861   4.941  20.565  0.9728  0.4804 -0.1042
    4TAL    C1933021   3.915   4.846  20.467  0.0967 -0.2726 -0.2165
    4TAL    C2033022   3.819   4.801  20.358  0.7000 -0.5456 -0.8697
    5HTM    C2133023   4.023   5.171  20.107  0.0598 -0.0186  0.4875
    5HTM    C2233024   4.129   5.115  20.041  0.1216 -0.1221  0.6719
    5HTM    C2333025   4.101   4.986  19.984  0.1515 -0.1773  0.7806
    5HTM    C2433026   3.973   4.943  20.006  0.1127 -0.1158  0.6780
    5HTM     S333027   3.878   5.063  20.102  0.0345  0.0176  0.4352
    6TAL    C2533028   4.194   4.917  19.896  0.3851  0.0128  0.0109
    6TAL    C2633029   4.351   4.932  19.899  0.6872 -1.2981 -1.0312
    6TAL    C2733030   4.438   4.920  20.027 -0.2073 -0.9915  0.0662
    6TAL    C2833031   4.429   4.811  20.125  0.0119 -0.1205 -0.2048
    6TAL    C2933032   4.485   4.864  20.258 -0.2696  0.4689 -0.0904
    6TAL    C3033033   4.539   4.759  20.356 -0.4372  0.1954  1.5126
    7HTM    C3133034   3.902   4.819  19.963  0.1208 -0.8219  0.1569
    7HTM    C3233035   3.951   4.692  19.976 -0.7254 -1.0991  0.8516
    7HTM    C3333036   3.852   4.590  19.959 -1.2813 -0.5424  0.6714
    7HTM    C3433037   3.727   4.638  19.933 -0.8590  0.1592 -0.1598
    7HTM     S433038   3.725   4.818  19.928  0.2824  0.1715 -0.7845
    8TAL    C3533039   3.913   4.442  19.962  0.8227 -0.9936 -0.6208
    8TAL    C3633040   4.059   4.433  19.904  0.1092  1.1937  0.8891
    8TAL    C3733041   4.072   4.438  19.755 -0.3059  0.1868 -0.1801
    8TAL    C3833042   4.197   4.373  19.693  0.5777 -1.0779 -0.5075
    8TAL    C3933043   4.247   4.445  19.570 -0.6511 -0.1906  0.3127
    8TAL    C4033044   4.359   4.375  19.494  0.1965  0.0147 -0.1934
    9HTM    C4133045   3.605   4.564  19.920 -0.1961  0.2046 -0.3758
    9HTM    C4233046   3.478   4.589  19.963 -0.3490  0.0814 -0.7505
    9HTM    C4333047   3.380   4.496  19.912 -0.0725 -0.1630 -0.8416
    9HTM    C4433048   3.433   4.400  19.831  0.2913 -0.2263 -0.5363
    9HTM     S533049   3.611   4.419  19.812  0.3129  0.0198 -0.1064
   10TAL    C4533050   3.236   4.496  19.962 -0.9829 -0.0594 -0.2423
   10TAL    C4633051   3.149   4.602  19.890  0.5299 -0.4946  0.1646
   10TAL    C4733052   3.009   4.628  19.952 -0.1106 -0.7038  0.6006
   10TAL    C4833053   3.004   4.649  20.097  1.2556  0.4767  0.1214
   10TAL    C4933054   2.867   4.693  20.155 -0.5756  0.9370 -0.5550
   10TAL    C5033055   2.873   4.703  20.306 -0.9081 -0.1065 -0.3348
   11HTM    C5133056   3.377   4.300  19.748 -0.7738  0.6272 -0.2300
   11HTM    C5233057   3.424   4.256  19.628 -0.5720  0.7272 -0.1898
   11HTM    C5333058   3.347   4.148  19.572  0.1101  0.0814  0.0744
   11HTM    C5433059   3.241   4.111  19.649  0.4285 -0.5107  0.2347
   11HTM     S633060   3.231   4.209  19.800 -0.1128 -0.2972  0.0634
   12TAL    C5533061   3.388   4.092  19.434 -0.0383 -0.7706  0.0232
   12TAL    C5633062   3.507   4.008  19.419 -0.3925  0.6918 -0.3263
   12TAL    C5733063   3.542   3.977  19.273 -0.2282  1.3430 -0.0887
   12TAL    C5833064   3.683   3.903  19.255  0.3516 -0.8012 -0.0350
   12TAL    C5933065   3.679   3.811  19.128 -0.3262 -0.0410 -0.2540
   12TAL    C6033066   3.776   3.698  19.162  0.1102 -0.5401 -0.2720
   13HTM    C6133067   3.127   4.024  19.637 -0.1086  0.4037 -0.1864
   13HTM    C6233068   3.025   4.009  19.727 -0.1650  0.4774 -0.2375
   13HTM    C6333069   2.932   3.905  19.692  0.0464  0.2167 -0.0391
   13HTM    C6433070   2.961   3.841  19.576  0.2642 -0.0559  0.1640
   13HTM     S733071   3.111   3.908  19.500  0.2185 -0.0039  0.1190
   14TAL    C6533072   2.814   3.858  19.778  0.0597 -0.4717  0.6913
   14TAL    C6633073   2.815   3.898  19.932 -1.2311  0.7768 -0.4341
   14TAL    C6733074   2.689   3.845  20.018 -0.5251  0.2651 -0.3522
   14TAL    C6833075   2.670   3.705  20.001  0.0038  0.3436 -0.7033
   14TAL    C6933076   2.528   3.652  20.014  0.4428  0.4740 -0.6604
   14TAL    C7033077   2.524   3.496  19.999 -0.3180 -0.4269  0.3846
   15HTM    C7133078   2.887   3.740  19.506 -0.6234 -0.2179  0.1416
   15HTM    C7233079   2.791   3.649  19.538 -0.6551 -0.2484 -0.0386
   15HTM    C7333080   2.757   3.560  19.430 -0.5261 -0.1669 -0.1473
   15HTM    C7433081   2.828   3.583  19.316 -0.3962 -0.0743 -0.0488
   15HTM     S833082   2.943   3.720  19.336 -0.4268 -0.0828  0.1891
   16TAL    C7533083   2.642   3.458  19.443  0.3120 -0.7614 -0.4784
   16TAL    C7633084   2.664   3.334  19.534  0.4400 -1.0220 -0.6279
   16TAL    C7733085   2.619   3.357  19.680  0.6467 -0.4338  1.2490
   16TAL    C7833086   2.581   3.228  19.756 -0.9238  0.0269  0.7745
   16TAL    C7933087   2.686   3.132  19.817 -1.0537 -0.5407 -0.1433
   16TAL    C8033088   2.805   3.093  19.729 -0.9358  0.3114 -0.1747
   17HTM    C8133089   2.842   3.519  19.191 -0.2615  0.0058  0.0696
   17HTM    C8233090   2.930   3.546  19.090 -0.1603 -0.0917  0.1297
   17HTM    C8333091   2.946   3.438  18.997 -0.0930 -0.1695  0.2313
   17HTM    C8433092   2.871   3.328  19.027 -0.1428 -0.1312  0.2490
   17HTM     S933093   2.773   3.353  19.176 -0.2798  0.0071  0.1369
   18TAL    C8533094   3.024   3.453  18.876  0.0410  0.4711  0.2432
   18TAL    C8633095   2.942   3.502  18.744 -0.4319  0.5768  0.0416
   18TAL    C8733096   3.002   3.485  18.601  0.0022  0.4940 -0.2914
   18TAL    C8833097   2.909   3.513  18.488  0.7359 -0.5159  0.6018
   18TAL    C8933098   2.785   3.415  18.483  0.3667  0.0739  0.2177
   18TAL    C9033099   2.793   3.266  18.442 -0.0406  0.1922 -0.5995
   19HTM    C9133100   2.859   3.198  18.959 -0.2741  0.0463 -0.2071
   19HTM    C9233101   2.960   3.121  18.909 -0.1779 -0.1391  0.2627
   19HTM    C9333102   2.917   2.994  18.859 -0.0545 -0.4021  0.8135
   19HTM    C9433103   2.783   2.973  18.871 -0.0567 -0.4173  0.7641
   19HTM    S1033104   2.700   3.114  18.947 -0.2158 -0.0980  0.0117
   20TAL    C9533105   3.022   2.904  18.801  0.5234 -0.0048 -0.3004
   20TAL    C9633106   3.108   2.839  18.894 -1.2590 -0.1299 -0.4212
   20TAL    C9733107   3.232   2.794  18.816 -0.5983 -0.9810 -0.6043
   20TAL    C9833108   3.324   2.730  18.918  0.4403  0.2702  0.4860
   20TAL    C9933109   3.454   2.655  18.869 -1.3261  0.1104 -0.1306
   20TAL   C10033110   3.534   2.609  18.982 -1.0152  0.1518 -0.5406
   21HTM   C10133111   2.701   2.875  18.802 -0.3504  0.1372 -0.2424
   21HTM   C10233112   2.646   2.890  18.678 -0.1994 -0.1254 -0.3462
   21HTM   C10333113   2.596   2.768  18.621  0.5170 -0.3738 -0.4592
   21HTM   C10433114   2.613   2.659  18.701  0.9122 -0.3005 -0.4425
   21HTM    S1133115   2.695   2.703  18.856  0.4064  0.0909 -0.2811
   22TAL   C10533116   2.527   2.756  18.480  0.5464 -0.4626 -0.3856
   22TAL   C10633117   2.378   2.804  18.488  0.2209  0.5063  1.4746
   22TAL   C10733118   2.303   2.824  18.351 -0.0251  0.6812 -0.0409
   22TAL   C10833119   2.298   2.709  18.254 -0.3033  0.4647  0.9944
   22TAL   C10933120   2.222   2.591  18.294  0.4038  1.0565 -0.3145
   22TAL   C11033121   2.241   2.464  18.194  0.1277 -0.2064  0.4189
   23HTM   C11133122   2.569   2.518  18.676 -0.4047  0.4583 -0.0161
   23HTM   C11233123   2.532   2.459  18.559 -0.4347  0.4758 -0.0157
   23HTM   C11333124   2.500   2.319  18.573  0.1500  0.3251 -0.1388
   23HTM   C11433125   2.513   2.272  18.701  0.6257  0.1929 -0.2326
   23HTM    S1233126   2.567   2.402  18.814  0.3702  0.2487 -0.1730
   24TAL   C11533127   2.441   2.240  18.464 -0.6933  0.0982 -0.3115
   24TAL   C11633128   2.500   2.253  18.325 -0.0936  1.3520  0.2316
   24TAL   C11733129   2.424   2.153  18.232  1.1601 -0.6034  0.0884
   24TAL   C11833130   2.420   2.005  18.272  0.1406  1.3997 -0.0317
   24TAL   C11933131   2.325   1.944  18.165 -1.1273  0.3928 -0.4920
   24TAL   C12033132   2.273   1.814  18.199  0.1656  0.7623  0.9418
   25HTM   C12133133   2.476   2.139  18.762  0.0060  0.1509 -0.6083
   25HTM   C12233134   2.439   2.119  18.892 -0.0981  0.4203 -0.5941
   25HTM   C12333135   2.419   1.980  18.926  0.1772  0.4627 -0.2422
   25HTM   C12433136   2.441   1.895  18.821  0.4913  0.2256  0.0126
   25HTM    S1333137   2.488   1.984  18.672  0.4634 -0.0718 -0.1739
   26TAL   C12533138   2.374   1.949  19.061  1.6965 -0.2285 -0.1022
   26TAL   C12633139   2.242   2.023  19.084 -0.1533  0.7211  0.5679
   26TAL   C12733140   2.236   2.139  19.183 -0.2138 -0.0087  0.3031
   26TAL   C12833141   2.104   2.229  19.177 -0.4872  0.4270 -0.3230
   26TAL   C12933142   2.071   2.322  19.297 -0.0929 -0.0903 -0.6709
   26TAL   C13033143   2.052   2.264  19.444  0.1272  0.8156 -0.7919
   27HTM   C13133144   2.431   1.751  18.800 -0.1047  0.1342 -0.4738
   27HTM   C13233145   2.455   1.662  18.901  0.2661  0.4369 -0.2913
   27HTM   C13333146   2.430   1.525  18.864  0.3645  0.3010  0.1392
   27HTM   C13433147   2.386   1.510  18.736  0.0689 -0.1054  0.2858
   27HTM    S1433148   2.373   1.668  18.651 -0.3604 -0.3498 -0.1120
   28TAL   C13533149   2.468   1.411  18.956  0.4333 -0.4465  0.5778
   28TAL   C13633150   2.413   1.429  19.093  1.4342 -0.7550 -0.4191
   28TAL   C13733151   2.446   1.303  19.175 -0.7380 -1.6631 -1.1437
   28TAL   C13833152   2.361   1.187  19.192  0.7019  0.5903  0.8920
   28TAL   C13933153   2.210   1.210  19.226  0.0568  0.4318  0.4519
   28TAL   C14033154   2.162   1.252  19.360  0.4881 -0.5012 -0.0667
   29HTM   C14133155   2.337   1.399  18.654 -0.6360 -0.0917 -0.8955
   29HTM   C14233156   2.232   1.392  18.567 -0.6492 -0.9813 -0.8202
   29HTM   C14333157   2.197   1.257  18.530 -0.0642 -1.3272 -0.1588
   29HTM   C14433158   2.275   1.162  18.589  0.3948 -0.7014  0.2700
   29HTM    S1533159   2.400   1.236  18.697  0.1219  0.3817 -0.1317
   30TAL   C14533160   2.066   1.227  18.450 -0.7544 -0.3088  0.2356
   30TAL   C14633161   2.085   1.181  18.306  0.8281 -0.1425 -0.5603
   30TAL   C14733162   1.969   1.075  18.273 -0.0076  0.0277  0.0351
   30TAL   C14833163   1.980   1.002  18.135  0.2706 -0.7187 -1.0551
   30TAL   C14933164   1.963   1.075  18.002  0.2467 -0.4348 -0.2225
   30TAL   C15033165   1.820   1.080  17.941 -0.2933  0.2954 -0.2319
   31HTM   C15133166   2.265   1.016  18.585  0.0825  0.0360 -0.2886
   31HTM   C15233167   2.165   0.925  18.565  0.1786 -0.0624 -0.3238
   31HTM   C15333168   2.207   0.788  18.581  0.3009 -0.0203 -0.2804
   31HTM   C15433169   2.339   0.775  18.613  0.2982  0.1103 -0.2122
   31HTM    S1633170   2.421   0.935  18.626  0.1396  0.1907 -0.1973
   32TAL   C15533171   2.089   0.677  18.590 -0.4146 -1.0339  0.4084
   32TAL   C15633172   2.009   0.675  18.724  0.5417 -0.2504 -0.4247
   32TAL   C15733173   2.079   0.635  18.847  1.1571  1.0724 -0.3723
   32TAL   C15833174   2.127   0.756  18.925  0.1522  0.3548  0.1471
   32TAL   C15933175   2.193   0.709  19.065 -1.0878 -1.1111 -1.0681
   32TAL   C16033176   2.323   0.784  19.097  0.3513  0.2215 -0.3808
   33HTM   C16133177   2.429   0.657  18.606  0.1028 -0.5723  0.0945
   33HTM   C16233178   2.528   0.631  18.695  0.1003 -1.1590 -0.0634
   33HTM   C16333179   2.601   0.510  18.668 -0.2104 -1.2356 -0.5746
   33HTM   C16433180   2.557   0.444  18.557 -0.4447 -0.7075 -0.8058
   33HTM    S1733181   2.419   0.529  18.479 -0.2901 -0.0673 -0.3937
   34TAL   C16533182   2.725   0.483  18.758  0.5113  0.2472  0.0995
   34TAL   C16633183   2.851   0.550  18.714 -0.2455 -0.9832 -0.7281
   34TAL   C16733184   2.966   0.520  18.816 -0.5061 -0.7334  0.5470
   34TAL   C16833185   3.083   0.625  18.808  0.2077  0.2099 -0.2930
   34TAL   C16933186   3.185   0.596  18.908 -0.6190 -0.7487  0.0847
   34TAL   C17033187   3.330   0.654  18.875  0.3432  0.0407  0.0407
   35HTM   C17133188   2.611   0.331  18.483 -0.1181 -0.0983 -0.0948
   35HTM   C17233189   2.536   0.225  18.442  0.3439 -0.6932  0.5388
   35HTM   C17333190   2.604   0.137  18.349  0.6477 -0.8238  0.8817
   35HTM   C17433191   2.731   0.177  18.320  0.4174 -0.3284  0.5101
   35HTM    S1833192   2.775   0.328  18.408 -0.2059  0.3467 -0.3091
   36TAL   C17533193   2.537   0.006  18.314 -0.6926 -0.4339  0.3851
   36TAL   C17633194   2.482  -0.088  18.413  0.2469 -0.1039  0.9459
   36TAL   C17733195   2.596  -0.160  18.477 -0.0725  0.0624 -1.9863
   36TAL   C17833196   2.538  -0.246  18.600  0.1287  0.3705  0.2109
   36TAL   C17933197   2.500  -0.167  18.726 -0.4008 -0.3986 -0.6307
   36TAL   C18033198   2.420  -0.246  18.837  0.3295 -0.2255 -0.2295
   37HTM   C18133199   2.831   0.132  18.212  1.1679 -0.3561  0.8659
   37HTM   C18233200   2.920   0.214  18.151  1.1564 -0.4178  0.7653
   37HTM   C18333201   2.988   0.154  18.039  0.4078 -0.2036  0.1841
   37HTM   C18433202   2.949   0.025  18.015 -0.1517  0.0212 -0.1586
   37HTM    S1933203   2.824  -0.030  18.133  0.2266 -0.0204  0.2292
   38TAL   C18533204   3.093   0.234  17.949 -0.0143  0.7044 -1.1712
   38TAL   C18633205   3.067   0.296  17.807 -0.3360  0.1018  0.4943
   38TAL   C18733206   2.926   0.346  17.760  0.0748  0.3563  0.4727
   38TAL   C18833207   2.921   0.391  17.616 -0.8037  0.7808 -0.1674
   38TAL   C18933208   2.782   0.428  17.559 -0.5326 -0.0863 -0.4482
   38TAL   C19033209   2.781   0.461  17.410 -0.9177  0.6898 -0.6075
   39HTM   C19133210   3.005  -0.075  17.926  0.4678 -0.1104 -0.1024
   39HTM   C19233211   2.993  -0.208  17.952  0.5273 -0.0789  0.0925
   39HTM   C19333212   3.071  -0.291  17.864  0.4340 -0.1812  0.1063
   39HTM   C19433213   3.143  -0.221  17.771  0.3035 -0.2907 -0.0780
   39HTM    S2033214   3.117  -0.044  17.788  0.2880 -0.2729 -0.2848
   40TAL   C19533215   3.068  -0.448  17.873 -1.7233 -0.8812 -0.6452
   40TAL   C19633216   3.189  -0.505  17.963  0.1625 -0.4420  1.4214
   40TAL   C19733217   3.331  -0.510  17.894  0.2362  0.0878  0.0816
   40TAL   C19833218   3.343  -0.588  17.756 -0.0308  0.8803  0.0756
   40TAL   C19933219   3.483  -0.628  17.709 -0.3205 -0.3744  0.3273
   40TAL   C20033220   3.478  -0.736  17.593  0.5936  1.1594 -1.1154
   41HTM   C20133221   3.224  -0.246  17.656 -0.0648  0.5267  0.0344
   41HTM   C20233222   3.198  -0.311  17.538  0.0138  0.1791  0.2074
   41HTM   C20333223   3.311  -0.316  17.449  0.1368 -0.2712  0.3800
   41HTM   C20433224   3.422  -0.254  17.497  0.1519 -0.2668  0.3388
   41HTM    S2133225   3.394  -0.186  17.662  0.0109  0.3108  0.0778
   42TAL   C20533226   3.263  -0.361  17.313  0.2098 -0.0259 -0.1054
   42TAL   C20633227   3.351  -0.394  17.193  0.6981 -0.8429 -0.0588
   42TAL   C20733228   3.318  -0.339  17.056  0.1390  0.1094  0.5597
   42TAL   C20833229   3.401  -0.415  16.948 -0.0360 -1.4414 -0.5318
   42TAL   C20933230   3.352  -0.401  16.803  0.1876  0.6543  1.3536
   42TAL   C21033231   3.387  -0.264  16.745 -0.1570 -0.6237 -0.4042
   43HTM   C21133232   3.551  -0.237  17.448 -0.1934 -0.1097  0.2801
   43HTM   C21233233   3.625  -0.123  17.438 -0.4191  0.0187  0.0539
   43HTM   C21333234   3.754  -0.142  17.377 -0.4482  0.1856 -0.0625
   43HTM   C21433235   3.778  -0.271  17.340 -0.2448  0.1844  0.0755
   43HTM    S2233236   3.639  -0.379  17.380  0.0013 -0.0293  0.3632
   44TAL   C21533237   3.848  -0.028  17.354  0.4746 -0.4452 -0.3811
   44TAL   C21633238   3.781   0.112  17.345  0.4804  0.4103  0.1885
   44TAL   C21733239   3.856   0.232  17.307 -0.2384  0.0470  0.9718
   44TAL   C21833240   3.951   0.212  17.182 -0.1283 -0.7822 -1.4999
   44TAL   C21933241   4.051   0.333  17.187 -0.6059  0.0136  0.6096
   44TAL   C22033242   4.126   0.322  17.054 -0.4077 -0.5745 -0.6743
   45HTM   C22133243   3.890  -0.327  17.260  0.1990  0.0670 -0.0881
   45HTM   C22233244   4.024  -0.342  17.281  0.2117 -0.3000 -0.3977
   45HTM   C22333245   4.091  -0.418  17.179 -0.2286 -0.4747 -0.5617
   45HTM   C22433246   4.008  -0.461  17.079 -0.5770 -0.2408 -0.3781
   45HTM    S2333247   3.838  -0.409  17.107 -0.3745  0.2216  0.0204
   46TAL   C22533248   4.235  -0.454  17.188  0.2621  0.0787 -0.7587
   46TAL   C22633249   4.289  -0.514  17.315  0.3856  0.3836 -0.1302
   46TAL   C22733250   4.438  -0.530  17.310 -0.8868  0.8583  1.5777
   46TAL   C22833251   4.528  -0.407  17.263  0.0298  0.8140  0.1204
   46TAL   C22933252   4.662  -0.399  17.336  0.1468 -0.6564  1.1317
   46TAL   C23033253   4.750  -0.275  17.299  0.0450 -0.5467  0.2168
   47HTM   C23133254   4.053  -0.525  16.963  0.2725  0.2920  0.3332
   47HTM   C23233255   4.016  -0.652  16.928 -0.2645  0.3805  0.5531
   47HTM   C23333256   4.060  -0.691  16.796 -0.9030  0.1574  0.4025
   47HTM   C23433257   4.129  -0.593  16.731 -0.8526 -0.1011  0.0671
   47HTM    S2433258   4.145  -0.444  16.831  0.0116 -0.0828 -0.0849
   48TAL   C23533259   4.058  -0.828  16.741  0.2986  0.5857  0.9672
   48TAL   C23633260   4.124  -0.867  16.609  0.1993  0.5405  0.0360
   48TAL   C23733261   4.038  -0.966  16.518 -0.1600 -0.0916 -0.3920
   48TAL   C23833262   3.970  -0.885  16.411 -0.7502  0.1591  0.3148
   48TAL   C23933263   3.866  -0.978  16.349 -0.8382  0.0220 -0.8590
   48TAL   C24033264   3.878  -0.978  16.203 -0.0283 -0.3697  0.2322
    1HTM     C133265   5.066   4.312  16.893 -1.3163  0.0917  0.1199
    1HTM     C233266   5.149   4.383  16.975 -0.8860 -0.4088  0.1254
    1HTM     C333267   5.150   4.524  16.948  0.1233 -0.4224 -0.0081
    1HTM     C433268   5.066   4.561  16.846  0.4624  0.0678 -0.1147
    1HTM     S133269   4.980   4.419  16.776 -0.4740  0.5882 -0.0541
    2TAL     C533270   5.240   4.594  17.054 -0.3001  0.6347  0.5592
    2TAL     C633271   5.275   4.742  17.042  0.4740  0.2586  0.7421
    2TAL     C733272   5.370   4.792  17.139 -0.1732 -0.8162  0.1719
    2TAL     C833273   5.396   4.947  17.120  0.0338 -0.8690  0.1702
    2TAL     C933274   5.510   4.971  17.217  0.1177  0.9789  0.0208
    2TAL    C1033275   5.500   5.120  17.254 -1.2099  0.8060  0.0110
    3HTM    C1133276   5.047   4.698  16.795 -0.2042  0.4007  0.0402
    3HTM    C1233277   4.963   4.798  16.834 -0.1049  0.5004 -0.0005
    3HTM    C1333278   4.994   4.926  16.776  0.0147  0.4430 -0.0629
    3HTM    C1433279   5.102   4.924  16.693  0.0066  0.2996 -0.0700
    3HTM     S233280   5.173   4.758  16.681 -0.1539  0.2253  0.0029
    4TAL    C1533281   4.919   5.054  16.802 -0.4870  0.2180  0.8911
    4TAL    C1633282   4.768   5.050  16.767  0.4999  0.4161  0.7412
    4TAL    C1733283   4.734   5.065  16.615  0.7019 -0.0267  1.1640
    4TAL    C1833284   4.798   5.182  16.534  0.3491 -0.3874  0.2842
    4TAL    C1933285   4.710   5.248  16.424 -0.6333  0.4501 -0.6090
    4TAL    C2033286   4.764   5.376  16.367 -0.1811  0.9470 -0.9238
    5HTM    C2133287   5.164   5.027  16.617  1.0544 -0.2010  0.4879
    5HTM    C2233288   5.218   5.148  16.651  1.7520 -0.4783  0.4048
    5HTM    C2333289   5.279   5.217  16.540  1.1770 -0.4220  0.1173
    5HTM    C2433290   5.271   5.150  16.422  0.0407 -0.1018 -0.0194
    5HTM     S333291   5.186   4.992  16.442 -0.3944  0.1554  0.2065
    6TAL    C2533292   5.341   5.351  16.572 -0.2653 -0.1970  0.2032
    6TAL    C2633293   5.257   5.436  16.670 -0.2013 -0.0465  0.0230
    6TAL    C2733294   5.346   5.554  16.717  0.6948  0.2231  0.3510
    6TAL    C2833295   5.322   5.598  16.859 -0.4462  0.3108  0.2628
    6TAL    C2933296   5.365   5.742  16.875 -0.1735  0.2527 -0.2352
    6TAL    C3033297   5.324   5.775  17.012  0.2287  0.1396 -1.0213
    7HTM    C3133298   5.292   5.191  16.283 -0.6791 -1.3409 -0.8792
    7HTM    C3233299   5.370   5.136  16.186 -1.2634 -1.1610 -1.4653
    7HTM    C3333300   5.359   5.202  16.058 -1.1127 -0.1359 -0.9675
    7HTM    C3433301   5.273   5.308  16.058 -0.4138  0.4658 -0.0021
    7HTM     S433302   5.199   5.332  16.221  0.1128 -0.2207  0.3566
    8TAL    C3533303   5.460   5.171  15.951  0.6321  0.6717  0.3686
    8TAL    C3633304   5.415   5.057  15.855 -0.8642 -0.4758 -0.2467
    8TAL    C3733305   5.511   5.020  15.740 -0.4623 -0.0954 -0.3173
    8TAL    C3833306   5.471   4.895  15.663 -0.2362  0.0404  0.0117
    8TAL    C3933307   5.589   4.880  15.563  0.7334  0.1755 -0.1628
    8TAL    C4033308   5.564   4.761  15.477 -0.1218 -0.0495 -0.2884
    9HTM    C4133309   5.241   5.393  15.942 -0.0681 -0.5519 -0.0004
    9HTM    C4233310   5.240   5.529  15.947  0.4119 -0.5656  0.7381
    9HTM    C4333311   5.211   5.592  15.821  0.7174  0.2291  1.0488
    9HTM    C4433312   5.189   5.503  15.719  0.4703  0.8487  0.5471
    9HTM     S533313   5.204   5.333  15.776 -0.1723  0.4739 -0.3637
   10TAL    C4533314   5.194   5.749  15.801 -0.2096  0.2156 -0.3730
   10TAL    C4633315   5.252   5.839  15.908 -0.1054 -1.0370 -1.0898
   10TAL    C4733316   5.216   5.986  15.890 -0.2723  0.4558  0.7529
   10TAL    C4833317   5.252   6.091  15.990 -0.3035 -0.3319  0.0110
   10TAL    C4933318   5.218   6.233  15.949 -0.1378 -1.4635 -0.3819
   10TAL    C5033319   5.234   6.344  16.055 -0.8741  0.2699 -0.5396
   11HTM    C5133320   5.127   5.505  15.582  0.0452 -0.2662 -0.4987
   11HTM    C5233321   5.032   5.424  15.527  0.7781 -0.7265 -1.1296
   11HTM    C5333322   4.986   5.468  15.398  0.8701 -0.5196 -1.0924
   11HTM    C5433323   5.046   5.582  15.355  0.2071  0.0988 -0.4341
   11HTM     S633324   5.166   5.644  15.474 -0.5907  0.4705  0.1961
   12TAL    C5533325   4.885   5.380  15.317 -0.7219 -0.3435  0.7067
   12TAL    C5633326   4.767   5.329  15.393 -0.1534  0.4293  0.3729
   12TAL    C5733327   4.680   5.214  15.332 -0.9203  0.2963  0.0547
   12TAL    C5833328   4.578   5.254  15.235 -0.1464 -0.3613 -0.5789
   12TAL    C5933329   4.475   5.136  15.220 -0.9657  0.2011 -0.7662
   12TAL    C6033330   4.433   5.132  15.075  0.7336 -0.7721  0.1364
   13HTM    C6133331   5.025   5.664  15.243 -0.2980 -0.4804 -0.1292
   13HTM    C6233332   5.136   5.718  15.185 -0.1397 -0.5029  0.1464
   13HTM    C6333333   5.106   5.816  15.083  0.1373 -0.3408  0.2217
   13HTM    C6433334   4.973   5.837  15.065  0.1903 -0.1943  0.0029
   13HTM     S733335   4.873   5.734  15.174 -0.1078 -0.2504 -0.3170
   14TAL    C6533336   5.219   5.898  15.013 -0.0780  0.6875  0.8025
   14TAL    C6633337   5.367   5.894  15.047 -0.6826  0.7876  1.3736
   14TAL    C6733338   5.400   6.003  15.142 -0.1631 -0.4352 -0.4907
   14TAL    C6833339   5.407   6.147  15.087  0.2172  0.2752 -0.0240
   14TAL    C6933340   5.509   6.176  14.977  0.6092 -0.2891 -0.3561
   14TAL    C7033341   5.530   6.318  14.944 -0.1665 -0.1152 -0.6599
   15HTM    C7133342   4.899   5.939  14.997  0.4116  0.3750  0.4216
   15HTM    C7233343   4.763   5.948  14.990  0.3742  0.0346  0.6747
   15HTM    C7333344   4.716   6.065  14.921 -0.0440 -0.2879  0.4063
   15HTM    C7433345   4.816   6.146  14.874 -0.3255 -0.1929 -0.0512
   15HTM     S833346   4.978   6.079  14.916 -0.0824  0.3148 -0.1797
   16TAL    C7533347   4.565   6.082  14.908  0.3001 -0.3748 -0.5459
   16TAL    C7633348   4.498   6.150  15.030  0.5107 -0.7608 -0.1981
   16TAL    C7733349   4.340   6.132  15.032 -0.4766 -0.6947  0.0068
   16TAL    C7833350   4.279   6.195  15.159  0.2160  0.2480 -1.1337
   16TAL    C7933351   4.135   6.174  15.207 -0.2337  0.4528 -0.2685
   16TAL    C8033352   4.075   6.037  15.249  0.7018  0.5568 -0.2399
   17HTM    C8133353   4.809   6.273  14.799  0.6577 -0.0886 -0.0519
   17HTM    C8233354   4.803   6.399  14.852  0.2904 -0.1888  0.1533
   17HTM    C8333355   4.801   6.503  14.753 -0.4239 -0.0420  0.3142
   17HTM    C8433356   4.805   6.458  14.624 -0.6011  0.1703  0.2317
   17HTM     S933357   4.812   6.277  14.618  0.1260  0.2013 -0.0573
   18TAL    C8533358   4.790   6.642  14.802 -0.1421 -0.5367 -0.3823
   18TAL    C8633359   4.816   6.676  14.957 -1.2823  0.5161  0.8501
   18TAL    C8733360   4.789   6.822  14.984 -0.0497  0.2220  0.8303
   18TAL    C8833361   4.779   6.839  15.134  0.1566 -0.2162  0.4202
   18TAL    C8933362   4.743   6.986  15.157  0.3346  0.1984 -0.1632
   18TAL    C9033363   4.739   7.022  15.301 -0.3176 -0.5951 -0.6413
   19HTM    C9133364   4.790   6.520  14.498 -0.0854  0.3143  0.1671
   19HTM    C9233365   4.673   6.531  14.429 -0.0569  0.7529  0.1879
   19HTM    C9333366   4.690   6.576  14.293  0.0775  0.7867  0.2160
   19HTM    C9433367   4.820   6.598  14.259  0.1513  0.3734  0.2166
   19HTM    S1033368   4.932   6.564  14.396  0.0562 -0.0939  0.1815
   20TAL    C9533369   4.575   6.574  14.197 -0.6853  0.8906  0.6074
   20TAL    C9633370   4.440   6.512  14.246  0.0539  0.1980 -0.7553
   20TAL    C9733371   4.407   6.365  14.245  0.0850 -0.4923 -0.7534
   20TAL    C9833372   4.250   6.350  14.239 -0.0657 -0.5253  0.2961
   20TAL    C9933373   4.176   6.214  14.234  0.0129 -0.0497  0.8730
   20TAL   C10033374   4.215   6.113  14.127 -0.2343  0.3805  1.2531
   21HTM   C10133375   4.874   6.647  14.133 -0.0211  0.0092 -0.8655
   21HTM   C10233376   4.826   6.692  14.013  0.1400  0.4206 -0.7796
   21HTM   C10333377   4.928   6.748  13.927  0.2285  0.8755 -0.3860
   21HTM   C10433378   5.053   6.746  13.982  0.1352  0.8108 -0.1713
   21HTM    S1133379   5.052   6.673  14.146 -0.0737  0.1656 -0.4519
   22TAL   C10533380   4.881   6.797  13.788 -0.2986 -0.2452 -0.6902
   22TAL   C10633381   4.964   6.913  13.716  1.1508  0.0700 -1.4226
   22TAL   C10733382   4.894   6.994  13.618 -0.5724 -0.3172 -0.2690
   22TAL   C10833383   4.976   7.106  13.568  1.2534 -0.0387  0.2428
   22TAL   C10933384   4.887   7.168  13.470  0.3105 -0.2203 -0.3504
   22TAL   C11033385   4.870   7.316  13.490 -0.2242  0.4761  0.0259
   23HTM   C11133386   5.186   6.780  13.930 -0.2160 -0.0157 -0.0455
   23HTM   C11233387   5.249   6.901  13.917  0.0322 -0.1049  0.2999
   23HTM   C11333388   5.374   6.894  13.847  0.0888 -0.1847  0.4091
   23HTM   C11433389   5.408   6.769  13.807 -0.1163 -0.1562  0.1471
   23HTM    S1233390   5.283   6.648  13.854 -0.3988 -0.0258 -0.2613
   24TAL   C11533391   5.453   7.020  13.814 -0.2631 -0.0801 -0.4338
   24TAL   C11633392   5.370   7.123  13.734  0.3229  0.7105 -0.2492
   24TAL   C11733393   5.454   7.246  13.695 -1.6644 -0.9206 -0.3352
   24TAL   C11833394   5.403   7.344  13.589 -0.1673 -0.9611 -0.1154
   24TAL   C11933395   5.382   7.283  13.449  0.1009 -0.0327 -0.2354
   24TAL   C12033396   5.312   7.377  13.354  1.0619  0.5092  1.0962
   25HTM   C12133397   5.533   6.716  13.742  0.2811 -0.4968 -0.3857
   25HTM   C12233398   5.538   6.591  13.688  0.3655 -0.2757 -0.8945
   25HTM   C12333399   5.665   6.561  13.626  0.3878  0.0572 -1.0178
   25HTM   C12433400   5.756   6.662  13.634  0.3202  0.0899 -0.6030
   25HTM    S1333401   5.688   6.806  13.720  0.2228 -0.3005 -0.0202
   26TAL   C12533402   5.689   6.415  13.597  0.6013 -0.5902  0.7132
   26TAL   C12633403   5.585   6.329  13.513  0.4461  0.2237 -0.6801
   26TAL   C12733404   5.604   6.337  13.353 -0.2672 -0.3611 -0.5876
   26TAL   C12833405   5.460   6.337  13.290  0.6607 -0.0470 -0.5560
   26TAL   C12933406   5.447   6.361  13.142  0.4984  0.4871  0.6191
   26TAL   C13033407   5.447   6.510  13.108  0.6672 -0.1360  0.8682
   27HTM   C13133408   5.892   6.669  13.589  0.2993  0.2703 -0.1749
   27HTM   C13233409   5.982   6.576  13.546  0.4153  0.3812 -0.1731
   27HTM   C13333410   6.115   6.628  13.528  0.3726  0.5242 -0.0801
   27HTM   C13433411   6.127   6.761  13.557  0.2240  0.5221 -0.0109
   27HTM    S1433412   5.969   6.831  13.610  0.1257  0.3382 -0.0581
   28TAL   C13533413   6.223   6.519  13.490 -0.5061 -0.0333 -0.4541
   28TAL   C13633414   6.359   6.561  13.445 -1.2991  0.3516  0.0253
   28TAL   C13733415   6.457   6.442  13.410 -0.0904 -0.7924  0.1636
   28TAL   C13833416   6.579   6.494  13.339  0.4109 -0.0406  0.0958
   28TAL   C13933417   6.686   6.393  13.293 -0.0211  1.2168 -0.7157
   28TAL   C14033418   6.740   6.410  13.150  0.0797 -0.4546  0.2719
   29HTM   C14133419   6.232   6.861  13.545  0.0180  0.3526  0.7299
   29HTM   C14233420   6.333   6.877  13.635  0.1931  0.6675  0.4826
   29HTM   C14333421   6.399   7.005  13.627  0.3363  0.5552 -0.2458
   29HTM   C14433422   6.348   7.087  13.530  0.2705  0.1548 -0.5544
   29HTM    S1533423   6.212   7.008  13.442  0.0205 -0.1136  0.0558
   30TAL   C14533424   6.533   7.026  13.707 -0.1772  0.0502  1.7017
   30TAL   C14633425   6.542   7.126  13.817  0.7219  0.0086 -0.6605
   30TAL   C14733426   6.447   7.134  13.943  0.3989  0.0747  0.6289
   30TAL   C14833427   6.313   7.212  13.931  0.6362 -1.1409  0.4759
   30TAL   C14933428   6.329   7.357  13.932  0.7947  0.0132 -0.2239
   30TAL   C15033429   6.208   7.447  13.987  0.0185  0.7684 -0.2805
   31HTM   C15133430   6.393   7.217  13.493  0.0762 -0.0560 -0.1119
   31HTM   C15233431   6.503   7.251  13.419 -0.1615  0.0818 -0.4058
   31HTM   C15333432   6.523   7.393  13.407 -0.3841  0.1076 -0.4790
   31HTM   C15433433   6.429   7.467  13.471 -0.3159 -0.0103 -0.2406
   31HTM    S1633434   6.306   7.363  13.553  0.0374 -0.1643  0.0969
   32TAL   C15533435   6.645   7.447  13.349  0.1240 -0.9738  1.9278
   32TAL   C15633436   6.642   7.488  13.195  0.8236 -0.2412 -0.1748
   32TAL   C15733437   6.596   7.372  13.109 -0.0943 -0.9519 -0.6254
   32TAL   C15833438   6.684   7.378  12.982 -0.5999 -1.5795 -0.9225
   32TAL   C15933439   6.597   7.364  12.860  0.3077  0.9952  0.0625
   32TAL   C16033440   6.670   7.301  12.739 -0.1674  0.5109 -0.0473
   33HTM   C16133441   6.418   7.613  13.486  0.1826 -0.0185 -0.3753
   33HTM   C16233442   6.380   7.682  13.598 -1.0016 -0.5001 -0.4437
   33HTM   C16333443   6.376   7.824  13.579 -1.7254 -0.4708 -0.1163
   33HTM   C16433444   6.410   7.864  13.453 -1.0931  0.0330  0.2023
   33HTM    S1733445   6.450   7.724  13.348  0.4778  0.5133  0.1126
   34TAL   C16533446   6.339   7.912  13.690 -0.6222 -0.5440  0.4436
   34TAL   C16633447   6.424   7.926  13.814  0.8496  0.0016  0.7145
   34TAL   C16733448   6.411   7.831  13.933  0.7982  0.0162  0.6925
   34TAL   C16833449   6.518   7.851  14.028  0.3125 -0.7443 -0.5538
   34TAL   C16933450   6.639   7.761  14.004  0.3499 -0.0129  0.6434
   34TAL   C17033451   6.622   7.614  13.954  1.3640 -1.3659 -0.0819
   35HTM   C17133452   6.405   7.992  13.387  0.2000 -0.3095 -0.0066
   35HTM   C17233453   6.314   8.026  13.292  0.4451 -0.4644 -0.2985
   35HTM   C17333454   6.312   8.166  13.261  0.3966 -0.4870 -0.3989
   35HTM   C17433455   6.402   8.240  13.333  0.1145 -0.3495 -0.1840
   35HTM    S1833456   6.496   8.136  13.446 -0.1137 -0.1793  0.1647
   36TAL   C17533457   6.223   8.208  13.147  0.0081 -0.7857  0.0364
   36TAL   C17633458   6.304   8.193  13.014  0.6062  0.4897 -0.7569
   36TAL   C17733459   6.221   8.205  12.880 -0.0025 -0.4818  0.6472
   36TAL   C17833460   6.307   8.235  12.760 -0.3965 -0.9504 -0.1079
   36TAL   C17933461   6.404   8.132  12.713 -0.1768 -0.6897  0.4011
   36TAL   C18033462   6.508   8.166  12.607 -0.6978  0.0114  0.2800
   37HTM   C18133463   6.425   8.380  13.341  0.1486 -0.2101  0.0658
   37HTM   C18233464   6.451   8.433  13.464 -0.1407 -0.3104  0.1717
   37HTM   C18333465   6.435   8.576  13.471 -0.4350 -0.3498  0.3266
   37HTM   C18433466   6.396   8.632  13.353 -0.3701 -0.2795  0.3386
   37HTM    S1933467   6.377   8.509  13.223  0.0712 -0.1572  0.1541
   38TAL   C18533468   6.439   8.644  13.609  0.3735  1.2800  0.3767
   38TAL   C18633469   6.525   8.765  13.637 -0.9939  0.6351  0.5466
   38TAL   C18733470   6.509   8.823  13.778 -0.1016 -0.1164  0.0431
   38TAL   C18833471   6.604   8.931  13.831  0.1175  0.5896 -0.6730
   38TAL   C18933472   6.745   8.878  13.862  0.3290 -0.2551 -0.2604
   38TAL   C19033473   6.774   8.784  13.969  0.0470  0.1022  0.1930
   39HTM   C19133474   6.375   8.776  13.318  0.2450 -0.1977 -0.0730
   39HTM   C19233475   6.451   8.885  13.348  0.1967 -0.2976  0.4182
   39HTM   C19333476   6.407   9.006  13.285  0.0857 -0.0039  1.0376
   39HTM   C19433477   6.297   8.990  13.205  0.0493  0.3199  1.0189
   39HTM    S2033478   6.240   8.818  13.205  0.1531  0.2787  0.2108
   40TAL   C19533479   6.462   9.139  13.325 -0.2975 -0.6342  0.3680
   40TAL   C19633480   6.597   9.158  13.396  0.7411  0.4158  1.0325
   40TAL   C19733481   6.718   9.147  13.315  0.4352 -0.4074  0.5015
   40TAL   C19833482   6.848   9.201  13.374  0.9233 -1.1533 -0.5249
   40TAL   C19933483   6.825   9.353  13.433  1.5438  1.1366 -0.0115
   40TAL   C20033484   6.914   9.439  13.348 -0.4407 -0.2502  0.3060
   41HTM   C20133485   6.209   9.075  13.128  0.5856 -0.6120 -0.0658
   41HTM   C20233486   6.083   9.049  13.082  0.7480 -1.1133 -0.2406
   41HTM   C20333487   6.030   9.153  12.997  0.4585 -1.3287 -0.3247
   41HTM   C20433488   6.115   9.257  12.978  0.0754 -0.9917 -0.2140
   41HTM    S2133489   6.270   9.233  13.067  0.0505 -0.3713  0.0065
   42TAL   C20533490   5.888   9.163  12.943  0.7077 -0.7835 -0.0961
   42TAL   C20633491   5.837   9.042  12.859 -0.5201 -0.4539  0.1084
   42TAL   C20733492   5.683   9.048  12.824 -0.8139  0.2707  0.3961
   42TAL   C20833493   5.657   8.939  12.721 -0.1336 -1.1863 -0.8287
   42TAL   C20933494   5.507   8.924  12.680  0.0617 -0.7113 -0.0134
   42TAL   C21033495   5.408   8.871  12.776  0.7143 -1.2277  0.1629
   43HTM   C21133496   6.110   9.383  12.902  0.3599 -0.0117 -0.1953
   43HTM   C21233497   6.218   9.460  12.871  0.5859 -0.5562 -0.8194
   43HTM   C21333498   6.187   9.571  12.785  0.7429 -0.6682 -1.0216
   43HTM   C21433499   6.056   9.579  12.750  0.6367 -0.2092 -0.5518
   43HTM    S2233500   5.960   9.445  12.824  0.3277  0.4050  0.1883
   44TAL   C21533501   6.294   9.674  12.741 -0.3830 -0.7830 -0.8814
   44TAL   C21633502   6.446   9.641  12.704  0.2382 -0.1194  0.6713
   44TAL   C21733503   6.470   9.556  12.590 -0.2716  0.1279  0.4333
   44TAL   C21833504   6.421   9.587  12.448  0.1122  0.6225 -0.6162
   44TAL   C21933505   6.469   9.712  12.386  0.0289  0.0309 -0.1236
   44TAL   C22033506   6.350   9.761  12.293 -0.8426  0.1799  1.1155
   45HTM   C22133507   5.984   9.679  12.674  0.2295 -0.0841  0.0335
   45HTM   C22233508   5.883   9.765  12.707  0.3576  0.0777  0.0021
   45HTM   C22333509   5.845   9.853  12.600  0.5054  0.1130 -0.0226
   45HTM   C22433510   5.916   9.834  12.485  0.4907 -0.0218 -0.0098
   45HTM    S2333511   6.038   9.702  12.503  0.2868 -0.2053  0.0344
   46TAL   C22533512   5.731   9.948  12.605  0.7596  0.4915  0.5908
   46TAL   C22633513   5.589   9.901  12.589 -0.4070  0.6393  0.1009
   46TAL   C22733514   5.488  10.024  12.581 -0.0937 -0.2751  0.3496
   46TAL   C22833515   5.353  10.035  12.510 -0.3901  0.6587 -0.4670
   46TAL   C22933516   5.252   9.963  12.593  0.1202 -0.0253 -0.1673
   46TAL   C23033517   5.122   9.963  12.528  0.0798 -0.2310 -0.8472
   47HTM   C23133518   5.919   9.912  12.356  0.2046 -0.0778 -0.0004
   47HTM   C23233519   6.024   9.961  12.285  0.0648  0.0491 -0.1242
   47HTM   C23333520   5.988  10.019  12.158 -0.1378 -0.1156 -0.1426
   47HTM   C23433521   5.854  10.015  12.133 -0.1526 -0.3680 -0.0329
   47HTM    S2433522   5.763   9.937  12.268  0.0904 -0.4178  0.1033
   48TAL   C23533523   6.080  10.077  12.050 -0.0201  0.8547 -0.1116
   48TAL   C23633524   6.200  10.135  12.114 -0.4247  0.1714  0.4893
   48TAL   C23733525   6.324  10.148  12.015  0.1423 -0.6534 -0.1621
   48TAL   C23833526   6.433  10.246  12.061  0.0132 -0.4011 -0.4783
   48TAL   C23933527   6.481  10.241  12.214  0.2129  0.0921  0.3356
   48TAL   C24033528   6.546  10.119  12.259 -0.8690  0.2306 -0.3834
    1HTM     C133529   7.006   2.041  10.703  0.1754  0.8828  0.3580
    1HTM     C233530   6.929   2.075  10.595  0.4884  1.3345  0.2720
    1HTM     C333531   6.799   2.126  10.631  0.3726  1.1563  0.1090
    1HTM     C433532   6.777   2.131  10.765 -0.0286  0.5686  0.0708
    1HTM     S133533   6.919   2.071  10.858 -0.2936  0.1919  0.2394
    2TAL     C533534   6.701   2.181  10.523  0.5388 -0.4521  0.3256
    2TAL     C633535   6.737   2.206  10.379 -0.1342  0.4463  0.5468
    2TAL     C733536   6.645   2.115  10.283  0.4539 -0.6454 -0.5407
    2TAL     C833537   6.668   1.964  10.316 -0.3098  0.8516 -0.2732
    2TAL     C933538   6.575   1.846  10.301 -0.3494 -0.3230  0.5252
    2TAL    C1033539   6.494   1.811  10.429  0.1809  0.9580  0.6098
    3HTM    C1133540   6.661   2.176  10.846 -0.3985 -0.5074  0.4541
    3HTM    C1233541   6.642   2.166  10.981 -0.6793 -0.5305  0.4129
    3HTM    C1333542   6.518   2.224  11.026 -0.6909 -0.3781  0.1879
    3HTM    C1433543   6.443   2.278  10.925 -0.4193 -0.2388  0.0572
    3HTM     S233544   6.524   2.260  10.765 -0.1252 -0.2898  0.2099
    4TAL    C1533545   6.469   2.218  11.159 -0.7397 -0.2027 -2.1958
    4TAL    C1633546   6.586   2.251  11.261  0.7783 -1.4942 -0.3681
    4TAL    C1733547   6.518   2.292  11.393  0.1407  0.0006  0.3018
    4TAL    C1833548   6.575   2.221  11.513 -0.5417 -0.0849 -0.2567
    4TAL    C1933549   6.710   2.263  11.574 -0.7764 -0.5697  0.2968
    4TAL    C2033550   6.736   2.173  11.693  0.9613  0.3434  1.1855
    5HTM    C2133551   6.318   2.350  10.927 -0.0646  0.4621 -0.3599
    5HTM    C2233552   6.222   2.344  10.830 -0.1930  0.5651 -0.2410
    5HTM    C2333553   6.094   2.397  10.871 -0.1712  0.4195  0.0205
    5HTM    C2433554   6.093   2.443  10.999 -0.0263  0.2057  0.1009
    5HTM     S333555   6.253   2.424  11.079  0.0949  0.1712 -0.1489
    6TAL    C2533556   5.982   2.403  10.767  0.4938  0.1556 -0.6989
    6TAL    C2633557   5.989   2.380  10.618 -0.2873 -0.9589 -0.4836
    6TAL    C2733558   6.065   2.489  10.543  0.7240 -0.3926 -0.6205
    6TAL    C2833559   6.066   2.483  10.388  1.4262 -0.4721 -0.8170
    6TAL    C2933560   5.923   2.462  10.328 -0.0785 -0.0346  1.2035
    6TAL    C3033561   5.903   2.520  10.189  0.7490 -0.6815  0.3614
    7HTM    C3133562   5.975   2.488  11.077 -0.4762  0.0733  1.4054
    7HTM    C3233563   5.886   2.423  11.157 -0.7118  0.7522  1.7080
    7HTM    C3333564   5.787   2.510  11.215 -0.6992  1.3120  0.9322
    7HTM    C3433565   5.801   2.641  11.180 -0.4538  1.0599  0.0381
    7HTM     S433566   5.941   2.665  11.069 -0.2179  0.0883  0.1070
    8TAL    C3533567   5.680   2.448  11.307  0.4713 -0.0394  0.8710
    8TAL    C3633568   5.602   2.319  11.259  0.4931 -0.0720 -0.2654
    8TAL    C3733569   5.482   2.313  11.349  0.1079  0.4074 -0.7410
    8TAL    C3833570   5.385   2.217  11.303  0.6735 -0.9692  0.6536
    8TAL    C3933571   5.253   2.240  11.385 -0.3637  0.8902  0.4574
    8TAL    C4033572   5.150   2.127  11.368  0.6806 -0.1302 -0.7075
    9HTM    C4133573   5.729   2.750  11.232 -0.3493  0.4862  0.1089
    9HTM    C4233574   5.791   2.846  11.307 -0.5592  0.8606 -0.1907
    9HTM    C4333575   5.701   2.925  11.387 -0.7235  0.8537 -0.3667
    9HTM    C4433576   5.570   2.889  11.374 -0.6390  0.4741 -0.2009
    9HTM     S533577   5.550   2.752  11.258 -0.3429  0.0928  0.1931
   10TAL    C4533578   5.748   3.036  11.471  0.5170  0.6244  0.0211
   10TAL    C4633579   5.885   3.100  11.450 -0.9574 -0.4891  0.1406
   10TAL    C4733580   5.937   3.196  11.564 -0.7352 -0.2096  0.5493
   10TAL    C4833581   5.852   3.329  11.575 -0.6823  0.1180  0.7113
   10TAL    C4933582   5.910   3.446  11.645  0.5814  0.4940 -0.3566
   10TAL    C5033583   5.814   3.565  11.637  0.7240  0.0805 -0.3841
   11HTM    C5133584   5.447   2.948  11.434  0.1494  0.2720 -0.0176
   11HTM    C5233585   5.353   2.882  11.507  0.0075  0.1064 -0.3419
   11HTM    C5333586   5.243   2.965  11.547 -0.3247 -0.1099 -0.7970
   11HTM    C5433587   5.252   3.094  11.504 -0.4360 -0.1088 -0.8197
   11HTM     S633588   5.403   3.121  11.408 -0.1277  0.1672 -0.2635
   12TAL    C5533589   5.130   2.896  11.632 -0.8416  0.1657  0.0711
   12TAL    C5633590   5.005   2.856  11.558 -0.0783  1.3588  0.0196
   12TAL    C5733591   4.959   2.731  11.615  0.2896  0.7947 -1.2855
   12TAL    C5833592   4.950   2.619  11.514  0.6928  0.7019  0.1835
   12TAL    C5933593   4.924   2.484  11.581 -0.4263  0.2606  0.2236
   12TAL    C6033594   4.880   2.379  11.477  0.1148  0.1133  0.5781
   13HTM    C6133595   5.169   3.213  11.511  0.7493  0.4868  0.3160
   13HTM    C6233596   5.074   3.250  11.602  0.6721  0.4804  0.2372
   13HTM    C6333597   5.009   3.374  11.570  0.2676  0.1774 -0.1395
   13HTM    C6433598   5.054   3.432  11.455  0.0361 -0.0471 -0.3477
   13HTM     S733599   5.184   3.334  11.378  0.3135  0.1078 -0.0823
   14TAL    C6533600   4.868   3.390  11.629 -0.4452 -0.8591 -0.3145
   14TAL    C6633601   4.744   3.310  11.581 -0.3391 -0.1938 -0.1535
   14TAL    C6733602   4.714   3.326  11.430  0.5757 -0.6209 -0.1156
   14TAL    C6833603   4.566   3.268  11.403 -0.1374 -0.4345  0.6879
   14TAL    C6933604   4.503   3.316  11.271 -0.2712 -0.2076  0.5724
   14TAL    C7033605   4.375   3.235  11.248  0.1892  0.1530 -0.1262
   15HTM    C7133606   5.039   3.559  11.382  0.3722 -0.2405  0.1451
   15HTM    C7233607   4.988   3.585  11.258  0.6952 -0.2056  0.0176
   15HTM    C7333608   4.984   3.725  11.225  0.7272 -0.1928  0.0682
   15HTM    C7433609   5.031   3.806  11.324  0.4285 -0.2179  0.2345
   15HTM     S833610   5.086   3.711  11.467  0.0810 -0.2601  0.3404
   16TAL    C7533611   4.941   3.777  11.082 -0.1422 -0.6026 -0.0580
   16TAL    C7633612   4.875   3.697  10.973  0.4905 -0.3986  0.5168
   16TAL    C7733613   4.725   3.735  10.981 -0.4609 -0.0990 -1.0222
   16TAL    C7833614   4.637   3.695  10.861 -0.2371 -0.5101 -0.1186
   16TAL    C7933615   4.598   3.550  10.868 -0.7154 -0.2641 -0.3392
   16TAL    C8033616   4.465   3.518  10.925  0.4581  0.0192  0.4362
   17HTM    C8133617   5.012   3.949  11.335 -0.5237  0.0005 -0.5164
   17HTM    C8233618   5.072   4.048  11.264 -0.1400  0.0330 -0.1550
   17HTM    C8333619   5.048   4.180  11.316  0.3211 -0.0502  0.2913
   17HTM    C8433620   4.968   4.181  11.427  0.2888 -0.1464  0.2696
   17HTM     S933621   4.918   4.015  11.475 -0.3314 -0.1390 -0.3200
   18TAL    C8533622   5.106   4.308  11.248  0.4852  0.8774 -0.2684
   18TAL    C8633623   5.247   4.345  11.237  0.0654 -1.0492 -0.4080
   18TAL    C8733624   5.321   4.386  11.367  0.1863  0.7595 -0.0285
   18TAL    C8833625   5.455   4.454  11.355 -1.1420  0.0447  0.9010
   18TAL    C8933626   5.463   4.581  11.273 -0.2503 -0.3730 -0.6713
   18TAL    C9033627   5.609   4.626  11.274 -0.2543 -0.1662  0.0732
   19HTM    C9133628   4.894   4.291  11.492 -0.7622 -0.3311 -0.0079
   19HTM    C9233629   4.888   4.333  11.621 -0.5784 -0.5292  0.0656
   19HTM    C9333630   4.810   4.453  11.640  0.1528 -0.0720  0.2394
   19HTM    C9433631   4.758   4.503  11.525  0.5265  0.4744  0.2982
   19HTM    S1033632   4.802   4.402  11.382 -0.0206  0.4539  0.1375
   20TAL    C9533633   4.801   4.504  11.782  0.5266 -0.2673  0.0755
   20TAL    C9633634   4.874   4.632  11.814 -0.3878 -0.4445 -0.0606
   20TAL    C9733635   4.817   4.679  11.949 -0.7140  0.2862  0.1698
   20TAL    C9833636   4.887   4.805  11.987 -0.0321 -0.2842  0.3320
   20TAL    C9933637   4.797   4.924  11.954  0.0773  0.0741  0.0415
   20TAL   C10033638   4.849   5.051  12.007  0.1505 -0.6257  0.8197
   21HTM   C10133639   4.664   4.617  11.508  0.5128  0.1461  0.3384
   21HTM   C10233640   4.573   4.671  11.594  0.6326  0.2155  0.4215
   21HTM   C10333641   4.524   4.800  11.554  0.4556  0.1117  0.3016
   21HTM   C10433642   4.578   4.845  11.436  0.2009 -0.0370  0.1277
   21HTM    S1133643   4.695   4.726  11.368  0.1645 -0.0573  0.1011
   22TAL   C10533644   4.422   4.866  11.637 -0.1006  1.2575 -0.7253
   22TAL   C10633645   4.311   4.793  11.717 -0.4662 -1.2985 -0.0350
   22TAL   C10733646   4.237   4.882  11.822 -0.0016  0.1381  0.6363
   22TAL   C10833647   4.301   4.906  11.963  0.5282  0.3800 -0.6547
   22TAL   C10933648   4.332   4.784  12.054 -0.1246  0.1628 -0.0447
   22TAL   C11033649   4.205   4.708  12.097 -0.7837 -0.7501  0.0515
   23HTM   C11133650   4.560   4.979  11.367  0.2270  0.1317  0.2622
   23HTM   C11233651   4.653   5.038  11.287  0.0035  0.2762  0.1032
   23HTM   C11333652   4.603   5.150  11.212 -0.3607  0.0441 -0.0062
   23HTM   C11433653   4.472   5.177  11.235 -0.4151 -0.2776  0.0688
   23HTM    S1233654   4.400   5.062  11.353 -0.0070 -0.3123  0.2852
   24TAL   C11533655   4.692   5.231  11.126  0.3560 -0.2214  0.5683
   24TAL   C11633656   4.701   5.163  10.981 -0.5935  0.6191  0.5422
   24TAL   C11733657   4.834   5.087  10.958  0.1841 -0.2583  0.5916
   24TAL   C11833658   4.960   5.152  10.900 -0.0020  0.0022  0.2983
   24TAL   C11933659   5.026   5.045  10.814  0.5153 -0.3686  0.0555
   24TAL   C12033660   5.083   5.120  10.693  0.5124 -0.2054 -0.2515
   25HTM   C12133661   4.383   5.291  11.193  0.1798  0.1188 -0.1290
   25HTM   C12233662   4.268   5.297  11.120  0.0404  0.1993  0.0956
   25HTM   C12333663   4.223   5.431  11.094  0.1886  0.2353  0.0205
   25HTM   C12433664   4.303   5.527  11.147  0.4409  0.1823 -0.2615
   25HTM    S1333665   4.444   5.456  11.235  0.5116  0.0820 -0.4551
   26TAL   C12533666   4.089   5.463  11.031 -0.1173 -0.1812  0.2325
   26TAL   C12633667   4.028   5.372  10.923 -1.0839  0.1822  0.3902
   26TAL   C12733668   3.906   5.432  10.856  0.9287  0.4806  0.3995
   26TAL   C12833669   3.860   5.349  10.736 -0.1200  0.5531  0.1738
   26TAL   C12933670   3.741   5.412  10.661 -0.1963  0.8303 -0.3532
   26TAL   C13033671   3.677   5.320  10.557 -0.9195 -1.5887 -0.3635
   27HTM   C13133672   4.292   5.673  11.144  0.1252 -0.2603  0.3910
   27HTM   C13233673   4.347   5.763  11.057  0.8973 -0.2337  0.8812
   27HTM   C13333674   4.294   5.896  11.071  1.3741 -0.0515  0.9942
   27HTM   C13433675   4.199   5.908  11.168  0.9658  0.0606  0.5903
   27HTM    S1433676   4.169   5.750  11.251 -0.0604 -0.0560  0.0313
   28TAL   C13533677   4.333   6.001  10.967  0.5977  0.1642  0.0915
   28TAL   C13633678   4.278   5.961  10.828  0.3666 -0.4555 -0.9324
   28TAL   C13733679   4.358   6.014  10.707 -1.2720 -0.9613 -0.6589
   28TAL   C13833680   4.314   5.954  10.577  0.2205 -0.2623  0.1735
   28TAL   C13933681   4.318   5.803  10.556 -0.0449  0.6518 -0.3451
   28TAL   C14033682   4.447   5.728  10.559 -0.1173 -0.1325  0.0338
   29HTM   C14133683   4.124   6.029  11.209 -0.3534 -0.0635  0.2284
   29HTM   C14233684   4.025   6.098  11.147 -0.5287 -0.0025  0.5682
   29HTM   C14333685   3.989   6.221  11.212 -0.0414  0.1533  0.5491
   29HTM   C14433686   4.062   6.246  11.325  0.5053  0.2110  0.1943
   29HTM    S1533687   4.181   6.115  11.358  0.4469  0.0720 -0.1455
   30TAL   C14533688   3.872   6.299  11.157  0.0500 -0.8576 -0.1439
   30TAL   C14633689   3.830   6.306  11.012 -0.6432 -0.5939  0.6732
   30TAL   C14733690   3.690   6.358  10.965 -0.0268  0.5086 -0.2118
   30TAL   C14833691   3.568   6.273  11.002 -0.7524 -0.0333 -0.3356
   30TAL   C14933692   3.436   6.341  10.959 -1.1472 -0.2551  0.4877
   30TAL   C15033693   3.316   6.303  11.044 -0.1474  0.3160  0.1488
   31HTM   C15133694   4.047   6.357  11.424  0.5008  0.3027  0.0940
   31HTM   C15233695   4.126   6.370  11.535  0.6299  0.2801  0.0057
   31HTM   C15333696   4.098   6.488  11.612  0.3666  0.0001  0.3421
   31HTM   C15433697   3.997   6.565  11.561  0.0366 -0.1909  0.6874
   31HTM    S1633698   3.931   6.494  11.409  0.0329 -0.0307  0.6135
   32TAL   C15533699   4.193   6.515  11.728  0.4360 -0.4004  0.4131
   32TAL   C15633700   4.181   6.416  11.845 -0.6547  0.0326  0.1218
   32TAL   C15733701   4.050   6.357  11.914 -0.4966  0.3053  0.2123
   32TAL   C15833702   3.951   6.441  11.992  0.6307 -0.5480 -0.3269
   32TAL   C15933703   4.007   6.535  12.097  0.5445  0.6829  0.5233
   32TAL   C16033704   3.908   6.593  12.201  0.3830  0.2445  0.2629
   33HTM   C16133705   3.940   6.693  11.591 -0.5420 -0.2972 -0.3355
   33HTM   C16233706   3.862   6.774  11.514 -1.0547 -0.5856 -0.1233
   33HTM   C16333707   3.819   6.894  11.582 -0.8631 -0.4824 -0.1848
   33HTM   C16433708   3.866   6.905  11.709 -0.2042 -0.1155 -0.4436
   33HTM    S1733709   3.967   6.763  11.755  0.2288  0.1300 -0.6319
   34TAL   C16533710   3.717   6.996  11.527  0.4983  0.1346  0.0752
   34TAL   C16633711   3.763   7.104  11.425  0.7823 -0.0776  0.0410
   34TAL   C16733712   3.847   7.052  11.312  0.6014  0.7102 -1.1694
   34TAL   C16833713   3.957   7.139  11.306 -0.5298 -1.8097  0.6474
   34TAL   C16933714   4.017   7.156  11.167 -0.1048  0.0916 -0.8820
   34TAL   C17033715   4.128   7.253  11.174 -0.1419 -0.0570 -0.3591
   35HTM   C17133716   3.841   7.003  11.807  0.2024 -0.4376  0.2834
   35HTM   C17233717   3.924   7.109  11.831  0.2426 -0.4001 -0.0112
   35HTM   C17333718   3.869   7.206  11.921  0.3152 -0.1693 -0.2129
   35HTM   C17433719   3.744   7.175  11.966  0.3305 -0.0308 -0.0726
   35HTM    S1833720   3.686   7.019  11.897  0.2536 -0.1825  0.3293
   36TAL   C17533721   3.942   7.328  11.966 -0.1900  0.3398 -0.1673
   36TAL   C17633722   3.979   7.426  11.862  0.0393 -0.5067 -0.5211
   36TAL   C17733723   4.057   7.391  11.737  0.8107  0.6698  0.6962
   36TAL   C17833724   4.088   7.504  11.646 -1.0665 -0.3570  0.1492
   36TAL   C17933725   3.981   7.525  11.542 -0.6315  0.7789 -0.0449
   36TAL   C18033726   4.005   7.641  11.438  0.7556  1.0738  0.5189
   37HTM   C18133727   3.650   7.242  12.062  0.0532 -0.3361  0.4082
   37HTM   C18233728   3.532   7.299  12.026  0.1892 -0.2249  0.1349
   37HTM   C18333729   3.465   7.368  12.133  0.2840  0.3394 -0.1566
   37HTM   C18433730   3.532   7.363  12.252  0.2204  0.6588 -0.1055
   37HTM    S1933731   3.687   7.271  12.237  0.0343  0.2681  0.3177
   38TAL   C18533732   3.330   7.421  12.086  0.3529 -0.2269 -1.1479
   38TAL   C18633733   3.313   7.570  12.103 -1.0141  0.1503  0.3218
   38TAL   C18733734   3.182   7.637  12.057  0.1044  0.1860  0.5710
   38TAL   C18833735   3.159   7.665  11.912  0.2681  0.3759  0.7239
   38TAL   C18933736   3.034   7.747  11.900 -0.4199 -0.0977  0.2360
   38TAL   C19033737   3.007   7.767  11.757  0.1483  0.3003 -0.9626
   39HTM   C19133738   3.513   7.432  12.383 -0.0102 -0.1658  0.0241
   39HTM   C19233739   3.394   7.468  12.439  0.1349  0.3045  0.0441
   39HTM   C19333740   3.407   7.535  12.566  0.4338  0.6127 -0.1473
   39HTM   C19433741   3.536   7.551  12.606  0.5165  0.3775 -0.3134
   39HTM    S2033742   3.652   7.482  12.487  0.2209 -0.2565 -0.2403
   40TAL   C19533743   3.292   7.557  12.658  1.1574  0.0960  0.0178
   40TAL   C19633744   3.209   7.436  12.720 -0.2642 -0.2541 -0.7799
   40TAL   C19733745   3.266   7.377  12.846  0.1449 -0.1864 -0.5270
   40TAL   C19833746   3.163   7.300  12.929  0.5934 -0.1109 -0.4683
   40TAL   C19933747   3.076   7.393  12.999  1.0537 -0.9222  0.5931
   40TAL   C20033748   2.946   7.341  13.019  0.9703  0.1269 -0.2179
   41HTM   C20133749   3.589   7.613  12.727  0.1377  0.6060  0.0073
   41HTM   C20233750   3.576   7.570  12.856  0.1751  0.5544 -0.0069
   41HTM   C20333751   3.674   7.626  12.946  0.2205  0.4948 -0.0186
   41HTM   C20433752   3.761   7.712  12.886  0.2178  0.5008 -0.0137
   41HTM    S2133753   3.726   7.729  12.710  0.1572  0.5830  0.0064
   42TAL   C20533754   3.680   7.571  13.082 -0.2659  0.0026 -0.0994
   42TAL   C20633755   3.687   7.417  13.095  0.8255  0.5598 -0.2626
   42TAL   C20733756   3.728   7.376  13.240  0.4135 -0.0006  0.5671
   42TAL   C20833757   3.763   7.238  13.262 -0.2439 -0.4080 -0.0436
   42TAL   C20933758   3.757   7.188  13.406  1.0606 -0.4851 -0.7476
   42TAL   C21033759   3.615   7.201  13.466 -0.0756 -0.1727 -0.4548
   43HTM   C21133760   3.868   7.792  12.943  0.1002 -0.8696 -0.8238
   43HTM   C21233761   3.892   7.924  12.920 -0.3921 -0.8814 -1.4188
   43HTM   C21333762   4.026   7.966  12.949 -0.7213 -0.1038 -0.9506
   43HTM   C21433763   4.106   7.865  12.996 -0.4801  0.5010  0.0020
   43HTM    S2233764   4.016   7.709  13.006  0.1868  0.1323  0.3841
   44TAL   C21533765   4.083   8.111  12.911  0.5463  0.7503 -1.5744
   44TAL   C21633766   4.102   8.128  12.764 -0.2507  0.0117 -0.4436
   44TAL   C21733767   4.203   8.030  12.718 -0.4923  0.0509  0.6291
   44TAL   C21833768   4.207   8.007  12.568 -0.3286  0.2080 -0.0407
   44TAL   C21933769   4.322   7.906  12.531  0.8906 -0.4032  0.8493
   44TAL   C22033770   4.464   7.959  12.539  0.0770  0.0155 -0.7061
   45HTM   C22133771   4.246   7.849  13.038  0.2929 -0.4273 -0.1503
   45HTM   C22233772   4.291   7.872  13.164  0.2614 -0.9016 -0.0529
   45HTM   C22333773   4.433   7.853  13.179  0.2589 -0.9497 -0.0889
   45HTM   C22433774   4.496   7.816  13.064  0.2884 -0.5120 -0.2144
   45HTM    S2333775   4.380   7.803  12.926  0.3221 -0.0012 -0.2971
   46TAL   C22533776   4.505   7.899  13.302  0.0039  0.8873  0.4779
   46TAL   C22633777   4.441   7.877  13.439  0.3578  0.2168  0.4045
   46TAL   C22733778   4.533   7.908  13.556 -0.9527  0.0319  0.2355
   46TAL   C22833779   4.499   7.870  13.696  0.1396  0.8895  0.2326
   46TAL   C22933780   4.610   7.879  13.799  0.9178  1.6309 -0.5963
   46TAL   C23033781   4.681   8.003  13.833 -0.6376  0.7459  0.3114
   47HTM   C23133782   4.636   7.793  13.040  0.3978  0.1620 -0.0319
   47HTM   C23233783   4.729   7.722  13.110  0.5573  1.0326  0.6764
   47HTM   C23333784   4.863   7.739  13.062  0.6409  1.5187  1.0667
   47HTM   C23433785   4.873   7.823  12.956  0.5448  1.0187  0.6560
   47HTM    S2433786   4.712   7.888  12.907  0.3399 -0.1136 -0.2632
   48TAL   C23533787   4.983   7.673  13.111 -0.6099 -0.7854 -1.0488
   48TAL   C23633788   5.036   7.701  13.257 -0.3830  1.5030  0.1747
   48TAL   C23733789   5.129   7.819  13.290 -0.1035  0.8204 -0.2436
   48TAL   C23833790   5.275   7.813  13.223  0.8311  0.0185 -0.1692
   48TAL   C23933791   5.335   7.949  13.247 -0.2039  0.5673 -0.7752
   48TAL   C24033792   5.298   8.050  13.145 -0.1689 -0.8523 -0.4081
    11RH     C133793   6.854   4.100  22.826  0.1550  0.2884  0.1712
    11RH     C233794   6.721   4.041  22.854  0.1012  0.3576  0.0653
    11RH     N133795   6.843   4.214  22.742  0.2779  0.3157  0.1915
    11RH     S133796   6.591   4.137  22.768  0.2154  0.4542 -0.0017
    11RH     C333797   6.718   4.252  22.700  0.3290  0.3984  0.1144
    11RH     C433798   6.970   4.294  22.707 -0.9545 -0.1773  0.9463
    11RH     S233799   6.677   4.382  22.600  0.4722  0.4463  0.1187
    11RH     O133800   6.963   4.059  22.869  0.1014  0.2152  0.2360
    11RH     C533801   6.704   3.932  22.930 -0.0138  0.3485  0.0263
    21BTZ    C633802   6.587   3.860  22.970  0.2335  0.4276  0.4986
    21BTZ    C733803   6.466   3.900  22.919  0.3177  0.5797  0.4191
    21BTZ    C833804   6.590   3.743  23.054  0.0859  0.2044  0.2003
    21BTZ    C933805   6.344   3.829  22.948  0.2619  0.5208  0.0443
    21BTZ   C1033806   6.342   3.717  23.027  0.1219  0.3099 -0.2495
    21BTZ   C1133807   6.466   3.671  23.083  0.0293  0.1445 -0.1802
    21BTZ    N233808   6.701   3.694  23.110 -0.0068  0.0417  0.2432
    21BTZ    N333809   6.477   3.564  23.162 -0.1088 -0.0663 -0.4435
    21BTZ    S333810   6.651   3.551  23.204 -0.1738 -0.2000 -0.2109
    31IDT   C1233811   6.211   3.640  23.037  0.3947 -0.0831 -0.1884
    31IDT   C1333812   6.159   3.556  23.132  0.4780 -0.2924 -0.3247
    31IDT   C1433813   6.026   3.513  23.101  0.4711 -0.2670 -0.3309
    31IDT   C1533814   5.976   3.563  22.983  0.3825 -0.0389 -0.1991
    31IDT    S433815   6.095   3.670  22.900  0.3007  0.1636 -0.0560
    4IDB    C1633816   5.850   3.499  22.946  0.3691  0.2040 -0.3078
    4IDB    C1733817   5.820   3.400  23.044  0.5412  0.1904 -0.2675
    51IDQ   C1833818   5.927   3.399  23.160  0.4709 -0.7884  0.5651
    4IDB    C1933819   5.706   3.320  23.033  0.5587  0.1441 -0.1166
    51IDQ   C2033820   5.854   3.436  23.285 -0.5981 -0.0190  1.2644
    51IDQ   C2133821   5.998   3.262  23.188  0.1150  0.0031  0.0775
    51IDQ   C2233822   5.994   3.125  23.104 -0.6659  0.1680 -0.1577
    51IDQ   C2333823   5.838   3.576  23.348  0.0660 -0.2972  1.1961
    51IDQ   C2433824   6.044   3.138  22.965  0.3144 -0.8351 -0.3508
    51IDQ   C2533825   6.124   3.042  22.897  0.0009  0.5400  1.3282
    51IDQ   C2633826   6.245   2.963  22.958  0.5024  0.6365  0.1821
    51IDQ   C2733827   6.301   2.843  22.875  0.2696  0.2132  0.5691
    51IDQ   C2833828   6.398   2.746  22.928  0.1833 -0.6706  0.2533
    51IDQ   C2933829   6.331   2.624  22.995  0.4119  0.1684 -0.7265
    51IDQ   C3033830   5.737   3.568  23.469 -0.3442  0.2013  0.1979
    51IDQ   C3133831   5.737   3.688  23.562  0.0149  0.1616  1.4249
    51IDQ   C3233832   5.868   3.709  23.643  0.5938 -0.8617 -0.1587
    51IDQ   C3333833   5.879   3.648  23.778 -0.1632  0.0369  0.6518
    51IDQ   C3433834   6.029   3.651  23.825 -0.0924  0.5753 -0.1167
    51IDQ   C3533835   6.043   3.620  23.973 -0.2906  0.8678 -0.0356
    4IDB    C3633836   5.766   3.519  22.836  0.2123  0.1709 -0.1955
    4IDB    C3733837   5.650   3.437  22.826  0.2327  0.1237 -0.0415
    11RH    C3833838   7.002   4.408  22.800 -0.0861  0.1896  0.0580
    4IDB    C3933839   5.622   3.340  22.923  0.4019  0.1111 -0.0049
    62IDT   C4033840   5.508   3.263  22.881 -0.3941  0.2354  0.7030
    72IDQ   C4133841   5.537   3.434  22.720 -0.4259 -1.1885 -0.4003
    62IDT   C4233842   5.455   3.310  22.763 -0.9906  0.5291  1.0757
    72IDQ   C4333843   5.595   3.431  22.575  0.0675  0.4990  0.0196
    72IDQ   C4433844   5.421   3.537  22.741 -0.2359  0.0251 -0.9482
    62IDT    S533845   5.438   3.103  22.926  0.4224 -0.2605  0.2685
    62IDT   C4533846   5.337   3.110  22.775 -0.1118 -0.0336  0.6314
    62IDT   C4633847   5.359   3.224  22.703 -0.8320  0.3776  1.0352
    82BTZ   C4733848   5.242   3.004  22.752  0.2508 -0.4010  0.3993
    82BTZ   C4833849   5.185   2.946  22.863  0.1198 -0.4293  0.3161
    82BTZ   C4933850   5.109   2.824  22.853 -0.2649 -0.1798  0.1202
    82BTZ   C5033851   5.090   2.759  22.734 -0.5179  0.0976  0.0072
    82BTZ   C5133852   5.225   2.940  22.625 -0.0035 -0.1150  0.2871
    82BTZ   C5233853   5.148   2.816  22.616 -0.3945  0.1387  0.0868
    92RH    C5333854   5.005   2.640  22.723  0.0503  0.6879  0.2748
    82BTZ    N433855   5.276   2.986  22.511  0.0910 -0.0596  0.3514
    82BTZ    N533856   5.137   2.762  22.494 -0.6143  0.3979 -0.0091
    82BTZ    S633857   5.227   2.871  22.383 -0.3249  0.3274  0.1554
    92RH    C5433858   4.922   2.580  22.809 -0.0139  0.4328  0.0391
    92RH     S733859   4.868   2.644  22.972  0.1137 -0.1871  0.3305
    92RH    C5533860   4.859   2.448  22.784 -0.2049  0.6219 -0.5145
    92RH     O233861   4.876   2.378  22.683 -0.3258  1.0301 -0.8187
    92RH     N633862   4.777   2.409  22.892 -0.2348  0.2761 -0.6610
    92RH    C5633863   4.765   2.493  23.000 -0.0913 -0.1667 -0.2923
    92RH    C5733864   4.721   2.270  22.903 -0.0286  0.5194 -0.6779
    92RH    C5833865   4.795   2.176  22.999 -0.6717 -0.2220  0.1535
    92RH     S833866   4.674   2.470  23.140 -0.0911 -0.6380 -0.3662
    72IDQ   C5933867   5.431   3.659  22.832 -0.4361  0.5694 -0.1536
    72IDQ   C6033868   5.332   3.662  22.939 -0.2628  0.2123 -0.3750
    72IDQ   C6133869   5.388   3.744  23.053 -0.0690 -0.4461  0.8109
    72IDQ   C6233870   5.469   3.683  23.162  0.6008  0.2043  0.7903
    72IDQ   C6333871   5.535   3.770  23.266 -0.2140  0.0891  1.4408
    72IDQ   C6433872   5.615   3.893  23.222  0.0216 -0.4165 -0.5128
    72IDQ   C6533873   5.643   3.962  23.354 -1.1237 -0.0983 -0.7257
    72IDQ   C6633874   5.710   3.515  22.530 -0.4714  1.0752  0.3615
    72IDQ   C6733875   5.737   3.542  22.378 -0.5960 -0.3102  0.2847
    72IDQ   C6833876   5.871   3.612  22.343 -0.9121  0.4971 -0.2151
    72IDQ   C6933877   6.011   3.536  22.361  0.3470 -0.4070 -0.5125
    72IDQ   C7033878   6.141   3.603  22.355  0.4575 -0.6735  0.0497
    72IDQ   C7133879   6.133   3.751  22.302  0.0728 -0.0139  0.2207
    72IDQ   C7233880   6.264   3.814  22.323 -0.0546 -0.4639  0.3135
    11RH     C133881   3.626   4.698  18.677 -0.1705 -0.2689 -0.1068
    11RH     C233882   3.602   4.741  18.537 -0.0417 -0.1429 -0.0906
    11RH     N133883   3.720   4.593  18.683 -0.4449 -0.5176 -0.1410
    11RH     S133884   3.704   4.640  18.423 -0.2895 -0.3594 -0.1221
    11RH     C333885   3.774   4.546  18.565 -0.5513 -0.6063 -0.1545
    11RH     C433886   3.755   4.543  18.818 -0.5035 -0.0612 -0.3517
    11RH     S233887   3.886   4.422  18.544 -0.8698 -0.8931 -0.1950
    11RH     O133888   3.572   4.746  18.778 -0.0569 -0.1730 -0.0920
    11RH     C533889   3.517   4.839  18.504  0.2172  0.0936 -0.0580
    21BTZ    C633890   3.477   4.891  18.364  0.1855 -0.1008  0.0127
    21BTZ    C733891   3.526   4.836  18.249  0.1084 -0.0962 -0.0224
    21BTZ    C833892   3.394   5.008  18.355  0.1635 -0.1118  0.0715
    21BTZ    C933893   3.497   4.893  18.119  0.0065 -0.1020 -0.0014
    21BTZ   C1033894   3.418   5.004  18.106 -0.0181 -0.1125  0.0544
    21BTZ   C1133895   3.364   5.065  18.223  0.0600 -0.1175  0.0920
    21BTZ    N233896   3.341   5.071  18.460  0.2322 -0.1171  0.1097
    21BTZ    N333897   3.287   5.174  18.223  0.0454 -0.1276  0.1473
    21BTZ    S333898   3.248   5.209  18.394  0.1658 -0.1303  0.1754
    31IDT   C1233899   3.390   5.045  17.966 -0.3224 -0.7817  0.1052
    31IDT   C1333900   3.273   5.102  17.924 -0.1890 -0.5457  0.0486
    31IDT   C1433901   3.264   5.114  17.782  0.1765  0.0665  0.0744
    31IDT   C1533902   3.375   5.067  17.715  0.3238  0.3006  0.1516
    31IDT    S433903   3.500   5.003  17.828  0.0081 -0.2410  0.1965
    4IDB    C1633904   3.349   5.056  17.572  0.4058 -0.1992 -0.2415
    4IDB    C1733905   3.223   5.118  17.548  0.2648 -0.2817  0.2732
    51IDQ   C1833906   3.160   5.170  17.678 -1.0341 -0.4330 -0.1411
    4IDB    C1933907   3.172   5.129  17.419 -0.1632 -0.1099  0.4537
    51IDQ   C2033908   3.135   5.317  17.659  0.1904 -0.4703 -0.5621
    51IDQ   C2133909   3.033   5.110  17.732  0.8745  0.3816 -0.6380
    51IDQ   C2233910   2.959   4.998  17.668 -0.5402  0.8823 -0.1754
    51IDQ   C2333911   3.193   5.426  17.754 -0.1553 -0.5812 -0.3649
    51IDQ   C2433912   2.819   5.045  17.629 -0.4323 -0.2933 -0.5438
    51IDQ   C2533913   2.739   4.923  17.601  0.6759  0.7472  0.5364
    51IDQ   C2633914   2.697   4.834  17.716  0.4419 -1.0033 -1.0052
    51IDQ   C2733915   2.613   4.714  17.697 -0.3616  0.3274  0.0024
    51IDQ   C2833916   2.590   4.637  17.825  0.7942 -1.0778  0.8682
    51IDQ   C2933917   2.598   4.496  17.796 -0.5301  0.6838  0.4029
    51IDQ   C3033918   3.159   5.575  17.730  0.9255 -1.0929  0.8815
    51IDQ   C3133919   3.056   5.639  17.819  0.2906 -0.3760 -0.5508
    51IDQ   C3233920   3.019   5.788  17.795  1.0104  0.6259 -0.4240
    51IDQ   C3333921   3.059   5.867  17.673 -0.6062 -0.5651  0.8071
    51IDQ   C3433922   3.000   5.823  17.540 -0.0447  0.4454 -0.1003
    51IDQ   C3533923   3.063   5.886  17.430  0.2273  0.5130  0.1273
    4IDB    C3633924   3.426   5.005  17.466  0.1174  0.0575 -0.5803
    4IDB    C3733925   3.372   5.017  17.335 -0.3188  0.2302 -0.3891
    11RH    C3833926   3.891   4.558  18.892  0.1450  0.0332 -0.3538
    4IDB    C3933927   3.248   5.077  17.313 -0.4515  0.1465  0.1148
    62IDT   C4033928   3.211   5.061  17.175 -0.4690 -0.0424 -0.0936
    72IDQ   C4133929   3.437   4.971  17.204  1.2130  0.1258  0.0024
    62IDT   C4233930   3.319   5.008  17.106 -0.1842  0.2575  0.1183
    72IDQ   C4333931   3.505   4.829  17.195  0.9568 -0.2553  0.8481
    72IDQ   C4433932   3.536   5.078  17.134  1.2155  0.4732 -0.1151
    62IDT    S533933   3.071   5.090  17.067 -0.3730 -0.5244 -0.3554
    62IDT   C4533934   3.170   5.027  16.928  0.0686 -0.2833 -0.1539
    62IDT   C4633935   3.296   4.989  16.967  0.1201  0.1217  0.0844
    82BTZ   C4733936   3.131   5.051  16.783  0.0979  0.2998 -0.1699
    82BTZ   C4833937   3.062   5.166  16.754 -0.2225  0.0829 -0.2799
    82BTZ   C4933938   3.047   5.213  16.619 -0.3659 -0.0950 -0.3257
    82BTZ   C5033939   3.100   5.145  16.512 -0.1887 -0.0554 -0.2629
    82BTZ   C5133940   3.189   4.977  16.674  0.2936  0.3498 -0.1001
    82BTZ   C5233941   3.173   5.025  16.537  0.1478  0.1689 -0.1469
    92RH    C5333942   3.114   5.193  16.374 -0.0171  0.0752 -0.2246
    82BTZ    N433943   3.258   4.863  16.690  0.6083  0.5544  0.0067
    82BTZ    N533944   3.230   4.950  16.441  0.3454  0.2284 -0.0772
    82BTZ    S633945   3.307   4.812  16.525  0.7341  0.5239  0.0539
    92RH    C5433946   3.073   5.304  16.311  0.0309  0.1248 -0.1698
    92RH     S733947   2.968   5.437  16.380  0.2098  0.2070 -0.0555
    92RH    C5533948   3.108   5.335  16.170 -0.0569  0.1200 -0.1931
    92RH     O233949   3.178   5.265  16.096 -0.1829  0.0708 -0.2651
    92RH     N633950   3.052   5.458  16.129  0.0206  0.1793 -0.1216
    92RH    C5633951   2.976   5.529  16.220  0.1599  0.2311 -0.0443
    92RH    C5733952   3.095   5.519  15.994  0.8128  1.6562  0.1266
    92RH    C5833953   3.166   5.654  15.990 -0.6928 -0.1122 -0.0188
    92RH     S833954   2.898   5.677  16.197  0.2745  0.3066  0.0491
    72IDQ   C5933955   3.645   5.170  17.203 -0.4626 -0.3674  0.6522
    72IDQ   C6033956   3.766   5.085  17.249 -0.0367 -0.5822  0.3430
    72IDQ   C6133957   3.878   5.170  17.300  0.4358  0.1523  0.3761
    72IDQ   C6233958   3.983   5.223  17.210  0.5173  0.2026 -0.6599
    72IDQ   C6333959   4.100   5.291  17.275 -0.3406 -0.0686  0.1154
    72IDQ   C6433960   4.204   5.347  17.163  0.3172 -0.7104 -0.2049
    72IDQ   C6533961   4.249   5.263  17.054  0.2759 -0.1549  0.2323
    72IDQ   C6633962   3.446   4.710  17.250  0.2317  0.7981  0.4314
    72IDQ   C6733963   3.331   4.654  17.156 -0.3430 -0.1228 -0.6408
    72IDQ   C6833964   3.274   4.514  17.196  0.1007  0.4220  0.6445
    72IDQ   C6933965   3.367   4.393  17.187 -0.3400 -0.5142  0.8213
    72IDQ   C7033966   3.302   4.267  17.237  0.1805  0.8366 -0.8784
    72IDQ   C7133967   3.198   4.205  17.146  0.0736  0.7062  0.1766
    72IDQ   C7233968   3.264   4.126  17.035  0.9344 -0.0734  0.4218
    11RH     C133969   0.342   2.639  16.814 -0.0070 -0.1514 -0.1230
    11RH     C233970   0.295   2.505  16.772 -0.2465 -0.0660 -0.1283
    11RH     N133971   0.287   2.741  16.733  0.0933 -0.0414 -0.0544
    11RH     S133972   0.180   2.521  16.630 -0.3242  0.1532 -0.0417
    11RH     C333973   0.201   2.704  16.632 -0.0366  0.1215 -0.0038
    11RH     C433974   0.312   2.883  16.764 -0.2497  0.0361  0.2055
    11RH     S233975   0.122   2.805  16.522  0.0416  0.2766  0.0815
    11RH     O133976   0.421   2.662  16.908  0.0966 -0.3003 -0.1721
    11RH     C533977   0.332   2.391  16.832 -0.3800 -0.1422 -0.1879
    21BTZ    C633978   0.314   2.247  16.804  0.3742  0.2028 -0.5914
    21BTZ    C733979   0.242   2.207  16.695  0.5761  0.1761 -0.7157
    21BTZ    C833980   0.367   2.147  16.892  0.1183  0.2267 -0.4048
    21BTZ    C933981   0.219   2.067  16.666  0.5370  0.1713 -0.6623
    21BTZ   C1033982   0.268   1.968  16.746  0.2962  0.1934 -0.4855
    21BTZ   C1133983   0.344   2.005  16.862  0.0786  0.2218 -0.3505
    21BTZ    N233984   0.439   2.173  17.001 -0.0935  0.2538 -0.2718
    21BTZ    N333985   0.397   1.918  16.948 -0.1652  0.2451 -0.1745
    21BTZ    S333986   0.481   2.015  17.073 -0.3583  0.2747 -0.0672
    31IDT   C1233987   0.233   1.823  16.725  0.5246 -0.6478  1.3516
    31IDT   C1333988   0.310   1.710  16.727 -0.1315 -1.1222  0.8383
    31IDT   C1433989   0.236   1.591  16.700 -0.7312 -0.5232 -0.2613
    31IDT   C1533990   0.102   1.613  16.677 -0.5367  0.4094 -0.5931
    31IDT    S433991   0.059   1.787  16.688  0.4298  0.6032  0.4713
    4IDB    C1633992   0.040   1.481  16.659 -0.3726  0.3449 -0.0073
    4IDB    C1733993   0.129   1.380  16.707  0.0093  0.1481 -1.0734
    51IDQ   C1833994   0.275   1.437  16.715 -0.1911  0.0717 -1.0928
    4IDB    C1933995   0.082   1.254  16.740  0.1892  0.1367 -0.8612
    51IDQ   C2033996   0.322   1.386  16.855 -0.0628  0.2817 -0.9547
    51IDQ   C2133997   0.379   1.386  16.612 -0.5727 -0.2692  0.4566
    51IDQ   C2233998   0.354   1.244  16.545  0.1275  0.2872  1.2120
    51IDQ   C2333999   0.376   1.483  16.965  0.6930 -0.1968 -0.1353
    51IDQ   C2434000   0.474   1.198  16.467  0.0563  0.2200  0.1749
    51IDQ   C2534001   0.449   1.050  16.453 -0.5564  0.2407 -1.6073
    51IDQ   C2634002   0.558   0.976  16.379 -0.5683  0.5287  0.0852
    51IDQ   C2734003   0.538   0.829  16.338 -0.5863 -0.2042  0.6702
    51IDQ   C2834004   0.525   0.712  16.435 -0.4931 -0.3202  0.1655
    51IDQ   C2934005   0.466   0.585  16.387  0.9255  0.4999  0.2192
    51IDQ   C3034006   0.408   1.426  17.099  0.3143  0.3632  0.5334
    51IDQ   C3134007   0.542   1.338  17.094  1.0871 -0.2384 -0.1075
    51IDQ   C3234008   0.572   1.267  17.225 -0.6886  0.1150 -1.0545
    51IDQ   C3334009   0.721   1.256  17.256 -0.4592  0.1028  0.0042
    51IDQ   C3434010   0.790   1.385  17.306 -0.8224  1.0348  0.2384
    51IDQ   C3534011   0.928   1.373  17.342 -1.0231  0.8225 -0.1948
    4IDB    C3634012  -0.098   1.455  16.644 -0.5777  0.5326  1.2865
    4IDB    C3734013  -0.143   1.325  16.678 -0.3892  0.5179  1.4853
    11RH    C3834014   0.242   2.968  16.880  0.0191  0.2116  0.1411
    4IDB    C3934015  -0.055   1.228  16.725 -0.0161  0.3244  0.4327
    62IDT   C4034016  -0.135   1.115  16.764 -0.3474 -0.0055 -0.7431
    72IDQ   C4134017  -0.290   1.280  16.681 -0.8681  0.5970 -0.9290
    62IDT   C4234018  -0.269   1.136  16.736 -0.4057 -0.3356 -0.7272
    72IDQ   C4334019  -0.376   1.284  16.551  0.3209  0.5368 -0.6276
    72IDQ   C4434020  -0.385   1.346  16.795 -0.1077  0.0828 -0.3416
    62IDT    S534021  -0.105   0.946  16.818 -0.0096  0.2186 -0.2189
    62IDT   C4534022  -0.282   0.912  16.798  0.0371 -0.1645  0.0052
    62IDT   C4634023  -0.352   1.021  16.755 -0.1885 -0.4260 -0.3047
    82BTZ   C4734024  -0.343   0.793  16.863  0.0818  0.0146  0.2354
    82BTZ   C4834025  -0.291   0.754  16.984 -0.2474  0.0897  0.4039
    82BTZ   C4934026  -0.333   0.632  17.049 -0.5075  0.1876  0.4210
    82BTZ   C5034027  -0.427   0.550  16.993 -0.4380  0.2103  0.2690
    82BTZ   C5134028  -0.441   0.710  16.801  0.1674  0.0348  0.0730
    82BTZ   C5234029  -0.484   0.586  16.867 -0.0972  0.1343  0.0901
    92RH    C5334030  -0.455   0.419  17.046  0.1628  0.3509  0.0514
    82BTZ    N434031  -0.499   0.737  16.684  0.4785 -0.0321 -0.0992
    82BTZ    N534032  -0.577   0.514  16.802  0.0017  0.1474 -0.0668
    82BTZ    S634033  -0.613   0.603  16.652  0.4463  0.0306 -0.2482
    92RH    C5434034  -0.416   0.339  17.146  0.1534  0.1919 -0.0706
    92RH     S734035  -0.286   0.375  17.271  0.0059  0.0751  0.1171
    92RH    C5534036  -0.473   0.205  17.171  0.2654  0.0828 -0.3881
    92RH     O234037  -0.563   0.151  17.104  0.3788  0.1246 -0.5746
    92RH     N634038  -0.413   0.143  17.283  0.2277 -0.0786 -0.4565
    92RH    C5634039  -0.314   0.211  17.351  0.0992 -0.1121 -0.2332
    92RH    C5734040  -0.452   0.008  17.322 -0.3556  0.1646  0.2502
    92RH    C5834041  -0.365  -0.100  17.262  1.5734 -0.1996 -1.1115
    92RH     S834042  -0.227   0.160  17.486  0.0296 -0.2929 -0.2561
    72IDQ   C5934043  -0.442   1.482  16.764 -0.2490  1.1894 -0.0129
    72IDQ   C6034044  -0.577   1.501  16.826  1.1251 -0.3024  1.1939
    72IDQ   C6134045  -0.663   1.598  16.724  0.1899  0.2140  0.9277
    72IDQ   C6234046  -0.805   1.559  16.713 -0.3138  0.2308 -0.4343
    72IDQ   C6334047  -0.859   1.462  16.604 -0.2086 -0.6408 -0.3754
    72IDQ   C6434048  -0.830   1.517  16.464  0.4031  0.5848 -1.2211
    72IDQ   C6534049  -0.899   1.446  16.347 -0.1388 -1.0072 -0.9335
    72IDQ   C6634050  -0.353   1.375  16.433 -0.0130  0.5583  0.3058
    72IDQ   C6734051  -0.411   1.299  16.318  0.0393 -1.2420  0.7181
    72IDQ   C6834052  -0.423   1.391  16.194  0.8657 -0.3733  0.2569
    72IDQ   C6934053  -0.496   1.350  16.064  0.1971 -0.4020  0.2650
    72IDQ   C7034054  -0.431   1.229  16.008  0.1258  0.3697 -0.0990
    72IDQ   C7134055  -0.498   1.158  15.889  0.1916 -1.9828 -0.9339
    72IDQ   C7234056  -0.647   1.137  15.922 -0.3632  0.6292  0.0835
    11RH     C134057   6.577   5.420  10.788 -0.2427 -0.1661  0.4022
    11RH     C234058   6.600   5.565  10.808 -0.0374 -0.1544  0.0873
    11RH     N134059   6.688   5.358  10.728 -0.3259 -0.4576  0.5447
    11RH     S134060   6.766   5.610  10.745  0.0326 -0.5276 -0.0007
    11RH     C334061   6.798   5.435  10.696 -0.2123 -0.6809  0.3824
    11RH     C434062   6.688   5.211  10.698  0.2461 -0.7275  0.3120
    11RH     S234063   6.942   5.386  10.624 -0.2759 -1.0443  0.4988
    11RH     O134064   6.474   5.358  10.820 -0.3334  0.0492  0.5302
    11RH     C534065   6.510   5.647  10.863  0.0747  0.0954 -0.0974
    21BTZ    C634066   6.512   5.794  10.882 -0.4216 -0.1307 -0.2148
    21BTZ    C734067   6.611   5.872  10.829 -0.4518 -0.1416 -0.2871
    21BTZ    C834068   6.412   5.856  10.963 -0.2699 -0.1432 -0.0162
    21BTZ    C934069   6.617   6.014  10.853 -0.3352 -0.1655 -0.1693
    21BTZ   C1034070   6.523   6.078  10.930 -0.1888 -0.1781  0.0207
    21BTZ   C1134071   6.417   6.000  10.988 -0.1514 -0.1674  0.1035
    21BTZ    N234072   6.311   5.790  11.021 -0.2266 -0.1343  0.0710
    21BTZ    N334073   6.320   6.051  11.065 -0.0129 -0.1780  0.2868
    21BTZ    S334074   6.216   5.913  11.110 -0.0285 -0.1570  0.3147
    31IDT   C1234075   6.527   6.224  10.925  0.2065 -0.5675  0.7390
    31IDT   C1334076   6.420   6.305  10.898 -0.1597 -0.8070  1.4222
    31IDT   C1434077   6.458   6.440  10.869 -0.6326 -0.7654  0.9713
    31IDT   C1534078   6.595   6.462  10.872 -0.6303 -0.4951 -0.0555
    31IDT    S434079   6.685   6.313  10.915 -0.0234 -0.2695 -0.5360
    4IDB    C1634080   6.622   6.600  10.838 -0.2413  0.1128  0.5295
    4IDB    C1734081   6.499   6.670  10.819 -0.0869  0.1307 -0.5376
    51IDQ   C1834082   6.384   6.572  10.835 -0.0809  1.0731 -0.9150
    4IDB    C1934083   6.499   6.805  10.785  0.2222  0.0721 -0.7837
    51IDQ   C2034084   6.278   6.619  10.951 -0.5653 -1.1214 -0.0743
    51IDQ   C2134085   6.296   6.556  10.700  0.2771 -0.2942 -0.1320
    51IDQ   C2234086   6.283   6.651  10.576 -0.1814  1.1839  0.0207
    51IDQ   C2334087   6.258   6.559  11.089 -0.6282 -0.3275  0.3528
    51IDQ   C2434088   6.144   6.724  10.554 -0.0878 -0.7534 -0.0209
    51IDQ   C2534089   6.113   6.808  10.430 -0.1196 -0.0984 -0.6258
    51IDQ   C2634090   6.002   6.906  10.443  0.9496 -1.0485  0.9176
    51IDQ   C2734091   5.867   6.847  10.429  0.4766 -0.2909  0.2035
    51IDQ   C2834092   5.762   6.957  10.450 -0.1751  0.6430  0.6453
    51IDQ   C2934093   5.626   6.899  10.450 -0.1387  0.6609 -1.4858
    51IDQ   C3034094   6.380   6.554  11.178  0.6892  0.1700 -0.2847
    51IDQ   C3134095   6.464   6.689  11.196  0.2695  0.3272 -0.2363
    51IDQ   C3234096   6.596   6.660  11.252 -0.1490 -0.0373 -0.4843
    51IDQ   C3334097   6.684   6.784  11.281 -0.2849  0.6238  0.5511
    51IDQ   C3434098   6.639   6.911  11.351  0.4949  0.2376 -0.0658
    51IDQ   C3534099   6.760   7.002  11.377  0.1871 -0.2928  1.0112
    4IDB    C3634100   6.746   6.664  10.823 -0.0863  0.0354  1.3618
    4IDB    C3734101   6.743   6.802  10.788  0.2296 -0.0237  1.0951
    11RH    C3834102   6.723   5.110  10.804 -0.7629  0.4821 -0.0313
    4IDB    C3934103   6.623   6.870  10.770  0.3772 -0.0053  0.0485
    62IDT   C4034104   6.647   7.007  10.727 -0.3511  0.0518  0.6011
    72IDQ   C4134105   6.864   6.902  10.775  0.0959 -0.5163 -0.2197
    62IDT   C4234106   6.782   7.031  10.739 -0.2811 -0.4661  0.8774
    72IDQ   C4334107   6.981   6.854  10.671  1.4853 -0.2354  0.7701
    72IDQ   C4434108   6.933   6.898  10.919 -0.1703  0.6418 -0.0871
    62IDT    S534109   6.559   7.150  10.663  0.3547  0.3199  0.2180
    62IDT   C4534110   6.718   7.238  10.655  0.7252 -0.3132  0.4636
    62IDT   C4634111   6.823   7.161  10.698  0.3276 -0.6731  0.8004
    82BTZ   C4734112   6.718   7.376  10.610 -0.0496  0.3961 -0.2260
    82BTZ   C4834113   6.604   7.451  10.623  0.0042  0.4290  0.0808
    82BTZ   C4934114   6.604   7.593  10.601  0.0482  0.4773  0.3860
    82BTZ   C5034115   6.718   7.661  10.566  0.0384  0.4927  0.3837
    82BTZ   C5134116   6.840   7.442  10.574 -0.0619  0.4105 -0.2415
    82BTZ   C5234117   6.840   7.587  10.552 -0.0172  0.4596  0.0687
    92RH    C5334118   6.728   7.805  10.541  0.4573  0.0016 -0.0779
    82BTZ    N434119   6.958   7.380  10.559 -0.1124  0.3818 -0.5257
    82BTZ    N534120   6.958   7.641  10.519 -0.0319  0.4704  0.0336
    82BTZ    S634121   7.076   7.507  10.515 -0.1051  0.4170 -0.4062
    92RH    C5434122   6.639   7.904  10.547  0.3589 -0.0881 -0.0498
    92RH     S734123   6.466   7.893  10.607  0.3066 -0.3210 -0.2414
    92RH    C5534124   6.668   8.043  10.505  0.2751 -0.0089  0.1478
    92RH     O234125   6.776   8.083  10.459  0.2854  0.1465  0.3078
    92RH     N634126   6.556   8.127  10.522  0.1793 -0.1334  0.1339
    92RH    C5634127   6.440   8.072  10.573  0.1764 -0.3026 -0.0513
    92RH    C5734128   6.569   8.266  10.491  1.1034 -0.3148  0.1733
    92RH    C5834129   6.635   8.358  10.596  0.5680  0.6210  0.3433
    92RH     S834130   6.294   8.150  10.603  0.0731 -0.4744 -0.1082
    72IDQ   C5934131   7.003   7.017  10.985  0.3248  0.1842 -0.0600
    72IDQ   C6034132   6.903   7.114  11.045 -0.4155 -0.0754  0.0850
    72IDQ   C6134133   6.984   7.225  11.121  0.2766  0.0036  0.8677
    72IDQ   C6234134   6.888   7.323  11.179 -0.5838 -0.1669 -0.9315
    72IDQ   C6334135   6.952   7.441  11.253  0.2886  0.4880  0.0416
    72IDQ   C6434136   6.865   7.508  11.368  0.0090  0.0374  0.8316
    72IDQ   C6534137   6.899   7.649  11.393  0.7390 -1.0040  0.1001
    72IDQ   C6634138   6.950   6.796  10.528 -0.1987 -0.7988  0.2600
    72IDQ   C6734139   7.055   6.798  10.416  0.0977  0.1075 -0.0269
    72IDQ   C6834140   6.990   6.733  10.294 -0.4701 -0.3687 -0.7964
    72IDQ   C6934141   7.080   6.742  10.175 -0.1307  0.2206 -0.2997
    72IDQ   C7034142   7.067   6.618  10.093 -0.0690 -0.3303 -0.2369
    72IDQ   C7134143   7.105   6.650   9.947 -0.8298  0.0715  1.0009
    72IDQ   C7234144   7.178   6.532   9.872  0.5762 -0.1880  1.0484
    11RH     C134145   1.240   2.605  21.831 -0.0700 -0.1281 -0.2370
    11RH     C234146   1.352   2.512  21.860 -0.0421 -0.0232 -0.0081
    11RH     N134147   1.198   2.594  21.697  0.2317 -0.1502 -0.3310
    11RH     S134148   1.395   2.416  21.710  0.3788  0.0395  0.0687
    11RH     C334149   1.263   2.504  21.615  0.4977 -0.0757 -0.2055
    11RH     C434150   1.085   2.684  21.657 -0.5372 -0.4379 -0.7901
    11RH     S234151   1.233   2.472  21.452  0.8817 -0.0825 -0.2766
    11RH     O134152   1.188   2.683  21.912 -0.3229 -0.1903 -0.3376
    11RH     C534153   1.410   2.502  21.980 -0.2925  0.0167  0.1179
    21BTZ    C634154   1.520   2.422  22.037  0.0291 -0.1459 -0.0098
    21BTZ    C734155   1.587   2.329  21.962  0.1593 -0.2052  0.1793
    21BTZ    C834156   1.551   2.434  22.176 -0.0523  0.1169 -0.0129
    21BTZ    C934157   1.686   2.242  22.021  0.2158 -0.0104  0.3734
    21BTZ   C1034158   1.719   2.250  22.153  0.1421  0.2431  0.3788
    21BTZ   C1134159   1.653   2.346  22.236  0.0052  0.3149  0.1845
    21BTZ    N234160   1.494   2.522  22.259 -0.1804  0.1984 -0.1864
    21BTZ    N334161   1.676   2.363  22.366 -0.0767  0.5554  0.1688
    21BTZ    S334162   1.568   2.495  22.420 -0.2341  0.5387 -0.1040
    31IDT   C1234163   1.827   2.165  22.198 -0.3890 -0.7280  0.2388
    31IDT   C1334164   1.832   2.100  22.318 -0.2709 -1.0427  0.0668
    31IDT   C1434165   1.938   2.005  22.326 -0.0451 -0.8115 -0.1583
    31IDT   C1534166   2.015   1.997  22.212  0.0102 -0.3204 -0.1597
    31IDT    S434167   1.959   2.110  22.084 -0.2215 -0.1105  0.1267
    4IDB    C1634168   2.121   1.913  22.235 -0.0675  0.1241  0.1183
    4IDB    C1734169   2.121   1.853  22.365 -0.0309 -0.0209  0.0525
    51IDQ   C1834170   2.013   1.926  22.436  1.3783  0.7644 -1.2164
    4IDB    C1934171   2.209   1.749  22.395 -0.0046 -0.0382 -0.0801
    51IDQ   C2034172   1.903   1.825  22.515 -1.2864  0.0844 -0.3322
    51IDQ   C2134173   2.077   2.020  22.545  0.2007 -1.1817  1.1361
    51IDQ   C2234174   2.219   2.035  22.599 -0.2709  0.1882  0.6295
    51IDQ   C2334175   1.769   1.785  22.457 -0.4527 -0.0901 -0.5056
    51IDQ   C2434176   2.273   1.931  22.695  0.1681 -0.5803  0.0458
    51IDQ   C2534177   2.207   1.893  22.828  0.7450 -0.1175 -0.4314
    51IDQ   C2634178   2.242   1.772  22.916  0.1398 -0.3568 -1.0809
    51IDQ   C2734179   2.139   1.762  23.023  0.4399 -0.0486 -0.4812
    51IDQ   C2834180   2.132   1.870  23.133  0.2212 -0.8262 -0.6443
    51IDQ   C2934181   2.256   1.862  23.226 -0.3549  0.2856 -0.2408
    51IDQ   C3034182   1.730   1.648  22.528  0.6696 -0.2601 -0.0891
    51IDQ   C3134183   1.578   1.601  22.509 -0.3541 -0.4098  0.5464
    51IDQ   C3234184   1.528   1.517  22.621 -0.4296  0.1516 -1.2433
    51IDQ   C3334185   1.381   1.495  22.608  0.0825 -0.3352 -0.1491
    51IDQ   C3434186   1.314   1.427  22.728 -0.7765  0.3351 -0.1803
    51IDQ   C3534187   1.342   1.274  22.714 -0.3798  0.0110 -0.1345
    4IDB    C3634188   2.209   1.869  22.135 -0.0781  0.2535  0.0520
    4IDB    C3734189   2.298   1.763  22.168 -0.0507  0.2336 -0.0834
    11RH    C3834190   0.959   2.630  21.611 -0.1441 -0.6895  0.2137
    4IDB    C3934191   2.297   1.706  22.295 -0.0151  0.0911 -0.1461
    62IDT   C4034192   2.376   1.591  22.289 -0.3378 -0.2643 -0.2925
    72IDQ   C4134193   2.396   1.680  22.075  0.0342  0.3227  0.0990
    62IDT   C4234194   2.433   1.559  22.167 -0.1580 -0.0560 -0.2637
    72IDQ   C4334195   2.522   1.755  22.039 -0.8842 -0.4880 -0.2369
    72IDQ   C4434196   2.344   1.615  21.943  0.4991  1.4675  0.2251
    62IDT    S534197   2.403   1.462  22.411 -0.3754 -0.3995 -0.4265
    62IDT   C4534198   2.494   1.367  22.285 -0.1343 -0.1553 -0.4368
    62IDT   C4634199   2.500   1.433  22.165 -0.0428  0.0059 -0.3452
    82BTZ   C4734200   2.556   1.234  22.332 -0.1489 -0.0098 -0.0729
    82BTZ   C4834201   2.489   1.165  22.429 -0.0455  0.1110  0.0873
    82BTZ   C4934202   2.524   1.029  22.463 -0.0117  0.1523  0.2155
    82BTZ   C5034203   2.626   0.964  22.401 -0.0813  0.0729  0.1847
    82BTZ   C5134204   2.664   1.170  22.264 -0.2247 -0.0965 -0.1111
    82BTZ   C5234205   2.700   1.032  22.299 -0.1904 -0.0545  0.0191
    92RH    C5334206   2.661   0.821  22.436 -0.0826 -0.1148 -0.0815
    82BTZ    N434207   2.737   1.227  22.167 -0.3273 -0.2164 -0.2613
    82BTZ    N534208   2.802   0.979  22.231 -0.2654 -0.1406 -0.0262
    82BTZ    S634209   2.858   1.105  22.117 -0.3858 -0.2820 -0.2420
    92RH    C5434210   2.615   0.732  22.525 -0.1298 -0.0793 -0.0706
    92RH     S734211   2.473   0.754  22.638 -0.2600 -0.0768 -0.2336
    92RH    C5534212   2.675   0.598  22.545 -0.0818 -0.0353  0.0820
    92RH     O234213   2.773   0.552  22.484  0.0060 -0.0260  0.2151
    92RH     N634214   2.606   0.525  22.645 -0.1489 -0.0040  0.0586
    92RH    C5634215   2.499   0.585  22.707 -0.2447 -0.0176 -0.0939
    92RH    C5734216   2.662   0.400  22.699  0.4395 -0.1906  0.0838
    92RH    C5834217   2.604   0.275  22.633 -0.4785 -0.8034  0.3389
    92RH     S834218   2.401   0.521  22.828 -0.3384  0.0128 -0.1535
    72IDQ   C5934219   2.237   1.675  21.852  0.4315  0.4518  0.4729
    72IDQ   C6034220   2.195   1.558  21.767 -0.0522  0.8888  0.2417
    72IDQ   C6134221   2.177   1.575  21.611  1.3259  0.3926 -0.3381
    72IDQ   C6234222   2.309   1.582  21.532 -0.2870  1.1743  1.3049
    72IDQ   C6334223   2.275   1.571  21.383  0.7964 -0.1933  0.1664
    72IDQ   C6434224   2.406   1.553  21.304  1.1667 -0.1906 -0.8358
    72IDQ   C6534225   2.386   1.480  21.169 -0.4169  0.5851 -0.4492
    72IDQ   C6634226   2.528   1.875  21.942  0.0828  0.7225 -0.0711
    72IDQ   C6734227   2.674   1.917  21.893 -0.6069 -0.0316 -0.4523
    72IDQ   C6834228   2.697   2.049  21.812  0.8969  1.8932  0.2459
    72IDQ   C6934229   2.661   2.018  21.668 -0.9704  1.2150 -0.1880
    72IDQ   C7034230   2.754   2.057  21.548  0.1073  0.1152  0.2930
    72IDQ   C7134231   2.862   1.950  21.531 -0.0191  0.0008 -0.1382
    72IDQ   C7234232   3.012   1.988  21.556 -0.5363 -0.5919 -0.1688
    11RH     C134233   7.213   0.372  19.225 -0.1593  0.0762  0.2770
    11RH     C234234   7.220   0.225  19.206 -0.1218  0.1115  0.0134
    11RH     N134235   7.079   0.415  19.244 -0.2144  0.0558 -0.0483
    11RH     S134236   7.051   0.153  19.214 -0.1612  0.1156 -0.6435
    11RH     C334237   6.979   0.320  19.243 -0.2257  0.0705 -0.5383
    11RH     C434238   7.056   0.555  19.276 -0.3233 -1.7733  0.4875
    11RH     S234239   6.814   0.345  19.263 -0.2872  0.0519 -0.9980
    11RH     O134240   7.309   0.449  19.225 -0.1452  0.0653  0.7257
    11RH     C534241   7.334   0.158  19.186 -0.0674  0.1360  0.2357
    21BTZ    C634242   7.374   0.024  19.172 -0.1110 -0.0615  0.3074
    21BTZ    C734243   7.283  -0.078  19.161 -0.2064  0.0068  0.4444
    21BTZ    C834244   7.511  -0.003  19.142 -0.1774 -0.1644  0.0930
    21BTZ    C934245   7.323  -0.211  19.119 -0.3705 -0.0223  0.3796
    21BTZ   C1034246   7.453  -0.240  19.088 -0.4392 -0.1196  0.1770
    21BTZ   C1134247   7.552  -0.137  19.099 -0.3443 -0.1940  0.0272
    21BTZ    N234248   7.609   0.088  19.149 -0.0966 -0.2379 -0.0544
    21BTZ    N334249   7.681  -0.154  19.072 -0.3976 -0.2911 -0.1736
    21BTZ    S334250   7.759   0.005  19.101 -0.2333 -0.3502 -0.2896
    31IDT   C1234251   7.482  -0.373  19.045 -0.3661 -0.5312  0.8760
    31IDT   C1334252   7.599  -0.410  18.984 -0.5089  0.1622  0.1559
    31IDT   C1434253   7.596  -0.544  18.934 -0.3533  0.4673 -0.6986
    31IDT   C1534254   7.478  -0.610  18.956 -0.0916  0.0096 -0.6352
    31IDT    S434255   7.359  -0.507  19.043 -0.0209 -0.8511  0.5218
    4IDB    C1634256   7.475  -0.729  18.885  0.5917  0.5101 -0.0427
    4IDB    C1734257   7.607  -0.760  18.842  0.5808  0.2923  0.0787
    51IDQ   C1834258   7.698  -0.640  18.871 -0.6150 -0.5054 -0.3909
    4IDB    C1934259   7.633  -0.875  18.768  0.4616  0.2428  0.1135
    51IDQ   C2034260   7.800  -0.711  18.968 -0.2071 -1.1993 -0.0196
    51IDQ   C2134261   7.781  -0.567  18.755 -0.1513 -0.2962  0.0126
    51IDQ   C2234262   7.775  -0.599  18.606  1.1203 -0.2405 -0.1794
    51IDQ   C2334263   7.796  -0.677  19.116  0.5431  0.2033 -0.4466
    51IDQ   C2434264   7.912  -0.619  18.543 -0.2465  0.6645 -0.3336
    51IDQ   C2534265   7.897  -0.630  18.392  0.1009  0.0474  0.8047
    51IDQ   C2634266   8.020  -0.591  18.314  0.3633  0.8085 -0.0011
    51IDQ   C2734267   7.971  -0.617  18.177  1.4315 -0.9765  0.3862
    51IDQ   C2834268   8.073  -0.633  18.068 -0.1474 -0.2560  0.3872
    51IDQ   C2934269   8.024  -0.692  17.936  0.3471 -0.0197  0.4949
    51IDQ   C3034270   7.906  -0.751  19.190  0.0630 -1.0566  0.1594
    51IDQ   C3134271   7.927  -0.695  19.328 -1.2626  0.2924 -0.2715
    51IDQ   C3234272   8.034  -0.764  19.409 -0.2523  0.2146 -0.0066
    51IDQ   C3334273   8.073  -0.708  19.546 -0.3761  0.5005  0.8125
    51IDQ   C3434274   8.210  -0.629  19.535  0.4130  0.2138  0.4633
    51IDQ   C3534275   8.231  -0.547  19.663  0.4328 -0.2353 -0.1563
    4IDB    C3634276   7.367  -0.813  18.855  0.4827  0.6806 -0.1297
    4IDB    C3734277   7.395  -0.930  18.779  0.3617  0.6268 -0.0925
    11RH    C3834278   7.025   0.590  19.418  0.0589  0.0843  1.1980
    4IDB    C3934279   7.525  -0.959  18.737  0.3526  0.4134  0.0263
    62IDT   C4034280   7.524  -1.099  18.691 -0.0372 -0.3140  0.0937
    72IDQ   C4134281   7.296  -1.037  18.727  0.8362  0.8986 -0.3231
    62IDT   C4234282   7.395  -1.146  18.680 -0.0795 -0.1861  0.0348
    72IDQ   C4334283   7.198  -0.998  18.605 -0.3311 -0.9243 -1.4713
    72IDQ   C4434284   7.224  -1.107  18.860 -0.2194 -1.1414  0.4469
    62IDT    S534285   7.644  -1.219  18.633 -0.1355 -0.3994  0.0659
    62IDT   C4534286   7.507  -1.332  18.596 -0.2335 -0.2504 -0.0286
    62IDT   C4634287   7.385  -1.278  18.626 -0.1906 -0.1500 -0.0339
    82BTZ   C4734288   7.522  -1.472  18.544  0.1564  0.0987 -0.5826
    82BTZ   C4834289   7.643  -1.530  18.566 -0.0358 -0.1466 -0.1478
    82BTZ   C4934290   7.671  -1.666  18.526 -0.3680 -0.4224  0.5379
    82BTZ   C5034291   7.576  -1.744  18.464 -0.5074 -0.4520  0.7871
    82BTZ   C5134292   7.419  -1.548  18.480  0.0215  0.0786 -0.3452
    82BTZ   C5234293   7.446  -1.687  18.439 -0.3161 -0.2016  0.3510
    92RH    C5334294   7.604  -1.884  18.432 -0.3754  0.0046  0.3201
    82BTZ    N434295   7.296  -1.502  18.453  0.1844  0.3024 -0.7210
    82BTZ    N534296   7.346  -1.752  18.380 -0.4247 -0.2030  0.5350
    82BTZ    S634297   7.209  -1.637  18.373 -0.0929  0.1613 -0.1894
    92RH    C5434298   7.703  -1.971  18.455 -0.3117  0.0571  0.2508
    92RH     S734299   7.855  -1.942  18.554 -0.2544  0.1404  0.1382
    92RH    C5534300   7.703  -2.110  18.403 -0.2768  0.0557  0.2546
    92RH     O234301   7.615  -2.161  18.333 -0.3019  0.0067  0.3219
    92RH     N634302   7.819  -2.180  18.443 -0.2101  0.1179  0.1716
    92RH    C5634303   7.911  -2.114  18.522 -0.1872  0.1689  0.1025
    92RH    C5734304   7.847  -2.312  18.385 -1.2098 -0.1846  0.2584
    92RH    C5834305   7.779  -2.423  18.455  0.7169  0.1251  0.4610
    92RH     S834306   8.057  -2.174  18.583 -0.1104  0.2475 -0.0029
    72IDQ   C5934307   7.070  -1.107  18.869  0.0084 -0.8300 -1.1016
    72IDQ   C6034308   7.012  -1.160  19.000 -0.1276  0.1964  0.3992
    72IDQ   C6134309   6.862  -1.152  19.020 -0.4420 -1.4043  0.6727
    72IDQ   C6234310   6.852  -1.238  19.143  0.9022 -0.5899 -0.4562
    72IDQ   C6334311   6.717  -1.242  19.220  0.6858  0.0008 -0.6473
    72IDQ   C6434312   6.633  -1.121  19.256  0.3310 -0.4294 -0.0156
    72IDQ   C6534313   6.504  -1.112  19.166 -0.7928  0.2614  0.1094
    72IDQ   C6634314   7.248  -0.941  18.487 -1.4079 -0.1343  0.4595
    72IDQ   C6734315   7.175  -0.979  18.360 -0.1006  0.1164 -0.3215
    72IDQ   C6834316   7.191  -1.136  18.341 -0.2692 -0.3685 -0.1991
    72IDQ   C6934317   7.105  -1.162  18.220 -0.0138 -0.5638  0.6762
    72IDQ   C7034318   7.084  -1.297  18.193  0.3077  0.1278 -0.4846
    72IDQ   C7134319   6.930  -1.316  18.158 -0.2234  0.3047  0.3732
    72IDQ   C7234320   6.875  -1.457  18.147 -0.8109  0.9320 -0.0092
    11RH     C134321   3.962   4.571   7.962  0.0269  0.2470 -0.0638
    11RH     C234322   3.825   4.568   8.019 -0.0200 -0.0910 -0.1888
    11RH     N134323   3.975   4.673   7.865 -0.0434  0.4858  0.1748
    11RH     S134324   3.723   4.699   7.941 -0.1536 -0.0733  0.0156
    11RH     C334325   3.866   4.752   7.837 -0.1410  0.3802  0.2563
    11RH     C434326   4.103   4.686   7.797  0.6632  0.9511  0.1192
    11RH     S234327   3.856   4.879   7.727 -0.2385  0.6121  0.5311
    11RH     O134328   4.055   4.495   7.993  0.1165  0.3189 -0.1529
    11RH     C534329   3.786   4.481   8.112  0.0302 -0.3621 -0.4166
    21BTZ    C634330   3.656   4.456   8.180  0.2264 -0.1503  0.4170
    21BTZ    C734331   3.539   4.521   8.152  0.2726 -0.1158  0.2999
    21BTZ    C834332   3.657   4.356   8.281  0.0504 -0.2911  0.2809
    21BTZ    C934333   3.417   4.490   8.222  0.1491 -0.2172  0.0443
    21BTZ   C1034334   3.413   4.394   8.321 -0.0204 -0.3530 -0.0933
    21BTZ   C1134335   3.533   4.324   8.353 -0.0750 -0.3941  0.0215
    21BTZ    N234336   3.765   4.286   8.317 -0.0101 -0.3371  0.3746
    21BTZ    N334337   3.542   4.229   8.447 -0.2365 -0.5230 -0.0932
    21BTZ    S334338   3.713   4.175   8.447 -0.2347 -0.5181  0.1301
    31IDT   C1234339   3.273   4.368   8.378  0.0591  0.4423  0.2001
    31IDT   C1334340   3.234   4.265   8.459  0.2155  0.5617  0.4292
    31IDT   C1434341   3.092   4.253   8.469  0.2325  0.6124  0.7701
    31IDT   C1534342   3.022   4.346   8.395  0.0897  0.5322  0.8027
    31IDT    S434343   3.132   4.458   8.307 -0.0791  0.3852  0.4008
    4IDB    C1634344   2.878   4.335   8.432  0.1017 -0.0508 -0.3962
    4IDB    C1734345   2.860   4.207   8.494  0.0449 -0.1760 -0.6657
    51IDQ   C1834346   2.999   4.163   8.542  0.2969  0.8337 -0.1234
    4IDB    C1934347   2.734   4.149   8.503 -0.0080 -0.0582 -0.6383
    51IDQ   C2034348   2.992   4.157   8.695  0.7138  1.0373 -0.2449
    51IDQ   C2134349   3.038   4.019   8.503 -0.1058  1.1204  0.8864
    51IDQ   C2234350   2.969   3.919   8.404  0.4316 -0.2492 -0.5000
    51IDQ   C2334351   3.064   4.255   8.776  0.1065 -1.3287  0.0224
    51IDQ   C2434352   3.011   3.773   8.412  0.9207  0.3202 -0.3296
    51IDQ   C2534353   3.001   3.682   8.294 -0.2049  0.6884  0.9834
    51IDQ   C2634354   3.058   3.540   8.316  0.2884  0.3832  0.1938
    51IDQ   C2734355   3.058   3.446   8.190  0.2787 -0.3512  0.5690
    51IDQ   C2834356   2.933   3.401   8.110  0.1320  0.9565  0.0751
    51IDQ   C2934357   2.833   3.322   8.197 -0.0234 -0.2742 -0.1201
    51IDQ   C3034358   3.002   4.275   8.906 -0.2540  0.2301 -1.2332
    51IDQ   C3134359   3.101   4.349   8.990  0.2657  0.1853 -0.3711
    51IDQ   C3234360   3.042   4.346   9.128  0.0086 -0.0644 -0.6654
    51IDQ   C3334361   3.038   4.491   9.172 -0.3440  0.2118  1.3612
    51IDQ   C3434362   2.936   4.521   9.274 -0.0162 -0.8485  0.2999
    51IDQ   C3534363   2.941   4.488   9.418 -1.4539 -0.3622  0.0915
    4IDB    C3634364   2.770   4.405   8.378  0.1059  0.1942 -0.0958
    4IDB    C3734365   2.642   4.344   8.387  0.0513  0.3115 -0.0725
    11RH    C3834366   4.201   4.786   7.854  0.0292 -0.7301  0.2424
    4IDB    C3934367   2.626   4.219   8.448 -0.0039  0.1869 -0.3377
    62IDT   C4034368   2.489   4.176   8.445 -0.3218  0.4082 -0.4142
    72IDQ   C4134369   2.499   4.382   8.332  0.2316 -0.4612 -0.2916
    62IDT   C4234370   2.407   4.265   8.379 -0.7917  0.1367 -0.2003
    72IDQ   C4334371   2.483   4.380   8.169  0.4699  0.0515 -0.8260
    72IDQ   C4434372   2.476   4.530   8.375 -0.4655  0.2836 -0.1242
    62IDT    S534373   2.402   4.027   8.495  0.2171  0.2626  0.1135
    62IDT   C4534374   2.252   4.095   8.420 -0.2436 -0.1793  0.6207
    62IDT   C4634375   2.272   4.219   8.365 -0.7482 -0.1959  0.3855
    82BTZ   C4734376   2.128   4.032   8.445 -0.1262 -0.3172  0.1094
    82BTZ   C4834377   2.126   3.935   8.541 -0.3322 -0.1148  0.3126
    82BTZ   C4934378   2.010   3.852   8.563 -0.4807  0.1239  0.4346
    82BTZ   C5034379   1.896   3.867   8.488 -0.4231  0.1598  0.3537
    82BTZ   C5134380   2.011   4.052   8.364 -0.0584 -0.2891  0.0176
    82BTZ   C5234381   1.893   3.968   8.386 -0.2093 -0.0464  0.1416
    92RH    C5334382   1.790   3.770   8.498 -0.0071  0.2801 -0.1547
    82BTZ    N434383   2.001   4.143   8.267  0.1379 -0.4722 -0.1783
    82BTZ    N534384   1.788   3.992   8.307 -0.1344 -0.0347  0.0458
    82BTZ    S634385   1.837   4.126   8.199  0.1380 -0.3395 -0.2129
    92RH    C5434386   1.781   3.661   8.576  0.0013  0.2619 -0.1793
    92RH     S734387   1.916   3.586   8.675  0.0473  0.1606 -0.3170
    92RH    C5534388   1.657   3.582   8.593 -0.0266  0.3234 -0.0961
    92RH     O234389   1.548   3.606   8.539 -0.0603  0.3974  0.0043
    92RH     N634390   1.677   3.472   8.680 -0.0101  0.2871 -0.1453
    92RH    C5634391   1.802   3.454   8.735  0.0276  0.2043 -0.2580
    92RH    C5734392   1.553   3.410   8.733 -0.3213 -0.2886 -0.6153
    92RH    C5834393   1.478   3.295   8.672  0.2416 -0.2653 -0.2298
    92RH     S834394   1.852   3.333   8.841  0.0539  0.1467 -0.3359
    72IDQ   C5934395   2.500   4.656   8.298  0.1852 -0.8868 -1.0145
    72IDQ   C6034396   2.481   4.794   8.370  0.0606  0.0143 -0.3763
    72IDQ   C6134397   2.336   4.838   8.392 -0.2959 -0.8501  0.1031
    72IDQ   C6234398   2.346   4.986   8.423  0.3051  0.2447  0.1685
    72IDQ   C6334399   2.222   5.066   8.464  0.5569  0.6361 -0.3351
    72IDQ   C6434400   2.081   5.046   8.391  0.1869  0.2641 -1.2548
    72IDQ   C6534401   1.975   5.157   8.428  0.1826  0.0971  0.8983
    72IDQ   C6634402   2.563   4.296   8.077 -0.6765  1.2339  0.0491
    72IDQ   C6734403   2.710   4.316   8.063 -0.1714 -0.4424  0.4009
    72IDQ   C6834404   2.753   4.456   8.010  0.3295  0.7606 -0.0857
    72IDQ   C6934405   2.905   4.474   7.984  0.5289 -0.4510 -0.2716
    72IDQ   C7034406   2.935   4.619   7.941 -0.6669 -0.6793  0.5470
    72IDQ   C7134407   3.079   4.629   7.888 -1.0924 -0.4475  0.1352
    72IDQ   C7234408   3.148   4.758   7.831  0.3599 -0.2690 -0.3054
    11RH     C134409   0.045   0.900  19.385 -0.2883 -0.0956 -0.2227
    11RH     C234410   0.122   0.981  19.482 -0.0797 -0.2024 -0.2966
    11RH     N134411  -0.031   0.981  19.299 -0.2944  0.0094 -0.1185
    11RH     S134412   0.089   1.159  19.454  0.0949 -0.1577 -0.2240
    11RH     C334413  -0.025   1.118  19.315 -0.1161 -0.0001 -0.1001
    11RH     C434414  -0.115   0.913  19.195 -0.2270 -0.1770 -0.3634
    11RH     S234415  -0.106   1.236  19.226 -0.0821  0.1104  0.0157
    11RH     O134416   0.046   0.776  19.378 -0.4410 -0.0958 -0.2465
    11RH     C534417   0.203   0.929  19.575 -0.0323 -0.3132 -0.3999
    21BTZ    C634418   0.289   0.974  19.683 -0.0601 -0.2660  0.2537
    21BTZ    C734419   0.301   1.102  19.732 -0.1249 -0.2825  0.3123
    21BTZ    C834420   0.374   0.872  19.737  0.0858 -0.2203  0.1106
    21BTZ    C934421   0.396   1.135  19.836 -0.0501 -0.2550  0.2346
    21BTZ   C1034422   0.479   1.040  19.890  0.0894 -0.2112  0.0982
    21BTZ   C1134423   0.471   0.905  19.842  0.1619 -0.1924  0.0319
    21BTZ    N234424   0.372   0.744  19.697  0.1604 -0.2005  0.0424
    21BTZ    N334425   0.546   0.805  19.887  0.2976 -0.1501 -0.0997
    21BTZ    S334426   0.496   0.660  19.795  0.3346 -0.1441 -0.1295
    31IDT   C1234427   0.591   1.092  19.969  0.1484  0.6023  0.4188
    31IDT   C1334428   0.632   1.223  19.966  0.4163  0.5514  1.2436
    31IDT   C1434429   0.760   1.243  20.026  0.5161 -0.1126  1.2627
    31IDT   C1534430   0.817   1.127  20.076  0.3255 -0.5713  0.4531
    31IDT    S434431   0.712   0.984  20.050  0.0018 -0.1944 -0.4026
    4IDB    C1634432   0.947   1.151  20.135 -0.3333  0.2228  0.0005
    4IDB    C1734433   0.977   1.290  20.122  0.3665  0.0186 -0.7882
    51IDQ   C1834434   0.865   1.352  20.037 -0.4734 -0.3654  0.3604
    4IDB    C1934435   1.095   1.342  20.174  0.3904 -0.1981 -0.6200
    51IDQ   C2034436   0.812   1.476  20.127 -0.2005  0.2204 -0.3066
    51IDQ   C2134437   0.904   1.408  19.884  0.4158 -0.0909  0.3296
    51IDQ   C2234438   1.055   1.410  19.847 -0.0667  0.5593 -0.0867
    51IDQ   C2334439   0.678   1.486  20.210  0.5071  1.0611  0.7683
    51IDQ   C2434440   1.072   1.396  19.697  0.0312 -0.1702 -0.4087
    51IDQ   C2534441   1.216   1.358  19.672 -0.2073 -0.8983 -0.7166
    51IDQ   C2634442   1.273   1.323  19.543 -0.5465  0.4527 -1.1660
    51IDQ   C2734443   1.270   1.421  19.426 -0.1364 -0.0729 -0.5536
    51IDQ   C2834444   1.315   1.393  19.278 -0.0072 -0.0146 -0.4683
    51IDQ   C2934445   1.204   1.327  19.203  1.2573  0.7806  0.4096
    51IDQ   C3034446   0.537   1.465  20.144 -0.1499 -0.0164  0.0720
    51IDQ   C3134447   0.481   1.546  20.009 -0.8219  1.1298 -0.5945
    51IDQ   C3234448   0.467   1.694  20.007 -0.0097 -0.9902 -1.1306
    51IDQ   C3334449   0.381   1.760  20.113  0.3051  0.5307 -0.6691
    51IDQ   C3434450   0.381   1.910  20.089  0.1202 -0.6112 -0.3756
    51IDQ   C3534451   0.300   2.004  20.182 -0.8868  1.2322  1.1544
    4IDB    C3634452   1.035   1.063  20.199 -1.0174  0.2112  0.9670
    4IDB    C3734453   1.155   1.118  20.251 -0.9820 -0.0117  1.1253
    11RH    C3834454  -0.033   0.883  19.073  0.1668 -0.4028 -0.2766
    4IDB    C3934455   1.183   1.254  20.239 -0.2937 -0.2097  0.3462
    62IDT   C4034456   1.322   1.282  20.264 -0.0032 -0.2727 -0.0533
    72IDQ   C4134457   1.281   1.052  20.318 -0.8260 -0.3438  0.1376
    62IDT   C4234458   1.384   1.164  20.300 -0.0274 -0.0246  0.8478
    72IDQ   C4334459   1.335   0.918  20.241  0.8940  0.2809 -0.1325
    72IDQ   C4434460   1.285   1.047  20.474  0.0837  0.3056 -1.4799
    62IDT    S534461   1.440   1.415  20.240 -0.0064 -0.3807 -0.7264
    62IDT   C4534462   1.573   1.299  20.283 -0.0419 -0.0697  0.2944
    62IDT   C4634463   1.526   1.174  20.311 -0.0492  0.0904  1.0457
    82BTZ   C4734464   1.710   1.345  20.267  0.1233 -0.5336 -0.3808
    82BTZ   C4834465   1.745   1.454  20.192  0.1030 -0.6049 -0.4930
    82BTZ   C4934466   1.881   1.502  20.187  0.0535 -0.4497 -0.3662
    82BTZ   C5034467   1.982   1.441  20.258  0.0244 -0.2235 -0.1271
    82BTZ   C5134468   1.811   1.278  20.343  0.0943 -0.2984 -0.1302
    82BTZ   C5234469   1.949   1.327  20.338  0.0440 -0.1406 -0.0014
    92RH    C5334470   2.118   1.486  20.256 -0.0315  0.1863  0.1596
    82BTZ    N434471   1.789   1.171  20.420  0.1100 -0.2087 -0.0010
    82BTZ    N534472   2.038   1.259  20.412  0.0193  0.0758  0.2313
    82BTZ    S634473   1.947   1.128  20.492  0.0600  0.0874  0.2975
    92RH    C5434474   2.181   1.579  20.184 -0.0279  0.0949  0.0429
    92RH     S734475   2.108   1.686  20.054 -0.0005 -0.1335 -0.1614
    92RH    C5534476   2.325   1.612  20.200 -0.0465  0.1679  0.0634
    92RH     O234477   2.403   1.557  20.280 -0.0671  0.3192  0.1874
    92RH     N634478   2.365   1.714  20.112 -0.0377  0.0428 -0.0794
    92RH    C5634479   2.271   1.768  20.027 -0.0147 -0.1215 -0.2108
    92RH    C5734480   2.495   1.775  20.125 -0.0397 -0.0103 -0.1637
    92RH    C5834481   2.524   1.875  20.234 -0.3958 -0.2321 -0.1289
    92RH     S834482   2.292   1.891  19.913 -0.0001 -0.2930 -0.3934
    72IDQ   C5934483   1.157   1.034  20.555 -0.3599  0.2341  0.0142
    72IDQ   C6034484   1.065   0.923  20.524  0.0401  0.9334 -0.1951
    72IDQ   C6134485   0.923   0.957  20.570 -0.4395  0.2179 -0.4533
    72IDQ   C6234486   0.836   0.832  20.570 -0.2504 -0.1331 -0.7483
    72IDQ   C6334487   0.694   0.860  20.637 -0.7834 -0.4980  0.0717
    72IDQ   C6434488   0.598   0.921  20.535 -0.5506  0.1275  0.0892
    72IDQ   C6534489   0.487   0.985  20.616 -1.0537  0.5967 -0.0836
    72IDQ   C6634490   1.293   0.784  20.296  0.1602  0.4679  0.4681
    72IDQ   C6734491   1.303   0.685  20.179 -0.9565  0.6364 -0.4706
    72IDQ   C6834492   1.203   0.576  20.196 -0.7519  0.0232  0.2006
    72IDQ   C6934493   1.058   0.610  20.208  0.2160 -0.2884 -0.3704
    72IDQ   C7034494   0.970   0.496  20.170 -0.2191 -0.1987 -1.4071
    72IDQ   C7134495   0.827   0.546  20.168 -0.0578  0.5890  0.0145
    72IDQ   C7234496   0.745   0.424  20.124 -1.1040 -0.0307  0.8588
    11RH     C134497   3.884   1.724  22.977 -0.2507  0.0034 -0.1812
    11RH     C234498   3.761   1.786  22.921 -0.1484  0.2932 -0.0892
    11RH     N134499   3.980   1.822  23.010 -0.1303 -0.1979  0.0693
    11RH     S134500   3.781   1.968  22.915  0.0996  0.2822  0.3214
    11RH     C334501   3.950   1.954  22.987  0.0560 -0.1047  0.3514
    11RH     C434502   4.120   1.769  23.048  0.3431  1.0502  0.9354
    11RH     S234503   4.047   2.089  23.017  0.2275 -0.2995  0.6843
    11RH     O134504   3.902   1.602  22.994 -0.4205 -0.0606 -0.4435
    11RH     C534505   3.654   1.716  22.881 -0.2298  0.5226 -0.2834
    21BTZ    C634506   3.529   1.769  22.816  0.0923 -0.0910  0.2882
    21BTZ    C734507   3.508   1.902  22.792  0.0788 -0.1197  0.1388
    21BTZ    C834508   3.429   1.675  22.774  0.1703 -0.1613  0.2599
    21BTZ    C934509   3.388   1.949  22.726  0.1409 -0.2183 -0.0448
    21BTZ   C1034510   3.291   1.863  22.684  0.2163 -0.2879 -0.0781
    21BTZ   C1134511   3.308   1.723  22.707  0.2334 -0.2615  0.0734
    21BTZ    N234512   3.438   1.543  22.792  0.1908 -0.1421  0.3948
    21BTZ    N334513   3.220   1.629  22.670  0.3046 -0.3227  0.0591
    21BTZ    S334514   3.289   1.472  22.722  0.2937 -0.2536  0.2869
    31IDT   C1234515   3.175   1.922  22.607 -0.1899  0.2338  0.0750
    31IDT   C1334516   3.100   1.862  22.510 -0.0484  0.3346 -0.0973
    31IDT   C1434517   3.004   1.950  22.451  0.1074  0.4244 -0.2198
    31IDT   C1534518   3.005   2.078  22.504  0.0858  0.3927 -0.1434
    31IDT    S434519   3.129   2.096  22.632 -0.1356  0.2455  0.0934
    4IDB    C1634520   2.916   2.165  22.436  0.4038 -0.3578 -0.7425
    4IDB    C1734521   2.850   2.091  22.332 -0.7811 -0.4930  0.0668
    51IDQ   C1834522   2.898   1.946  22.331  0.4452  0.8454 -1.6356
    4IDB    C1934523   2.762   2.154  22.244 -0.9716 -0.3878  0.3298
    51IDQ   C2034524   2.753   1.870  22.346 -0.6625  0.0715  0.2097
    51IDQ   C2134525   2.973   1.903  22.207  0.5904 -0.4478 -0.1236
    51IDQ   C2234526   3.016   2.005  22.101 -0.1799  0.6514  0.7953
    51IDQ   C2334527   2.728   1.806  22.480 -0.6050  0.1508  0.1430
    51IDQ   C2434528   3.159   2.055  22.121 -0.6715  0.3906  0.3433
    51IDQ   C2534529   3.194   2.188  22.057 -0.1123  0.7826 -0.1165
    51IDQ   C2634530   3.216   2.180  21.906  0.5334 -0.5086  0.2571
    51IDQ   C2734531   3.291   2.303  21.847  0.8648  0.0220  0.2120
    51IDQ   C2834532   3.433   2.327  21.881 -0.6609 -0.1110 -0.1779
    51IDQ   C2934533   3.515   2.445  21.823  0.6676  0.4929  0.0408
    51IDQ   C3034534   2.603   1.737  22.532 -0.5848 -0.3319  0.4503
    51IDQ   C3134535   2.593   1.759  22.686  0.5468  0.4285 -0.0234
    51IDQ   C3234536   2.699   1.693  22.783  0.4792  0.2887 -0.4761
    51IDQ   C3334537   2.642   1.676  22.926  0.5077  0.2744  0.3425
    51IDQ   C3434538   2.746   1.614  23.013 -0.1371 -0.4112  0.2132
    51IDQ   C3534539   2.696   1.607  23.156  0.8524 -0.1781 -0.2572
    4IDB    C3634540   2.894   2.303  22.452  1.4108 -0.1150 -1.2984
    4IDB    C3734541   2.804   2.365  22.361  1.1986 -0.0106 -1.0195
    11RH    C3834542   4.180   1.782  23.192 -0.3131 -0.5350 -0.2615
    4IDB    C3934543   2.741   2.292  22.260  0.0354 -0.1451 -0.2266
    62IDT   C4034544   2.673   2.383  22.174  0.1509  0.2889  0.0224
    72IDQ   C4134545   2.747   2.511  22.365  0.1124  0.3470 -0.6796
    62IDT   C4234546   2.664   2.508  22.230 -0.7144  0.0575  0.4377
    72IDQ   C4334547   2.861   2.625  22.378 -0.0377  0.0094 -0.8722
    72IDQ   C4434548   2.647   2.520  22.498 -1.0704 -1.2131 -0.5659
    62IDT    S534549   2.571   2.368  22.026  0.3360  0.1102 -0.0875
    62IDT   C4534550   2.520   2.541  22.049 -0.8228 -0.2875  0.4603
    62IDT   C4634551   2.577   2.598  22.160 -1.2661 -0.2686  0.6862
    82BTZ   C4734552   2.445   2.611  21.938 -0.5951  0.1722 -0.0944
    82BTZ   C4834553   2.371   2.531  21.855 -0.6025  0.2356 -0.1497
    82BTZ   C4934554   2.297   2.584  21.744 -0.5154  0.3061 -0.1745
    82BTZ   C5034555   2.297   2.718  21.715 -0.4209  0.3130 -0.1434
    82BTZ   C5134556   2.448   2.752  21.911 -0.4978  0.1767 -0.0606
    82BTZ   C5234557   2.373   2.806  21.798 -0.4092  0.2483 -0.0854
    92RH    C5334558   2.230   2.774  21.597 -0.0414 -0.1255 -0.7306
    82BTZ    N434559   2.517   2.841  21.984 -0.4809  0.1190 -0.0052
    82BTZ    N534560   2.380   2.939  21.780 -0.3213  0.2482 -0.0505
    82BTZ    S634561   2.487   3.001  21.909 -0.3484  0.1544  0.0168
    92RH    C5434562   2.163   2.718  21.496 -0.2080 -0.1451 -0.6084
    92RH     S734563   2.117   2.541  21.478 -0.3013 -0.1364 -0.4656
    92RH    C5534564   2.112   2.795  21.380 -0.3468 -0.1780 -0.5708
    92RH     O234565   2.126   2.917  21.362 -0.3259 -0.1910 -0.6456
    92RH     N634566   2.044   2.711  21.288 -0.5101 -0.1932 -0.4364
    92RH    C5634567   2.034   2.577  21.317 -0.5193 -0.1766 -0.3624
    92RH    C5734568   2.005   2.768  21.153  0.0401  0.8743 -0.2173
    92RH    C5834569   2.120   2.795  21.051 -0.2845  0.0988 -0.2251
    92RH     S834570   1.959   2.457  21.226 -0.6965 -0.1892 -0.2007
    72IDQ   C5934571   2.539   2.623  22.507  0.8325  0.1049 -0.1399
    72IDQ   C6034572   2.456   2.600  22.641  0.0446 -0.1489 -0.5882
    72IDQ   C6134573   2.381   2.730  22.683 -1.0867 -0.7774  1.0641
    72IDQ   C6234574   2.460   2.840  22.739 -0.1871  0.0312 -0.4478
    72IDQ   C6334575   2.404   2.907  22.853  0.7074  0.0573 -0.1678
    72IDQ   C6434576   2.450   3.046  22.882  0.2823  0.3011 -0.0839
    72IDQ   C6534577   2.431   3.159  22.774 -0.8300 -0.4717  0.0122
    72IDQ   C6634578   2.939   2.686  22.260  0.8101 -0.2761  0.2959
    72IDQ   C6734579   3.026   2.591  22.171  0.1632  0.1945  0.9824
    72IDQ   C6834580   3.099   2.608  22.039  0.1442  0.3626 -0.3347
    72IDQ   C6934581   3.232   2.693  22.034  0.6858 -0.6346  0.5263
    72IDQ   C7034582   3.352   2.660  22.126 -0.5479 -0.0252 -0.9994
    72IDQ   C7134583   3.460   2.770  22.118  0.5133  0.3163  0.8073
    72IDQ   C7234584   3.597   2.719  22.147 -0.6953  0.0123  0.3017
    11RH     C134585   3.983   6.578   1.145  0.2655 -0.3319 -0.1391
    11RH     C234586   3.845   6.595   1.195  0.2649 -0.0130 -0.2450
    11RH     N134587   4.074   6.559   1.252  0.1914 -0.1648 -0.0439
    11RH     S134588   3.842   6.584   1.378  0.1670  0.4857 -0.2125
    11RH     C334589   4.025   6.557   1.380  0.1315  0.2488 -0.0605
    11RH     C434590   4.219   6.531   1.224  0.6349 -1.2195  0.8140
    11RH     S234591   4.111   6.536   1.524  0.0384  0.5217  0.0379
    11RH     O134592   4.018   6.581   1.026  0.3229 -0.7008 -0.1324
    11RH     C534593   3.740   6.616   1.115  0.3277 -0.0901 -0.3472
    21BTZ    C634594   3.591   6.636   1.129 -0.1862 -0.0296  0.1061
    21BTZ    C734595   3.523   6.635   1.248 -0.4165 -0.2260 -0.0268
    21BTZ    C834596   3.519   6.667   1.009  0.0420  0.1518  0.0140
    21BTZ    C934597   3.382   6.663   1.255 -0.4342 -0.2540 -0.2553
    21BTZ   C1034598   3.309   6.693   1.143 -0.2216 -0.0858 -0.3506
    21BTZ   C1134599   3.376   6.696   1.016  0.0240  0.1230 -0.2183
    21BTZ    N234600   3.574   6.672   0.888  0.2772  0.3510  0.1267
    21BTZ    N334601   3.315   6.724   0.900  0.2447  0.2992 -0.2923
    21BTZ    S334602   3.442   6.714   0.775  0.4901  0.5139 -0.0633
    31IDT   C1234603   3.164   6.701   1.163  0.0324 -0.3777 -0.3078
    31IDT   C1334604   3.065   6.733   1.074 -0.0665 -0.5245 -0.2517
    31IDT   C1434605   2.935   6.737   1.134  0.0170 -0.2918 -0.0825
    31IDT   C1534606   2.934   6.707   1.269  0.1797  0.0330 -0.0084
    31IDT    S434607   3.099   6.672   1.331  0.2404  0.0699 -0.1487
    4IDB    C1634608   2.796   6.695   1.308 -0.2516 -0.1065  0.7178
    4IDB    C1734609   2.709   6.717   1.197  0.1018 -0.2376  0.4068
    51IDQ   C1834610   2.801   6.755   1.067  1.6569 -0.1864 -0.8425
    4IDB    C1934611   2.571   6.704   1.212  0.0432 -0.0755  0.0166
    51IDQ   C2034612   2.753   6.648   0.955  0.5759  0.7489 -1.1832
    51IDQ   C2134613   2.783   6.897   1.010  0.3908 -0.2361 -0.0698
    51IDQ   C2234614   2.688   6.989   1.084  0.4056 -0.3699 -0.6739
    51IDQ   C2334615   2.827   6.522   0.918 -0.6271  0.2951  1.0756
    51IDQ   C2434616   2.676   7.108   1.002 -0.1614  0.3102  0.0736
    51IDQ   C2534617   2.628   7.228   1.069 -0.2875 -0.5614 -0.1081
    51IDQ   C2634618   2.692   7.339   0.991 -0.5294 -0.1590  0.5455
    51IDQ   C2734619   2.639   7.475   1.020  0.4298  0.2009 -0.2177
    51IDQ   C2834620   2.698   7.593   0.929 -0.4058 -0.2808 -0.4296
    51IDQ   C2934621   2.648   7.734   0.964  0.5384 -0.1828  0.0025
    51IDQ   C3034622   2.840   6.416   1.024 -0.8348 -0.3144 -0.9688
    51IDQ   C3134623   2.713   6.353   1.072 -0.1329  0.4201 -0.4783
    51IDQ   C3234624   2.652   6.273   0.957 -0.4363  0.9867  0.9372
    51IDQ   C3334625   2.515   6.221   0.998  0.1329  0.2521 -0.0617
    51IDQ   C3434626   2.413   6.342   1.004 -0.7318  0.5928  0.3632
    51IDQ   C3534627   2.282   6.330   1.085 -0.5695  0.0667  0.3378
    4IDB    C3634628   2.746   6.660   1.434 -0.6683  0.1892  0.6396
    4IDB    C3734629   2.605   6.648   1.447 -0.7221  0.3513  0.2391
    11RH    C3834630   4.247   6.408   1.143 -0.1163 -0.0233 -1.0846
    4IDB    C3934631   2.521   6.669   1.338 -0.3736  0.2202 -0.0616
    62IDT   C4034632   2.382   6.657   1.373 -0.2846 -0.2848 -0.0073
    72IDQ   C4134633   2.515   6.596   1.559  0.2540  0.0535 -0.0872
    62IDT   C4234634   2.369   6.618   1.505 -0.3906  0.4762  0.2169
    72IDQ   C4334635   2.534   6.709   1.680 -0.5990  0.4708 -0.9610
    72IDQ   C4434636   2.564   6.451   1.616 -0.4271  0.2289 -0.2776
    62IDT    S534637   2.224   6.657   1.287 -0.2631 -0.4798 -0.0475
    62IDT   C4534638   2.145   6.601   1.441 -0.4055  0.5267  0.2557
    62IDT   C4634639   2.235   6.587   1.544 -0.4590  0.9359  0.3659
    82BTZ   C4734640   2.000   6.581   1.456  0.2160 -0.4607 -0.0617
    82BTZ   C4834641   1.935   6.578   1.335  0.1309 -0.3273 -0.0196
    82BTZ   C4934642   1.798   6.536   1.324  0.0552 -0.1051  0.0608
    82BTZ   C5034643   1.725   6.497   1.433  0.0648 -0.0167  0.0990
    82BTZ   C5134644   1.928   6.541   1.573  0.2296 -0.3756 -0.0243
    82BTZ   C5234645   1.789   6.498   1.562  0.1527 -0.1498  0.0575
    92RH    C5334646   1.583   6.454   1.418  0.1969 -0.5530 -0.0206
    82BTZ    N434647   1.981   6.540   1.696  0.3093 -0.4896 -0.0591
    82BTZ    N534648   1.729   6.462   1.676  0.1705 -0.0823  0.0884
    82BTZ    S634649   1.851   6.482   1.805  0.2889 -0.3091  0.0127
    92RH    C5434650   1.506   6.435   1.310  0.0001 -0.1982  0.0524
    92RH     S734651   1.553   6.463   1.135 -0.2957  0.3105  0.0522
    92RH    C5534652   1.367   6.385   1.316 -0.0077 -0.1638  0.1479
    92RH     O234653   1.305   6.356   1.420  0.1633 -0.4529  0.1712
    92RH     N634654   1.310   6.374   1.188 -0.2378  0.2460  0.2112
    92RH    C5634655   1.386   6.409   1.079 -0.4154  0.5441  0.1782
    92RH    C5734656   1.161   6.348   1.169 -0.1626  0.3998  0.0925
    92RH    C5834657   1.136   6.206   1.142  0.2840 -0.1605  0.3485
    92RH     S834658   1.343   6.405   0.916 -0.7025  1.0514  0.2387
    72IDQ   C5934659   2.498   6.343   1.539 -0.6084 -0.0489 -0.3794
    72IDQ   C6034660   2.568   6.204   1.574 -0.1008  0.2741 -0.1616
    72IDQ   C6134661   2.501   6.076   1.540  0.6579 -0.2940  0.4367
    72IDQ   C6234662   2.590   5.955   1.525  0.2843 -0.5383  0.7133
    72IDQ   C6334663   2.702   5.964   1.422 -0.1084  0.1310 -0.3860
    72IDQ   C6434664   2.660   5.969   1.275  0.4877 -0.8473  0.5475
    72IDQ   C6534665   2.774   5.928   1.181 -0.0293 -0.5871  0.6401
    72IDQ   C6634666   2.528   6.859   1.645  0.0290 -0.4656 -0.3948
    72IDQ   C6734667   2.550   6.948   1.776 -0.3818 -0.4704  1.1167
    72IDQ   C6834668   2.544   7.101   1.741  0.3779  0.0165  0.5153
    72IDQ   C6934669   2.502   7.201   1.861  1.5268  0.2780 -0.1217
    72IDQ   C7034670   2.607   7.211   1.970 -0.3158  0.7810 -0.1507
    72IDQ   C7134671   2.691   7.338   1.968 -1.5506  0.3290 -0.1229
    72IDQ   C7234672   2.813   7.337   2.058 -0.2958 -0.1974 -0.8819
    11RH     C134673   2.502   6.594  16.354 -0.1536 -0.2264  0.2489
    11RH     C234674   2.600   6.683  16.420 -0.1547 -0.0501  0.0181
    11RH     N134675   2.547   6.460  16.351  0.0531 -0.1569  0.1972
    11RH     S134676   2.745   6.584  16.475  0.1161  0.1953 -0.2513
    11RH     C334677   2.669   6.431  16.407  0.2177  0.0532 -0.0463
    11RH     C434678   2.463   6.352  16.298 -0.0417  0.5683  0.4186
    11RH     S234679   2.745   6.281  16.417  0.4768  0.1754 -0.1559
    11RH     O134680   2.393   6.630  16.306 -0.3116 -0.4126  0.4621
    11RH     C534681   2.582   6.814  16.436 -0.3303 -0.0734  0.0154
    21BTZ    C634682   2.651   6.925  16.495 -0.1846 -0.1184 -0.0085
    21BTZ    C734683   2.778   6.916  16.546 -0.0340 -0.0226 -0.3657
    21BTZ    C834684   2.585   7.052  16.497 -0.2240 -0.1398  0.0553
    21BTZ    C934685   2.846   7.031  16.600  0.0846  0.0565 -0.6757
    21BTZ   C1034686   2.787   7.155  16.604  0.0525  0.0396 -0.6284
    21BTZ   C1134687   2.654   7.169  16.553 -0.1034 -0.0594 -0.2604
    21BTZ    N234688   2.461   7.073  16.451 -0.3664 -0.2301  0.3901
    21BTZ    N334689   2.586   7.284  16.551 -0.1490 -0.0852 -0.1788
    21BTZ    S334690   2.427   7.247  16.477 -0.3522 -0.2160  0.3143
    31IDT   C1234691   2.869   7.269  16.647  0.3449  0.1064 -0.4330
    31IDT   C1334692   2.882   7.392  16.586  0.7339  0.0330 -0.5069
    31IDT   C1434693   2.982   7.474  16.647  0.5741 -0.0190 -0.1664
    31IDT   C1534694   3.047   7.414  16.753  0.0634  0.0145  0.1680
    31IDT    S434695   2.985   7.249  16.786 -0.2577  0.1153  0.0772
    4IDB    C1634696   3.155   7.499  16.795 -0.2493 -0.0644 -0.0520
    4IDB    C1734697   3.162   7.617  16.715 -0.1634 -0.1218 -0.1292
    51IDQ   C1834698   3.036   7.620  16.623 -0.2661  0.3705 -0.2067
    4IDB    C1934699   3.262   7.711  16.736 -0.1100 -0.1686 -0.1744
    51IDQ   C2034700   2.948   7.748  16.657  0.6410 -1.2688  0.2503
    51IDQ   C2134701   3.072   7.611  16.469  0.4568 -0.1326  0.3081
    51IDQ   C2234702   3.206   7.581  16.407 -0.1748 -0.6550  0.3613
    51IDQ   C2334703   2.797   7.746  16.709 -0.6159 -0.4302 -0.5520
    51IDQ   C2434704   3.306   7.459  16.444  0.8738 -0.1397 -0.2163
    51IDQ   C2534705   3.448   7.494  16.412  0.0887  0.7870  0.6234
    51IDQ   C2634706   3.514   7.574  16.526 -0.8056 -0.4387 -0.3653
    51IDQ   C2734707   3.664   7.589  16.560  0.4961  0.2371 -0.2202
    51IDQ   C2834708   3.721   7.670  16.451  0.4045 -0.4680 -0.7390
    51IDQ   C2934709   3.857   7.717  16.496  0.0571  1.2153 -0.1861
    51IDQ   C3034710   2.697   7.660  16.637  0.5149 -0.0886 -0.3185
    51IDQ   C3134711   2.592   7.615  16.730 -0.1430 -0.4543  0.3992
    51IDQ   C3234712   2.489   7.545  16.651 -1.0253  0.0149  0.1115
    51IDQ   C3334713   2.362   7.500  16.731 -0.3926 -0.1851 -0.1719
    51IDQ   C3434714   2.307   7.596  16.836  0.6496 -0.5672 -1.1335
    51IDQ   C3534715   2.194   7.526  16.906  1.1337  0.2918  0.6768
    4IDB    C3634716   3.248   7.474  16.897 -0.2822 -0.0533 -0.0186
    4IDB    C3734717   3.350   7.572  16.917 -0.2266 -0.1016 -0.0658
    11RH    C3834718   2.377   6.266  16.388 -0.2868  1.0759 -0.7018
    4IDB    C3934719   3.356   7.686  16.838 -0.1427 -0.1576 -0.1415
    62IDT   C4034720   3.463   7.767  16.883  0.2768 -0.1024 -0.3687
    72IDQ   C4134721   3.448   7.576  17.029  0.2167 -0.2894 -0.9696
    62IDT   C4234722   3.533   7.694  16.977  0.2683 -0.2034 -0.4396
    72IDQ   C4334723   3.544   7.447  17.022 -1.2492 -0.0498  0.6531
    72IDQ   C4434724   3.371   7.563  17.164 -0.0605 -0.5523 -0.3906
    62IDT    S534725   3.538   7.927  16.854  0.0099  0.1226  0.1566
    62IDT   C4534726   3.666   7.885  16.976 -0.1046  0.0655  0.2567
    62IDT   C4634727   3.647   7.760  17.030  0.0528 -0.1086 -0.0868
    82BTZ   C4734728   3.779   7.968  17.011  0.2121 -0.3615 -0.1158
    82BTZ   C4834729   3.798   7.995  17.144  0.0106 -0.1355 -0.1321
    82BTZ   C4934730   3.904   8.083  17.188 -0.2242  0.1546 -0.1378
    82BTZ   C5034731   3.990   8.142  17.099 -0.2572  0.2181 -0.1270
    82BTZ   C5134732   3.866   8.028  16.914  0.1869 -0.3060 -0.1049
    82BTZ   C5234733   3.974   8.116  16.959 -0.0518 -0.0112 -0.1101
    92RH    C5334734   4.086   8.239  17.141 -0.2600  0.1633  0.0764
    82BTZ    N434735   3.857   8.008  16.782  0.3695 -0.5081 -0.0887
    82BTZ    N534736   4.051   8.169  16.863 -0.0609  0.0236 -0.0987
    82BTZ    S634737   3.988   8.105  16.708  0.2414 -0.3262 -0.0805
    92RH    C5434738   4.124   8.294  17.257 -0.0764 -0.0038  0.0978
    92RH     S734739   4.077   8.238  17.425  0.1897 -0.2458  0.0918
    92RH    C5534740   4.212   8.413  17.266 -0.0607 -0.0180  0.1297
    92RH     O234741   4.260   8.475  17.170 -0.2123  0.1200  0.1407
    92RH     N634742   4.235   8.450  17.401  0.1522 -0.2115  0.1470
    92RH    C5634743   4.176   8.375  17.500  0.3089 -0.3540  0.1321
    92RH    C5734744   4.320   8.565  17.438 -0.1820 -0.8205 -0.7780
    92RH    C5834745   4.244   8.700  17.426  0.6319 -0.0727  0.2291
    92RH     S834746   4.187   8.397  17.667  0.5726 -0.5939  0.1478
    72IDQ   C5934747   3.443   7.620  17.283 -0.5969  0.8216  0.4864
    72IDQ   C6034748   3.396   7.583  17.417 -0.5853  0.2275 -1.0411
    72IDQ   C6134749   3.514   7.600  17.518 -0.9612  0.1797 -0.6789
    72IDQ   C6234750   3.459   7.579  17.660 -0.3747  0.4929  0.5685
    72IDQ   C6334751   3.538   7.626  17.786 -0.5090  0.2847  0.4514
    72IDQ   C6434752   3.616   7.761  17.781 -0.8763  0.8510 -1.0849
    72IDQ   C6534753   3.738   7.745  17.866 -0.3464 -0.3593 -1.3577
    72IDQ   C6634754   3.662   7.432  16.914  0.8948  0.7207  0.3862
    72IDQ   C6734755   3.724   7.293  16.910  0.0875  0.5619 -0.1646
    72IDQ   C6834756   3.818   7.253  16.785  0.8890  0.1723 -0.8660
    72IDQ   C6934757   3.940   7.331  16.747  0.6733  0.1783 -0.1978
    72IDQ   C7034758   4.030   7.241  16.665 -0.0485 -0.0209  0.4367
    72IDQ   C7134759   4.156   7.316  16.656 -0.2522 -0.3612 -0.3978
    72IDQ   C7234760   4.272   7.246  16.594  0.9743  1.3116 -0.2875
    11RH     C134761   0.602   2.624  24.060 -0.2562 -0.2379 -0.4053
    11RH     C234762   0.478   2.705  24.055 -0.2094 -0.1407 -0.0472
    11RH     N134763   0.581   2.495  24.005 -0.3869 -0.0582 -0.7806
    11RH     S134764   0.343   2.607  23.978 -0.3404  0.1809 -0.2280
    11RH     C334765   0.457   2.464  23.956 -0.4506  0.1711 -0.7663
    11RH     C434766   0.694   2.414  23.970 -0.4381  0.6354 -0.2020
    11RH     S234767   0.407   2.319  23.885 -0.6053  0.4161 -1.1659
    11RH     O134768   0.711   2.661  24.107 -0.1910 -0.4496 -0.3867
    11RH     C534769   0.470   2.830  24.101 -0.0890 -0.2735  0.3437
    21BTZ    C634770   0.362   2.931  24.105  0.3972 -0.4293  0.0217
    21BTZ    C734771   0.246   2.918  24.034  0.4479 -0.6330 -0.0238
    21BTZ    C834772   0.373   3.037  24.201  0.1987 -0.3697 -0.0210
    21BTZ    C934773   0.134   3.007  24.055  0.3070 -0.7874 -0.1140
    21BTZ   C1034774   0.140   3.110  24.145  0.1157 -0.7378 -0.1575
    21BTZ   C1134775   0.260   3.128  24.221  0.0555 -0.5267 -0.1125
    21BTZ    N234776   0.482   3.061  24.275  0.1318 -0.1765  0.0172
    21BTZ    N334777   0.277   3.224  24.312 -0.1265 -0.4594 -0.1478
    21BTZ    S334778   0.443   3.203  24.377 -0.1224 -0.1871 -0.0646
    31IDT   C1234779   0.026   3.203  24.132  0.3682  0.4809 -0.4468
    31IDT   C1334780   0.018   3.328  24.187  0.8348  0.8484 -1.1873
    31IDT   C1434781  -0.102   3.397  24.151  0.8746  0.9013 -1.2188
    31IDT   C1534782  -0.187   3.325  24.069  0.4397  0.5754 -0.5050
    31IDT    S434783  -0.120   3.163  24.030 -0.0586  0.1723  0.2701
    4IDB    C1634784  -0.306   3.404  24.040 -0.1631 -0.3388 -0.4010
    4IDB    C1734785  -0.294   3.529  24.108 -0.0740 -0.4333 -0.2437
    51IDQ   C1834786  -0.160   3.535  24.187  0.1806  0.3098  0.2994
    4IDB    C1934787  -0.392   3.627  24.096 -0.0992 -0.4239  0.0353
    51IDQ   C2034788  -0.071   3.661  24.156  1.0422  0.8038  0.2470
    51IDQ   C2134789  -0.173   3.550  24.339 -0.3155 -0.2653  0.0303
    51IDQ   C2234790  -0.291   3.500  24.427 -0.9990 -0.4618 -0.7434
    51IDQ   C2334791   0.072   3.643  24.132 -0.2428  0.7162  0.5482
    51IDQ   C2434792  -0.295   3.593  24.550 -0.2629  0.7580 -0.4324
    51IDQ   C2534793  -0.338   3.734  24.549 -0.3019  0.8180 -0.0753
    51IDQ   C2634794  -0.454   3.780  24.457 -0.0561  0.8180  0.5093
    51IDQ   C2734795  -0.482   3.931  24.470 -0.0403  0.4380  0.8162
    51IDQ   C2834796  -0.503   4.014  24.345  0.3609  0.0949  0.9744
    51IDQ   C2934797  -0.400   3.988  24.239  0.3373 -0.3656  0.0665
    51IDQ   C3034798   0.152   3.758  24.081  0.0688 -0.6516  0.0483
    51IDQ   C3134799   0.302   3.739  24.097 -1.1181  0.5526 -0.0301
    51IDQ   C3234800   0.374   3.666  23.977 -0.5418 -0.4419  0.4245
    51IDQ   C3334801   0.524   3.657  23.969  0.6067 -0.6368 -0.0618
    51IDQ   C3434802   0.605   3.561  24.049  1.0928 -0.2631 -0.3242
    51IDQ   C3534803   0.570   3.543  24.198  0.0109 -1.5044  0.0625
    4IDB    C3634804  -0.417   3.376  23.958 -0.2791 -0.2337 -0.2789
    4IDB    C3734805  -0.516   3.478  23.948 -0.3034 -0.2257  0.0062
    11RH    C3834806   0.777   2.458  23.852  1.6821 -0.2418 -0.5751
    4IDB    C3934807  -0.503   3.599  24.015 -0.2153 -0.3188  0.1566
    62IDT   C4034808  -0.613   3.685  23.988 -0.1434  0.0980 -0.2425
    72IDQ   C4134809  -0.656   3.483  23.878  0.7170 -1.0719 -0.1648
    62IDT   C4234810  -0.714   3.621  23.918 -0.1278  0.2156 -0.3743
    72IDQ   C4334811  -0.761   3.376  23.916 -0.8171  0.5947 -0.4081
    72IDQ   C4434812  -0.661   3.517  23.721 -0.2003 -0.0086 -0.7278
    62IDT    S534813  -0.658   3.854  24.030 -0.1116  0.0601 -0.0576
    62IDT   C4534814  -0.818   3.828  23.948 -0.0770  0.2125 -0.1743
    62IDT   C4634815  -0.830   3.702  23.896 -0.0902  0.2804 -0.3362
    82BTZ   C4734816  -0.912   3.948  23.938  0.1229  0.0774 -0.3987
    82BTZ   C4834817  -0.893   4.052  24.025  0.3555  0.0336 -0.3963
    82BTZ   C4934818  -0.973   4.172  24.019  0.3374  0.0370 -0.1202
    82BTZ   C5034819  -1.073   4.187  23.926  0.0867  0.0843  0.1521
    82BTZ   C5134820  -1.015   3.959  23.839 -0.1444  0.1277 -0.1187
    82BTZ   C5234821  -1.097   4.080  23.833 -0.1627  0.1312  0.1612
    92RH    C5334822  -1.147   4.309  23.906  0.3713 -0.4047  0.0992
    82BTZ    N434823  -1.043   3.864  23.749 -0.3856  0.1732 -0.0920
    82BTZ    N534824  -1.191   4.083  23.738 -0.4188  0.1793  0.4134
    82BTZ    S634825  -1.178   3.928  23.650 -0.6520  0.2232  0.3008
    92RH    C5434826  -1.151   4.428  23.966  0.1727 -0.3519 -0.0181
    92RH     S734827  -1.064   4.477  24.120 -0.0645 -0.1141  0.0422
    92RH    C5534828  -1.230   4.543  23.914  0.1130 -0.4832 -0.2213
    92RH     O234829  -1.300   4.542  23.812  0.2372 -0.6539 -0.3061
    92RH     N634830  -1.216   4.657  23.997 -0.1068 -0.3895 -0.3108
    92RH    C5634831  -1.135   4.647  24.108 -0.2307 -0.1994 -0.2041
    92RH    C5734832  -1.295   4.783  23.964  0.6424  0.7897 -0.3867
    92RH    C5834833  -1.263   4.859  23.836 -0.2298  0.1519  0.2109
    92RH     S834834  -1.102   4.767  24.222 -0.4947 -0.0561 -0.2756
    72IDQ   C5934835  -0.592   3.393  23.644  0.4334 -0.0510 -1.6454
    72IDQ   C6034836  -0.603   3.368  23.493 -0.1597 -0.3394 -0.3792
    72IDQ   C6134837  -0.497   3.263  23.447  0.7078 -0.4279 -0.1365
    72IDQ   C6234838  -0.479   3.241  23.295 -0.3425  0.8987  0.5116
    72IDQ   C6334839  -0.392   3.118  23.270  0.0306  0.2279 -0.2197
    72IDQ   C6434840  -0.301   3.149  23.149  0.7549 -0.6126 -0.2990
    72IDQ   C6534841  -0.250   3.033  23.074 -0.2015  0.9061  0.6753
    72IDQ   C6634842  -0.842   3.367  24.047  0.0621 -0.0260 -0.4991
    72IDQ   C6734843  -0.925   3.242  24.077 -0.0639 -0.2849  0.1985
    72IDQ   C6834844  -1.022   3.174  23.980 -0.4659  0.1042 -0.2627
    72IDQ   C6934845  -1.127   3.238  23.901 -0.5034  0.0495  1.1299
    72IDQ   C7034846  -1.235   3.136  23.854  0.0082 -0.4134  0.0568
    72IDQ   C7134847  -1.348   3.223  23.797 -0.4396 -0.2098 -0.6921
    72IDQ   C7234848  -1.461   3.132  23.747 -0.6274 -0.3776  0.1095
    11RH     C134849   5.867   4.332  21.247 -0.3322 -0.2069  0.4416
    11RH     C234850   5.845   4.335  21.101 -0.0132 -0.1374  0.3920
    11RH     N134851   5.799   4.224  21.308 -0.6342 -0.1134  0.2731
    11RH     S134852   5.735   4.196  21.052 -0.1311  0.0463  0.1274
    11RH     C334853   5.725   4.141  21.228 -0.5959  0.0223  0.0949
    11RH     C434854   5.791   4.212  21.459 -0.9958  0.2755 -0.0835
    11RH     S234855   5.635   4.006  21.275 -0.9112  0.1535 -0.1264
    11RH     O134856   5.937   4.413  21.311 -0.3409 -0.3313  0.6089
    11RH     C534857   5.898   4.428  21.020  0.3074 -0.2029  0.5261
    21BTZ    C634858   5.885   4.449  20.869  0.1554  0.0250 -0.2630
    21BTZ    C734859   5.808   4.370  20.788  0.1194  0.1122 -0.3133
    21BTZ    C834860   5.964   4.553  20.809  0.1454  0.0755 -0.1884
    21BTZ    C934861   5.803   4.390  20.645  0.0722  0.2522 -0.2933
    21BTZ   C1034862   5.876   4.488  20.584  0.0612  0.3051 -0.2228
    21BTZ   C1134863   5.959   4.573  20.664  0.0976  0.2179 -0.1678
    21BTZ    N234864   6.043   4.636  20.878  0.1775  0.0006 -0.1349
    21BTZ    N334865   6.035   4.672  20.616  0.0911  0.2575 -0.0978
    21BTZ    S334866   6.117   4.745  20.757  0.1472  0.1113 -0.0536
    31IDT   C1234867   5.893   4.484  20.434  0.1475 -0.5219  0.6597
    31IDT   C1334868   5.915   4.590  20.351  0.1636 -0.3275  0.9084
    31IDT   C1434869   5.890   4.559  20.214  0.0336  0.0356  0.8473
    31IDT   C1534870   5.849   4.429  20.192 -0.0817  0.1203  0.5523
    31IDT    S434871   5.838   4.335  20.345 -0.0346 -0.2570  0.3275
    4IDB    C1634872   5.825   4.413  20.041 -0.1891 -0.1994 -0.2106
    4IDB    C1734873   5.844   4.541  19.981 -1.3165  0.1730  0.1793
    51IDQ   C1834874   5.898   4.638  20.082  0.2398  0.5905 -0.8286
    4IDB    C1934875   5.808   4.563  19.848 -0.9832  0.0848  0.0733
    51IDQ   C2034876   6.046   4.648  20.025  0.2221  0.3641  0.4272
    51IDQ   C2134877   5.844   4.787  20.104  0.1711  0.1901  0.5463
    51IDQ   C2234878   5.820   4.861  19.985  1.2625  0.7905  0.7312
    51IDQ   C2334879   6.173   4.654  20.109  0.0282  0.0103  0.1082
    51IDQ   C2434880   5.744   4.989  20.002  1.1231  0.2563  0.0706
    51IDQ   C2534881   5.832   5.118  19.998  0.5426  0.3146  0.7411
    51IDQ   C2634882   5.759   5.245  20.039 -0.2519  0.2486  0.0164
    51IDQ   C2734883   5.852   5.359  20.073  0.1669  0.5565  0.4956
    51IDQ   C2834884   5.756   5.467  20.099 -0.3149  0.1375  0.1439
    51IDQ   C2934885   5.790   5.571  20.205  0.3211  0.1730  0.0479
    51IDQ   C3034886   6.263   4.773  20.111 -0.3885 -0.0923 -1.1774
    51IDQ   C3134887   6.182   4.901  20.139  0.2489  0.1382 -0.1388
    51IDQ   C3234888   6.267   5.015  20.184  0.1645 -0.1119  0.1004
    51IDQ   C3334889   6.210   5.135  20.265  0.9055 -0.1271  0.0872
    51IDQ   C3434890   6.138   5.094  20.390  0.7520  0.0194 -1.2190
    51IDQ   C3534891   5.985   5.076  20.362 -0.2438  0.9613  0.5501
    4IDB    C3634892   5.770   4.306  19.969  1.2878 -0.6649 -0.7114
    4IDB    C3734893   5.735   4.331  19.833  1.6079 -0.7482 -0.8125
    11RH    C3834894   5.918   4.123  21.500  0.5621 -0.3290  0.2390
    4IDB    C3934895   5.753   4.456  19.776  0.4938 -0.3806 -0.4279
    62IDT   C4034896   5.690   4.457  19.652 -0.1221 -0.0220  0.1977
    72IDQ   C4134897   5.657   4.236  19.734 -0.9339 -0.0713  1.0133
    62IDT   C4234898   5.614   4.345  19.628 -0.6169  0.2246  0.5527
    72IDQ   C4334899   5.531   4.164  19.776  1.0913 -0.2772  0.4407
    72IDQ   C4434900   5.753   4.133  19.655 -0.2756  0.0801 -0.7601
    62IDT    S534901   5.657   4.588  19.534  0.2473 -0.1481 -0.0478
    62IDT   C4534902   5.536   4.478  19.453 -0.3140  0.1539  0.3626
    62IDT   C4634903   5.527   4.356  19.515 -0.7260  0.3245  0.6471
    82BTZ   C4734904   5.437   4.518  19.347 -0.2172  0.2124 -0.1211
    82BTZ   C4834905   5.412   4.653  19.345 -0.2947  0.1969 -0.1960
    82BTZ   C4934906   5.299   4.708  19.274 -0.3506  0.0883 -0.1917
    82BTZ   C5034907   5.211   4.628  19.205 -0.3291 -0.0048 -0.1114
    82BTZ   C5134908   5.348   4.430  19.277 -0.1916  0.1177 -0.0353
    82BTZ   C5234909   5.233   4.486  19.205 -0.2486  0.0072 -0.0310
    92RH    C5334910   5.103   4.689  19.133  0.3334  0.1049  0.2399
    82BTZ    N434911   5.362   4.298  19.271 -0.1180  0.1220  0.0429
    82BTZ    N534912   5.155   4.398  19.141 -0.2205 -0.0772  0.0510
    82BTZ    S634913   5.226   4.237  19.172 -0.1179 -0.0177  0.1282
    92RH    C5434914   5.055   4.809  19.099  0.3067  0.0829  0.1998
    92RH     S734915   5.104   4.971  19.169  0.2639  0.1165  0.1522
    92RH    C5534916   4.952   4.829  18.994  0.3079  0.0257  0.1874
    92RH     O234917   4.898   4.739  18.928  0.3332 -0.0081  0.2127
    92RH     N634918   4.920   4.966  18.979  0.2761  0.0131  0.1432
    92RH    C5634919   4.985   5.058  19.058  0.2496  0.0534  0.1183
    92RH    C5734920   4.805   5.006  18.892  0.0131 -0.2427  0.0017
    92RH    C5834921   4.673   5.005  18.958  0.1942 -0.5318 -0.2844
    92RH     S834922   4.966   5.225  19.059  0.2096  0.0492  0.0658
    72IDQ   C5934923   5.808   4.009  19.728  0.2811  0.1652 -0.2724
    72IDQ   C6034924   5.839   3.892  19.635  0.4576  0.4345 -0.4141
    72IDQ   C6134925   5.901   3.749  19.674 -0.1479 -0.5197 -0.6284
    72IDQ   C6234926   5.919   3.633  19.575 -1.1348 -0.1137 -0.0356
    72IDQ   C6334927   6.006   3.670  19.449 -0.1762  0.5045 -0.6130
    72IDQ   C6434928   6.007   3.559  19.346 -0.7761  0.0191  0.5798
    72IDQ   C6534929   6.057   3.600  19.213 -0.9334  0.5758  1.3808
    72IDQ   C6634930   5.439   4.075  19.686 -0.3555 -0.1077  1.0568
    72IDQ   C6734931   5.296   4.029  19.728 -0.2155  0.1138 -0.2533
    72IDQ   C6834932   5.235   3.900  19.669 -0.2890 -0.1024 -1.0759
    72IDQ   C6934933   5.222   3.869  19.520 -0.2254  0.2699  0.2417
    72IDQ   C7034934   5.165   3.965  19.428 -0.3025 -1.0734 -0.4322
    72IDQ   C7134935   5.023   4.012  19.457 -0.1579  0.6098  0.0658
    72IDQ   C7234936   5.005   4.155  19.448  0.0966 -0.7836  0.5501
    11RH     C134937   1.576   1.658  15.007  0.1292 -0.2676  0.0210
    11RH     C234938   1.449   1.642  14.933  0.2199 -0.1438 -0.1640
    11RH     N134939   1.562   1.622  15.143 -0.1289 -0.1532  0.0252
    11RH     S134940   1.318   1.581  15.047 -0.0400  0.1150 -0.3199
    11RH     C334941   1.439   1.580  15.187 -0.2560  0.0471 -0.1333
    11RH     C434942   1.660   1.660  15.241 -0.8861  0.4981  0.2639
    11RH     S234943   1.396   1.532  15.342 -0.5616  0.2152 -0.1652
    11RH     O134944   1.683   1.698  14.958  0.2591 -0.4489  0.1574
    11RH     C534945   1.435   1.669  14.803  0.4571 -0.2158 -0.2047
    21BTZ    C634946   1.326   1.654  14.701  0.4399 -0.1837 -0.0835
    21BTZ    C734947   1.209   1.588  14.727  0.4222 -0.1172  0.0100
    21BTZ    C834948   1.351   1.699  14.567  0.2877 -0.0648 -0.0744
    21BTZ    C934949   1.112   1.561  14.623  0.2553  0.0685  0.1166
    21BTZ   C1034950   1.132   1.601  14.494  0.1063  0.1872  0.1297
    21BTZ   C1134951   1.253   1.672  14.462  0.1180  0.1239  0.0341
    21BTZ    N234952   1.461   1.765  14.529  0.2883 -0.1137 -0.1590
    21BTZ    N334953   1.284   1.716  14.339 -0.0178  0.2266  0.0362
    21BTZ    S334954   1.444   1.796  14.354  0.0674  0.0833 -0.1029
    31IDT   C1234955   1.035   1.575  14.399  0.3311 -0.4087  0.0005
    31IDT   C1334956   1.014   1.650  14.286  0.1352  0.2275  0.4456
    31IDT   C1434957   0.894   1.615  14.218 -0.0090  0.6461  0.4799
    31IDT   C1534958   0.822   1.513  14.278  0.0758  0.3325  0.0618
    31IDT    S434959   0.902   1.454  14.427  0.3474 -0.5251 -0.4116
    4IDB    C1634960   0.708   1.480  14.196  0.7368 -0.6670 -0.4995
    4IDB    C1734961   0.710   1.562  14.079  0.7830 -0.7033 -0.5240
    51IDQ   C1834962   0.831   1.657  14.079  0.5027 -0.6301 -0.7632
    4IDB    C1934963   0.620   1.539  13.974  0.3436 -0.2849 -0.2449
    51IDQ   C2034964   0.922   1.639  13.955  0.3181  0.4632  0.1680
    51IDQ   C2134965   0.791   1.813  14.088  1.0192  0.0667  0.6093
    51IDQ   C2234966   0.642   1.865  14.093  0.1419 -0.0104  0.3403
    51IDQ   C2334967   1.072   1.605  13.969 -0.0087  0.7630  0.1804
    51IDQ   C2434968   0.616   2.013  14.058  0.5605  1.0215  0.2894
    51IDQ   C2534969   0.657   2.127  14.143  0.5054 -0.3594  1.5158
    51IDQ   C2634970   0.604   2.266  14.089  0.5724  0.5750 -0.1003
    51IDQ   C2734971   0.659   2.387  14.154 -0.3903 -0.2873  0.8394
    51IDQ   C2834972   0.584   2.521  14.129  0.2754  0.7378 -0.1134
    51IDQ   C2934973   0.459   2.539  14.215 -0.0946  0.3435 -0.2187
    51IDQ   C3034974   1.168   1.639  13.860 -0.1761 -0.0255 -0.3458
    51IDQ   C3134975   1.139   1.568  13.726  0.9520  0.4578  0.1125
    51IDQ   C3234976   1.227   1.588  13.611 -0.6707 -0.6624 -0.5500
    51IDQ   C3334977   1.235   1.721  13.538 -0.0691 -0.2272  0.4279
    51IDQ   C3434978   1.298   1.732  13.396  0.1254  0.2135 -0.4569
    51IDQ   C3534979   1.444   1.702  13.376 -0.1902  0.3078  0.6325
    4IDB    C3634980   0.615   1.375  14.209  0.2474 -0.2087 -0.1936
    4IDB    C3734981   0.525   1.354  14.102 -0.1973  0.2148  0.0892
    11RH    C3834982   1.768   1.555  15.255  0.0862 -0.2306 -0.2237
    4IDB    C3934983   0.528   1.434  13.988 -0.1458  0.1733  0.0611
    62IDT   C4034984   0.424   1.386  13.902  0.0857 -0.5668 -0.1468
    72IDQ   C4134985   0.420   1.246  14.094  0.0423  1.3611  1.2738
    62IDT   C4234986   0.353   1.282  13.959 -0.2822 -0.5446 -0.5510
    72IDQ   C4334987   0.303   1.243  14.202  0.7433 -0.0473 -0.6664
    72IDQ   C4434988   0.491   1.101  14.073 -0.2461 -0.7241  0.3235
    62IDT    S534989   0.358   1.432  13.741  0.1872  0.3543  0.0640
    62IDT   C4534990   0.232   1.302  13.761 -0.2967  0.7396 -0.4294
    62IDT   C4634991   0.245   1.235  13.879 -0.4989  0.1940 -0.7117
    82BTZ   C4734992   0.148   1.261  13.648 -0.2941  0.3754 -0.0501
    82BTZ   C4834993   0.185   1.292  13.520 -0.1706  0.2022 -0.0570
    82BTZ   C4934994   0.104   1.254  13.407 -0.0126 -0.0373 -0.0920
    82BTZ   C5034995  -0.014   1.186  13.423  0.0217 -0.1033 -0.1206
    82BTZ   C5134996   0.026   1.190  13.670 -0.2643  0.3151 -0.0792
    82BTZ   C5234997  -0.057   1.151  13.555 -0.1037  0.0716 -0.1149
    92RH    C5334998  -0.108   1.166  13.313 -0.0987  0.2765  0.2726
    82BTZ    N434999  -0.020   1.155  13.790 -0.3747  0.4682 -0.0763
    82BTZ    N535000  -0.169   1.085  13.583 -0.0849  0.0290 -0.1407
    82BTZ    S635001  -0.174   1.069  13.762 -0.2760  0.3040 -0.1195
    92RH    C5435002  -0.113   1.207  13.186 -0.0970  0.1825  0.2415
    92RH     S735003   0.001   1.326  13.105  0.1257 -0.1540  0.0559
    92RH    C5535004  -0.215   1.161  13.089 -0.2822  0.3431  0.3579
    92RH     O235005  -0.306   1.080  13.113 -0.4573  0.5788  0.4945
    92RH     N635006  -0.196   1.221  12.962 -0.2359  0.1941  0.2935
    92RH    C5635007  -0.091   1.309  12.947 -0.0365 -0.0663  0.1404
    92RH    C5735008  -0.289   1.173  12.858  0.0411  0.1182  0.2266
    92RH    C5835009  -0.243   1.073  12.753 -0.3887 -0.7694 -1.0281
    92RH     S835010  -0.048   1.394  12.807  0.0582 -0.2851  0.0372
    72IDQ   C5935011   0.424   0.970  14.112 -0.5851 -0.2311  0.3850
    72IDQ   C6035012   0.512   0.842  14.115 -0.5080 -0.6391 -0.3237
    72IDQ   C6135013   0.618   0.842  14.231 -0.1219  0.2586 -0.4163
    72IDQ   C6235014   0.578   0.857  14.382  0.2146  0.0489 -0.0312
    72IDQ   C6335015   0.449   0.787  14.438 -0.2261  0.8143  1.1662
    72IDQ   C6435016   0.469   0.640  14.493  0.0249 -0.2434  0.2429
    72IDQ   C6535017   0.366   0.601  14.587  1.0753  0.1641 -0.3919
    72IDQ   C6635018   0.351   1.232  14.349 -0.0159  0.2970 -0.6734
    72IDQ   C6735019   0.266   1.150  14.453 -0.2819 -0.6936 -0.5074
    72IDQ   C6835020   0.115   1.121  14.469 -0.3637 -0.7005  0.7747
    72IDQ   C6935021   0.080   1.021  14.578 -0.6275  0.0569 -0.1360
    72IDQ   C7035022  -0.068   0.992  14.609  0.5688 -0.8233  0.0889
    72IDQ   C7135023  -0.144   0.939  14.485  0.0756 -0.0437  0.5573
    72IDQ   C7235024  -0.271   1.013  14.443 -0.3357 -1.0462 -0.7403
    11RH     C135025   6.951   1.630  10.916 -0.4271 -0.2105  0.2966
    11RH     C235026   6.986   1.650  11.058 -0.3450 -0.0439  0.2537
    11RH     N135027   6.836   1.549  10.902 -0.2560 -0.4802  0.4477
    11RH     S135028   6.866   1.560  11.165 -0.0484 -0.2527  0.4148
    11RH     C335029   6.775   1.501  11.016 -0.0471 -0.5500  0.5312
    11RH     C435030   6.795   1.484  10.766 -0.3388  0.4395 -0.4569
    11RH     S235031   6.639   1.403  11.026  0.1838 -0.8551  0.7122
    11RH     O135032   7.012   1.678  10.819 -0.6204 -0.1289  0.2129
    11RH     C535033   7.090   1.723  11.099 -0.4732  0.2186  0.1170
    21BTZ    C635034   7.154   1.731  11.227 -0.2409  0.1421 -0.2351
    21BTZ    C735035   7.116   1.667  11.342 -0.0910  0.1055 -0.2055
    21BTZ    C835036   7.275   1.809  11.228 -0.2873  0.2162 -0.3426
    21BTZ    C935037   7.194   1.676  11.463  0.0204  0.1395 -0.2799
    21BTZ   C1035038   7.311   1.748  11.469 -0.0186  0.2100 -0.3837
    21BTZ   C1135039   7.355   1.817  11.351 -0.1743  0.2507 -0.4179
    21BTZ    N235040   7.322   1.875  11.122 -0.4297  0.2575 -0.3808
    21BTZ    N335041   7.466   1.891  11.344 -0.2258  0.3198 -0.5171
    21BTZ    S335042   7.474   1.953  11.176 -0.4255  0.3442 -0.5175
    31IDT   C1235043   7.386   1.748  11.593  0.4643  0.3823 -0.0843
    31IDT   C1335044   7.501   1.812  11.633  0.0665  0.6945  0.5891
    31IDT   C1435045   7.539   1.779  11.767 -0.4387  0.5371  0.7002
    31IDT   C1535046   7.455   1.690  11.829 -0.4296  0.1049  0.1147
    31IDT    S435047   7.319   1.640  11.723  0.2256 -0.1386 -0.6305
    4IDB    C1635048   7.497   1.683  11.968 -0.2991 -0.5888 -0.1422
    4IDB    C1735049   7.619   1.753  11.992 -0.3907 -0.3497 -0.3674
    51IDQ   C1835050   7.658   1.825  11.861 -0.1134  0.0274  0.1479
    4IDB    C1935051   7.673   1.761  12.120 -0.3649  0.0767 -0.4023
    51IDQ   C2035052   7.672   1.988  11.883  0.8938  0.7030  0.5235
    51IDQ   C2135053   7.800   1.785  11.797 -0.4474 -0.1215  0.2144
    51IDQ   C2235054   7.883   1.666  11.871 -0.6031 -1.2169 -0.0326
    51IDQ   C2335055   7.566   2.090  11.848  0.3804  0.2430 -0.1648
    51IDQ   C2435056   8.034   1.678  11.853 -0.1057  0.5161  0.5873
    51IDQ   C2535057   8.092   1.809  11.884  0.6703 -0.1728 -0.5149
    51IDQ   C2635058   8.234   1.794  11.938 -0.1343 -0.6785  0.4864
    51IDQ   C2735059   8.268   1.930  12.001 -0.1727 -0.2624  0.3421
    51IDQ   C2835060   8.402   2.001  11.974 -0.1652  0.7008  0.2899
    51IDQ   C2935061   8.418   2.152  11.947  0.7057  0.4063  0.1342
    51IDQ   C3035062   7.567   2.138  11.705  0.3389 -0.2530  0.3482
    51IDQ   C3135063   7.691   2.184  11.633 -0.3972 -0.1732  1.0914
    51IDQ   C3235064   7.668   2.270  11.510 -1.1163  0.2858  0.3992
    51IDQ   C3335065   7.794   2.293  11.421  0.0946 -0.9378 -0.3786
    51IDQ   C3435066   7.764   2.372  11.297  0.1178 -0.7880  0.7296
    51IDQ   C3535067   7.691   2.298  11.181 -1.0670  0.0599 -0.3505
    4IDB    C3635068   7.428   1.620  12.073 -0.1803 -0.4013  0.0510
    4IDB    C3735069   7.485   1.629  12.203 -0.1555  0.0349  0.0122
    11RH    C3835070   6.729   1.573  10.654 -1.6034 -0.3968 -0.5201
    4IDB    C3935071   7.604   1.698  12.225 -0.2461  0.2642 -0.2092
    62IDT   C4035072   7.634   1.687  12.369 -0.3157  0.7110  0.2094
    72IDQ   C4135073   7.418   1.578  12.335 -0.2218  0.1727 -0.1565
    62IDT   C4235074   7.525   1.631  12.432 -0.5817  1.1250  0.1268
    72IDQ   C4335075   7.414   1.418  12.363  0.2240 -0.4786 -0.5947
    72IDQ   C4435076   7.279   1.638  12.392 -0.6611 -0.3289  0.6632
    62IDT    S535077   7.757   1.746  12.486  0.0949 -0.2763  0.2931
    62IDT   C4535078   7.650   1.689  12.621 -0.1256 -0.0670  0.2078
    62IDT   C4635079   7.534   1.632  12.575 -0.4747  0.6858  0.1259
    82BTZ   C4735080   7.692   1.681  12.762  0.0265  0.5232 -0.0342
    82BTZ   C4835081   7.824   1.667  12.793  0.0596  0.8455 -0.0179
    82BTZ   C4935082   7.870   1.656  12.929  0.0524  0.8025 -0.0188
    82BTZ   C5035083   7.783   1.660  13.035  0.0121  0.4375 -0.0359
    82BTZ   C5135084   7.596   1.686  12.869 -0.0163  0.1346 -0.0525
    82BTZ   C5235085   7.643   1.675  13.008 -0.0236  0.0909 -0.0536
    92RH    C5335086   7.822   1.653  13.175  0.0904  0.3085 -0.1515
    82BTZ    N435087   7.465   1.700  12.852 -0.0511 -0.2016 -0.0691
    82BTZ    N535088   7.548   1.680  13.102 -0.0643 -0.2803 -0.0710
    82BTZ    S635089   7.393   1.700  13.016 -0.0956 -0.5964 -0.0871
    92RH    C5435090   7.941   1.634  13.233  0.0639  0.1209 -0.1585
    92RH     S735091   8.098   1.589  13.149 -0.0477 -0.2937 -0.1474
    92RH    C5535092   7.964   1.647  13.379  0.1234  0.2251 -0.1767
    92RH     O235093   7.878   1.677  13.463  0.2031  0.4928 -0.1876
    92RH     N635094   8.099   1.621  13.412  0.0780 -0.0208 -0.1807
    92RH    C5635095   8.187   1.589  13.311 -0.0105 -0.3093 -0.1674
    92RH    C5735096   8.147   1.634  13.561  0.1234 -0.1385  0.3865
    92RH    C5835097   8.138   1.497  13.637 -0.5843  1.2069  1.1606
    92RH     S835098   8.351   1.554  13.324 -0.0792 -0.6385 -0.1688
    72IDQ   C5935099   7.159   1.644  12.292  1.0994 -0.2528  0.1875
    72IDQ   C6035100   7.101   1.529  12.201 -0.0393  0.0606 -0.2911
    72IDQ   C6135101   7.057   1.413  12.297 -0.1682 -0.0879  0.2010
    72IDQ   C6235102   6.959   1.306  12.239 -0.2535 -0.1955 -0.5218
    72IDQ   C6335103   6.809   1.347  12.248  0.2816 -0.4143  0.5776
    72IDQ   C6435104   6.745   1.379  12.380 -0.3465 -0.4451 -0.9413
    72IDQ   C6535105   6.610   1.426  12.370  0.7435  0.0180  0.2525
    72IDQ   C6635106   7.442   1.308  12.260 -0.7082 -0.2014  0.3215
    72IDQ   C6735107   7.423   1.171  12.311  1.3611  0.4454  0.3020
    72IDQ   C6835108   7.417   1.061  12.201 -0.7349  0.4778 -0.6440
    72IDQ   C6935109   7.286   0.999  12.160  0.9805 -0.7944 -0.8656
    72IDQ   C7035110   7.177   0.953  12.266 -0.5444  0.1271 -0.7250
    72IDQ   C7135111   7.077   0.852  12.204  0.6836 -0.1178 -0.0846
    72IDQ   C7235112   6.968   0.815  12.307  0.3302 -1.0277  0.0806
    11RH     C135113   2.677   0.022  19.280  0.2362 -0.2215 -0.0310
    11RH     C235114   2.662  -0.100  19.362  0.1707 -0.2075 -0.0229
    11RH     N135115   2.783   0.009  19.187  0.3091 -0.2381  0.0543
    11RH     S135116   2.787  -0.225  19.311  0.2093 -0.2173  0.0964
    11RH     C335117   2.853  -0.109  19.184  0.3101 -0.2394  0.1292
    11RH     C435118   2.798   0.110  19.074 -0.0821  0.2088 -0.3389
    11RH     S235119   2.983  -0.150  19.084  0.3886 -0.2575  0.2365
    11RH     O135120   2.608   0.125  19.290  0.2296 -0.2191 -0.1020
    11RH     C535121   2.569  -0.114  19.457  0.0955 -0.1905 -0.0931
    21BTZ    C635122   2.550  -0.208  19.568  0.1118  0.2695  0.0729
    21BTZ    C735123   2.647  -0.293  19.614  0.1687  0.3829  0.1612
    21BTZ    C835124   2.425  -0.201  19.638  0.0467  0.1380 -0.0286
    21BTZ    C935125   2.627  -0.374  19.731  0.1645  0.3728  0.1535
    21BTZ   C1035126   2.509  -0.371  19.802  0.1034  0.2493  0.0575
    21BTZ   C1135127   2.404  -0.284  19.757  0.0424  0.1278 -0.0367
    21BTZ    N235128   2.323  -0.123  19.602 -0.0122  0.0203 -0.1197
    21BTZ    N335129   2.286  -0.273  19.817 -0.0199  0.0017 -0.1340
    21BTZ    S335130   2.193  -0.153  19.722 -0.0770 -0.1113 -0.2219
    31IDT   C1235131   2.489  -0.463  19.912  0.1491 -0.4263  0.2486
    31IDT   C1335132   2.404  -0.446  20.019 -0.0144 -0.4606  0.1254
    31IDT   C1435133   2.438  -0.528  20.131 -0.0559 -0.3415  0.2270
    31IDT   C1535134   2.548  -0.609  20.110  0.0751 -0.2163  0.4281
    31IDT    S435135   2.618  -0.586  19.946  0.2632 -0.2394  0.5041
    4IDB    C1635136   2.568  -0.690  20.221 -0.3248 -0.1460 -0.2399
    4IDB    C1735137   2.453  -0.678  20.305  0.0429  0.0465  0.2470
    51IDQ   C1835138   2.364  -0.565  20.254  0.1973 -0.1377  0.7142
    4IDB    C1935139   2.445  -0.747  20.425  0.4327  0.0596  0.2819
    51IDQ   C2035140   2.216  -0.627  20.229  0.0686  0.4890 -0.3315
    51IDQ   C2135141   2.343  -0.437  20.333  0.1401  0.7288 -0.7092
    51IDQ   C2235142   2.385  -0.410  20.475 -0.7233 -0.0783 -0.6546
    51IDQ   C2335143   2.194  -0.723  20.111  0.6073  0.0238  0.1003
    51IDQ   C2435144   2.532  -0.438  20.521 -0.1138  0.2344  0.1496
    51IDQ   C2535145   2.631  -0.320  20.543  0.3001  0.1971  0.0832
    51IDQ   C2635146   2.585  -0.180  20.590 -0.1887 -1.0555  0.3221
    51IDQ   C2735147   2.693  -0.072  20.584 -0.4066 -0.4270 -0.7853
    51IDQ   C2835148   2.682   0.076  20.650 -0.6788  0.9473  0.5819
    51IDQ   C2935149   2.809   0.150  20.611 -0.7999  0.1237 -0.1179
    51IDQ   C3035150   2.041  -0.755  20.092  0.4910  0.5316 -0.4095
    51IDQ   C3135151   1.995  -0.894  20.153  0.1033  0.3995 -0.5411
    51IDQ   C3235152   2.036  -1.011  20.070 -0.3204  1.1464  1.0262
    51IDQ   C3335153   1.957  -1.140  20.075  0.1753 -0.4987 -0.9988
    51IDQ   C3435154   1.816  -1.146  20.012 -0.4766  0.2616  0.5017
    51IDQ   C3535155   1.823  -1.117  19.853 -0.0518  0.6679  0.0356
    4IDB    C3635156   2.676  -0.772  20.257 -0.3044 -0.3278 -0.6962
    4IDB    C3735157   2.666  -0.841  20.381  0.0966 -0.3117 -0.6523
    11RH    C3835158   2.706   0.082  18.958  0.3513 -0.0044 -0.6040
    4IDB    C3935159   2.553  -0.829  20.462  0.4530 -0.1224 -0.1746
    62IDT   C4035160   2.566  -0.919  20.575  0.6668 -0.4560 -0.0411
    72IDQ   C4135161   2.767  -0.935  20.446  0.4955  0.4094 -1.1773
    62IDT   C4235162   2.683  -0.991  20.565  0.5018 -0.7759  0.2851
    72IDQ   C4335163   2.889  -0.847  20.491 -0.1346 -1.0125  0.3640
    72IDQ   C4435164   2.801  -1.071  20.378  0.7996  0.5603  0.3219
    62IDT    S535165   2.466  -0.972  20.715  0.1836 -0.1112 -0.2495
    62IDT   C4535166   2.594  -1.095  20.754 -0.2363 -0.4336  0.1332
    62IDT   C4635167   2.699  -1.091  20.666 -0.0089 -0.7637  0.3839
    82BTZ   C4735168   2.560  -1.209  20.842  0.0781  0.2112  0.5213
    82BTZ   C4835169   2.432  -1.217  20.890  0.0386  0.0480  0.3886
    82BTZ   C4935170   2.396  -1.305  20.998 -0.0474 -0.3085  0.0725
    82BTZ   C5035171   2.488  -1.386  21.058 -0.0936 -0.5011 -0.1103
    82BTZ   C5135172   2.661  -1.292  20.903  0.0324  0.0204  0.3386
    82BTZ   C5235173   2.624  -1.382  21.013 -0.0550 -0.3420  0.0172
    92RH    C5335174   2.447  -1.480  21.162 -0.2378 -0.0429 -0.1498
    82BTZ    N435175   2.789  -1.293  20.866  0.0641  0.1508  0.4420
    82BTZ    N535176   2.723  -1.456  21.064 -0.0935 -0.5028 -0.1378
    82BTZ    S635177   2.870  -1.412  20.972 -0.0182 -0.1914  0.1251
    92RH    C5435178   2.332  -1.500  21.227 -0.2514  0.1230 -0.1211
    92RH     S735179   2.171  -1.418  21.194 -0.2157  0.1271 -0.2869
    92RH    C5535180   2.317  -1.596  21.340 -0.2992  0.3359  0.0539
    92RH     O235181   2.407  -1.667  21.386 -0.3315  0.3854  0.1931
    92RH     N635182   2.185  -1.597  21.390 -0.3038  0.4807  0.0448
    92RH    C5635183   2.092  -1.513  21.331 -0.2656  0.4098 -0.1163
    92RH    C5735184   2.158  -1.671  21.520  0.8055  0.0078  0.7396
    92RH    C5835185   2.087  -1.806  21.496 -0.3877 -0.2499  0.6254
    92RH     S835186   1.929  -1.496  21.371 -0.2621  0.5491 -0.1621
    72IDQ   C5935187   2.932  -1.098  20.302  0.4018  0.6301 -0.0751
    72IDQ   C6035188   2.915  -1.230  20.226 -0.3531 -0.0103 -0.3698
    72IDQ   C6135189   3.028  -1.269  20.134  0.0143  0.3735  0.0750
    72IDQ   C6235190   3.035  -1.422  20.124  0.6236 -0.1086  0.7558
    72IDQ   C6335191   3.169  -1.494  20.089 -0.4219 -1.0616 -0.3778
    72IDQ   C6435192   3.179  -1.643  20.073 -0.8313 -0.6177  0.7760
    72IDQ   C6535193   3.315  -1.682  20.059 -0.5957 -0.1636  0.0839
    72IDQ   C6635194   2.893  -0.749  20.606  0.4578 -0.0072 -0.9180
    72IDQ   C6735195   3.036  -0.696  20.634 -0.0120  1.3102  0.7051
    72IDQ   C6835196   3.128  -0.626  20.542  0.1061 -0.0922  0.1441
    72IDQ   C6935197   3.077  -0.481  20.504 -0.9744  0.8983  0.5388
    72IDQ   C7035198   2.968  -0.482  20.388  0.6789 -0.7110  0.2219
    72IDQ   C7135199   2.942  -0.340  20.337 -0.4998  1.6658 -0.5605
    72IDQ   C7235200   2.830  -0.328  20.237 -0.6212 -0.5309  0.2741
    11RH     C135201   3.940   4.375  22.147  0.4275 -0.0975 -0.8063
    11RH     C235202   4.066   4.301  22.173  0.2459 -0.2195 -0.2260
    11RH     N135203   3.841   4.289  22.094  0.3940 -0.1479 -0.6644
    11RH     S135204   4.047   4.125  22.125  0.0429 -0.3921  0.4677
    11RH     C335205   3.872   4.157  22.073  0.2077 -0.2952 -0.0415
    11RH     C435206   3.707   4.350  22.047 -0.5586  0.5256 -0.8775
    11RH     S235207   3.773   4.035  22.011  0.1295 -0.3827  0.2518
    11RH     O135208   3.920   4.495  22.169  0.5903  0.0330 -1.3528
    11RH     C535209   4.176   4.359  22.223  0.2377 -0.2012 -0.2287
    21BTZ    C635210   4.292   4.305  22.284  0.3312  0.0905  0.1828
    21BTZ    C735211   4.317   4.172  22.308  0.3313  0.0993  0.2313
    21BTZ    C835212   4.380   4.403  22.341  0.2987  0.1136  0.1926
    21BTZ    C935213   4.428   4.129  22.388  0.2997  0.1309  0.2923
    21BTZ   C1035214   4.515   4.219  22.445  0.2681  0.1538  0.3043
    21BTZ   C1135215   4.493   4.359  22.423  0.2666  0.1458  0.2546
    21BTZ    N235216   4.366   4.535  22.325  0.2954  0.1079  0.1493
    21BTZ    N335217   4.571   4.456  22.472  0.2375  0.1661  0.2608
    21BTZ    S335218   4.501   4.610  22.415  0.2501  0.1444  0.1868
    31IDT   C1235219   4.618   4.165  22.534  0.1210  0.1837  0.0198
    31IDT   C1335220   4.739   4.222  22.565  0.2654  0.0665 -0.3119
    31IDT   C1435221   4.812   4.147  22.663  0.3885  0.0803 -0.3934
    31IDT   C1535222   4.747   4.032  22.706  0.3392  0.2080 -0.1242
    31IDT    S435223   4.588   4.011  22.626  0.1308  0.3214  0.2563
    4IDB    C1635224   4.822   3.966  22.811 -0.4690  0.4594  0.2109
    4IDB    C1735225   4.932   4.049  22.845 -0.1800  0.1847 -0.0410
    51IDQ   C1835226   4.948   4.163  22.740 -0.9881  0.9176 -0.1990
    4IDB    C1935227   5.014   4.020  22.953 -0.1240  0.0884 -0.1099
    51IDQ   C2035228   4.976   4.295  22.815 -0.6363  0.7461  0.6035
    51IDQ   C2135229   5.062   4.142  22.628  0.6084  0.6548  0.2161
    51IDQ   C2235230   5.114   4.004  22.582  0.9067 -0.4256 -0.5373
    51IDQ   C2335231   4.864   4.401  22.808 -0.8907  0.2332  0.6082
    51IDQ   C2435232   5.220   4.002  22.468  0.9430  0.5166  0.3705
    51IDQ   C2535233   5.172   4.073  22.337 -0.8496 -0.0007  0.4932
    51IDQ   C2635234   5.255   4.043  22.204  0.4556 -0.8920 -0.7252
    51IDQ   C2735235   5.399   4.094  22.195  1.4120 -0.5794 -0.7737
    51IDQ   C2835236   5.422   4.238  22.202  0.1455 -0.1755  0.6626
    51IDQ   C2935237   5.355   4.321  22.084  0.1878  0.0691  0.7208
    51IDQ   C3035238   4.903   4.553  22.815 -0.8939  0.1036 -0.0821
    51IDQ   C3135239   4.803   4.653  22.741 -0.5948 -0.1435 -1.1425
    51IDQ   C3235240   4.849   4.802  22.749  0.6657 -1.5113 -1.0485
    51IDQ   C3335241   5.000   4.842  22.727 -0.5828  0.1817 -0.4114
    51IDQ   C3435242   5.032   4.990  22.715 -0.6062  0.9151 -0.0677
    51IDQ   C3535243   5.119   5.030  22.841 -0.2689  0.0513 -0.0456
    4IDB    C3635244   4.792   3.851  22.886 -0.7050  0.6407  0.3972
    4IDB    C3735245   4.877   3.822  22.997 -0.6437  0.5388  0.3247
    11RH    C3835246   3.601   4.329  22.159  0.4006  0.2697  0.2691
    4IDB    C3935247   4.984   3.905  23.029 -0.3602  0.2697  0.0773
    62IDT   C4035248   5.040   3.866  23.157  0.1713  0.1205 -0.4643
    72IDQ   C4135249   4.870   3.700  23.098  0.0335  0.3976 -0.9397
    62IDT   C4235250   4.979   3.749  23.198  0.3073 -0.1482 -1.0142
    72IDQ   C4335251   4.902   3.563  23.037  0.7658 -0.4133 -0.1311
    72IDQ   C4435252   4.738   3.720  23.188  0.3289 -0.5104 -0.3735
    62IDT    S535253   5.161   3.923  23.276 -0.5299  0.1939  0.2319
    62IDT   C4535254   5.122   3.779  23.380 -0.6056 -0.1596 -0.2822
    62IDT   C4635255   5.025   3.700  23.324 -0.1315 -0.3070 -0.9127
    82BTZ   C4735256   5.194   3.758  23.508  0.2682 -0.1672 -0.1537
    82BTZ   C4835257   5.287   3.853  23.539  0.3034 -0.1876 -0.1974
    82BTZ   C4935258   5.354   3.855  23.667  0.2990 -0.1512 -0.1950
    82BTZ   C5035259   5.327   3.761  23.763  0.2598 -0.0946 -0.1502
    82BTZ   C5135260   5.162   3.658  23.605  0.2263 -0.1084 -0.1063
    82BTZ   C5235261   5.230   3.659  23.735  0.2220 -0.0713 -0.1044
    92RH    C5335262   5.400   3.750  23.886 -0.0445  0.2715  0.1939
    82BTZ    N435263   5.073   3.560  23.586  0.1898 -0.0836 -0.0620
    82BTZ    N535264   5.196   3.562  23.820  0.1819 -0.0169 -0.0582
    82BTZ    S635265   5.073   3.463  23.736  0.1472 -0.0105 -0.0157
    92RH    C5435266   5.506   3.816  23.933 -0.0485  0.2803  0.1917
    92RH     S735267   5.599   3.950  23.849  0.0444  0.1687  0.1162
    92RH    C5535268   5.566   3.789  24.066 -0.1323  0.3856  0.2508
    92RH     O235269   5.526   3.705  24.148 -0.2071  0.4764  0.3085
    92RH     N635270   5.677   3.874  24.090 -0.1174  0.3709  0.2331
    92RH    C5635271   5.713   3.964  23.993 -0.0317  0.2666  0.1674
    92RH    C5735272   5.734   3.873  24.223 -0.8479  0.5995  0.6413
    92RH    C5835273   5.856   3.781  24.246  0.1462 -0.3964 -0.8763
    92RH     S835274   5.840   4.075  23.997  0.0039  0.2271  0.1335
    72IDQ   C5935275   4.608   3.664  23.143 -1.1316  0.3203  1.1650
    72IDQ   C6035276   4.526   3.764  23.051 -0.5952 -0.2065 -0.5083
    72IDQ   C6135277   4.462   3.889  23.121 -0.2627  0.1629 -0.5412
    72IDQ   C6235278   4.353   3.850  23.222  0.6211  0.4495  0.7282
    72IDQ   C6335279   4.283   3.959  23.317 -0.8348  0.2215 -0.2175
    72IDQ   C6435280   4.365   4.021  23.426 -0.5751  0.2383  0.2098
    72IDQ   C6535281   4.485   4.108  23.387  0.5292  0.3406 -1.0405
    72IDQ   C6635282   4.880   3.433  23.121 -0.3755 -0.5219 -0.5264
    72IDQ   C6735283   4.960   3.309  23.049 -0.2546 -0.1060 -0.5232
    72IDQ   C6835284   5.114   3.320  23.025  0.9008  0.2110  0.5285
    72IDQ   C6935285   5.209   3.285  23.143  0.1903 -0.3164  0.5108
    72IDQ   C7035286   5.201   3.363  23.278 -0.1637 -0.3674  0.5422
    72IDQ   C7135287   5.283   3.313  23.397 -0.5840  0.7596 -0.6943
    72IDQ   C7235288   5.206   3.201  23.484 -0.8860 -0.3367 -0.1601
    11RH     C135289   6.287   4.320  20.676  0.1249 -0.0321  0.1121
    11RH     C235290   6.318   4.178  20.707 -0.1706 -0.1239 -0.0038
    11RH     N135291   6.380   4.375  20.585  0.2685 -0.1373  0.1953
    11RH     S135292   6.468   4.126  20.615 -0.2403 -0.3425  0.0045
    11RH     C335293   6.482   4.294  20.540  0.1242 -0.3022  0.1607
    11RH     C435294   6.388   4.522  20.552  0.3900 -0.1974 -0.5805
    11RH     S235295   6.606   4.335  20.432  0.2457 -0.4525  0.2427
    11RH     O135296   6.191   4.384  20.722  0.2375  0.1181  0.1354
    11RH     C535297   6.245   4.103  20.790 -0.3522 -0.0531 -0.0981
    21BTZ    C635298   6.267   3.981  20.870  0.3458 -0.1355  0.0883
    21BTZ    C735299   6.386   3.914  20.876  0.3152 -0.1714  0.2985
    21BTZ    C835300   6.153   3.925  20.935  0.2227 -0.0792 -0.0772
    21BTZ    C935301   6.399   3.788  20.946  0.1628 -0.1540  0.3572
    21BTZ   C1035302   6.292   3.731  21.011  0.0416 -0.1006  0.2049
    21BTZ   C1135303   6.165   3.798  21.007  0.0679 -0.0615 -0.0181
    21BTZ    N235304   6.032   3.982  20.936  0.2382 -0.0404 -0.2880
    21BTZ    N335305   6.054   3.752  21.066 -0.0408 -0.0085 -0.1807
    21BTZ    S335306   5.927   3.872  21.031  0.0518  0.0218 -0.4223
    31IDT   C1235307   6.332   3.608  21.086  0.1760  1.0048  0.1724
    31IDT   C1335308   6.248   3.528  21.160 -0.2067  1.2171 -0.0310
    31IDT   C1435309   6.317   3.425  21.231 -0.6588  0.9305 -0.0005
    31IDT   C1535310   6.453   3.426  21.213 -0.6238  0.4991  0.2257
    31IDT    S435311   6.506   3.557  21.103 -0.0102  0.4216  0.4192
    4IDB    C1635312   6.517   3.323  21.284  0.8404  0.2552  0.4199
    4IDB    C1735313   6.424   3.242  21.356  0.4324 -0.2137 -0.5822
    51IDQ   C1835314   6.286   3.300  21.323 -0.1192 -0.0320 -0.2963
    4IDB    C1935315   6.468   3.138  21.437  0.0466 -0.2956 -0.4750
    51IDQ   C2035316   6.215   3.174  21.250  0.7954  0.4464 -0.7869
    51IDQ   C2135317   6.209   3.365  21.443  0.4846 -0.1943 -0.2409
    51IDQ   C2235318   6.265   3.413  21.575 -1.1452 -1.3067  1.2096
    51IDQ   C2335319   6.153   3.180  21.109  0.2190  0.0498  1.0922
    51IDQ   C2435320   6.358   3.538  21.561  0.7772 -1.0321  0.5850
    51IDQ   C2535321   6.423   3.608  21.676  0.2700 -0.0558  0.7139
    51IDQ   C2635322   6.528   3.534  21.752  0.4552 -0.1387  0.1900
    51IDQ   C2735323   6.473   3.449  21.878  0.5197 -0.1072  0.2050
    51IDQ   C2835324   6.354   3.504  21.967  0.1499  0.2044  0.1258
    51IDQ   C2935325   6.320   3.400  22.069 -0.4483 -0.0015  0.6624
    51IDQ   C3035326   5.992   3.204  21.104 -0.4679 -0.1202  0.6633
    51IDQ   C3135327   5.951   3.337  21.160 -0.4287  0.2304  1.0483
    51IDQ   C3235328   5.862   3.431  21.079  0.0917  0.9325  0.2283
    51IDQ   C3335329   5.723   3.372  21.074 -0.0124  0.1992 -0.7075
    51IDQ   C3435330   5.624   3.480  21.024  0.5695  0.0076  0.0415
    51IDQ   C3535331   5.473   3.454  21.034  0.5242  1.5522  0.0976
    4IDB    C3635332   6.655   3.299  21.291  0.8650  0.6470  1.5411
    4IDB    C3735333   6.698   3.192  21.375  0.4673  0.5564  1.6336
    11RH    C3835334   6.306   4.574  20.441 -0.1900  0.1102  0.5125
    4IDB    C3935335   6.606   3.114  21.445  0.0711  0.0963  0.6469
    62IDT   C4035336   6.676   3.024  21.526 -0.0722 -0.1210 -0.2618
    72IDQ   C4135337   6.842   3.132  21.392  1.0910 -0.1327  0.2251
    62IDT   C4235338   6.811   3.030  21.501 -0.1740 -0.6298 -1.0324
    72IDQ   C4335339   6.947   3.229  21.446 -1.1718 -0.9295 -0.3443
    72IDQ   C4435340   6.891   3.113  21.243 -0.1713  0.1427  0.3256
    62IDT    S535341   6.636   2.904  21.654  0.2259  0.2924  0.2250
    62IDT   C4535342   6.813   2.867  21.668  0.1958 -0.2719 -0.6831
    62IDT   C4635343   6.889   2.942  21.582 -0.0228 -0.7158 -1.2712
    82BTZ   C4735344   6.854   2.754  21.753 -0.1327  0.1612  0.1543
    82BTZ   C4835345   6.754   2.684  21.813 -0.0846  0.0064  0.0529
    82BTZ   C4935346   6.781   2.576  21.905 -0.0114 -0.1293 -0.1254
    82BTZ   C5035347   6.909   2.540  21.937  0.0133 -0.1100 -0.2030
    82BTZ   C5135348   6.990   2.720  21.783 -0.1093  0.1877  0.0792
    82BTZ   C5235349   7.018   2.611  21.877 -0.0349  0.0497 -0.1025
    92RH    C5335350   6.940   2.428  22.020 -0.3919  0.6442 -0.0408
    82BTZ    N435351   7.097   2.782  21.731 -0.1510  0.3327  0.1650
    82BTZ    N535352   7.147   2.585  21.900 -0.0170  0.0839 -0.1626
    82BTZ    S635353   7.240   2.702  21.801 -0.0961  0.2983  0.0135
    92RH    C5435354   6.870   2.338  22.090 -0.2286  0.5776  0.0391
    92RH     S735355   6.687   2.330  22.106 -0.2202  0.2011 -0.0346
    92RH    C5535356   6.932   2.227  22.167 -0.0230  0.8078  0.2065
    92RH     O235357   7.053   2.205  22.177  0.0218  1.0837  0.2904
    92RH     N635358   6.834   2.148  22.231  0.1203  0.6745  0.2619
    92RH    C5635359   6.701   2.181  22.214  0.0547  0.3658  0.1588
    92RH    C5735360   6.864   2.035  22.318 -0.1447  0.7806 -1.0392
    92RH    C5835361   6.900   1.912  22.232 -0.2481 -0.4865  1.1830
    92RH     S835362   6.566   2.103  22.278  0.1937  0.1529  0.1941
    72IDQ   C5935363   6.990   3.000  21.208 -0.2979 -0.6272 -0.5568
    72IDQ   C6035364   7.130   2.988  21.266 -0.5539  0.0047  0.3409
    72IDQ   C6135365   7.220   3.110  21.255 -0.9313  0.2439  0.8024
    72IDQ   C6235366   7.364   3.068  21.273  0.9110 -1.1015 -0.7168
    72IDQ   C6335367   7.456   3.197  21.259  0.5451  0.2809  0.8516
    72IDQ   C6435368   7.590   3.177  21.220 -1.2435  1.1025  0.7027
    72IDQ   C6535369   7.668   3.295  21.169  0.2908  0.3613 -0.4959
    72IDQ   C6635370   6.937   3.377  21.516  0.1177  0.5743  0.2344
    72IDQ   C6735371   7.074   3.448  21.497  0.5198  0.2841 -0.5975
    72IDQ   C6835372   7.074   3.585  21.567  0.1914 -0.1401  0.4875
    72IDQ   C6935373   7.203   3.648  21.548 -0.6415  1.3284  0.1274
    72IDQ   C7035374   7.215   3.781  21.612  0.5065 -0.3390  0.2513
    72IDQ   C7135375   7.331   3.881  21.585  0.4446  0.5201 -0.0789
    72IDQ   C7235376   7.334   3.954  21.446 -0.5909 -0.7453 -0.3411
    11RH     C135377   5.596   0.026  17.501  0.0801  0.0087 -0.0858
    11RH     C235378   5.671   0.150  17.532 -0.1591  0.1853 -0.2131
    11RH     N135379   5.670  -0.059  17.416  0.1638  0.1490 -0.1528
    11RH     S135380   5.833   0.148  17.446 -0.2581  0.5247 -0.4133
    11RH     C335381   5.794  -0.017  17.374  0.0211  0.4169 -0.3190
    11RH     C435382   5.606  -0.187  17.353 -1.2654 -0.6092  0.1349
    11RH     S235383   5.902  -0.099  17.272  0.0787  0.6282 -0.4287
    11RH     O135384   5.483  -0.003  17.544  0.1957 -0.2326  0.0620
    11RH     C535385   5.623   0.247  17.611 -0.2786  0.1018 -0.1822
    21BTZ    C635386   5.676   0.370  17.664  0.1562  0.1701 -0.1401
    21BTZ    C735387   5.807   0.405  17.646  0.1454  0.2597 -0.0405
    21BTZ    C835388   5.588   0.461  17.729  0.0477  0.1021 -0.1903
    21BTZ    C935389   5.858   0.533  17.691  0.0284  0.2868  0.0148
    21BTZ   C1035390   5.777   0.624  17.755 -0.0779  0.2243 -0.0296
    21BTZ   C1135391   5.640   0.591  17.776 -0.0714  0.1296 -0.1340
    21BTZ    N235392   5.459   0.438  17.752  0.0463  0.0127 -0.2871
    21BTZ    N335393   5.551   0.671  17.836 -0.1684  0.0624 -0.1855
    21BTZ    S335394   5.396   0.583  17.836 -0.1105 -0.0411 -0.3107
    31IDT   C1235395   5.839   0.745  17.803 -0.4290 -0.0306  0.1123
    31IDT   C1335396   5.776   0.860  17.844 -0.2378  0.1023  0.0362
    31IDT   C1435397   5.866   0.970  17.860 -0.0716 -0.0050 -0.1521
    31IDT   C1535398   5.998   0.940  17.832 -0.1349 -0.2198 -0.2208
    31IDT    S435399   6.018   0.768  17.782 -0.4121 -0.3036 -0.0506
    4IDB    C1635400   6.078   1.060  17.860 -0.2554 -0.7016  0.7208
    4IDB    C1735401   6.000   1.169  17.907 -0.1482 -0.3109  0.0119
    51IDQ   C1835402   5.853   1.124  17.905  0.8728  0.1458  1.4141
    4IDB    C1935403   6.061   1.288  17.946  0.0187 -0.3300 -0.1825
    51IDQ   C2035404   5.814   1.149  18.056 -0.5770  0.2050 -0.4128
    51IDQ   C2135405   5.758   1.200  17.800  0.3763  0.7236  0.4390
    51IDQ   C2235406   5.802   1.295  17.686  0.3246 -0.4369  0.3095
    51IDQ   C2335407   5.774   1.027  18.141 -1.0728 -0.1499  0.4392
    51IDQ   C2435408   5.721   1.392  17.602  0.3068  0.3389  0.7160
    51IDQ   C2535409   5.595   1.352  17.521  0.1583 -0.7004  0.6058
    51IDQ   C2635410   5.637   1.260  17.403 -0.0756  0.0941 -0.4926
    51IDQ   C2735411   5.697   1.348  17.293 -0.1331  0.7930  1.1641
    51IDQ   C2835412   5.727   1.283  17.157  1.0804  0.4670 -0.6648
    51IDQ   C2935413   5.825   1.388  17.101  0.0007 -0.7804  0.6859
    51IDQ   C3035414   5.741   1.071  18.282 -0.1480 -0.0477  0.3174
    51IDQ   C3135415   5.799   0.979  18.386  0.3144 -0.0470 -0.0889
    51IDQ   C3235416   5.693   0.878  18.431 -0.8064 -0.1932 -0.4588
    51IDQ   C3335417   5.742   0.839  18.573 -0.3855  0.8614  0.3025
    51IDQ   C3435418   5.657   0.736  18.634  0.0706  0.1198 -0.8063
    51IDQ   C3535419   5.731   0.689  18.766 -0.6721 -0.0328 -0.2555
    4IDB    C3635420   6.218   1.068  17.852 -0.1962 -1.1163  1.2436
    4IDB    C3735421   6.278   1.190  17.893 -0.0255 -1.1295  1.0366
    11RH    C3835422   5.670  -0.327  17.390 -0.4325 -0.5321  0.5407
    4IDB    C3935423   6.201   1.297  17.939  0.0780 -0.7447  0.3415
    62IDT   C4035424   6.292   1.407  17.978 -0.7180  0.0294  0.2225
    72IDQ   C4135425   6.427   1.236  17.875  1.7122  0.8963  0.8975
    62IDT   C4235426   6.419   1.366  17.944 -0.9387 -1.0227  0.5841
    72IDQ   C4335427   6.450   1.235  17.715 -0.6369 -0.4264  0.0335
    72IDQ   C4435428   6.514   1.121  17.927 -0.1073 -0.3529 -1.0675
    62IDT    S535429   6.294   1.564  18.066  0.2611  0.3490 -0.3312
    62IDT   C4535430   6.475   1.566  18.051  0.3235 -1.0236 -0.0298
    62IDT   C4635431   6.523   1.456  17.985 -0.3502 -1.6195  0.4411
    82BTZ   C4735432   6.543   1.689  18.101 -0.1497 -0.0919  0.1576
    82BTZ   C4835433   6.467   1.799  18.133 -0.1485 -0.1266  0.2823
    82BTZ   C4935434   6.527   1.926  18.164 -0.1566 -0.0802  0.1116
    82BTZ   C5035435   6.663   1.943  18.164 -0.1654  0.0009 -0.1835
    82BTZ   C5135436   6.686   1.702  18.100 -0.1587 -0.0071 -0.1512
    82BTZ   C5235437   6.747   1.832  18.132 -0.1668  0.0401 -0.3247
    92RH    C5335438   6.726   2.063  18.229 -0.1743  0.2186 -0.1287
    82BTZ    N435439   6.771   1.603  18.071 -0.1605  0.0336 -0.2975
    82BTZ    N535440   6.880   1.836  18.129 -0.1751  0.1186 -0.6108
    82BTZ    S635441   6.935   1.672  18.084 -0.1728  0.1361 -0.6721
    92RH    C5435442   6.685   2.169  18.299 -0.0920  0.1387  0.0420
    92RH     S735443   6.513   2.206  18.352  0.0345 -0.1365  0.6532
    92RH    C5535444   6.776   2.276  18.345 -0.0912  0.2660 -0.2508
    92RH     O235445   6.898   2.281  18.325 -0.1651  0.4577 -0.6795
    92RH     N635446   6.706   2.376  18.417  0.0053  0.1413  0.0195
    92RH    C5635447   6.570   2.361  18.433  0.0821 -0.0702  0.4940
    92RH    C5735448   6.782   2.494  18.481  0.4793  0.4652 -0.2327
    92RH    C5835449   6.817   2.616  18.394 -0.0421  0.6588  0.0022
    92RH     S835450   6.464   2.465  18.514  0.2035 -0.2517  0.8912
    72IDQ   C5935451   6.673   1.111  17.900  1.2100 -0.1791 -0.0149
    72IDQ   C6035452   6.763   1.208  17.956  0.1946 -0.7346  0.2436
    72IDQ   C6135453   6.912   1.193  17.920  0.1853  0.2259  0.6892
    72IDQ   C6235454   7.000   1.282  17.997  0.0702 -0.0385  0.2749
    72IDQ   C6335455   7.144   1.243  17.953 -0.0345 -0.2979 -1.3983
    72IDQ   C6435456   7.254   1.302  18.036 -0.3971  0.7405  0.2587
    72IDQ   C6535457   7.394   1.248  18.011 -0.2757  0.0146 -0.2975
    72IDQ   C6635458   6.353   1.307  17.628 -0.6254 -0.7122  0.1624
    72IDQ   C6735459   6.388   1.276  17.489  0.5455 -0.2223  0.7602
    72IDQ   C6835460   6.282   1.324  17.381  1.5868 -0.1117 -0.3132
    72IDQ   C6935461   6.124   1.320  17.402 -1.0737 -0.3381  0.2972
    72IDQ   C7035462   6.071   1.182  17.437  0.4021 -0.2057 -0.1521
    72IDQ   C7135463   6.007   1.100  17.324 -0.2523  0.4609  0.4273
    72IDQ   C7235464   5.934   0.982  17.388  1.0423 -0.2813  0.5850
    11RH     C135465   2.814   2.401  21.424 -0.1132  0.0207  0.0925
    11RH     C235466   2.675   2.378  21.472 -0.1310 -0.0155  0.0243
    11RH     N135467   2.903   2.423  21.532 -0.1648  0.0062  0.1377
    11RH     S135468   2.671   2.388  21.655 -0.2145 -0.0663  0.0252
    11RH     C335469   2.852   2.421  21.660 -0.2218 -0.0372  0.1154
    11RH     C435470   3.046   2.456  21.506  0.4007  0.6394 -0.7282
    11RH     S235471   2.936   2.444  21.804 -0.2900 -0.0626  0.1593
    11RH     O135472   2.850   2.400  21.305 -0.0601  0.0592  0.1087
    11RH     C535473   2.572   2.355  21.391 -0.0908 -0.0105 -0.0277
    21BTZ    C635474   2.440   2.315  21.416 -0.0189 -0.4050  0.0979
    21BTZ    C735475   2.386   2.292  21.540 -0.2540 -0.4889 -0.0191
    21BTZ    C835476   2.362   2.283  21.300  0.1346 -0.1687 -0.0725
    21BTZ    C935477   2.253   2.237  21.556 -0.3497 -0.3461 -0.3071
    21BTZ   C1035478   2.175   2.205  21.448 -0.2100 -0.1195 -0.4774
    21BTZ   C1135479   2.227   2.227  21.316  0.0374 -0.0235 -0.3653
    21BTZ    N235480   2.403   2.300  21.174  0.3666 -0.0672  0.0167
    21BTZ    N335481   2.161   2.200  21.204  0.1912  0.1947 -0.5107
    21BTZ    S335482   2.269   2.245  21.069  0.4727  0.2243 -0.2745
    31IDT   C1235483   2.056   2.125  21.488 -0.2506 -0.1592 -0.2488
    31IDT   C1335484   1.949   2.088  21.411 -0.3297 -0.4223 -0.0153
    31IDT   C1435485   1.847   2.021  21.486 -0.1658 -0.3444  0.2794
    31IDT   C1535486   1.877   2.006  21.620  0.0389 -0.0222  0.2726
    31IDT    S435487   2.037   2.076  21.662  0.0399  0.2096 -0.1104
    4IDB    C1635488   1.767   1.931  21.681 -0.2212  0.2499  0.1113
    4IDB    C1735489   1.674   1.884  21.583  0.2688 -0.4710 -0.0157
    51IDQ   C1835490   1.715   1.945  21.450 -0.5766 -0.4127  1.4802
    4IDB    C1935491   1.572   1.796  21.618  0.2668 -0.4371  0.0646
    51IDQ   C2035492   1.740   1.837  21.339  1.3208 -0.4089 -0.5556
    51IDQ   C2135493   1.613   2.049  21.373  0.1147  0.3942 -0.5809
    51IDQ   C2235494   1.482   2.095  21.429 -0.3657  0.7541 -0.1657
    51IDQ   C2335495   1.881   1.789  21.299 -0.1596  0.5695 -0.4699
    51IDQ   C2435496   1.407   2.191  21.333  1.0526  1.1234 -0.3315
    51IDQ   C2535497   1.377   2.139  21.191  0.7705 -0.3712 -0.1530
    51IDQ   C2635498   1.339   2.265  21.112  0.5920 -0.5840  0.9611
    51IDQ   C2735499   1.346   2.239  20.963  0.0226 -1.1862  0.4242
    51IDQ   C2835500   1.258   2.336  20.892  0.3009 -0.6737  0.3221
    51IDQ   C2935501   1.339   2.334  20.761  1.2230 -0.5030  0.0999
    51IDQ   C3035502   1.853   1.652  21.235 -0.8405 -0.4126 -0.6750
    51IDQ   C3135503   1.952   1.560  21.162 -0.4550  0.0507 -0.3091
    51IDQ   C3235504   2.009   1.633  21.047 -0.2619 -0.2231 -0.3946
    51IDQ   C3335505   2.082   1.530  20.962  0.0239 -0.1880  1.1092
    51IDQ   C3435506   2.150   1.603  20.845 -0.0206 -0.2059  0.3386
    51IDQ   C3535507   2.162   1.525  20.716  0.3185 -0.0545 -0.6551
    4IDB    C3635508   1.757   1.890  21.815 -0.7190  1.0134  0.3233
    4IDB    C3735509   1.653   1.800  21.849 -0.7132  1.0363  0.4029
    11RH    C3835510   3.127   2.334  21.468  0.1589 -0.3663  0.0526
    4IDB    C3935511   1.563   1.755  21.752 -0.2311  0.3265  0.2764
    62IDT   C4035512   1.472   1.667  21.814  0.1794 -0.2555 -0.3672
    72IDQ   C4135513   1.620   1.736  21.987  1.0071 -0.2823  0.3176
    62IDT   C4235514   1.516   1.630  21.939  0.3694 -0.3552 -0.4621
    72IDQ   C4335515   1.539   1.847  22.075 -0.6447 -1.1305  0.3106
    72IDQ   C4435516   1.750   1.712  22.076  0.2062  0.2282  0.4633
    62IDT    S535517   1.324   1.579  21.766 -0.1846  0.1503 -0.0060
    62IDT   C4535518   1.329   1.492  21.926 -0.0543  0.1643 -0.0030
    62IDT   C4635519   1.435   1.531  22.003  0.2376 -0.1181 -0.2561
    82BTZ   C4735520   1.233   1.379  21.942  0.0136  0.4930  0.3249
    82BTZ   C4835521   1.167   1.342  21.828  0.1383  0.4638  0.2627
    82BTZ   C4935522   1.045   1.264  21.833  0.3312  0.1491  0.1388
    82BTZ   C5035523   0.990   1.225  21.951  0.3991 -0.1358  0.0774
    82BTZ   C5135524   1.178   1.341  22.069  0.0780  0.2017  0.2651
    82BTZ   C5235525   1.055   1.262  22.074  0.2740 -0.1181  0.1392
    92RH    C5335526   0.868   1.140  21.959  0.3698 -0.3057 -0.1302
    82BTZ    N435527   1.233   1.371  22.187 -0.0301  0.1988  0.3166
    82BTZ    N535528   1.010   1.229  22.195  0.3236 -0.3782  0.0892
    82BTZ    S635529   1.127   1.300  22.311  0.1175 -0.2220  0.2035
    92RH    C5435530   0.779   1.096  21.870  0.2354 -0.2568 -0.0219
    92RH     S735531   0.786   1.118  21.688  0.0196 -0.2520 -0.0285
    92RH    C5535532   0.658   1.018  21.907  0.2417 -0.1971  0.1264
    92RH     O235533   0.625   0.987  22.022  0.3694 -0.1854  0.1659
    92RH     N635534   0.582   0.984  21.793  0.0818 -0.1537  0.2189
    92RH    C5635535   0.628   1.025  21.669 -0.0518 -0.1713  0.1636
    92RH    C5735536   0.461   0.904  21.811 -1.0480 -0.2457 -0.1630
    92RH    C5835537   0.480   0.762  21.795 -0.2877 -0.2208 -0.1410
    92RH     S835538   0.557   0.997  21.519 -0.2537 -0.1288  0.2508
    72IDQ   C5935539   1.850   1.623  22.028  0.7657  0.4306  0.3573
    72IDQ   C6035540   1.956   1.586  22.121  0.2199  0.8039  0.2361
    72IDQ   C6135541   1.927   1.508  22.250  0.4480 -0.1773  0.2408
    72IDQ   C6235542   2.042   1.410  22.274 -0.0203  0.0307  0.4598
    72IDQ   C6335543   2.070   1.341  22.409 -0.4449  0.2068  0.3398
    72IDQ   C6435544   2.078   1.418  22.539 -0.5774  0.0228  0.3738
    72IDQ   C6535545   1.954   1.396  22.626 -1.3628 -0.0213  0.4889
    72IDQ   C6635546   1.535   1.871  22.231  0.6168 -0.3229  1.0372
    72IDQ   C6735547   1.427   1.950  22.292 -0.3979 -0.2190 -0.3267
    72IDQ   C6835548   1.413   2.086  22.231  0.0314 -0.0797  0.0733
    72IDQ   C6935549   1.329   2.175  22.322  0.0641 -0.6630  0.2534
    72IDQ   C7035550   1.176   2.140  22.360 -1.4190 -0.6451  0.4636
    72IDQ   C7135551   1.089   2.251  22.404  0.1887 -0.9317  0.3648
    72IDQ   C7235552   0.954   2.207  22.454  0.1478 -0.0320  0.2851
    11RH     C135553   5.737   0.753  10.285 -0.0262 -0.4907 -0.0818
    11RH     C235554   5.659   0.795  10.166  0.0201 -0.5082 -0.1183
    11RH     N135555   5.875   0.777  10.268 -0.0375 -0.3351  0.0358
    11RH     S135556   5.774   0.863  10.039  0.0457 -0.3191  0.0050
    11RH     C335557   5.918   0.832  10.150 -0.0062 -0.2260  0.0985
    11RH     C435558   5.971   0.754  10.374  0.4802  0.2023 -0.4743
    11RH     S235559   6.076   0.870  10.105 -0.0112 -0.0343  0.2394
    11RH     O135560   5.689   0.703  10.388 -0.0525 -0.5970 -0.1452
    11RH     C535561   5.527   0.784  10.156  0.0390 -0.6437 -0.2256
    21BTZ    C635562   5.424   0.825  10.059 -0.1264  0.1554  0.0634
    21BTZ    C735563   5.455   0.900   9.948  0.0499 -0.1344 -0.0889
    21BTZ    C835564   5.287   0.801  10.090 -0.1781  0.3043 -0.0467
    21BTZ    C935565   5.352   0.955   9.863  0.1839 -0.2915 -0.3543
    21BTZ   C1035566   5.219   0.934   9.889  0.1410 -0.1585 -0.4674
    21BTZ   C1135567   5.182   0.856  10.003 -0.0420  0.1447 -0.3169
    21BTZ    N235568   5.244   0.729  10.194 -0.3456  0.5860  0.0815
    21BTZ    N335569   5.056   0.829  10.038 -0.1001  0.2981 -0.4053
    21BTZ    S335570   5.066   0.729  10.186 -0.3363  0.6607 -0.1423
    31IDT   C1235571   5.118   0.959   9.782  0.3086  0.4224 -0.1229
    31IDT   C1335572   4.982   0.949   9.796  0.3093  0.7733  0.1912
    31IDT   C1435573   4.912   0.975   9.674  0.1091  0.7384  0.2985
    31IDT   C1535574   4.993   1.006   9.568 -0.0447  0.3615  0.0672
    31IDT    S435575   5.167   1.004   9.613  0.0523  0.0185 -0.3079
    4IDB    C1635576   4.909   1.044   9.456  0.1244 -0.3880 -0.2381
    4IDB    C1735577   4.772   1.040   9.495  0.1991  0.0815  0.0877
    51IDQ   C1835578   4.760   0.983   9.632 -0.8778  0.4996 -0.5102
    4IDB    C1935579   4.672   1.081   9.408  0.1027  0.0130  0.1655
    51IDQ   C2035580   4.675   1.089   9.715  0.7355  0.5201 -0.0402
    51IDQ   C2135581   4.707   0.832   9.654 -0.9215 -0.1503 -0.0006
    51IDQ   C2235582   4.648   0.757   9.531 -0.5434  0.1637 -0.2784
    51IDQ   C2335583   4.671   1.104   9.859 -0.4390  0.1160 -0.8166
    51IDQ   C2435584   4.638   0.605   9.559  0.3296  0.3213  0.1129
    51IDQ   C2535585   4.504   0.535   9.575 -0.3834 -0.4856 -0.6984
    51IDQ   C2635586   4.404   0.539   9.461  0.2402  0.0308 -0.8171
    51IDQ   C2735587   4.302   0.427   9.472  0.1901  0.3040  0.5049
    51IDQ   C2835588   4.248   0.413   9.324  0.7810  0.7843 -0.4626
    51IDQ   C2935589   4.148   0.300   9.313 -0.9029  0.3532 -0.6509
    51IDQ   C3035590   4.577   1.201   9.939 -0.2490  0.5712 -0.3772
    51IDQ   C3135591   4.618   1.196  10.095  0.8709  0.0687  1.7012
    51IDQ   C3235592   4.588   1.061  10.159 -0.6022  0.4839 -0.0288
    51IDQ   C3335593   4.447   1.018  10.199  0.3622  0.0049 -0.0151
    51IDQ   C3435594   4.457   0.885  10.276 -0.3638 -0.7848  0.3574
    51IDQ   C3535595   4.314   0.845  10.310  0.1330  0.0164  0.3933
    4IDB    C3635596   4.947   1.089   9.329 -0.0483 -0.9320 -0.4892
    4IDB    C3735597   4.844   1.131   9.241 -0.1448 -0.9939 -0.4053
    11RH    C3835598   6.004   0.870  10.466  0.2253 -0.1670  0.3101
    4IDB    C3935599   4.710   1.127   9.281 -0.0700 -0.5310 -0.0860
    62IDT   C4035600   4.623   1.175   9.174  0.2245 -0.3832 -0.0186
    72IDQ   C4135601   4.849   1.201   9.105 -0.8991  0.9056 -0.5959
    62IDT   C4235602   4.701   1.215   9.067  0.2012  0.1804  0.1669
    72IDQ   C4335603   4.920   1.089   9.015 -0.2735  0.0809  0.2002
    72IDQ   C4435604   4.932   1.339   9.106 -0.9427 -0.1907  0.5056
    62IDT    S535605   4.448   1.188   9.138  0.2160 -0.0557  0.1322
    62IDT   C4535606   4.490   1.249   8.973  0.1798  0.8711  0.4531
    62IDT   C4635607   4.626   1.257   8.953  0.1758  0.8903  0.4337
    82BTZ   C4735608   4.380   1.275   8.878  0.2496  0.2298 -0.1647
    82BTZ   C4835609   4.256   1.234   8.921  0.2593  0.3476 -0.0215
    82BTZ   C4935610   4.142   1.232   8.832  0.1048  0.6528  0.1621
    82BTZ   C5035611   4.153   1.269   8.700 -0.0593  0.8396  0.2017
    82BTZ   C5135612   4.396   1.316   8.742  0.0807  0.4165 -0.1302
    82BTZ   C5235613   4.281   1.313   8.651 -0.0764  0.7267  0.0560
    92RH    C5335614   4.045   1.266   8.593  0.1856  0.3881 -0.0202
    82BTZ    N435615   4.511   1.357   8.689  0.0542  0.3274 -0.2584
    82BTZ    N535616   4.303   1.352   8.526 -0.2290  0.8868  0.0777
    82BTZ    S635617   4.477   1.395   8.517 -0.1772  0.6428 -0.1440
    92RH    C5435618   3.915   1.234   8.593  0.1886  0.3768 -0.1771
    92RH     S735619   3.817   1.171   8.734  0.1255 -0.0545 -0.4100
    92RH    C5535620   3.829   1.246   8.473  0.2455  0.7249 -0.1857
    92RH     O235621   3.865   1.286   8.361  0.2961  1.0616 -0.0517
    92RH     N635622   3.696   1.206   8.501  0.2352  0.6286 -0.3691
    92RH    C5635623   3.666   1.163   8.628  0.1773  0.2459 -0.5076
    92RH    C5735624   3.573   1.216   8.402  0.2894  0.7598 -0.5702
    92RH    C5835625   3.564   1.108   8.294 -0.2075  0.6838  0.8058
    92RH     S835626   3.517   1.110   8.687  0.1533  0.0558 -0.7355
    72IDQ   C5935627   4.864   1.468   9.161 -0.7302  0.7599  0.2652
    72IDQ   C6035628   4.943   1.594   9.159  0.4656 -0.8237  0.1389
    72IDQ   C6135629   5.030   1.610   9.287 -0.5088 -0.5314  0.0636
    72IDQ   C6235630   5.110   1.729   9.245 -1.1589  0.8250 -0.1319
    72IDQ   C6335631   5.170   1.811   9.346  0.1750  0.3977 -0.4491
    72IDQ   C6435632   5.259   1.753   9.454 -1.1299 -0.4332  0.3678
    72IDQ   C6535633   5.341   1.854   9.534  0.7371 -1.0471 -0.3677
    72IDQ   C6635634   4.910   1.104   8.869  0.7297  0.3579  0.0183
    72IDQ   C6735635   4.957   1.231   8.796  0.0938  0.1208 -0.3505
    72IDQ   C6835636   4.947   1.225   8.643  0.8874  0.0748 -0.4030
    72IDQ   C6935637   4.818   1.300   8.606 -0.1480  0.2824  1.1905
    72IDQ   C7035638   4.799   1.293   8.452  0.1315 -0.9192 -0.7049
    72IDQ   C7135639   4.777   1.158   8.388 -0.5364 -0.7794  0.5307
    72IDQ   C7235640   4.769   1.189   8.238  0.8981  0.8996 -0.2971
    11RH     C135641   0.720   0.114  19.033 -0.1030  0.2124  0.0558
    11RH     C235642   0.633   0.181  18.933  0.0091  0.2457 -0.0181
    11RH     N135643   0.811   0.204  19.092 -0.0428  0.1530  0.0535
    11RH     S135644   0.679   0.359  18.922  0.1865  0.1968 -0.0865
    11RH     C335645   0.809   0.335  19.051  0.1040  0.1347 -0.0134
    11RH     C435646   0.919   0.156  19.178  0.1930 -0.1708  0.3499
    11RH     S235647   0.907   0.462  19.104  0.2018  0.0668 -0.0315
    11RH     O135648   0.714  -0.007  19.064 -0.2340  0.2329  0.1140
    11RH     C535649   0.538   0.118  18.863 -0.0193  0.3029 -0.0310
    21BTZ    C635650   0.464   0.153  18.743 -0.2241  0.2403 -0.0787
    21BTZ    C735651   0.480   0.270  18.674 -0.3299  0.3046  0.0057
    21BTZ    C835652   0.373   0.055  18.691 -0.0418  0.1427 -0.2170
    21BTZ    C935653   0.408   0.297  18.552 -0.2625  0.2767 -0.0401
    21BTZ   C1035654   0.320   0.206  18.499 -0.0894  0.1844 -0.1705
    21BTZ   C1135655   0.300   0.082  18.567  0.0267  0.1143 -0.2637
    21BTZ    N235656   0.350  -0.063  18.749  0.0741  0.0736 -0.3099
    21BTZ    N335657   0.217  -0.014  18.526  0.1977  0.0223 -0.3939
    21BTZ    S335658   0.230  -0.147  18.646  0.2802 -0.0331 -0.4629
    31IDT   C1235659   0.248   0.243  18.382 -0.7848 -0.3733  0.5019
    31IDT   C1335660   0.207   0.161  18.281 -0.7191 -0.4698  0.5527
    31IDT   C1435661   0.149   0.232  18.171 -0.0748 -0.5154  0.1712
    31IDT   C1535662   0.145   0.369  18.189  0.3538 -0.4540 -0.1732
    31IDT    S435663   0.215   0.418  18.347 -0.0287 -0.3328 -0.0386
    4IDB    C1635664   0.078   0.436  18.080  0.1810  0.8568 -0.3245
    4IDB    C1735665   0.043   0.337  17.983  0.8720  0.7288 -0.4530
    51IDQ   C1835666   0.105   0.205  18.025 -0.7848  0.4646 -0.6667
    4IDB    C1935667  -0.042   0.368  17.878  0.3321  0.1715 -0.1891
    51IDQ   C2035668  -0.003   0.093  18.015 -0.0825 -0.3164  0.1411
    51IDQ   C2135669   0.241   0.155  17.943  0.0269 -0.0984 -0.0878
    51IDQ   C2235670   0.289   0.233  17.827  0.0626 -0.1068  0.0441
    51IDQ   C2335671  -0.086   0.046  18.139  0.2488 -0.9606 -0.4814
    51IDQ   C2435672   0.430   0.205  17.790  0.8430 -0.2656 -1.1180
    51IDQ   C2535673   0.447   0.262  17.652 -0.9928 -0.1696  0.8259
    51IDQ   C2635674   0.590   0.205  17.609  0.7673  0.4498 -0.3101
    51IDQ   C2735675   0.643   0.273  17.479  0.0893  0.4680 -0.5670
    51IDQ   C2835676   0.798   0.291  17.462  0.2476 -0.0430 -0.9313
    51IDQ   C2935677   0.856   0.378  17.570 -1.1598  0.3513  0.3385
    51IDQ   C3035678  -0.188   0.145  18.187 -0.3170  0.2016 -0.6578
    51IDQ   C3135679  -0.219   0.158  18.338 -0.3852 -0.6365 -0.1142
    51IDQ   C3235680  -0.290   0.294  18.385 -0.3607 -0.6198  0.0267
    51IDQ   C3335681  -0.182   0.392  18.450 -0.7008  0.6104  0.0486
    51IDQ   C3435682  -0.240   0.533  18.475  0.0704 -0.8874  0.1948
    51IDQ   C3535683  -0.141   0.649  18.495  0.6142  0.4963  0.1503
    4IDB    C3635684   0.027   0.566  18.073 -1.0618  0.4251  0.0715
    4IDB    C3735685  -0.060   0.596  17.965 -1.5980 -0.1420  0.3366
    11RH    C3835686   0.888   0.166  19.331  0.8231 -0.3780 -0.3057
    4IDB    C3935687  -0.093   0.498  17.870 -0.9108 -0.2602  0.2063
    62IDT   C4035688  -0.189   0.545  17.772 -0.1924 -0.3335  0.1832
    72IDQ   C4135689  -0.134   0.723  17.919 -0.0715 -0.1909  1.0515
    62IDT   C4235690  -0.227   0.674  17.805 -0.1229 -0.3670  0.3943
    72IDQ   C4335691  -0.036   0.851  17.863 -0.3620  1.0655 -0.4594
    72IDQ   C4435692  -0.204   0.799  18.041  0.3420  0.3858 -0.0248
    62IDT    S535693  -0.282   0.482  17.631 -0.1688 -0.0227  0.0275
    62IDT   C4535694  -0.370   0.641  17.624 -0.0606  0.0491  0.2687
    62IDT   C4635695  -0.329   0.728  17.722 -0.0482 -0.1507  0.4430
    82BTZ   C4735696  -0.486   0.661  17.531 -0.3656  0.0489  0.0610
    82BTZ   C4835697  -0.521   0.552  17.456 -0.3905  0.0393  0.0858
    82BTZ   C4935698  -0.618   0.560  17.349 -0.2607  0.0748 -0.0305
    82BTZ   C5035699  -0.680   0.678  17.318 -0.1063  0.1199 -0.1711
    82BTZ   C5135700  -0.549   0.787  17.502 -0.2062  0.0956 -0.0849
    82BTZ   C5235701  -0.647   0.796  17.394 -0.0743  0.1317 -0.2027
    92RH    C5335702  -0.785   0.689  17.212  0.2831  0.3918 -0.3927
    82BTZ    N435703  -0.523   0.900  17.568 -0.1669  0.1092 -0.1230
    82BTZ    N535704  -0.701   0.916  17.373  0.0709  0.1743 -0.3362
    82BTZ    S635705  -0.627   1.025  17.493  0.0447  0.1700 -0.3157
    92RH    C5435706  -0.846   0.601  17.132  0.1503  0.2381 -0.1259
    92RH     S735707  -0.809   0.422  17.115  0.1970  0.2284  0.0691
    92RH    C5535708  -0.958   0.638  17.042 -0.0623  0.0458  0.0572
    92RH     O235709  -1.007   0.751  17.030 -0.1414  0.0047 -0.0129
    92RH     N635710  -1.004   0.526  16.969 -0.1683 -0.0895  0.3275
    92RH    C5635711  -0.943   0.405  16.989 -0.0664 -0.0291  0.3829
    92RH    C5735712  -1.116   0.543  16.870 -0.6103  0.2382 -0.5574
    92RH    C5835713  -1.239   0.504  16.938  1.1801 -0.5706 -0.4070
    92RH     S835714  -0.979   0.257  16.915 -0.1570 -0.1606  0.6857
    72IDQ   C5935715  -0.341   0.858  18.024  0.7174 -0.0805  0.0726
    72IDQ   C6035716  -0.407   0.884  18.154 -0.9507  0.0284  0.0595
    72IDQ   C6135717  -0.552   0.857  18.183  0.4491  0.1274 -0.5737
    72IDQ   C6235718  -0.628   0.908  18.312  0.3585 -0.0909  0.1688
    72IDQ   C6335719  -0.552   0.899  18.445  0.0386  0.2584  0.0540
    72IDQ   C6435720  -0.566   0.770  18.520 -1.5506  0.7025  0.5250
    72IDQ   C6535721  -0.509   0.770  18.664 -0.6220 -0.5559  0.5679
    72IDQ   C6635722   0.117   0.847  17.824  0.3062 -0.7039 -0.5562
    72IDQ   C6735723   0.171   0.724  17.754 -0.0326  0.2810 -0.6072
    72IDQ   C6835724   0.316   0.707  17.764 -1.3135 -0.3661  0.0219
    72IDQ   C6935725   0.364   0.640  17.888  1.0786  0.0046 -1.0030
    72IDQ   C7035726   0.508   0.581  17.887  0.0754  0.2703 -0.6608
    72IDQ   C7135727   0.614   0.686  17.919 -0.4669 -0.3515  0.7738
    72IDQ   C7235728   0.679   0.752  17.786 -0.5128  0.6303  0.6914
    11RH     C135729   3.119   4.685  12.534  0.0896  0.1804 -0.2332
    11RH     C235730   3.175   4.553  12.572  0.2204  0.2154 -0.3045
    11RH     N135731   3.211   4.790  12.557  0.0105  0.2519 -0.2388
    11RH     S135732   3.346   4.575  12.636  0.2310  0.3402 -0.3746
    11RH     C335733   3.334   4.757  12.609  0.0620  0.3399 -0.3059
    11RH     C435734   3.182   4.927  12.499 -0.0320  0.5770  0.5628
    11RH     S235735   3.462   4.862  12.646 -0.0112  0.4367 -0.3278
    11RH     O135736   3.005   4.704  12.488  0.0517  0.0992 -0.1748
    11RH     C535737   3.108   4.438  12.560  0.3139  0.1618 -0.3137
    21BTZ    C635738   3.134   4.309  12.612  0.2117  0.3165  0.3818
    21BTZ    C735739   3.248   4.267  12.676  0.0570  0.5000  0.7865
    21BTZ    C835740   3.021   4.221  12.609  0.2897  0.2218  0.1695
    21BTZ    C935741   3.256   4.138  12.739 -0.0286  0.5990  1.0014
    21BTZ   C1035742   3.151   4.050  12.739  0.0410  0.5144  0.8115
    21BTZ   C1135743   3.029   4.090  12.673  0.2028  0.3225  0.3879
    21BTZ    N235744   2.905   4.251  12.550  0.4400  0.0437 -0.2244
    21BTZ    N335745   2.920   4.014  12.666  0.2832  0.2252  0.1695
    21BTZ    S335746   2.799   4.109  12.575  0.4775 -0.0042 -0.3347
    31IDT   C1235747   3.174   3.911  12.795  0.8013  0.1118  0.4978
    31IDT   C1335748   3.110   3.855  12.902  1.0285  0.2617  0.7131
    31IDT   C1435749   3.138   3.716  12.916  0.4990  0.1213  0.4261
    31IDT   C1535750   3.223   3.665  12.820 -0.1337 -0.1360 -0.0093
    31IDT    S435751   3.274   3.791  12.703 -0.1080 -0.2212 -0.0899
    4IDB    C1635752   3.223   3.519  12.828 -0.4456  0.0665 -0.1693
    4IDB    C1735753   3.156   3.475  12.947 -0.3279  0.3254 -0.0052
    51IDQ   C1835754   3.098   3.602  13.017 -1.1467 -0.4015  0.0949
    4IDB    C1935755   3.147   3.340  12.977 -0.4930  0.3786  0.1843
    51IDQ   C2035756   2.942   3.586  13.062  0.6206 -0.5876  0.0218
    51IDQ   C2135757   3.166   3.653  13.154 -0.0689  0.3990  0.5434
    51IDQ   C2235758   3.295   3.589  13.228  0.4484 -0.0443 -0.0455
    51IDQ   C2335759   2.847   3.677  12.974  0.4546  0.7891 -0.2542
    51IDQ   C2435760   3.310   3.447  13.261 -0.6685  0.5344  0.2147
    51IDQ   C2535761   3.457   3.420  13.310  0.0529  0.2230 -0.0583
    51IDQ   C2635762   3.489   3.278  13.355  0.4542  0.4750  0.3337
    51IDQ   C2735763   3.630   3.262  13.404  0.1470  0.3454 -0.1043
    51IDQ   C2835764   3.746   3.269  13.301 -0.5482  0.0507  0.3905
    51IDQ   C2935765   3.893   3.265  13.357  1.4243 -1.4721  0.7995
    51IDQ   C3035766   2.808   3.805  13.041  0.6773 -1.5330  0.2405
    51IDQ   C3135767   2.743   3.912  12.945  0.5851  0.2893  0.4038
    51IDQ   C3235768   2.698   4.033  13.031  0.1284 -0.6587  0.1126
    51IDQ   C3335769   2.603   4.119  12.949  0.5777 -0.2203 -0.4738
    51IDQ   C3435770   2.515   4.210  13.041  0.0573  0.5802  0.3656
    51IDQ   C3535771   2.424   4.303  12.959  0.1824 -0.3817 -0.0685
    4IDB    C3635772   3.281   3.428  12.739 -0.7309 -0.1419 -0.1447
    4IDB    C3735773   3.271   3.290  12.773 -0.8965 -0.0838  0.0501
    11RH    C3835774   3.249   4.968  12.361  0.1333  0.3356  0.6048
    4IDB    C3935775   3.206   3.248  12.889 -0.7785  0.1702  0.2092
    62IDT   C4035776   3.209   3.103  12.892  0.2197 -0.0423 -0.1561
    72IDQ   C4135777   3.332   3.164  12.698 -0.1706  0.1771  0.0027
    62IDT   C4235778   3.280   3.057  12.783  0.5438 -0.2894  0.1557
    72IDQ   C4335779   3.489   3.139  12.721  1.3140 -0.8917 -0.0953
    72IDQ   C4435780   3.303   3.152  12.547  0.4100  0.8845 -0.2870
    62IDT    S535781   3.147   2.968  12.994 -0.4461  0.1759 -0.2589
    62IDT   C4535782   3.225   2.852  12.878 -0.2410 -0.0916  0.1447
    62IDT   C4635783   3.290   2.915  12.775  0.2840 -0.3178  0.3259
    82BTZ   C4735784   3.208   2.703  12.888 -0.3351  0.0462 -0.2040
    82BTZ   C4835785   3.130   2.663  12.993 -0.3452 -0.0242 -0.2387
    82BTZ   C4935786   3.135   2.528  13.044 -0.0583  0.0501 -0.0694
    82BTZ   C5035787   3.219   2.434  12.990  0.2382  0.1948  0.1345
    82BTZ   C5135788   3.297   2.608  12.828 -0.0303  0.1977  0.0064
    82BTZ   C5235789   3.303   2.471  12.880  0.2614  0.2732  0.1786
    92RH    C5335790   3.228   2.295  13.037  0.4674 -0.0857  0.6363
    82BTZ    N435791   3.379   2.636  12.726  0.0103  0.2780  0.0594
    82BTZ    N535792   3.389   2.389  12.820  0.5363  0.4141  0.3700
    82BTZ    S635793   3.467   2.484  12.691  0.4318  0.4572  0.3385
    92RH    C5435794   3.158   2.232  13.132  0.1712 -0.0441  0.4489
    92RH     S735795   3.027   2.304  13.238 -0.0502  0.0436  0.1192
    92RH    C5535796   3.177   2.089  13.166 -0.0286 -0.0637  0.4818
    92RH     O235797   3.258   2.012  13.113  0.0524 -0.1199  0.6821
    92RH     N635798   3.090   2.049  13.270 -0.3300 -0.0101  0.2528
    92RH    C5635799   3.004   2.142  13.323 -0.3961  0.0501  0.0412
    92RH    C5735800   3.084   1.899  13.293  0.1646 -0.6666  0.5210
    92RH    C5835801   3.159   1.842  13.410  0.1128 -0.0669  0.5596
    92RH     S835802   2.891   2.120  13.446 -0.7344  0.1214 -0.2525
    72IDQ   C5935803   3.174   3.218  12.478 -0.4174  0.0779 -0.0923
    72IDQ   C6035804   3.216   3.219  12.333  0.3536  0.1697  0.5547
    72IDQ   C6135805   3.105   3.281  12.237 -0.5091  1.1922 -0.1858
    72IDQ   C6235806   3.171   3.351  12.111  0.3343  0.2182  0.7882
    72IDQ   C6335807   3.248   3.475  12.162 -0.7051 -0.4147  0.6549
    72IDQ   C6435808   3.360   3.535  12.066 -0.4025  0.4316 -0.5011
    72IDQ   C6535809   3.434   3.661  12.115  0.5865  0.6088 -0.0841
    72IDQ   C6635810   3.594   3.244  12.674  0.0542 -0.4234  0.5541
    72IDQ   C6735811   3.731   3.208  12.734  0.7608  0.1902  0.9969
    72IDQ   C6835812   3.855   3.265  12.671 -0.0354 -0.4910 -0.1060
    72IDQ   C6935813   3.976   3.243  12.767 -0.5725 -0.5172 -0.6125
    72IDQ   C7035814   3.971   3.306  12.909 -0.1650 -1.3031 -0.4238
    72IDQ   C7135815   4.109   3.314  12.972 -0.8245  0.2436 -0.9266
    72IDQ   C7235816   4.110   3.337  13.125 -0.1753 -0.1193 -0.2002
    11RH     C135817   3.704   2.173  22.539  0.3228 -0.2049  0.2851
    11RH     C235818   3.652   2.039  22.502  0.4225 -0.1690  0.0048
    11RH     N135819   3.615   2.275  22.499  0.2577 -0.1855  0.4776
    11RH     S135820   3.490   2.056  22.418  0.4241 -0.1119  0.0127
    11RH     C335821   3.498   2.239  22.435  0.2931 -0.1384  0.3862
    11RH     C435822   3.644   2.413  22.535  0.2286 -0.4388 -0.6086
    11RH     S235823   3.376   2.340  22.378  0.2314 -0.1069  0.5717
    11RH     O135824   3.811   2.196  22.597  0.2977 -0.2470  0.3486
    11RH     C535825   3.717   1.925  22.529  0.4979 -0.1781 -0.2149
    21BTZ    C635826   3.694   1.776  22.511 -0.2516 -0.3344 -0.4594
    21BTZ    C735827   3.581   1.713  22.466 -0.2956 -0.3930 -0.2689
    21BTZ    C835828   3.802   1.697  22.563 -0.2521 -0.2626 -0.3467
    21BTZ    C935829   3.569   1.569  22.469 -0.3420 -0.3841  0.0391
    21BTZ   C1035830   3.670   1.489  22.517 -0.3443 -0.3166  0.1569
    21BTZ   C1135831   3.789   1.551  22.566 -0.2992 -0.2536 -0.0334
    21BTZ    N235832   3.916   1.747  22.609 -0.2117 -0.2014 -0.5102
    21BTZ    N335833   3.894   1.484  22.615 -0.2967 -0.1851  0.0548
    21BTZ    S335834   4.015   1.607  22.660 -0.2326 -0.1281 -0.2656
    31IDT   C1235835   3.656   1.342  22.502 -0.3822  0.5155 -0.1132
    31IDT   C1335836   3.757   1.259  22.460 -0.0404  1.0044 -0.2651
    31IDT   C1435837   3.714   1.124  22.443  0.5191  0.8535 -0.4940
    31IDT   C1535838   3.581   1.102  22.472  0.6073  0.2500 -0.5184
    31IDT    S435839   3.499   1.253  22.524 -0.0170 -0.1779 -0.2504
    4IDB    C1635840   3.536   0.969  22.419 -0.1581 -0.4146  1.0111
    4IDB    C1735841   3.651   0.888  22.400  0.0273 -0.0133  0.3600
    51IDQ   C1835842   3.779   0.973  22.408 -0.5957 -0.7334 -1.5927
    4IDB    C1935843   3.639   0.757  22.355  0.2809  0.1334 -0.1482
    51IDQ   C2035844   3.871   0.908  22.522  0.4860 -0.0432  0.2826
    51IDQ   C2135845   3.869   0.993  22.286 -0.3912  0.8986 -0.5204
    51IDQ   C2235846   3.836   0.912  22.160 -0.0854  0.2421  0.4045
    51IDQ   C2335847   3.884   0.969  22.664 -0.2679 -0.2398  0.2944
    51IDQ   C2435848   3.954   0.910  22.054 -0.0684 -0.6663 -0.1878
    51IDQ   C2535849   3.937   1.037  21.965  0.1064 -0.4055  0.4878
    51IDQ   C2635850   4.011   1.031  21.831  0.0341 -0.5316  0.3809
    51IDQ   C2735851   3.972   1.147  21.746 -0.3949 -1.1031 -0.0020
    51IDQ   C2835852   4.055   1.144  21.618  0.4634 -0.4626  0.0861
    51IDQ   C2935853   4.022   1.256  21.529 -0.1597  0.4690  0.4011
    51IDQ   C3035854   3.973   0.922  22.771  0.5124  0.7452  0.0683
    51IDQ   C3135855   3.891   0.820  22.860  1.0599 -0.1713  0.9462
    51IDQ   C3235856   3.976   0.723  22.935  0.7168  0.6027  0.8611
    51IDQ   C3335857   4.080   0.772  23.034  0.2766 -0.0473  0.2141
    51IDQ   C3435858   4.039   0.876  23.139 -0.2302 -0.7690  0.3223
    51IDQ   C3535859   4.163   0.908  23.224  0.7966 -0.2542  0.3844
    4IDB    C3635860   3.407   0.920  22.393 -0.0905 -0.6730  1.1597
    4IDB    C3735861   3.397   0.786  22.347  0.1695 -0.5178  0.6342
    11RH    C3835862   3.579   2.456  22.657 -0.3104 -1.0335 -0.9284
    4IDB    C3935863   3.510   0.708  22.329  0.3486 -0.1250 -0.0001
    62IDT   C4035864   3.476   0.592  22.261 -0.0321 -0.4363  0.5480
    72IDQ   C4135865   3.272   0.703  22.304  1.0041 -0.0016 -0.2250
    62IDT   C4235866   3.340   0.575  22.257 -0.0579 -0.2731  0.6742
    72IDQ   C4335867   3.169   0.753  22.199  0.9332 -1.3782  0.9264
    72IDQ   C4435868   3.190   0.645  22.427  0.4411 -0.1426 -0.5931
    62IDT    S535869   3.564   0.459  22.178 -0.2863 -0.2648 -0.0066
    62IDT   C4535870   3.403   0.383  22.140 -0.4205  0.0329 -0.0398
    62IDT   C4635871   3.298   0.457  22.188 -0.2774 -0.0077  0.3419
    82BTZ   C4735872   3.410   0.250  22.080 -0.1331  0.0228  0.0552
    82BTZ   C4835873   3.421   0.138  22.157 -0.0229  0.0377  0.0606
    82BTZ   C4935874   3.419   0.005  22.100  0.1113  0.0322  0.0672
    82BTZ   C5035875   3.405  -0.014  21.965  0.1353  0.0119  0.0675
    82BTZ   C5135876   3.396   0.235  21.938 -0.1132  0.0013  0.0563
    82BTZ   C5235877   3.393   0.100  21.880  0.0232 -0.0043  0.0625
    92RH    C5335878   3.385  -0.148  21.901  0.5878  0.1044  0.3052
    82BTZ    N435879   3.384   0.336  21.852 -0.2125 -0.0146  0.0501
    82BTZ    N535880   3.379   0.094  21.747  0.0337 -0.0246  0.0620
    82BTZ    S635881   3.369   0.263  21.690 -0.1340 -0.0378  0.0538
    92RH    C5435882   3.376  -0.274  21.943  0.2980  0.0553  0.0954
    92RH     S735883   3.396  -0.335  22.114 -0.7079 -0.1669  0.1475
    92RH    C5535884   3.346  -0.388  21.852  0.7666  0.1787 -0.2217
    92RH     O235885   3.327  -0.380  21.730  1.4684  0.3387 -0.3300
    92RH     N635886   3.342  -0.510  21.923  0.3133  0.0916 -0.3932
    92RH    C5635887   3.364  -0.508  22.059 -0.4610 -0.0863 -0.2518
    92RH    C5735888   3.347  -0.643  21.850  0.9283  0.0437 -1.4266
    92RH    C5835889   3.201  -0.703  21.860 -0.0117  0.5888  0.1927
    92RH     S835890   3.365  -0.639  22.165 -1.1229 -0.2199 -0.4034
    72IDQ   C5935891   3.136   0.745  22.539  1.3980  0.2773  0.9914
    72IDQ   C6035892   3.022   0.680  22.627 -0.8033  1.1165 -0.2988
    72IDQ   C6135893   3.084   0.580  22.733  0.5363  0.1143 -1.1382
    72IDQ   C6235894   3.017   0.443  22.742  0.8548 -0.1263  0.3907
    72IDQ   C6335895   3.090   0.304  22.769 -0.5788  0.4974  1.4675
    72IDQ   C6435896   3.193   0.239  22.662 -0.1166 -0.3947  0.1814
    72IDQ   C6535897   3.124   0.205  22.528  0.3534  0.3805  0.0269
    72IDQ   C6635898   3.138   0.890  22.135 -0.9098 -0.2213 -1.1500
    72IDQ   C6735899   3.258   0.949  22.061 -0.0989  0.6048 -0.5887
    72IDQ   C6835900   3.261   1.099  22.030 -0.4046  0.1597  0.3068
    72IDQ   C6935901   3.388   1.139  21.963 -0.6601 -0.4875 -0.2197
    72IDQ   C7035902   3.438   1.284  21.986  0.4712  0.2701  0.2208
    72IDQ   C7135903   3.545   1.294  22.087  1.3151  0.3068 -0.8800
    72IDQ   C7235904   3.538   1.442  22.143  0.7361  0.7857  0.0539
    11RH     C135905   3.687   3.751   3.315  0.1315 -0.3754 -0.1244
    11RH     C235906   3.649   3.750   3.171 -0.0564 -0.0598 -0.0795
    11RH     N135907   3.602   3.670   3.392  0.1383 -0.4242 -0.1684
    11RH     S135908   3.503   3.641   3.147 -0.2118  0.1520 -0.0982
    11RH     C335909   3.500   3.603   3.327 -0.0210 -0.1865 -0.1644
    11RH     C435910   3.591   3.692   3.544 -0.1454  1.4924  0.6274
    11RH     S235911   3.384   3.500   3.395 -0.0496 -0.1850 -0.2108
    11RH     O135912   3.782   3.815   3.364  0.2679 -0.5760 -0.1243
    11RH     C535913   3.715   3.819   3.077 -0.1003  0.0454 -0.0330
    21BTZ    C635914   3.709   3.839   2.938  0.0442  0.0148  0.0650
    21BTZ    C735915   3.616   3.770   2.865  0.1237 -0.0771  0.0501
    21BTZ    C835916   3.770   3.954   2.880  0.0545 -0.0162  0.0143
    21BTZ    C935917   3.579   3.810   2.732  0.2167 -0.2034 -0.0148
    21BTZ   C1035918   3.635   3.920   2.672  0.2300 -0.2375 -0.0648
    21BTZ   C1135919   3.733   3.996   2.745  0.1490 -0.1445 -0.0517
    21BTZ    N235920   3.862   4.029   2.941 -0.0175  0.0652  0.0227
    21BTZ    N335921   3.794   4.104   2.697  0.1529 -0.1664 -0.0963
    21BTZ    S335922   3.905   4.159   2.826  0.0336 -0.0207 -0.0550
    31IDT   C1235923   3.580   3.956   2.539  0.2815  0.7041 -0.2286
    31IDT   C1335924   3.626   4.050   2.450  0.1978  0.3383 -0.6632
    31IDT   C1435925   3.543   4.061   2.334  0.1037 -0.1621 -0.6489
    31IDT   C1535926   3.434   3.976   2.334  0.1150 -0.1813 -0.2045
    31IDT    S435927   3.428   3.875   2.482  0.2469  0.4387  0.2345
    4IDB    C1635928   3.343   4.009   2.228  0.6235 -0.1136 -0.2152
    4IDB    C1735929   3.398   4.118   2.155  0.4067 -0.2568 -0.5980
    51IDQ   C1835930   3.540   4.141   2.204 -0.0890  0.8096  0.5096
    4IDB    C1935931   3.327   4.178   2.052  0.0158 -0.3337 -0.3770
    51IDQ   C2035932   3.634   4.095   2.084  0.8676 -0.5987 -0.3158
    51IDQ   C2135933   3.594   4.292   2.227  1.4991 -0.4079  0.6202
    51IDQ   C2235934   3.520   4.413   2.167  0.6588 -0.8108  0.5997
    51IDQ   C2335935   3.738   3.989   2.097 -0.3315 -0.6614  0.1568
    51IDQ   C2435936   3.571   4.552   2.183  0.3043  0.4380 -0.2806
    51IDQ   C2535937   3.709   4.555   2.127 -0.1944 -0.2728 -0.0900
    51IDQ   C2635938   3.766   4.697   2.114  0.1253  1.3038 -0.4078
    51IDQ   C2735939   3.920   4.704   2.078  0.5103 -0.2367  0.3647
    51IDQ   C2835940   3.973   4.846   2.092 -0.7917 -0.4532 -0.6796
    51IDQ   C2935941   4.124   4.861   2.093 -0.0532 -0.5173  0.3416
    51IDQ   C3035942   3.732   3.856   2.030 -0.1938 -0.5613  0.0573
    51IDQ   C3135943   3.866   3.796   1.988 -0.1247  0.1854 -0.1675
    51IDQ   C3235944   3.862   3.696   1.869  0.6894  0.9985 -0.3827
    51IDQ   C3335945   3.984   3.608   1.877  0.5942  0.4263 -1.1973
    51IDQ   C3435946   3.999   3.502   1.779 -0.2663  0.1519  0.0454
    51IDQ   C3535947   4.147   3.458   1.761  0.4697 -0.1455 -0.3971
    4IDB    C3635948   3.215   3.959   2.199  0.4491 -0.0465  0.3947
    4IDB    C3735949   3.144   4.021   2.093  0.0493 -0.1268  0.6126
    11RH    C3835950   3.679   3.598   3.619  0.2910  0.1215 -0.8912
    4IDB    C3935951   3.200   4.128   2.022 -0.1586 -0.2664  0.2328
    62IDT   C4035952   3.119   4.176   1.915  0.1045  0.4511 -0.3329
    72IDQ   C4135953   3.013   3.987   2.022 -0.1149 -0.3523  0.0588
    62IDT   C4235954   3.006   4.097   1.911  0.0390  0.5298 -0.0835
    72IDQ   C4335955   2.887   3.983   2.121 -0.6342 -0.2089  0.0111
    72IDQ   C4435956   3.031   3.853   1.951  0.2669  1.4876  0.1511
    62IDT    S535957   3.111   4.310   1.796  0.0299  0.3314 -0.4635
    62IDT   C4535958   2.947   4.249   1.745 -0.0919  0.3976 -0.1591
    62IDT   C4635959   2.909   4.138   1.815 -0.0721  0.4997  0.0151
    82BTZ   C4735960   2.844   4.329   1.675  0.1000 -0.4449 -0.1380
    82BTZ   C4835961   2.836   4.460   1.715  0.3402 -0.4437 -0.0866
    82BTZ   C4935962   2.732   4.548   1.665  0.4877 -0.2396 -0.0367
    82BTZ   C5035963   2.638   4.504   1.576  0.3947 -0.0369 -0.0383
    82BTZ   C5135964   2.748   4.279   1.582 -0.0058 -0.2370 -0.1418
    82BTZ   C5235965   2.643   4.368   1.532  0.1441 -0.0294 -0.0911
    92RH    C5335966   2.523   4.580   1.509  0.0300 -0.2857  0.1257
    82BTZ    N435967   2.745   4.153   1.537 -0.2376 -0.2168 -0.1895
    82BTZ    N535968   2.556   4.314   1.445  0.0328  0.1574 -0.0980
    82BTZ    S635969   2.606   4.143   1.425 -0.2747  0.0746 -0.1711
    92RH    C5435970   2.501   4.712   1.506 -0.0375 -0.2956  0.1687
    92RH     S735971   2.610   4.843   1.575 -0.1273 -0.2651  0.2526
    92RH    C5535972   2.382   4.774   1.444 -0.0500 -0.3344  0.1542
    92RH     O235973   2.289   4.712   1.388 -0.0005 -0.3618  0.1017
    92RH     N635974   2.385   4.915   1.455 -0.1268 -0.3370  0.2084
    92RH    C5635975   2.492   4.973   1.518 -0.1771 -0.3048  0.2645
    92RH    C5735976   2.280   5.004   1.387  0.5522  0.4887  0.0379
    92RH    C5835977   2.163   5.036   1.473  0.0605  0.7620 -0.4988
    92RH     S835978   2.520   5.137   1.545 -0.2708 -0.3002  0.3352
    72IDQ   C5935979   3.003   3.726   2.042  0.4092 -0.3675 -0.5646
    72IDQ   C6035980   3.032   3.597   1.978 -0.6153  0.3417 -0.7368
    72IDQ   C6135981   2.991   3.456   2.036 -0.5820  0.1789 -0.8094
    72IDQ   C6235982   2.837   3.411   2.047 -0.7831 -0.1692 -0.2641
    72IDQ   C6335983   2.826   3.276   2.113  0.7099 -0.8724  0.4605
    72IDQ   C6435984   2.688   3.219   2.082 -0.0151 -0.2024  0.2595
    72IDQ   C6535985   2.670   3.074   2.128 -0.0073 -2.1452  0.8716
    72IDQ   C6635986   2.741   3.970   2.060 -0.3866 -0.4976  0.4359
    72IDQ   C6735987   2.648   3.870   2.127 -0.1399  1.0975 -0.0271
    72IDQ   C6835988   2.491   3.881   2.133 -0.2190 -0.4244 -0.4003
    72IDQ   C6935989   2.430   3.775   2.047 -0.2681  0.6224  0.0079
    72IDQ   C7035990   2.301   3.823   2.005  0.5230 -0.5690  0.4745
    72IDQ   C7135991   2.245   3.709   1.917 -0.2397  0.0269  0.8649
    72IDQ   C7235992   2.103   3.728   1.877  0.1765  0.7507  0.5271
    11RH     C135993   2.418   1.357  19.689  0.2858  0.2832  0.0691
    11RH     C235994   2.487   1.481  19.734  0.2961  0.2456  0.1578
    11RH     N135995   2.381   1.276  19.799 -0.0156  0.3645  0.0309
    11RH     S135996   2.499   1.482  19.917 -0.0912  0.3196  0.1852
    11RH     C335997   2.413   1.319  19.926 -0.2481  0.3967  0.0792
    11RH     C435998   2.331   1.135  19.783  0.2620  0.4518  0.4687
    11RH     S235999   2.381   1.242  20.072 -0.6241  0.4912  0.0491
    11RH     O136000   2.394   1.326  19.571  0.5097  0.2490  0.0319
    11RH     C536001   2.532   1.575  19.650  0.5539  0.1690  0.2083
    21BTZ    C636002   2.602   1.701  19.670  0.4605 -0.1363  0.0686
    21BTZ    C736003   2.644   1.744  19.793  0.6056 -0.0542 -0.0105
    21BTZ    C836004   2.626   1.783  19.556  0.2474 -0.1726 -0.0029
    21BTZ    C936005   2.712   1.871  19.809  0.5491 -0.0040 -0.1631
    21BTZ   C1036006   2.737   1.953  19.702  0.3477 -0.0359 -0.2363
    21BTZ   C1136007   2.695   1.911  19.572  0.1900 -0.1215 -0.1578
    21BTZ    N236008   2.589   1.751  19.431  0.0921 -0.2519  0.0620
    21BTZ    N336009   2.714   1.983  19.461 -0.0113 -0.1597 -0.2179
    21BTZ    S336010   2.642   1.887  19.327 -0.1389 -0.2648 -0.0743
    31IDT   C1236011   2.810   2.079  19.744 -0.3182  0.2929 -0.1294
    31IDT   C1336012   2.866   2.171  19.660 -0.4861  0.4219 -0.1020
    31IDT   C1436013   2.949   2.265  19.728 -0.3808  0.3408 -0.1159
    31IDT   C1536014   2.955   2.246  19.865 -0.1326  0.1496 -0.1539
    31IDT    S436015   2.857   2.105  19.917 -0.0119  0.0567 -0.1746
    4IDB    C1636016   3.063   2.327  19.925  0.3999 -0.1165 -0.3816
    4IDB    C1736017   3.119   2.412  19.825  0.4384 -0.2238 -0.4511
    51IDQ   C1836018   3.048   2.381  19.694 -0.4815 -0.1061  1.6943
    4IDB    C1936019   3.212   2.510  19.858  0.0079  0.1892 -0.4345
    51IDQ   C2036020   2.975   2.513  19.650 -0.4851 -1.2384  1.3811
    51IDQ   C2136021   3.145   2.348  19.567 -0.3398  0.7776  0.4474
    51IDQ   C2236022   3.305   2.339  19.583 -0.4696  0.4573 -0.8250
    51IDQ   C2336023   2.825   2.542  19.664 -0.0559  0.7719  0.8130
    51IDQ   C2436024   3.404   2.333  19.467  0.0472  0.7433 -0.2104
    51IDQ   C2536025   3.400   2.443  19.361  0.1606 -0.4481 -0.2990
    51IDQ   C2636026   3.408   2.590  19.412 -0.0203 -0.3941 -0.4910
    51IDQ   C2736027   3.502   2.631  19.524 -0.6700 -0.6725 -0.7336
    51IDQ   C2836028   3.643   2.664  19.496 -0.7692  0.7940 -1.0674
    51IDQ   C2936029   3.726   2.680  19.633 -0.7359  0.8554 -0.1452
    51IDQ   C3036030   2.755   2.542  19.797  0.6233 -0.6949 -0.6154
    51IDQ   C3136031   2.600   2.563  19.800 -0.6893 -0.5148  0.0711
    51IDQ   C3236032   2.516   2.465  19.723  0.8190  0.1512  0.3492
    51IDQ   C3336033   2.471   2.338  19.791 -0.1697  0.1991  0.6291
    51IDQ   C3436034   2.401   2.242  19.693 -0.0779 -0.3422  0.6927
    51IDQ   C3536035   2.472   2.202  19.565  0.7204 -0.5763 -0.6429
    4IDB    C3636036   3.099   2.340  20.060 -0.0727  0.4078 -0.2937
    4IDB    C3736037   3.195   2.440  20.092 -0.5085  0.8247 -0.2780
    11RH    C3836038   2.187   1.101  19.756  0.1087 -0.0684  0.3044
    4IDB    C3936039   3.249   2.522  19.993 -0.4647  0.7135 -0.3465
    62IDT   C4036040   3.334   2.616  20.040 -0.0946 -0.0099 -0.3908
    72IDQ   C4136041   3.263   2.475  20.231  0.0132  0.5621  0.4849
    62IDT   C4236042   3.342   2.602  20.177 -0.0111  0.0706 -0.3872
    72IDQ   C4336043   3.360   2.367  20.283 -1.5955 -0.5943 -0.4582
    72IDQ   C4436044   3.149   2.524  20.333 -0.1175 -1.2904  0.1980
    62IDT    S536045   3.436   2.752  19.980 -0.1654 -0.0163 -0.5275
    62IDT   C4536046   3.487   2.783  20.152 -0.0741  0.0956 -0.5748
    62IDT   C4636047   3.428   2.697  20.241  0.0005  0.1302 -0.4907
    82BTZ   C4736048   3.602   2.873  20.185 -0.0428 -0.2421  0.1988
    82BTZ   C4836049   3.670   2.938  20.085 -0.1992 -0.2178  0.1082
    82BTZ   C4936050   3.775   3.033  20.114 -0.2689 -0.0976 -0.0296
    82BTZ   C5036051   3.813   3.062  20.242 -0.1820 -0.0018 -0.0765
    82BTZ   C5136052   3.638   2.901  20.321  0.0532 -0.1448  0.1545
    82BTZ   C5236053   3.745   2.996  20.350 -0.0177 -0.0226  0.0143
    92RH    C5336054   3.914   3.160  20.270  0.5968  0.0737  0.4466
    82BTZ    N436055   3.580   2.844  20.427  0.2068 -0.1572  0.2327
    82BTZ    N536056   3.773   3.017  20.479  0.0790  0.0632 -0.0196
    82BTZ    S636057   3.661   2.912  20.571  0.2688 -0.0100  0.1297
    92RH    C5436058   3.992   3.238  20.193  0.3310  0.0633  0.1650
    92RH     S736059   3.996   3.240  20.009 -0.0206 -0.2467  0.1486
    92RH    C5536060   4.088   3.336  20.247  0.2801  0.3107 -0.1884
    92RH     O236061   4.109   3.359  20.367  0.4733  0.5521 -0.2642
    92RH     N636062   4.156   3.404  20.143 -0.0212  0.2394 -0.4349
    92RH    C5636063   4.126   3.372  20.013 -0.2179 -0.0346 -0.3238
    92RH    C5736064   4.247   3.515  20.185 -0.6650  0.0518 -0.5582
    92RH    C5836065   4.194   3.650  20.152  0.6416  0.3928  0.3284
    92RH     S836066   4.192   3.437  19.872 -0.5856 -0.1732 -0.5641
    72IDQ   C5936067   3.188   2.584  20.471  0.0043 -0.4873  0.5932
    72IDQ   C6036068   3.132   2.537  20.599 -0.4950  0.7110 -0.2016
    72IDQ   C6136069   2.979   2.501  20.619  0.0515  1.5161  0.4895
    72IDQ   C6236070   2.952   2.425  20.749 -0.1386 -0.3661  0.2435
    72IDQ   C6336071   2.819   2.362  20.763 -0.1489 -0.3633  0.3750
    72IDQ   C6436072   2.817   2.239  20.844 -0.4039  0.7692 -0.0101
    72IDQ   C6536073   2.670   2.209  20.860  0.0302 -0.4926  0.1397
    72IDQ   C6636074   3.322   2.217  20.314  0.5653  0.5710 -0.0152
    72IDQ   C6736075   3.412   2.125  20.399 -0.7629 -0.3864  0.2885
    72IDQ   C6836076   3.558   2.109  20.356 -0.2654  0.5784 -1.2688
    72IDQ   C6936077   3.578   2.033  20.224 -0.5193  0.2604 -0.3473
    72IDQ   C7036078   3.716   2.028  20.180 -0.9638  0.0031  0.3627
    72IDQ   C7136079   3.730   1.920  20.092 -0.3932  0.5865 -0.2309
    72IDQ   C7236080   3.868   1.901  20.030  1.2159 -0.6380  0.6172
    11RH     C136081   1.967   6.672  19.536 -0.0317 -0.0378 -0.1702
    11RH     C236082   2.065   6.730  19.442 -0.0352  0.0862 -0.0982
    11RH     N136083   1.896   6.772  19.606 -0.1683 -0.1272 -0.1797
    11RH     S136084   2.058   6.913  19.450 -0.2180  0.0771 -0.0464
    11RH     C336085   1.926   6.904  19.579 -0.2809 -0.0899 -0.1230
    11RH     C436086   1.788   6.731  19.710 -1.0551 -0.2448  0.7317
    11RH     S236087   1.857   7.042  19.647 -0.4529 -0.1774 -0.1202
    11RH     O136088   1.947   6.551  19.554  0.0761 -0.0626 -0.2179
    11RH     C536089   2.145   6.657  19.364  0.0800  0.1870 -0.0755
    21BTZ    C636090   2.256   6.681  19.265  0.0538  0.0110 -0.3735
    21BTZ    C736091   2.301   6.807  19.236  0.2844 -0.0727 -0.3762
    21BTZ    C836092   2.318   6.569  19.202  0.0464 -0.1225 -0.1459
    21BTZ    C936093   2.410   6.828  19.143  0.5175 -0.2904 -0.1583
    21BTZ   C1036094   2.472   6.724  19.080  0.5198 -0.4240  0.0630
    21BTZ   C1136095   2.428   6.590  19.107  0.2833 -0.3437  0.0758
    21BTZ    N236096   2.282   6.442  19.223 -0.1664 -0.0592 -0.1202
    21BTZ    N336097   2.480   6.481  19.052  0.2611 -0.4581  0.2804
    21BTZ    S336098   2.390   6.342  19.120 -0.0706 -0.2846  0.1963
    31IDT   C1236099   2.589   6.766  19.002  0.2205 -0.2512  0.4112
    31IDT   C1336100   2.636   6.696  18.894  0.5988 -0.2382  0.5631
    31IDT   C1436101   2.729   6.771  18.815  0.4906 -0.0468  0.6170
    31IDT   C1536102   2.753   6.898  18.863  0.0305  0.0872  0.5062
    31IDT    S436103   2.660   6.933  19.012 -0.3048 -0.0194  0.3230
    4IDB    C1636104   2.853   6.957  18.772  0.0043  0.0189 -0.3684
    4IDB    C1736105   2.878   6.875  18.658  0.2706  0.1175 -0.3839
    51IDQ   C1836106   2.825   6.736  18.701 -0.1306  0.5165  0.5797
    4IDB    C1936107   2.950   6.923  18.549  0.2338  0.3240 -0.3172
    51IDQ   C2036108   2.757   6.654  18.585  0.8854 -0.5606  0.5937
    51IDQ   C2136109   2.943   6.648  18.767  1.1956  1.0991 -0.1119
    51IDQ   C2236110   3.077   6.704  18.805 -0.4803  0.4082  0.0962
    51IDQ   C2336111   2.601   6.638  18.566 -0.5663  0.2699  0.9204
    51IDQ   C2436112   3.180   6.589  18.836  0.3304  0.7179 -0.1151
    51IDQ   C2536113   3.222   6.467  18.745  1.5153 -0.7533 -0.3141
    51IDQ   C2636114   3.333   6.396  18.818  0.1800 -0.5826 -0.5346
    51IDQ   C2736115   3.371   6.264  18.757 -0.5622 -0.8575 -0.4489
    51IDQ   C2836116   3.397   6.257  18.609 -0.0226 -0.3074 -0.5389
    51IDQ   C2936117   3.453   6.129  18.545 -0.3358 -0.4909 -0.2351
    51IDQ   C3036118   2.533   6.758  18.504  0.5241 -0.6070  0.5810
    51IDQ   C3136119   2.582   6.813  18.377  0.5868  0.2257  0.7321
    51IDQ   C3236120   2.574   6.743  18.244 -0.6271  0.7219  0.4382
    51IDQ   C3336121   2.602   6.823  18.114 -0.7538  0.8175  0.4406
    51IDQ   C3436122   2.696   6.948  18.136 -0.5162  0.2582 -0.0806
    51IDQ   C3536123   2.622   7.063  18.075  0.4885  0.5351 -0.2232
    4IDB    C3636124   2.901   7.090  18.777 -0.3023  0.1266 -0.2861
    4IDB    C3736125   2.974   7.137  18.665 -0.3354  0.3372 -0.2198
    11RH    C3836126   1.645   6.711  19.661 -0.7601  0.1139 -0.6348
    4IDB    C3936127   2.997   7.055  18.554 -0.0728  0.4316 -0.2359
    62IDT   C4036128   3.090   7.118  18.467  0.1083 -0.1907  0.3254
    72IDQ   C4136129   3.063   7.268  18.658  0.5269 -0.0706  0.8480
    62IDT   C4236130   3.123   7.244  18.512 -0.4814 -0.0734  0.4535
    72IDQ   C4336131   3.185   7.285  18.767 -0.9840  0.5884  0.1887
    72IDQ   C4436132   2.974   7.396  18.662  0.4782  0.0259 -0.1786
    62IDT    S536133   3.167   7.080  18.310  0.2821  0.3352  0.2795
    62IDT   C4536134   3.245   7.244  18.313 -0.4895  0.7038  0.4436
    62IDT   C4636135   3.211   7.316  18.425 -0.8202  0.4323  0.5193
    82BTZ   C4736136   3.356   7.272  18.219 -0.0262 -0.3259 -0.3753
    82BTZ   C4836137   3.378   7.176  18.124  0.2724 -0.2934 -0.3409
    82BTZ   C4936138   3.500   7.172  18.048  0.4773 -0.2149 -0.0210
    82BTZ   C5036139   3.600   7.264  18.067  0.3833 -0.1694  0.2641
    82BTZ   C5136140   3.458   7.371  18.243 -0.1357 -0.2806 -0.0839
    82BTZ   C5236141   3.582   7.366  18.165  0.0725 -0.2009  0.2413
    92RH    C5336142   3.731   7.273  17.991  0.3553  0.1414 -0.1041
    82BTZ    N436143   3.448   7.469  18.333 -0.4216 -0.3060 -0.0854
    82BTZ    N536144   3.672   7.461  18.193 -0.0460 -0.1625  0.5012
    82BTZ    S636145   3.600   7.562  18.322 -0.4369 -0.2275  0.3376
    92RH    C5436146   3.787   7.196  17.896  0.3538 -0.0120  0.0186
    92RH     S736147   3.729   7.031  17.840  0.0959  0.0915 -0.0207
    92RH    C5536148   3.908   7.235  17.820  0.5688 -0.2990  0.2112
    92RH     O236149   3.972   7.341  17.835  0.7718 -0.4292  0.2804
    92RH     N636150   3.945   7.135  17.727  0.5156 -0.4115  0.3098
    92RH    C5636151   3.868   7.022  17.719  0.2846 -0.2495  0.2198
    92RH    C5736152   4.057   7.156  17.642 -0.9278 -0.2714  0.3625
    92RH    C5836153   4.201   7.129  17.697  1.2629 -0.4375 -0.4985
    92RH     S836154   3.889   6.889  17.617  0.1752 -0.3333  0.3052
    72IDQ   C5936155   3.012   7.527  18.719 -0.1640  0.1048 -0.6033
    72IDQ   C6036156   3.132   7.601  18.649 -1.0548  0.3161  0.4905
    72IDQ   C6136157   3.116   7.658  18.501  0.3891 -0.3730 -0.6191
    72IDQ   C6236158   3.244   7.718  18.445  0.7102 -0.0682 -0.0086
    72IDQ   C6336159   3.208   7.804  18.321  0.5686 -0.8016 -0.5081
    72IDQ   C6436160   3.326   7.854  18.247 -1.4618  0.1277  0.0545
    72IDQ   C6536161   3.301   7.972  18.158  0.7265 -0.6650  0.6727
    72IDQ   C6636162   3.279   7.166  18.807 -0.1767 -1.0150  0.7245
    72IDQ   C6736163   3.402   7.203  18.897 -0.4751  0.1495 -1.2491
    72IDQ   C6836164   3.424   7.342  18.965  0.1218  0.4020 -0.6451
    72IDQ   C6936165   3.321   7.383  19.075 -0.4221  0.0553  0.4861
    72IDQ   C7036166   3.287   7.526  19.097 -1.1580 -1.1497  0.0325
    72IDQ   C7136167   3.201   7.541  19.214  0.1072 -0.0108 -0.1599
    72IDQ   C7236168   3.159   7.682  19.258 -0.2562  0.3322  0.1718
    11RH     C136169   2.997   1.653   9.701 -0.0323 -0.1677  0.0434
    11RH     C236170   2.855   1.662   9.743 -0.0099 -0.0975  0.1049
    11RH     N136171   3.019   1.720   9.578 -0.0291 -0.0787  0.0927
    11RH     S136172   2.759   1.758   9.618  0.0140  0.0809  0.2239
    11RH     C336173   2.912   1.781   9.517 -0.0068  0.0541  0.1860
    11RH     C436174   3.158   1.732   9.531 -0.5513  0.2050  0.3159
    11RH     S236175   2.911   1.867   9.372  0.0017  0.1796  0.2604
    11RH     O136176   3.087   1.595   9.763 -0.0517 -0.2890 -0.0408
    11RH     C536177   2.807   1.607   9.855 -0.0082 -0.1587  0.0759
    21BTZ    C636178   2.673   1.620   9.927  0.2698  0.2756  0.2911
    21BTZ    C736179   2.572   1.703   9.887  0.2242  0.2000  0.2494
    21BTZ    C836180   2.653   1.537  10.043  0.2609  0.2181  0.2491
    21BTZ    C936181   2.447   1.709   9.959  0.1680  0.0650  0.1640
    21BTZ   C1036182   2.423   1.632  10.070  0.1574  0.0059  0.1212
    21BTZ   C1136183   2.526   1.544  10.116  0.2038  0.0809  0.1624
    21BTZ    N236184   2.745   1.453  10.091  0.3019  0.2817  0.2835
    21BTZ    N336185   2.516   1.464  10.222  0.1988  0.0342  0.1276
    21BTZ    S336186   2.671   1.376  10.235  0.2684  0.1664  0.2051
    31IDT   C1236187   2.292   1.639  10.132 -0.3273  0.1704 -0.5786
    31IDT   C1336188   2.246   1.736  10.217 -0.6447  0.7479 -1.3797
    31IDT   C1436189   2.115   1.709  10.266 -0.6132  0.7997 -1.2665
    31IDT   C1536190   2.060   1.592  10.219 -0.2724  0.2634 -0.3805
    31IDT    S436191   2.171   1.506  10.107  0.0380 -0.3545  0.3858
    4IDB    C1636192   1.932   1.571  10.278  0.5024 -0.1054  0.5256
    4IDB    C1736193   1.897   1.678  10.365  0.3765 -0.1719  0.5574
    51IDQ   C1836194   2.019   1.765  10.379 -0.4447  0.0464 -0.0431
    4IDB    C1936195   1.772   1.682  10.427  0.1707 -0.0700  0.1470
    51IDQ   C2036196   1.977   1.915  10.361  0.2003 -0.8693 -0.0334
    51IDQ   C2136197   2.079   1.764  10.529 -0.2134 -0.5878 -0.6165
    51IDQ   C2236198   2.063   1.642  10.630  0.3420  0.2518 -0.2154
    51IDQ   C2336199   2.025   2.002  10.252 -0.4254 -1.2360  0.1514
    51IDQ   C2436200   2.151   1.657  10.749 -0.4858  0.6737 -0.4420
    51IDQ   C2536201   2.129   1.541  10.850  0.1558 -0.0603 -1.1955
    51IDQ   C2636202   2.232   1.520  10.966  0.5655 -0.4334 -0.2947
    51IDQ   C2736203   2.283   1.632  11.058  0.1147  0.0410 -0.2129
    51IDQ   C2836204   2.166   1.685  11.154 -0.5316 -0.1069 -0.3278
    51IDQ   C2936205   2.214   1.800  11.246 -0.6128  0.5020 -0.4487
    51IDQ   C3036206   2.096   2.142  10.297 -0.1864  0.5936  0.0654
    51IDQ   C3136207   2.038   2.242  10.396  0.0926 -0.4767 -0.2219
    51IDQ   C3236208   2.125   2.298  10.505  0.1528 -0.1785  0.2907
    51IDQ   C3336209   2.042   2.379  10.609  0.2889  0.2904  0.7536
    51IDQ   C3436210   2.131   2.407  10.725 -0.1983  0.0144 -0.4386
    51IDQ   C3536211   2.049   2.428  10.859  0.1252  0.0709  0.7039
    4IDB    C3636212   1.843   1.465  10.253  0.4226  0.0647  0.0796
    4IDB    C3736213   1.716   1.471  10.318  0.2119  0.1670 -0.3362
    11RH    C3836214   3.245   1.867   9.547  0.6802 -0.1309 -0.5251
    4IDB    C3936215   1.683   1.577  10.402  0.0909  0.1001 -0.2987
    62IDT   C4036216   1.541   1.561  10.441 -0.0610 -0.2553  0.1760
    72IDQ   C4136217   1.601   1.363  10.310  1.1235  0.5456  0.0504
    62IDT   C4236218   1.488   1.445  10.389 -0.0100 -0.0920 -0.2425
    72IDQ   C4336219   1.654   1.231  10.376  0.2370  0.8292 -1.1539
    72IDQ   C4436220   1.562   1.312  10.166 -0.0361 -0.3258  0.4853
    62IDT    S536221   1.414   1.663  10.518 -0.2371 -0.2181 -0.1587
    62IDT   C4536222   1.291   1.537  10.473 -0.2324  0.0281 -0.8818
    62IDT   C4636223   1.347   1.431  10.406 -0.1068  0.0684 -0.8407
    82BTZ   C4736224   1.148   1.553  10.511  0.0619  0.2936 -0.2415
    82BTZ   C4836225   1.127   1.644  10.612  0.0958  0.2477 -0.1934
    82BTZ   C4936226   0.996   1.665  10.668  0.1576  0.0396  0.0341
    82BTZ   C5036227   0.886   1.596  10.624  0.1853 -0.1223  0.2131
    82BTZ   C5136228   1.036   1.479  10.461  0.0890  0.1293 -0.0601
    82BTZ   C5236229   0.903   1.501  10.518  0.1517 -0.0822  0.1709
    92RH    C5336230   0.744   1.629  10.655 -0.4014 -0.4226  0.0417
    82BTZ    N436231   1.044   1.388  10.363  0.0606  0.1547 -0.0858
    82BTZ    N536232   0.804   1.428  10.467  0.1737 -0.2268  0.3312
    82BTZ    S636233   0.878   1.326  10.340  0.1140 -0.0961  0.1900
    92RH    C5436234   0.694   1.706  10.753 -0.2991 -0.1446 -0.1235
    92RH     S736235   0.789   1.801  10.877 -0.1691  0.1492 -0.4427
    92RH    C5536236   0.549   1.727  10.774 -0.2752 -0.0293 -0.0713
    92RH     O236237   0.458   1.677  10.706 -0.3454 -0.1730  0.1280
    92RH     N636238   0.524   1.813  10.883 -0.1604  0.2709 -0.2790
    92RH    C5636239   0.632   1.864  10.952 -0.0894  0.4101 -0.4916
    92RH    C5736240   0.388   1.863  10.909  0.0903  1.0112 -0.5645
    92RH    C5836241   0.333   1.989  10.854  0.6548  0.8311  0.2172
    92RH     S836242   0.631   1.967  11.085  0.0500  0.7637 -0.7622
    72IDQ   C5936243   1.474   1.374  10.061  0.4959 -1.1403  0.8472
    72IDQ   C6036244   1.453   1.309   9.922 -0.0757  0.4843  0.3331
    72IDQ   C6136245   1.376   1.383   9.826  0.4773 -0.0027 -0.3360
    72IDQ   C6236246   1.364   1.313   9.688  1.4138  0.5773  0.0622
    72IDQ   C6336247   1.484   1.248   9.621 -0.2136 -0.0627 -0.4739
    72IDQ   C6436248   1.454   1.186   9.483 -0.2389  0.0451  0.1212
    72IDQ   C6536249   1.385   1.269   9.380  0.0918  1.0158  0.1938
    72IDQ   C6636250   1.546   1.128  10.432 -0.0377  0.1289  0.3167
    72IDQ   C6736251   1.583   1.006  10.508  0.4155 -0.0357  0.3069
    72IDQ   C6836252   1.461   0.936  10.575  0.1620  0.4971  0.5716
    72IDQ   C6936253   1.488   0.821  10.674  0.0527  0.9761 -0.0337
    72IDQ   C7036254   1.552   0.860  10.804  0.2040  0.3198  0.6842
    72IDQ   C7136255   1.554   0.748  10.913 -0.4124  0.1596  0.6500
    72IDQ   C7236256   1.641   0.764  11.037  0.7748  0.4584 -0.1001
    11RH     C136257   3.513   5.187  20.150 -0.2385 -0.0881  0.1931
    11RH     C236258   3.534   5.310  20.230 -0.3442 -0.0024  0.0916
    11RH     N136259   3.445   5.088  20.224 -0.2676 -0.0377  0.2348
    11RH     S136260   3.464   5.287  20.398 -0.4751  0.1390  0.0564
    11RH     C336261   3.410   5.116  20.354 -0.3836  0.0781  0.1783
    11RH     C436262   3.447   4.950  20.165  0.3207  0.0105  0.1441
    11RH     S236263   3.329   5.016  20.463 -0.4411  0.1585  0.2098
    11RH     O136264   3.549   5.171  20.032 -0.1364 -0.1916  0.2384
    11RH     C536265   3.596   5.419  20.184 -0.3409 -0.0280  0.0368
    21BTZ    C636266   3.620   5.556  20.243 -0.3539  0.2152  0.3523
    21BTZ    C736267   3.586   5.593  20.371 -0.3259  0.3165  0.3309
    21BTZ    C836268   3.672   5.656  20.155 -0.0849  0.0788  0.3562
    21BTZ    C936269   3.603   5.728  20.418 -0.0341  0.2887  0.3119
    21BTZ   C1036270   3.652   5.827  20.337  0.2290  0.1602  0.3146
    21BTZ   C1136271   3.689   5.794  20.202  0.2116  0.0507  0.3371
    21BTZ    N236272   3.708   5.633  20.028 -0.0830 -0.0281  0.3757
    21BTZ    N336273   3.738   5.881  20.114  0.4517 -0.0789  0.3414
    21BTZ    S336274   3.766   5.789  19.963  0.3058 -0.1723  0.3709
    31IDT   C1236275   3.705   5.938  20.406  1.1155 -0.5546  0.0827
    31IDT   C1336276   3.691   6.069  20.368  1.3952 -0.6369 -0.3057
    31IDT   C1436277   3.742   6.161  20.465  1.1669 -0.4429 -0.3695
    31IDT   C1536278   3.794   6.101  20.577  0.7127 -0.2121 -0.0306
    31IDT    S436279   3.783   5.922  20.570  0.5374 -0.2224  0.4003
    4IDB    C1636280   3.849   6.195  20.669  0.7564 -0.2611 -0.1763
    4IDB    C1736281   3.837   6.327  20.615  0.0362 -0.3352 -0.2146
    51IDQ   C1836282   3.767   6.318  20.480 -0.1203 -0.0690 -0.3490
    4IDB    C1936283   3.880   6.438  20.686 -0.4231 -0.0883 -0.3116
    51IDQ   C2036284   3.635   6.404  20.488 -0.0845  0.5231  0.2770
    51IDQ   C2136285   3.850   6.376  20.355  0.1042  0.3777  0.0668
    51IDQ   C2236286   4.002   6.411  20.355 -0.5052 -0.1184  0.0379
    51IDQ   C2336287   3.498   6.360  20.439  0.0816 -0.1911 -1.1280
    51IDQ   C2436288   4.105   6.313  20.410 -0.1473  0.5721  0.5643
    51IDQ   C2536289   4.234   6.379  20.463  0.1271 -0.5556  0.8175
    51IDQ   C2636290   4.216   6.464  20.573 -0.0975  0.2933 -1.1972
    51IDQ   C2736291   4.310   6.585  20.577  0.7935  0.5310 -0.4825
    51IDQ   C2836292   4.291   6.655  20.706  0.4717 -0.7159 -0.8224
    51IDQ   C2936293   4.315   6.808  20.699 -0.8579  0.6903  0.2343
    51IDQ   C3036294   3.394   6.452  20.392  0.5792 -0.0965  0.0059
    51IDQ   C3136295   3.418   6.574  20.310 -0.0832  0.5233  0.3503
    51IDQ   C3236296   3.296   6.653  20.267 -0.1130  1.3008  0.1261
    51IDQ   C3336297   3.213   6.556  20.177 -0.1426 -0.4475 -0.2197
    51IDQ   C3436298   3.102   6.629  20.120 -1.2091 -0.2364 -0.3765
    51IDQ   C3536299   3.087   6.617  19.972 -0.4604  0.0469  0.1408
    4IDB    C3636300   3.905   6.174  20.795  1.0225  0.0627 -0.2360
    4IDB    C3736301   3.948   6.289  20.867  0.5451  0.3119 -0.3352
    11RH    C3836302   3.321   4.897  20.078 -0.9768  0.0714 -0.7927
    4IDB    C3936303   3.936   6.417  20.813 -0.1571  0.2354 -0.3717
    62IDT   C4036304   4.000   6.516  20.890  0.0700  0.2124 -0.7121
    72IDQ   C4136305   4.031   6.299  20.994 -0.5584  0.8928 -1.1192
    62IDT   C4236306   4.060   6.454  20.997 -0.4455 -0.1428 -0.6227
    72IDQ   C4336307   4.171   6.214  21.004  0.2764 -0.3650 -0.1472
    72IDQ   C4436308   3.957   6.297  21.130  0.9696 -0.7448  0.6794
    62IDT    S536309   4.021   6.695  20.895  0.2782  0.1740 -0.1662
    62IDT   C4536310   4.115   6.674  21.050 -0.3745 -0.3455  0.1711
    62IDT   C4636311   4.125   6.543  21.088 -0.6975 -0.4586 -0.1230
    82BTZ   C4736312   4.175   6.790  21.119  0.0898 -0.4719  0.3041
    82BTZ   C4836313   4.159   6.908  21.051 -0.1522 -0.5020  0.3061
    82BTZ   C4936314   4.214   7.032  21.101 -0.4218 -0.3858  0.3176
    82BTZ   C5036315   4.284   7.037  21.218 -0.4491 -0.2396  0.3281
    82BTZ   C5136316   4.248   6.790  21.242  0.0721 -0.3204  0.3142
    82BTZ   C5236317   4.304   6.916  21.293 -0.2021 -0.2023  0.3262
    92RH    C5336318   4.351   7.153  21.266 -0.0477  0.0975  0.1000
    82BTZ    N436319   4.270   6.682  21.317  0.2925 -0.2770  0.3142
    82BTZ    N536320   4.370   6.908  21.408 -0.2016 -0.0640  0.3357
    82BTZ    S636321   4.365   6.737  21.458  0.1566 -0.0791  0.3288
    92RH    C5436322   4.364   7.282  21.233 -0.1112  0.0859  0.0286
    92RH     S736323   4.292   7.366  21.087 -0.0991 -0.0444 -0.0524
    92RH    C5536324   4.442   7.379  21.314 -0.2041  0.1808  0.0048
    92RH     O236325   4.503   7.354  21.419 -0.2338  0.2804  0.0458
    92RH     N636326   4.439   7.508  21.256 -0.2568  0.1449 -0.0732
    92RH    C5636327   4.369   7.526  21.139 -0.2174  0.0327 -0.1144
    92RH    C5736328   4.471   7.623  21.341 -0.0350  0.2896 -0.1285
    92RH    C5836329   4.607   7.668  21.369 -0.4909  0.2688 -0.8900
    92RH     S836330   4.349   7.668  21.051 -0.2651 -0.0316 -0.2079
    72IDQ   C5936331   3.859   6.185  21.162 -0.1593 -0.0237 -0.2239
    72IDQ   C6036332   3.894   6.043  21.146 -0.3394 -0.3134  1.4737
    72IDQ   C6136333   3.768   5.955  21.168  0.1087  0.0351 -0.9768
    72IDQ   C6236334   3.698   5.969  21.302 -0.0350 -0.3153 -0.6130
    72IDQ   C6336335   3.562   5.900  21.302  0.2159 -0.6884  0.3656
    72IDQ   C6436336   3.495   5.886  21.437 -0.0226 -0.1957 -0.1435
    72IDQ   C6536337   3.368   5.804  21.435  0.4254  0.2232  0.4675
    72IDQ   C6636338   4.256   6.212  20.878  0.1124  0.5505  0.2915
    72IDQ   C6736339   4.385   6.126  20.867  0.2897  0.5258 -0.6625
    72IDQ   C6836340   4.388   5.975  20.878  0.0794 -0.1195  0.5970
    72IDQ   C6936341   4.306   5.900  20.772 -0.1973 -0.6597 -0.4810
    72IDQ   C7036342   4.292   5.747  20.797 -0.0516 -0.1862  0.1526
    72IDQ   C7136343   4.395   5.647  20.731 -0.8850 -0.5734  0.6885
    72IDQ   C7236344   4.416   5.657  20.583 -0.4846  0.0645  0.3195
    11RH     C136345   3.936   1.209  14.184 -0.4578 -0.3360 -0.2253
    11RH     C236346   3.933   1.204  14.333 -0.3965 -0.0783 -0.2151
    11RH     N136347   3.805   1.207  14.131 -0.4818 -0.3656 -0.1667
    11RH     S136348   3.760   1.197  14.392 -0.3742  0.1082 -0.1286
    11RH     C336349   3.699   1.202  14.218 -0.4470 -0.1632 -0.1104
    11RH     C436350   3.781   1.199  13.987 -0.4331  0.0596  0.4704
    11RH     S236351   3.534   1.199  14.180 -0.4649 -0.1491 -0.0346
    11RH     O136352   4.038   1.213  14.114 -0.4858 -0.5075 -0.2778
    11RH     C536353   4.044   1.204  14.408 -0.3639 -0.0011 -0.2625
    21BTZ    C636354   4.061   1.184  14.549 -0.1907  0.3836  0.3225
    21BTZ    C736355   3.963   1.161  14.642 -0.0650  0.1695  0.4020
    21BTZ    C836356   4.197   1.193  14.593 -0.1189  0.1765  0.1457
    21BTZ    C936357   3.994   1.145  14.782  0.1365 -0.2559  0.3130
    21BTZ   C1036358   4.122   1.153  14.829  0.2117 -0.4665  0.1442
    21BTZ   C1136359   4.228   1.177  14.736  0.0857 -0.2557  0.0551
    21BTZ    N236360   4.301   1.216  14.512 -0.2271  0.3520  0.0544
    21BTZ    N336361   4.357   1.187  14.769  0.1421 -0.4278 -0.1090
    21BTZ    S336362   4.446   1.217  14.617 -0.0688 -0.0360 -0.1559
    31IDT   C1236363   4.150   1.125  14.974  0.2947  1.0740  0.1544
    31IDT   C1336364   4.267   1.120  15.045  0.1793  1.7440  0.4077
    31IDT   C1436365   4.248   1.083  15.181  0.1414  1.0302  0.2179
    31IDT   C1536366   4.116   1.060  15.215  0.2271 -0.1856 -0.1801
    31IDT    S436367   4.006   1.084  15.075  0.3640 -0.5240 -0.3475
    4IDB    C1636368   4.115   1.029  15.361 -0.3433 -0.2586  0.3668
    4IDB    C1736369   4.249   1.029  15.410 -0.2576 -0.3948  0.1371
    51IDQ   C1836370   4.346   1.051  15.294  0.1562  0.4184 -0.5765
    4IDB    C1936371   4.275   1.018  15.547 -0.0351 -0.3950  0.0952
    51IDQ   C2036372   4.456   1.164  15.330  0.4656 -0.6123 -0.0683
    51IDQ   C2136373   4.427   0.927  15.240  0.6361  0.6640 -0.9274
    51IDQ   C2236374   4.476   0.814  15.338 -0.0159 -0.2845 -0.6137
    51IDQ   C2336375   4.474   1.300  15.264 -0.7038  0.4684 -0.1197
    51IDQ   C2436376   4.394   0.695  15.366  1.7785 -1.2278  1.2736
    51IDQ   C2536377   4.465   0.594  15.436  0.0079  0.4580 -0.7241
    51IDQ   C2636378   4.390   0.456  15.460  0.4568 -0.2434  0.6057
    51IDQ   C2736379   4.448   0.353  15.553 -1.3711 -0.4867  0.0570
    51IDQ   C2836380   4.385   0.213  15.534  0.6283  0.5738 -1.3898
    51IDQ   C2936381   4.241   0.214  15.619 -0.3101 -0.3501  0.3986
    51IDQ   C3036382   4.592   1.369  15.325  0.7139  0.6956 -0.0555
    51IDQ   C3136383   4.585   1.513  15.284 -0.6325 -0.2109  0.3794
    51IDQ   C3236384   4.704   1.612  15.323 -0.4146  0.1540 -0.6700
    51IDQ   C3336385   4.692   1.651  15.477  0.2641  0.6501  0.2261
    51IDQ   C3436386   4.560   1.710  15.508  0.5576 -0.1220  0.1060
    51IDQ   C3536387   4.544   1.861  15.529  0.9519 -0.0430  0.3425
    4IDB    C3636388   4.006   1.019  15.448 -0.2059 -0.1210  0.5579
    4IDB    C3736389   4.034   1.008  15.587  0.0212 -0.1234  0.5121
    11RH    C3836390   3.778   1.326  13.917 -0.3341 -1.3577 -0.5630
    4IDB    C3936391   4.165   1.007  15.634  0.1024 -0.2573  0.2864
    62IDT   C4036392   4.162   1.002  15.782  0.2906 -0.0591  0.0541
    72IDQ   C4136393   3.931   0.982  15.698 -0.5814  0.2494  0.3268
    62IDT   C4236394   4.031   1.000  15.823  0.1330 -0.2939 -0.4396
    72IDQ   C4336395   3.885   0.830  15.704  0.7993 -0.0887 -0.2981
    72IDQ   C4436396   3.804   1.079  15.684  0.2960  0.1157  1.0305
    62IDT    S536397   4.276   1.018  15.920 -0.2498  0.0051  0.4983
    62IDT   C4536398   4.133   1.022  16.032 -0.6812 -0.3040 -0.0323
    62IDT   C4636399   4.014   1.012  15.965 -0.4165 -0.4327 -0.4892
    82BTZ   C4736400   4.154   1.053  16.180  0.3072  0.1744  0.2132
    82BTZ   C4836401   4.251   1.143  16.216  0.2701  0.1656  0.3357
    82BTZ   C4936402   4.280   1.172  16.354  0.2315  0.0173  0.3757
    82BTZ   C5036403   4.212   1.111  16.456  0.2299 -0.1220  0.2925
    82BTZ   C5136404   4.080   0.987  16.283  0.3070  0.0318  0.1216
    82BTZ   C5236405   4.109   1.016  16.424  0.2676 -0.1189  0.1626
    92RH    C5336406   4.209   1.140  16.606 -0.2331  0.0428  0.4012
    82BTZ    N436407   3.983   0.898  16.261  0.3409  0.0253  0.0000
    82BTZ    N536408   4.036   0.951  16.514  0.2699 -0.2467  0.0730
    82BTZ    S636409   3.924   0.847  16.422  0.3235 -0.1781 -0.0704
    92RH    C5436410   4.269   1.241  16.670 -0.0942  0.0758  0.2208
    92RH     S736411   4.327   1.399  16.596  0.1540 -0.1489 -0.0686
    92RH    C5536412   4.298   1.240  16.816 -0.1214  0.3078  0.2275
    92RH     O236413   4.271   1.148  16.894 -0.2730  0.4955  0.3982
    92RH     N636414   4.361   1.360  16.856  0.0489  0.2914  0.0123
    92RH    C5636415   4.387   1.456  16.761  0.2095  0.0745 -0.1655
    92RH    C5736416   4.392   1.375  16.998  0.3910 -0.4203  0.0461
    92RH    C5836417   4.317   1.469  17.085 -0.1313 -0.1864  0.6472
    92RH     S836418   4.460   1.606  16.783  0.4286  0.0077 -0.4358
    72IDQ   C5936419   3.829   1.229  15.689 -0.7432  0.0693  0.0953
    72IDQ   C6036420   3.718   1.329  15.735 -0.0303  0.2175 -0.9581
    72IDQ   C6136421   3.661   1.288  15.874 -0.1785  0.0595  0.8336
    72IDQ   C6236422   3.545   1.367  15.928  0.5991 -0.8482  0.6038
    72IDQ   C6336423   3.404   1.346  15.869  0.0249  0.2050 -0.3808
    72IDQ   C6436424   3.292   1.448  15.893  0.1306 -1.1679  0.0663
    72IDQ   C6536425   3.169   1.396  15.831  0.2772  0.0307  0.1732
    72IDQ   C6636426   3.754   0.779  15.658  0.8070  0.2122 -0.4854
    72IDQ   C6736427   3.764   0.664  15.570 -0.1617  0.2046  1.0981
    72IDQ   C6836428   3.630   0.598  15.514 -0.3811  1.2201 -0.3578
    72IDQ   C6936429   3.516   0.551  15.599  1.0805  0.3260  0.1725
    72IDQ   C7036430   3.540   0.473  15.728  0.4708  0.2722 -0.2546
    72IDQ   C7136431   3.624   0.352  15.704 -0.2059  0.3690 -0.1963
    72IDQ   C7236432   3.617   0.232  15.802 -0.4015 -0.2038 -0.4335
    11RH     C136433   6.996   4.695  14.981  0.0203  0.3916 -0.4613
    11RH     C236434   7.130   4.725  15.038  0.0855  0.0972 -0.4556
    11RH     N136435   7.005   4.668  14.842 -0.0039  0.1860 -0.4243
    11RH     S136436   7.257   4.716  14.906  0.1109 -0.4314 -0.4009
    11RH     C336437   7.128   4.673  14.782  0.0341 -0.2376 -0.3889
    11RH     C436438   6.875   4.636  14.768 -0.5818 -0.1655  0.2600
    11RH     S236439   7.165   4.646  14.619  0.0169 -0.5541 -0.3412
    11RH     O136440   6.889   4.692  15.044 -0.0106  0.7721 -0.4945
    11RH     C536441   7.150   4.753  15.167  0.1190  0.2121 -0.4857
    21BTZ    C636442   7.270   4.769  15.248 -0.1347 -0.1472  0.1011
    21BTZ    C736443   7.399   4.758  15.201 -0.1444 -0.3825  0.1278
    21BTZ    C836444   7.249   4.806  15.384 -0.0957 -0.0383  0.0772
    21BTZ    C936445   7.512   4.783  15.286 -0.1162 -0.5218  0.1321
    21BTZ   C1036446   7.497   4.819  15.418 -0.0789 -0.4256  0.1099
    21BTZ   C1136447   7.365   4.832  15.471 -0.0674 -0.1799  0.0818
    21BTZ    N236448   7.129   4.820  15.441 -0.0830  0.1891  0.0510
    21BTZ    N336449   7.338   4.866  15.597 -0.0316 -0.0663  0.0587
    21BTZ    S336450   7.159   4.868  15.611 -0.0328  0.2330  0.0302
    31IDT   C1236451   7.621   4.838  15.491 -0.0910  0.7505 -0.3030
    31IDT   C1336452   7.661   4.931  15.582  0.0491  0.3637  0.0360
    31IDT   C1436453   7.803   4.932  15.604 -0.0027 -0.3012  0.4606
    31IDT   C1536454   7.871   4.839  15.528 -0.1823 -0.4254  0.4492
    31IDT    S436455   7.761   4.743  15.424 -0.3007  0.2966 -0.1065
    4IDB    C1636456   8.014   4.854  15.547 -0.4663  0.2493  0.4428
    4IDB    C1736457   8.033   4.964  15.635 -0.1644 -0.4232  1.2465
    51IDQ   C1836458   7.900   5.013  15.694  0.2530  0.5502  0.3222
    4IDB    C1936459   8.161   5.010  15.665 -0.0686 -0.3784  0.7872
    51IDQ   C2036460   7.923   4.961  15.847  0.3681 -0.0497  1.2660
    51IDQ   C2136461   7.858   5.162  15.690 -0.0808 -0.1295 -0.5134
    51IDQ   C2236462   7.930   5.280  15.616  0.6959 -0.8635 -0.0591
    51IDQ   C2336463   7.846   4.829  15.893 -0.3390 -0.0408 -0.4145
    51IDQ   C2436464   7.879   5.327  15.477 -0.1443 -0.7388 -0.5414
    51IDQ   C2536465   7.735   5.382  15.459  1.3808  0.5702  0.1999
    51IDQ   C2636466   7.670   5.405  15.315  1.5878 -0.0524  0.8633
    51IDQ   C2736467   7.711   5.323  15.198  0.2208  0.5786 -0.2506
    51IDQ   C2836468   7.738   5.374  15.052 -0.2096  0.2745 -0.0320
    51IDQ   C2936469   7.886   5.414  15.026  0.6946  0.1388  0.0324
    51IDQ   C3036470   7.911   4.797  16.021 -0.1423  0.0308  0.2955
    51IDQ   C3136471   7.822   4.723  16.132 -0.2224 -0.7257 -0.4797
    51IDQ   C3236472   7.885   4.725  16.268  0.4527  1.1796 -0.7927
    51IDQ   C3336473   7.792   4.622  16.345 -0.7018 -0.5679  0.6650
    51IDQ   C3436474   7.836   4.606  16.491  0.0892  0.1365  0.2397
    51IDQ   C3536475   7.765   4.497  16.562  0.3331  0.7721  0.7620
    4IDB    C3636476   8.123   4.788  15.488 -0.6755  0.9748 -0.8328
    4IDB    C3736477   8.253   4.836  15.520 -0.5736  1.0093 -1.2856
    11RH    C3836478   6.841   4.490  14.783  1.2390  0.0595  0.4634
    4IDB    C3936479   8.270   4.944  15.606 -0.2778  0.3470 -0.4884
    62IDT   C4036480   8.414   4.965  15.622  0.2981 -0.1025  0.0761
    72IDQ   C4136481   8.387   4.778  15.477  0.0192  0.7089  0.1592
    62IDT   C4236482   8.486   4.877  15.543  0.5057  0.4135 -0.3169
    72IDQ   C4336483   8.403   4.780  15.320 -0.2112 -0.5054 -0.3827
    72IDQ   C4436484   8.403   4.627  15.536 -0.7171 -0.3170 -0.2655
    62IDT    S536485   8.519   5.085  15.704 -0.0287  0.0777  0.2371
    62IDT   C4536486   8.663   5.007  15.623  0.1409  0.8803 -0.2601
    62IDT   C4636487   8.627   4.901  15.544  0.4171  0.9700 -0.5076
    82BTZ   C4736488   8.795   5.051  15.649 -0.1645 -0.0513  0.4223
    82BTZ   C4836489   8.805   5.181  15.690 -0.2116  0.0390  0.1519
    82BTZ   C4936490   8.932   5.242  15.721 -0.2166  0.2035 -0.1426
    82BTZ   C5036491   9.050   5.172  15.711 -0.1743  0.2774 -0.1665
    82BTZ   C5136492   8.915   4.974  15.637 -0.1190  0.0207  0.4094
    82BTZ   C5236493   9.044   5.035  15.668 -0.1240  0.1879  0.1101
    92RH    C5336494   9.186   5.221  15.742  0.4768 -0.3068  0.2783
    82BTZ    N436495   8.918   4.846  15.597 -0.0710 -0.0546  0.6564
    82BTZ    N536496   9.152   4.956  15.654 -0.0800  0.2468  0.1166
    82BTZ    S636497   9.090   4.797  15.599 -0.0292  0.0876  0.5139
    92RH    C5436498   9.232   5.339  15.782  0.2346 -0.1609  0.1316
    92RH     S736499   9.133   5.491  15.815 -0.0496 -0.2535 -0.2782
    92RH    C5536500   9.376   5.367  15.807  0.1581  0.1070  0.2854
    92RH     O236501   9.468   5.285  15.793  0.3057  0.2265  0.5622
    92RH     N636502   9.396   5.500  15.848 -0.1091  0.2152  0.0759
    92RH    C5636503   9.287   5.583  15.860 -0.2559  0.0665 -0.2267
    92RH    C5736504   9.536   5.529  15.879  1.5798 -0.6248 -0.0584
    92RH    C5836505   9.611   5.559  15.752  0.1679 -0.3366 -0.1769
    92RH     S836506   9.284   5.745  15.907 -0.5758  0.1487 -0.5200
    72IDQ   C5936507   8.538   4.562  15.569  0.7287 -0.3886  0.1408
    72IDQ   C6036508   8.520   4.415  15.570  0.4053  0.1429  0.3036
    72IDQ   C6136509   8.528   4.354  15.713  1.0451  0.2897  0.3877
    72IDQ   C6236510   8.662   4.361  15.792 -0.4308 -0.0966 -0.1196
    72IDQ   C6336511   8.707   4.218  15.828  0.5118 -0.7252  0.3649
    72IDQ   C6436512   8.617   4.142  15.931 -0.7125  0.6164  0.0005
    72IDQ   C6536513   8.698   4.008  15.964  1.0247 -0.7254  0.2466
    72IDQ   C6636514   8.498   4.703  15.239 -1.2200  0.1113 -0.5335
    72IDQ   C6736515   8.653   4.735  15.234  0.3935  0.2847 -0.4536
    72IDQ   C6836516   8.744   4.628  15.176  0.7469  0.0482  0.8363
    72IDQ   C6936517   8.777   4.504  15.273 -0.3494 -0.7873  0.7413
    72IDQ   C7036518   8.842   4.544  15.401 -0.3723  0.9451  0.3912
    72IDQ   C7136519   8.928   4.422  15.440  0.1276  0.2447 -1.3425
    72IDQ   C7236520   9.039   4.454  15.539  0.1098 -0.8010 -0.7422
    11RH     C136521   3.500   0.724  24.680  0.0916 -0.3434 -0.2885
    11RH     C236522   3.599   0.617  24.704  0.2427 -0.1453 -0.0172
    11RH     N136523   3.551   0.825  24.597  0.0971 -0.2728 -0.2007
    11RH     S136524   3.755   0.656  24.615  0.3821  0.1209  0.3373
    11RH     C336525   3.681   0.812  24.550  0.2341 -0.0423  0.1087
    11RH     C436526   3.468   0.944  24.545  0.3249  1.8116 -0.8437
    11RH     S236527   3.765   0.918  24.450  0.2711  0.0856  0.2737
    11RH     O136528   3.385   0.727  24.727 -0.0266 -0.5471 -0.5627
    11RH     C536529   3.576   0.509  24.780  0.2685 -0.1651 -0.0366
    21BTZ    C636530   3.665   0.406  24.830  0.3381  0.2491  0.1297
    21BTZ    C736531   3.800   0.394  24.809  0.3874  0.3225  0.3963
    21BTZ    C836532   3.600   0.309  24.913  0.2106  0.1673 -0.0639
    21BTZ    C936533   3.877   0.287  24.869  0.3141  0.3194  0.4859
    21BTZ   C1036534   3.819   0.193  24.949  0.1918  0.2428  0.3087
    21BTZ   C1136535   3.678   0.201  24.974  0.1361  0.1641  0.0272
    21BTZ    N236536   3.469   0.310  24.941  0.1524  0.0914 -0.3285
    21BTZ    N336537   3.610   0.115  25.050  0.0180  0.0856 -0.1640
    21BTZ    S336538   3.440   0.170  25.048 -0.0034  0.0109 -0.4755
    31IDT   C1236539   3.916   0.113  25.031  0.0151  0.0902  0.0352
    31IDT   C1336540   3.889   0.057  25.153  0.3522 -0.2544 -0.0424
    31IDT   C1436541   4.005   0.005  25.218  0.5804 -0.1623 -0.3757
    31IDT   C1536542   4.122   0.020  25.145  0.4191  0.2522 -0.5536
    31IDT    S436543   4.092   0.103  24.988 -0.0384  0.5608 -0.3107
    4IDB    C1636544   4.236  -0.013  25.227 -0.5837 -0.4521 -0.1288
    4IDB    C1736545   4.192  -0.051  25.357 -0.4359  0.5710  0.2384
    51IDQ   C1836546   4.041  -0.059  25.354  0.2363  0.3821 -0.6402
    4IDB    C1936547   4.283  -0.072  25.460 -0.2327  0.4221  0.0297
    51IDQ   C2036548   3.994  -0.212  25.369 -0.2458 -0.0276 -0.1440
    51IDQ   C2136549   3.950   0.023  25.462 -0.1147 -1.4560  1.1113
    51IDQ   C2236550   4.004   0.136  25.557 -0.5523 -0.4087  0.5469
    51IDQ   C2336551   3.871  -0.276  25.283 -0.5749 -0.1856 -0.3996
    51IDQ   C2436552   3.909   0.251  25.551 -0.4361  0.1428 -0.4802
    51IDQ   C2536553   3.903   0.357  25.659  0.2119 -0.2702 -0.4828
    51IDQ   C2636554   3.865   0.314  25.799 -0.2739  0.2955  0.6884
    51IDQ   C2736555   3.712   0.323  25.813 -0.3862  0.1097  0.4730
    51IDQ   C2836556   3.645   0.269  25.933  0.6011 -0.0983 -0.5728
    51IDQ   C2936557   3.492   0.299  25.930 -0.0458  0.3674  0.0677
    51IDQ   C3036558   3.903  -0.310  25.141  0.9930 -0.2984  0.7393
    51IDQ   C3136559   3.782  -0.376  25.085  0.0995  0.2531 -0.1860
    51IDQ   C3236560   3.798  -0.446  24.956 -1.0493 -0.9436  1.6430
    51IDQ   C3336561   3.882  -0.573  24.947 -0.0366 -0.3170  0.5926
    51IDQ   C3436562   3.877  -0.643  24.802  0.3484 -0.1714 -0.8746
    51IDQ   C3536563   3.743  -0.693  24.756 -0.2110  0.4704  0.8742
    4IDB    C3636564   4.372   0.005  25.198 -0.5287 -1.6377 -0.7114
    4IDB    C3736565   4.464  -0.017  25.305 -0.3202 -1.7725 -0.9179
    11RH    C3836566   3.408   0.923  24.407  0.1570  0.3806  0.0796
    4IDB    C3936567   4.419  -0.055  25.432 -0.1777 -0.7635 -0.5529
    62IDT   C4036568   4.530  -0.053  25.526 -0.4710 -0.8095 -0.3299
    72IDQ   C4136569   4.614  -0.020  25.305 -1.2562  0.1166  0.1864
    62IDT   C4236570   4.644  -0.022  25.454 -0.4498 -0.4549 -0.1488
    72IDQ   C4336571   4.681   0.103  25.234 -0.4300  0.0785  0.3561
    72IDQ   C4436572   4.669  -0.155  25.258 -1.0662 -0.7559  1.1868
    62IDT    S536573   4.566  -0.074  25.701 -0.7530 -0.2817 -0.2069
    62IDT   C4536574   4.740  -0.037  25.666 -0.8311  0.4252  0.0979
    62IDT   C4636575   4.762  -0.013  25.533 -0.6533  0.2435  0.0930
    82BTZ   C4736576   4.841  -0.023  25.777 -0.1843  0.0065  0.2142
    82BTZ   C4836577   4.794  -0.068  25.898 -0.2050  0.0876  0.2365
    82BTZ   C4936578   4.876  -0.066  26.017 -0.1906  0.0709  0.2270
    82BTZ   C5036579   5.005  -0.019  26.014 -0.1557 -0.0269  0.1955
    82BTZ   C5136580   4.975   0.026  25.770 -0.1478 -0.0974  0.1807
    82BTZ   C5236581   5.058   0.028  25.890 -0.1333 -0.1144  0.1712
    92RH    C5336582   5.094  -0.003  26.132  0.1209 -0.0089  0.4113
    82BTZ    N436583   5.032   0.072  25.658 -0.1253 -0.1827  0.1569
    82BTZ    N536584   5.182   0.076  25.875 -0.0991 -0.2133  0.1397
    82BTZ    S636585   5.198   0.121  25.703 -0.0835 -0.2905  0.1211
    92RH    C5436586   5.072  -0.015  26.263  0.0261 -0.0965  0.3881
    92RH     S736587   4.909  -0.028  26.347 -0.0354 -0.1294  0.2644
    92RH    C5536588   5.181  -0.021  26.364 -0.0458 -0.1829  0.4611
    92RH     O236589   5.302  -0.015  26.340 -0.0273 -0.1847  0.5512
    92RH     N636590   5.129  -0.034  26.495 -0.1403 -0.2655  0.4159
    92RH    C5636591   4.993  -0.040  26.511 -0.1529 -0.2557  0.3152
    92RH    C5736592   5.219  -0.051  26.616  0.4814  0.1503  0.9360
    92RH    C5836593   5.273  -0.194  26.633 -0.4371 -0.7727 -0.1093
    92RH     S836594   4.906  -0.055  26.655 -0.2575 -0.3420  0.2441
    72IDQ   C5936595   4.596  -0.281  25.284  0.4014 -1.2153 -0.1223
    72IDQ   C6036596   4.655  -0.401  25.204  0.8171  0.1696  0.2957
    72IDQ   C6136597   4.598  -0.536  25.203  0.6123  0.1451  0.0581
    72IDQ   C6236598   4.447  -0.565  25.176 -0.8492  0.0588  0.2274
    72IDQ   C6336599   4.408  -0.719  25.152 -0.2883  0.2531 -0.1835
    72IDQ   C6436600   4.284  -0.715  25.068 -0.6554 -0.5207  0.8129
    72IDQ   C6536601   4.197  -0.828  25.122  0.5907  0.0393 -0.3625
    72IDQ   C6636602   4.823   0.115  25.188  0.5557 -0.7495  0.2857
    72IDQ   C6736603   4.872   0.249  25.141  0.6172 -0.2100 -0.7440
    72IDQ   C6836604   5.023   0.267  25.151  0.2281  0.0118  1.2593
    72IDQ   C6936605   5.062   0.412  25.120 -0.5247 -0.5462 -0.3011
    72IDQ   C7036606   5.212   0.422  25.119  0.5971 -1.0176  0.5431
    72IDQ   C7136607   5.265   0.561  25.151  0.2176 -0.1738  0.4944
    72IDQ   C7236608   5.261   0.661  25.039 -0.8459  0.0892 -0.7298
    11RH     C136609   2.212   4.757  21.419  0.1004 -0.4587 -0.2408
    11RH     C236610   2.155   4.842  21.311 -0.0150 -0.3767 -0.1159
    11RH     N136611   2.138   4.639  21.436 -0.0929 -0.3080 -0.0139
    11RH     S136612   2.008   4.760  21.239 -0.3700 -0.1068  0.2901
    11RH     C336613   2.028   4.618  21.355 -0.3489 -0.1154  0.2761
    11RH     C436614   2.183   4.561  21.553 -0.2746  0.1812 -1.0070
    11RH     S236615   1.924   4.485  21.355 -0.6142  0.0901  0.5846
    11RH     O136616   2.312   4.785  21.488  0.3358 -0.6366 -0.5088
    11RH     C536617   2.207   4.960  21.275  0.1256 -0.4882 -0.2827
    21BTZ    C636618   2.166   5.053  21.178  0.1965 -0.2926 -0.2453
    21BTZ    C736619   2.063   5.032  21.089  0.0761 -0.2420 -0.1197
    21BTZ    C836620   2.224   5.184  21.185  0.0820 -0.2483 -0.1187
    21BTZ    C936621   2.013   5.137  21.004 -0.1612 -0.1459  0.1349
    21BTZ   C1036622   2.066   5.263  21.008 -0.2778 -0.1007  0.2633
    21BTZ   C1136623   2.173   5.291  21.099 -0.1593 -0.1507  0.1397
    21BTZ    N236624   2.324   5.218  21.267  0.1807 -0.2904 -0.2217
    21BTZ    N336625   2.232   5.410  21.111 -0.2543 -0.1142  0.2446
    21BTZ    S336626   2.358   5.391  21.237 -0.0348 -0.2049  0.0128
    31IDT   C1236627   1.994   5.366  20.928  0.0053 -0.1153  0.3350
    31IDT   C1336628   1.989   5.501  20.948  0.9364 -0.0474  0.1969
    31IDT   C1436629   1.889   5.566  20.868  1.4010  0.5690  0.0997
    31IDT   C1536630   1.818   5.480  20.787  0.8286  0.9739  0.1623
    31IDT    S436631   1.872   5.309  20.806 -0.3541  0.6027  0.3508
    4IDB    C1636632   1.706   5.551  20.727 -0.2207 -0.2663  0.1790
    4IDB    C1736633   1.709   5.686  20.772 -0.1469 -0.3500  0.4311
    51IDQ   C1836634   1.833   5.710  20.861  1.3148 -0.1983  0.5802
    4IDB    C1936635   1.609   5.776  20.736  0.1438 -0.1085  0.2112
    51IDQ   C2036636   1.922   5.837  20.798 -1.2199  0.3158  0.0911
    51IDQ   C2136637   1.793   5.749  21.010 -0.4169  0.7294 -0.8064
    51IDQ   C2236638   1.652   5.731  21.061 -0.6440  0.5129  0.0068
    51IDQ   C2336639   2.071   5.824  20.745 -0.1648  0.8575  0.1113
    51IDQ   C2436640   1.619   5.805  21.194 -0.0224 -0.2846 -0.4458
    51IDQ   C2536641   1.485   5.788  21.261 -0.1049  1.4671  0.0508
    51IDQ   C2636642   1.494   5.829  21.407 -0.0751  0.3694  0.3712
    51IDQ   C2736643   1.365   5.831  21.484 -0.6158 -0.5573 -0.3870
    51IDQ   C2836644   1.379   5.855  21.642 -0.1875 -0.0731  0.5710
    51IDQ   C2936645   1.246   5.903  21.691  0.1897 -0.0884  0.7559
    51IDQ   C3036646   2.159   5.757  20.845 -0.3275  0.4455 -0.5976
    51IDQ   C3136647   2.305   5.751  20.817  0.8054 -1.0270 -0.4693
    51IDQ   C3236648   2.406   5.697  20.923 -0.3506 -0.3529  0.8006
    51IDQ   C3336649   2.546   5.635  20.871 -0.3825  0.4813 -0.8318
    51IDQ   C3436650   2.546   5.563  20.734 -1.4828  0.3464  0.1198
    51IDQ   C3536651   2.492   5.417  20.720 -0.7409 -0.6601  0.1592
    4IDB    C3636652   1.602   5.504  20.646 -0.0025  0.0616 -0.2975
    4IDB    C3736653   1.500   5.596  20.610  0.2935  0.3052 -0.5164
    11RH    C3836654   2.263   4.428  21.531  0.1025 -0.1816 -0.0294
    4IDB    C3936655   1.505   5.728  20.655  0.3620  0.2196 -0.2660
    62IDT   C4036656   1.393   5.796  20.600 -0.0714 -0.2722  0.6563
    72IDQ   C4136657   1.373   5.570  20.523  0.3229  0.2546  0.2835
    62IDT   C4236658   1.317   5.711  20.522  0.0079 -0.3407  0.6528
    72IDQ   C4336659   1.285   5.461  20.590 -0.4620  1.1199  0.1172
    72IDQ   C4436660   1.418   5.505  20.388 -0.0773 -0.5546  0.2929
    62IDT    S536661   1.335   5.966  20.591  0.0416 -0.2503  0.3134
    62IDT   C4536662   1.204   5.910  20.477  0.1977 -0.3392  0.1773
    62IDT   C4636663   1.210   5.776  20.453  0.1601 -0.3786  0.3819
    82BTZ   C4736664   1.119   6.027  20.429  0.0175  0.2844 -0.3385
    82BTZ   C4836665   1.158   6.155  20.457 -0.2035  0.2939 -0.0648
    82BTZ   C4936666   1.075   6.269  20.427 -0.5205  0.2010  0.4301
    82BTZ   C5036667   0.952   6.254  20.368 -0.6159  0.0987  0.6509
    82BTZ   C5136668   0.991   6.006  20.367 -0.0710  0.1791 -0.1225
    82BTZ   C5236669   0.906   6.122  20.336 -0.3931  0.0846  0.3800
    92RH    C5336670   0.871   6.362  20.328 -0.2856  0.2533 -0.3671
    82BTZ    N436671   0.942   5.887  20.335  0.1232  0.1595 -0.3519
    82BTZ    N536672   0.789   6.095  20.279 -0.4579 -0.0106  0.5555
    82BTZ    S636673   0.781   5.917  20.261 -0.1024  0.0167  0.0744
    92RH    C5436674   0.881   6.493  20.351 -0.0559  0.2009 -0.1621
    92RH     S736675   1.014   6.579  20.444  0.0850 -0.1788 -0.0102
    92RH    C5536676   0.782   6.592  20.303  0.1249  0.4518 -0.0196
    92RH     O236677   0.680   6.567  20.237  0.0864  0.7347 -0.0739
    92RH     N636678   0.817   6.724  20.343  0.3524  0.3303  0.1884
    92RH    C5636679   0.932   6.741  20.416  0.3759  0.0125  0.2322
    92RH    C5736680   0.755   6.842  20.275 -0.0112 -0.3238 -0.4741
    92RH    C5836681   0.604   6.877  20.306 -0.5175  0.5619 -0.4827
    92RH     S836682   0.996   6.886  20.474  0.6253 -0.1901  0.4659
    72IDQ   C5936683   1.540   5.564  20.302  0.5141  0.6314  0.0120
    72IDQ   C6036684   1.487   5.672  20.197 -0.8136  0.4339  0.2638
    72IDQ   C6136685   1.596   5.749  20.131  0.1564 -0.0438  0.7216
    72IDQ   C6236686   1.684   5.828  20.224  0.5422 -0.5235 -0.0357
    72IDQ   C6336687   1.632   5.969  20.256 -0.5166 -0.2264 -0.4603
    72IDQ   C6436688   1.734   6.028  20.345  0.6875 -0.9825 -0.2627
    72IDQ   C6536689   1.676   6.143  20.411  1.1272  0.3986  0.5252
    72IDQ   C6636690   1.132   5.464  20.577 -0.1043  0.1201 -0.1991
    72IDQ   C6736691   1.074   5.474  20.431 -0.1644  0.0744  0.1725
    72IDQ   C6836692   0.923   5.478  20.403  0.1514 -0.8454 -0.1902
    72IDQ   C6936693   0.856   5.344  20.428  1.0830  0.1378 -0.4817
    72IDQ   C7036694   0.722   5.360  20.502  0.0320 -0.2635 -1.0120
    72IDQ   C7136695   0.722   5.388  20.656 -0.4721  0.2472  0.0837
    72IDQ   C7236696   0.764   5.268  20.747 -0.5075  0.0657 -0.7453
    11RH     C136697   3.130   4.626  12.973  0.0212  0.4048  0.2182
    11RH     C236698   3.266   4.588  13.020  0.0845  0.2940 -0.0486
    11RH     N136699   3.045   4.514  12.968 -0.1374  0.5068  0.5670
    11RH     S136700   3.272   4.408  13.055 -0.0684  0.3310  0.1772
    11RH     C336701   3.095   4.391  13.005 -0.2087  0.4913  0.6125
    11RH     C436702   2.891   4.523  12.927 -0.0123 -0.8353  0.0597
    11RH     S236703   3.014   4.243  13.008 -0.3949  0.5972  0.9971
    11RH     O136704   3.094   4.740  12.942  0.0952  0.4101  0.1512
    11RH     C536705   3.366   4.676  13.034  0.2318  0.1849 -0.3982
    21BTZ    C636706   3.508   4.664  13.077 -0.3699  0.4282  0.6183
    21BTZ    C736707   3.567   4.542  13.098 -0.4876  0.3959  0.7625
    21BTZ    C836708   3.585   4.782  13.101 -0.1279  0.3800  0.0968
    21BTZ    C936709   3.703   4.530  13.143 -0.3741  0.3151  0.4046
    21BTZ   C1036710   3.781   4.641  13.167 -0.1433  0.2668 -0.0974
    21BTZ   C1136711   3.724   4.771  13.147 -0.0127  0.2978 -0.2670
    21BTZ    N236712   3.539   4.907  13.084  0.0051  0.4047 -0.0896
    21BTZ    N336713   3.790   4.885  13.166  0.2130  0.2564 -0.7460
    21BTZ    S336714   3.674   5.016  13.126  0.2892  0.3221 -0.7519
    31IDT   C1236715   3.921   4.609  13.193 -0.3624 -0.1906  0.3042
    31IDT   C1336716   4.018   4.703  13.217 -0.6456  0.2594 -0.2594
    31IDT   C1436717   4.150   4.652  13.204 -0.4807  0.7607 -0.6058
    31IDT   C1536718   4.156   4.519  13.169 -0.0715  0.6965 -0.3104
    31IDT    S436719   3.992   4.447  13.150  0.1382 -0.0106  0.4374
    4IDB    C1636720   4.295   4.471  13.168  0.1152  0.0346  0.1164
    4IDB    C1736721   4.372   4.588  13.195  0.3573 -0.1962  0.4456
    51IDQ   C1836722   4.290   4.717  13.205 -0.4556  0.3936  0.0246
    4IDB    C1936723   4.510   4.582  13.210  0.3442 -0.5222  0.4321
    51IDQ   C2036724   4.326   4.810  13.324  1.0548 -0.6393  0.2861
    51IDQ   C2136725   4.288   4.807  13.073 -0.0734 -0.6270  0.3161
    51IDQ   C2236726   4.340   4.761  12.937 -0.1132 -0.0412 -0.9538
    51IDQ   C2336727   4.242   4.806  13.455  0.4211 -0.1991 -0.4355
    51IDQ   C2436728   4.367   4.877  12.851 -0.6995 -0.9424  0.4479
    51IDQ   C2536729   4.447   4.846  12.730 -0.9118 -0.0740  0.7723
    51IDQ   C2636730   4.466   4.965  12.643 -0.3331 -0.9780  0.3086
    51IDQ   C2736731   4.538   4.938  12.507 -0.4942  0.4757 -0.9198
    51IDQ   C2836732   4.584   5.070  12.467 -0.2305 -0.3886 -0.5554
    51IDQ   C2936733   4.698   5.061  12.366 -0.6243 -0.8755 -0.6672
    51IDQ   C3036734   4.303   4.910  13.555 -0.3720 -1.0083 -0.4870
    51IDQ   C3136735   4.234   4.915  13.695  0.6194  0.2108 -0.3897
    51IDQ   C3236736   4.225   4.785  13.773 -0.4143 -0.1617 -1.0570
    51IDQ   C3336737   4.160   4.806  13.907  0.1979 -0.4582  0.1958
    51IDQ   C3436738   4.149   4.658  13.969  0.0831  0.3484 -0.1132
    51IDQ   C3536739   4.081   4.638  14.108  0.2792 -0.6200 -0.8133
    4IDB    C3636740   4.357   4.346  13.155 -0.1432 -0.0596 -0.2298
    4IDB    C3736741   4.498   4.341  13.170 -0.1527 -0.3935 -0.2382
    11RH    C3836742   2.781   4.535  13.041  0.2430  0.8819 -0.4758
    4IDB    C3936743   4.572   4.456  13.197  0.0858 -0.6163  0.0859
    62IDT   C4036744   4.710   4.421  13.189  0.2094 -0.2068 -0.3918
    72IDQ   C4136745   4.594   4.218  13.143  0.7333 -0.9600 -0.0606
    62IDT   C4236746   4.731   4.286  13.166  0.4609 -0.2877  0.2632
    72IDQ   C4336747   4.585   4.155  13.006 -0.1341  0.4413 -0.3939
    72IDQ   C4436748   4.582   4.098  13.250 -0.4960 -0.3861  0.7444
    62IDT    S536749   4.864   4.508  13.221 -0.0084  0.1255 -0.2370
    62IDT   C4536750   4.952   4.350  13.201  0.2652  0.1380  0.7530
    62IDT   C4636751   4.868   4.246  13.172  0.4927 -0.0930  0.9115
    82BTZ   C4736752   5.099   4.346  13.195  0.4528 -0.1197  0.6325
    82BTZ   C4836753   5.162   4.442  13.271  0.7297 -0.0777  0.3507
    82BTZ   C4936754   5.305   4.454  13.272  0.7392 -0.1025 -0.1500
    82BTZ   C5036755   5.386   4.372  13.198  0.4718 -0.1694 -0.3681
    82BTZ   C5136756   5.178   4.257  13.116  0.1665 -0.1900  0.4206
    82BTZ   C5236757   5.324   4.270  13.117  0.1763 -0.2153 -0.0882
    92RH    C5336758   5.535   4.385  13.195  0.4906 -0.2802  0.0057
    82BTZ    N436759   5.128   4.160  13.039 -0.1173 -0.2358  0.6580
    82BTZ    N536760   5.392   4.184  13.041 -0.0998 -0.2813 -0.2599
    82BTZ    S636761   5.269   4.080  12.963 -0.3901 -0.3147  0.2319
    92RH    C5436762   5.620   4.476  13.243  0.2528 -0.0980  0.0854
    92RH     S736763   5.578   4.624  13.344 -0.1690 -0.1114 -0.0686
    92RH    C5536764   5.767   4.470  13.223  0.2979  0.1506  0.3202
    92RH     O236765   5.828   4.383  13.159  0.5554  0.2187  0.4678
    92RH     N636766   5.833   4.579  13.285  0.0070  0.3059  0.3590
    92RH    C5636767   5.756   4.671  13.353 -0.2656  0.2121  0.1838
    92RH    C5736768   5.981   4.593  13.270 -1.4717 -0.0392  0.4343
    92RH    C5836769   6.066   4.510  13.373 -1.0514 -1.0832  0.3566
    92RH     S836770   5.809   4.808  13.436 -0.6391  0.3574  0.1855
    72IDQ   C5936771   4.475   3.990  13.229  0.1405 -1.0548  0.7087
    72IDQ   C6036772   4.420   3.949  13.361 -0.6580  0.0123  1.0241
    72IDQ   C6136773   4.298   3.864  13.331  0.0175  0.3168  1.0514
    72IDQ   C6236774   4.242   3.781  13.447  0.5776  0.3832  0.7078
    72IDQ   C6336775   4.142   3.668  13.415  0.6778 -0.1523  0.1704
    72IDQ   C6436776   4.023   3.696  13.320  0.2019  0.3262 -0.8911
    72IDQ   C6536777   3.933   3.795  13.355 -0.4676  0.0677  0.2863
    72IDQ   C6636778   4.518   4.225  12.894  0.0205  0.6272  0.2802
    72IDQ   C6736779   4.535   4.145  12.754 -0.6099 -0.6819  0.1760
    72IDQ   C6836780   4.550   4.235  12.630  0.1146  0.4206 -1.1523
    72IDQ   C6936781   4.426   4.320  12.596 -0.0363  0.3650  0.8572
    72IDQ   C7036782   4.446   4.402  12.469 -0.2620 -0.2407 -0.2027
    72IDQ   C7136783   4.310   4.449  12.423 -0.2373 -1.1091 -0.9314
    72IDQ   C7236784   4.249   4.365  12.311  0.1626 -0.0755  0.0111
    11RH     C136785   2.404   3.194  21.345  0.1108 -0.1286  0.0820
    11RH     C236786   2.361   3.278  21.459  0.3328  0.0187  0.0596
    11RH     N136787   2.308   3.192  21.242  0.0466 -0.0127  0.1401
    11RH     S136788   2.196   3.350  21.423  0.4426  0.2999  0.1156
    11RH     C336789   2.193   3.265  21.259  0.1899  0.2093  0.1664
    11RH     C436790   2.335   3.104  21.128 -0.3225  0.4128  0.2705
    11RH     S236791   2.063   3.281  21.152  0.1535  0.3839  0.2346
    11RH     O136792   2.511   3.131  21.339 -0.0073 -0.3286  0.0553
    11RH     C536793   2.434   3.296  21.569  0.4321 -0.0498  0.0051
    21BTZ    C636794   2.414   3.355  21.700 -0.4450 -0.3738 -0.1243
    21BTZ    C736795   2.301   3.424  21.738 -0.3944 -0.2909 -0.1240
    21BTZ    C836796   2.514   3.328  21.798 -0.2952 -0.1233 -0.2060
    21BTZ    C936797   2.282   3.468  21.874 -0.1954  0.0398 -0.2027
    21BTZ   C1036798   2.375   3.445  21.971 -0.0473  0.2873 -0.2818
    21BTZ   C1136799   2.495   3.373  21.936 -0.0929  0.2128 -0.2856
    21BTZ    N236800   2.628   3.262  21.773 -0.3261 -0.1736 -0.2146
    21BTZ    N336801   2.593   3.344  22.022  0.0386  0.4328 -0.3586
    21BTZ    S336802   2.717   3.255  21.929 -0.0934  0.2147 -0.3282
    31IDT   C1236803   2.359   3.506  22.100  0.5639  0.0040 -0.5246
    31IDT   C1336804   2.397   3.465  22.225  0.6001 -0.0120 -0.5407
    31IDT   C1436805   2.352   3.553  22.328  0.3209 -0.2176 -0.4845
    31IDT   C1536806   2.279   3.661  22.283  0.0706 -0.3593 -0.4258
    31IDT    S436807   2.262   3.660  22.104  0.1700 -0.2422 -0.4366
    4IDB    C1636808   2.221   3.744  22.390  0.2317  0.2870 -0.2423
    4IDB    C1736809   2.254   3.689  22.518  0.1641  0.3545 -0.1955
    51IDQ   C1836810   2.355   3.572  22.482  0.7897  0.8577 -1.0207
    4IDB    C1936811   2.196   3.739  22.634 -0.0866  0.2509 -0.2751
    51IDQ   C2036812   2.482   3.637  22.543  0.6301  0.1796  0.7197
    51IDQ   C2136813   2.318   3.431  22.559 -0.4921 -0.1148  0.9001
    51IDQ   C2236814   2.194   3.412  22.646  0.0925  1.6344 -0.1038
    51IDQ   C2336815   2.595   3.720  22.471 -0.5823  0.4644 -0.1036
    51IDQ   C2436816   2.060   3.366  22.576 -0.4033 -1.1097  0.8950
    51IDQ   C2536817   2.057   3.224  22.527  0.4690  0.1719 -0.4670
    51IDQ   C2636818   2.071   3.111  22.631  0.3910 -0.2299 -0.3206
    51IDQ   C2736819   1.936   3.080  22.696 -0.7523 -0.6615 -0.0818
    51IDQ   C2836820   1.845   3.003  22.603  0.1516 -0.6650 -0.4560
    51IDQ   C2936821   1.692   3.014  22.651 -0.2999 -0.1373 -0.0623
    51IDQ   C3036822   2.641   3.823  22.559 -0.8352 -0.3424  0.6107
    51IDQ   C3136823   2.735   3.932  22.495 -0.4344  0.9929  0.0257
    51IDQ   C3236824   2.749   4.037  22.593 -0.1797 -0.5381  0.1168
    51IDQ   C3336825   2.870   4.123  22.567  0.0289 -0.2428  0.6725
    51IDQ   C3436826   2.859   4.247  22.648 -0.6386 -0.3615 -0.9151
    51IDQ   C3536827   2.980   4.335  22.646 -0.6922 -1.1966 -0.9517
    4IDB    C3636828   2.130   3.850  22.377  0.0477  0.1145 -0.3695
    4IDB    C3736829   2.072   3.900  22.497 -0.2075  0.0107 -0.4487
    11RH    C3836830   2.427   3.175  21.030  0.4314  0.3347  0.8300
    4IDB    C3936831   2.104   3.845  22.621 -0.2705  0.0785 -0.4021
    62IDT   C4036832   2.031   3.916  22.719  0.7815  0.1502  0.4195
    72IDQ   C4136833   1.967   4.013  22.514  0.8124  0.1718 -0.3042
    62IDT   C4236834   1.953   4.016  22.665  1.1813  0.3297  0.1640
    72IDQ   C4336835   1.826   4.000  22.437 -0.4822  0.1335  0.6959
    72IDQ   C4436836   2.032   4.155  22.483 -0.2515 -0.2331  1.0295
    62IDT    S536837   2.018   3.908  22.898 -0.2304 -0.1712  0.3416
    62IDT   C4536838   1.902   4.048  22.891 -0.0509 -0.0393 -0.0511
    62IDT   C4636839   1.880   4.091  22.762  0.7113  0.2228 -0.1016
    82BTZ   C4736840   1.864   4.106  23.016 -0.1212  0.3937  0.3025
    82BTZ   C4836841   1.957   4.111  23.117 -0.2419  0.3921  0.4148
    82BTZ   C4936842   1.925   4.165  23.247 -0.3833  0.4410  0.3610
    82BTZ   C5036843   1.800   4.213  23.277 -0.4038  0.4912  0.1937
    82BTZ   C5136844   1.731   4.156  23.043 -0.1371  0.4455  0.1259
    82BTZ   C5236845   1.699   4.210  23.175 -0.2809  0.4951  0.0706
    92RH    C5336846   1.767   4.285  23.400 -0.3055 -0.1244  0.3556
    82BTZ    N436847   1.632   4.156  22.953 -0.0278  0.4522  0.0048
    82BTZ    N536848   1.574   4.254  23.192 -0.2871  0.5418 -0.0949
    82BTZ    S636849   1.491   4.227  23.036 -0.1057  0.5238 -0.1891
    92RH    C5436850   1.832   4.321  23.511 -0.0424 -0.0169  0.1678
    92RH     S736851   2.009   4.294  23.548 -0.0372 -0.3180 -0.0660
    92RH    C5536852   1.767   4.392  23.624  0.2961  0.3761  0.1211
    92RH     O236853   1.647   4.425  23.629  0.3753  0.6474  0.2465
    92RH     N636854   1.859   4.419  23.728  0.5255  0.4088 -0.0880
    92RH    C5636855   1.989   4.378  23.712  0.4120  0.0900 -0.2146
    92RH    C5736856   1.816   4.512  23.837  0.1961  0.1847 -0.0067
    92RH    C5836857   1.754   4.441  23.954  0.4891  0.1025 -0.1679
    92RH     S836858   2.117   4.397  23.819  0.6323  0.0530 -0.4673
    72IDQ   C5936859   2.069   4.196  22.335  0.4776  0.4666 -0.1530
    72IDQ   C6036860   2.083   4.345  22.352  0.6775 -0.8280  0.3141
    72IDQ   C6136861   2.164   4.420  22.246 -0.3001  0.4099 -0.0180
    72IDQ   C6236862   2.316   4.405  22.263  1.3282 -0.5136  0.3929
    72IDQ   C6336863   2.382   4.514  22.185  0.1465 -0.1853  0.8770
    72IDQ   C6436864   2.522   4.549  22.221  0.6543 -0.3901 -0.6654
    72IDQ   C6536865   2.583   4.535  22.360  0.4716  0.6075 -0.8669
    72IDQ   C6636866   1.721   3.899  22.465 -0.2402 -0.2937 -0.7022
    72IDQ   C6736867   1.752   3.751  22.481 -0.1879  1.1720  0.0532
    72IDQ   C6836868   1.614   3.688  22.499  0.1310  0.5719  0.1408
    72IDQ   C6936869   1.618   3.544  22.552 -0.1752 -0.4099  0.2990
    72IDQ   C7036870   1.478   3.480  22.540  0.7204  0.1297 -0.4721
    72IDQ   C7136871   1.362   3.565  22.605  0.5285 -0.0164  0.0505
    72IDQ   C7236872   1.215   3.512  22.585 -0.0622 -0.0217  0.1103
    11RH     C136873   0.669   2.979  23.352 -0.1217  0.0983  0.3080
    11RH     C236874   0.691   3.117  23.302 -0.0627  0.0117  0.0901
    11RH     N136875   0.740   2.884  23.275 -0.0013 -0.0350  0.5811
    11RH     S136876   0.805   3.113  23.158  0.1471 -0.2396  0.2601
    11RH     C336877   0.817   2.929  23.170  0.1468 -0.2179  0.6099
    11RH     C436878   0.718   2.737  23.299 -0.7670  0.3624 -0.7660
    11RH     S236879   0.910   2.838  23.064  0.3095 -0.4025  0.9103
    11RH     O136880   0.597   2.948  23.448 -0.2586  0.2663  0.2608
    11RH     C536881   0.635   3.225  23.357 -0.1529  0.1073 -0.1860
    21BTZ    C636882   0.645   3.371  23.331  0.1469 -0.1143 -0.1735
    21BTZ    C736883   0.723   3.430  23.235  0.3097 -0.0909 -0.0286
    21BTZ    C836884   0.559   3.455  23.410  0.1840 -0.1034 -0.1440
    21BTZ    C936885   0.721   3.572  23.211  0.5158 -0.0560  0.1512
    21BTZ   C1036886   0.640   3.656  23.284  0.5588 -0.0443  0.1854
    21BTZ   C1136887   0.557   3.599  23.386  0.3935 -0.0678  0.0381
    21BTZ    N236888   0.479   3.410  23.507  0.0382 -0.1236 -0.2737
    21BTZ    N336889   0.474   3.671  23.463  0.4161 -0.0595  0.0548
    21BTZ    S336890   0.395   3.553  23.572  0.1652 -0.0976 -0.1662
    31IDT   C1236891   0.659   3.798  23.261  0.1209 -0.3253  0.7647
    31IDT   C1336892   0.777   3.867  23.265  0.1434 -0.3374  0.3233
    31IDT   C1436893   0.759   4.008  23.248  0.1580 -0.3946 -0.2294
    31IDT   C1536894   0.627   4.047  23.233  0.1467 -0.4261 -0.2139
    31IDT    S436895   0.515   3.907  23.237  0.1165 -0.3860  0.5090
    4IDB    C1636896   0.627   4.190  23.221 -0.2592 -0.0742  0.5232
    4IDB    C1736897   0.759   4.244  23.234 -0.2963 -0.0141  0.6495
    51IDQ   C1836898   0.845   4.127  23.277 -0.8055 -0.7553  0.2634
    4IDB    C1936899   0.782   4.380  23.219 -0.3005 -0.0415  0.3799
    51IDQ   C2036900   0.966   4.141  23.187 -1.0464  0.0341  0.1497
    51IDQ   C2136901   0.894   4.126  23.426 -0.1437 -0.4538  0.6684
    51IDQ   C2236902   0.872   4.251  23.514 -0.4130  0.3344  0.0357
    51IDQ   C2336903   1.000   4.044  23.078  0.1591  0.2115  0.3444
    51IDQ   C2436904   0.900   4.238  23.669  0.3925  0.0445  0.1767
    51IDQ   C2536905   1.039   4.220  23.728 -0.5624  0.3659  0.6520
    51IDQ   C2636906   1.144   4.310  23.662 -0.3630  0.5915 -0.1332
    51IDQ   C2736907   1.283   4.260  23.711  0.1652  0.4624  0.1854
    51IDQ   C2836908   1.375   4.206  23.607 -0.0313  0.1954  0.1926
    51IDQ   C2936909   1.330   4.132  23.472 -0.0721  0.3788 -0.2686
    51IDQ   C3036910   1.110   4.063  22.979 -0.7316  0.2781 -0.2602
    51IDQ   C3136911   1.107   3.946  22.882  0.3304  0.4047 -0.2907
    51IDQ   C3236912   1.000   3.921  22.779  1.6631 -1.3754 -0.0219
    51IDQ   C3336913   0.959   4.044  22.701  1.2573 -0.5558 -0.7525
    51IDQ   C3436914   1.049   4.117  22.602 -0.2854  0.1722 -0.7364
    51IDQ   C3536915   0.988   4.207  22.502  0.8250 -0.2217 -0.3123
    4IDB    C3636916   0.517   4.273  23.192 -0.2258 -0.1625  0.1240
    4IDB    C3736917   0.543   4.412  23.178 -0.2306 -0.1892 -0.1478
    11RH    C3836918   0.621   2.664  23.211 -0.0456 -0.7429  0.0749
    4IDB    C3936919   0.672   4.463  23.191 -0.2671 -0.1297 -0.0192
    62IDT   C4036920   0.672   4.601  23.160 -0.3050 -0.4800 -0.0915
    72IDQ   C4136921   0.447   4.528  23.140  0.5602  0.2192  0.4240
    62IDT   C4236922   0.545   4.641  23.122 -0.2290 -0.5839 -0.4687
    72IDQ   C4336923   0.332   4.571  23.245 -0.0743  0.4195  0.1076
    72IDQ   C4436924   0.373   4.484  22.997  0.6723 -0.5164  0.0248
    62IDT    S536925   0.788   4.738  23.160 -0.3814 -0.4152  0.0946
    62IDT   C4536926   0.653   4.848  23.107 -0.3029 -0.5379 -0.3693
    62IDT   C4636927   0.535   4.781  23.093 -0.2277 -0.6167 -0.6261
    82BTZ   C4736928   0.688   4.995  23.093  0.6295  0.3848  0.1157
    82BTZ   C4836929   0.812   5.034  23.136  0.6387  0.4901 -0.0033
    82BTZ   C4936930   0.856   5.171  23.126  0.5128  0.5283 -0.0458
    82BTZ   C5036931   0.777   5.269  23.072  0.3779  0.4611  0.0302
    82BTZ   C5136932   0.601   5.094  23.036  0.4906  0.3113  0.1993
    82BTZ   C5236933   0.646   5.233  23.025  0.3626  0.3501  0.1559
    92RH    C5336934   0.807   5.409  23.064 -0.0181  0.0088 -0.1176
    82BTZ    N436935   0.478   5.069  22.990  0.4679  0.2068  0.3166
    82BTZ    N536936   0.560   5.319  22.971  0.2371  0.2769  0.2389
    82BTZ    S636937   0.414   5.225  22.931  0.2779  0.1527  0.3790
    92RH    C5436938   0.908   5.484  23.110 -0.0025 -0.1093  0.0448
    92RH     S736939   1.058   5.425  23.198 -0.1790 -0.2920  0.2233
    92RH    C5536940   0.914   5.632  23.094  0.1664 -0.1091  0.1059
    92RH     O236941   0.828   5.702  23.038  0.3106 -0.0021  0.0162
    92RH     N636942   1.032   5.685  23.151  0.1445 -0.2481  0.2830
    92RH    C5636943   1.121   5.598  23.210 -0.0212 -0.3595  0.3705
    92RH    C5736944   1.069   5.826  23.148 -0.0475  0.1009 -0.5204
    92RH    C5836945   1.113   5.886  23.022 -0.4637 -0.4744 -0.1638
    92RH     S836946   1.267   5.636  23.285 -0.0822 -0.5339  0.5798
    72IDQ   C5936947   0.252   4.565  22.945  0.7110  0.2076  0.7233
    72IDQ   C6036948   0.212   4.547  22.788 -0.2230 -1.4293 -0.7684
    72IDQ   C6136949   0.185   4.402  22.755  0.4544 -0.6254  0.6094
    72IDQ   C6236950   0.139   4.372  22.619  0.8497 -0.1185  0.4157
    72IDQ   C6336951   0.130   4.216  22.585 -0.3124 -0.5689 -0.2495
    72IDQ   C6436952   0.062   4.155  22.468  0.6056  0.0790 -0.2054
    72IDQ   C6536953  -0.087   4.174  22.465  0.5440 -0.1756 -1.2393
    72IDQ   C6636954   0.293   4.486  23.364  0.3446 -0.8954  0.0479
    72IDQ   C6736955   0.207   4.360  23.328  0.3549 -0.5379  1.3361
    72IDQ   C6836956   0.110   4.328  23.433  0.4206 -0.0456  0.5243
    72IDQ   C6936957   0.032   4.208  23.379  0.6725  0.1375 -0.0844
    72IDQ   C7036958  -0.067   4.239  23.273 -0.8100  0.6519  0.3660
    72IDQ   C7136959  -0.123   4.116  23.212  0.5143 -0.5956 -0.2538
    72IDQ   C7236960  -0.199   4.147  23.079 -0.3328 -0.0552 -0.8698
    11RH     C136961   4.594   0.246  18.779  0.0682 -0.2346 -0.2952
    11RH     C236962   4.594   0.304  18.643 -0.0626  0.0685 -0.1702
    11RH     N136963   4.725   0.227  18.828  0.1142 -0.2961 -0.4438
    11RH     S136964   4.767   0.328  18.587 -0.1164  0.2528 -0.2559
    11RH     C336965   4.831   0.262  18.747  0.0364 -0.0794 -0.4525
    11RH     C436966   4.752   0.186  18.965  1.6785 -0.2634 -0.8491
    11RH     S236967   4.995   0.249  18.780  0.0679 -0.0962 -0.6132
    11RH     O136968   4.493   0.218  18.845  0.1314 -0.4160 -0.2756
    11RH     C536969   4.483   0.332  18.574 -0.1280  0.1819 -0.0194
    21BTZ    C636970   4.456   0.385  18.445  0.2202 -0.2216  0.3389
    21BTZ    C736971   4.552   0.397  18.348  0.3735 -0.3568  0.4716
    21BTZ    C836972   4.318   0.387  18.406  0.2784 -0.1575  0.1321
    21BTZ    C936973   4.517   0.412  18.208  0.5904 -0.4352  0.4082
    21BTZ   C1036974   4.387   0.415  18.167  0.6537 -0.3784  0.2119
    21BTZ   C1136975   4.283   0.402  18.265  0.4988 -0.2372  0.0672
    21BTZ    N236976   4.216   0.376  18.492  0.1432 -0.0266 -0.0110
    21BTZ    N336977   4.152   0.404  18.237  0.5410 -0.1705 -0.1278
    21BTZ    S336978   4.067   0.385  18.393  0.2951  0.0007 -0.2394
    31IDT   C1236979   4.359   0.455  18.021  0.0264 -0.1436 -0.2199
    31IDT   C1336980   4.256   0.427  17.934 -0.2874  0.6025 -0.1040
    31IDT   C1436981   4.280   0.474  17.802 -0.5494  1.3121  0.0949
    31IDT   C1536982   4.401   0.539  17.786 -0.4374  1.1123  0.1310
    31IDT    S436983   4.495   0.544  17.939  0.0130 -0.0003 -0.0851
    4IDB    C1636984   4.423   0.584  17.654  0.1383 -0.5658  0.0228
    4IDB    C1736985   4.319   0.526  17.575 -0.0117 -0.3136  0.0339
    51IDQ   C1836986   4.210   0.469  17.668 -0.2838  0.7408  0.4286
    4IDB    C1936987   4.314   0.547  17.438 -0.2506  0.0934  0.0990
    51IDQ   C2036988   4.087   0.560  17.639  0.3753 -0.2990 -0.3572
    51IDQ   C2136989   4.171   0.323  17.634 -0.6045  0.8863  1.0626
    51IDQ   C2236990   4.250   0.228  17.532  0.2569 -0.3509 -0.1690
    51IDQ   C2336991   4.014   0.631  17.751  0.1417 -0.4020 -0.6432
    51IDQ   C2436992   4.177   0.103  17.493 -0.9018  0.4649  0.2811
    51IDQ   C2536993   4.271   0.012  17.406  0.1135 -0.5721  0.4685
    51IDQ   C2636994   4.295   0.056  17.265 -0.2125 -0.3739  0.7841
    51IDQ   C2736995   4.363  -0.051  17.177  0.0302  0.0020 -0.1115
    51IDQ   C2836996   4.380  -0.014  17.033  0.8209  0.6197  0.2519
    51IDQ   C2936997   4.425  -0.128  16.940 -1.0052 -0.2527 -0.3441
    51IDQ   C3036998   3.913   0.748  17.704  0.5944 -0.0488  0.5040
    51IDQ   C3136999   3.765   0.739  17.734 -0.1525  0.7605 -0.3377
    51IDQ   C3237000   3.676   0.851  17.718  0.5482 -1.3835  0.2582
    51IDQ   C3337001   3.533   0.809  17.736 -0.9362 -0.7772 -1.1207
    51IDQ   C3437002   3.435   0.931  17.758  0.7934  0.5963 -0.2368
    51IDQ   C3537003   3.352   0.963  17.638 -0.3070 -0.2185  0.0936
    4IDB    C3637004   4.524   0.663  17.595  0.0495 -0.4112  0.0763
    4IDB    C3737005   4.517   0.682  17.455 -0.1950  0.0054  0.1421
    11RH    C3837006   4.753   0.299  19.069 -0.5022 -0.2463 -0.3552
    4IDB    C3937007   4.415   0.625  17.379 -0.3394  0.2480  0.1533
    62IDT   C4037008   4.430   0.655  17.239  0.0988 -0.6030 -0.0375
    72IDQ   C4137009   4.610   0.752  17.358 -0.0663 -0.2129  0.1624
    62IDT   C4237010   4.537   0.741  17.226  0.0519 -0.5527 -0.0920
    72IDQ   C4337011   4.748   0.669  17.354  0.0971 -0.5699 -0.7693
    72IDQ   C4437012   4.618   0.912  17.388  0.0337 -0.7279  0.8954
    62IDT    S537013   4.348   0.626  17.082 -0.1878 -0.3592  0.0663
    62IDT   C4537014   4.468   0.737  17.003 -0.3646 -0.1941  0.0277
    62IDT   C4637015   4.559   0.788  17.093 -0.2104 -0.3215 -0.0558
    82BTZ   C4737016   4.461   0.760  16.851  0.4600 -0.0130  0.0134
    82BTZ   C4837017   4.404   0.658  16.780  0.7689 -0.1729 -0.0114
    82BTZ   C4937018   4.386   0.666  16.637  0.9048 -0.2684 -0.0343
    82BTZ   C5037019   4.426   0.777  16.566  0.7312 -0.2039 -0.0320
    82BTZ   C5137020   4.505   0.877  16.781  0.2685  0.0600  0.0167
    82BTZ   C5237021   4.486   0.886  16.636  0.4064 -0.0371 -0.0067
    92RH    C5337022   4.414   0.796  16.420 -0.0410 -0.2010  0.2094
    82BTZ    N437023   4.562   0.983  16.840 -0.0354  0.2144  0.0401
    82BTZ    N537024   4.529   0.998  16.578  0.2135  0.0393 -0.0024
    82BTZ    S637025   4.596   1.100  16.709 -0.1605  0.2429  0.0331
    92RH    C5437026   4.368   0.713  16.324  0.0625 -0.1346  0.1020
    92RH     S737027   4.295   0.547  16.349  0.1381 -0.1989 -0.1030
    92RH    C5537028   4.371   0.746  16.180  0.1338  0.0061  0.1345
    92RH     O237029   4.415   0.851  16.130  0.1067  0.0779  0.2618
    92RH     N637030   4.317   0.641  16.102  0.2385  0.0508  0.0005
    92RH    C5637031   4.271   0.529  16.167  0.2601 -0.0369 -0.1354
    92RH    C5737032   4.314   0.646  15.953  0.4495 -0.4331  0.1032
    92RH    C5837033   4.437   0.603  15.883  0.6152  0.2511 -0.9493
    92RH     S837034   4.203   0.391  16.098  0.3775 -0.0089 -0.3104
    72IDQ   C5937035   4.736   0.967  17.468 -0.7112  0.6435  0.1083
    72IDQ   C6037036   4.773   0.941  17.610  0.4348  0.3034  0.3836
    72IDQ   C6137037   4.648   0.963  17.694  0.4969 -0.1910 -0.2405
    72IDQ   C6237038   4.655   0.926  17.843  0.6502 -0.1410  0.9355
    72IDQ   C6337039   4.526   0.980  17.907 -0.4362 -0.0383 -0.0339
    72IDQ   C6437040   4.445   0.876  17.985  0.4142  0.7891  0.2372
    72IDQ   C6537041   4.345   0.945  18.076 -0.5486  1.1487 -0.5429
    72IDQ   C6637042   4.860   0.708  17.250  0.0826 -0.4942  0.1176
    72IDQ   C6737043   4.991   0.630  17.264 -0.8733 -0.2276  0.5412
    72IDQ   C6837044   5.088   0.656  17.385  0.1650 -1.0168 -0.3195
    72IDQ   C6937045   5.193   0.551  17.394 -0.4883 -0.4053  0.9137
    72IDQ   C7037046   5.154   0.417  17.457 -0.6671  0.3788  0.1090
    72IDQ   C7137047   5.156   0.407  17.603  0.0756  0.2830 -0.5023
    72IDQ   C7237048   5.182   0.271  17.651 -0.2495 -0.1847 -0.4594
    11RH     C137049   6.137   6.726  24.113  0.0961  0.0068 -0.0963
    11RH     C237050   6.259   6.654  24.157  0.0010 -0.0582  0.0610
    11RH     N137051   6.126   6.852  24.175  0.0611 -0.0046 -0.0794
    11RH     S137052   6.351   6.757  24.277 -0.1279 -0.1300  0.2215
    11RH     C337053   6.224   6.890  24.264 -0.0502 -0.0706  0.0730
    11RH     C437054   6.019   6.948  24.135  0.1490 -0.5850  0.2230
    11RH     S237055   6.235   7.034  24.351 -0.1128 -0.0979  0.1254
    11RH     O137056   6.053   6.683  24.031  0.1945  0.0645 -0.2284
    11RH     C537057   6.292   6.532  24.113  0.0115 -0.0619  0.0795
    21BTZ    C637058   6.412   6.448  24.125 -0.2669 -0.2590  0.2693
    21BTZ    C737059   6.521   6.501  24.189 -0.2925 -0.3244  0.3667
    21BTZ    C837060   6.432   6.339  24.034 -0.2289 -0.1571  0.1526
    21BTZ    C937061   6.654   6.449  24.168 -0.2820 -0.2935  0.3552
    21BTZ   C1037062   6.678   6.344  24.082 -0.2462 -0.1969  0.2460
    21BTZ   C1137063   6.567   6.286  24.013 -0.2183 -0.1258  0.1411
    21BTZ    N237064   6.334   6.279  23.966 -0.2015 -0.0865  0.0515
    21BTZ    N337065   6.577   6.184  23.927 -0.1823 -0.0299  0.0310
    21BTZ    S337066   6.411   6.150  23.869 -0.1599  0.0256 -0.0657
    31IDT   C1237067   6.817   6.312  24.067 -0.1936 -0.0042  0.4146
    31IDT   C1337068   6.927   6.380  24.112 -0.2146 -0.0935  0.5999
    31IDT   C1437069   7.050   6.311  24.086 -0.1838  0.0759  0.2975
    31IDT   C1537070   7.035   6.191  24.020 -0.1389  0.2951 -0.1186
    31IDT    S437071   6.862   6.155  23.986 -0.1322  0.3039 -0.1604
    4IDB    C1637072   7.164   6.130  23.997  0.0912  0.6141  0.4248
    4IDB    C1737073   7.267   6.206  24.061  0.3452  0.2451  0.4568
    51IDQ   C1837074   7.200   6.334  24.107 -1.0023  0.1406  0.1725
    4IDB    C1937075   7.395   6.154  24.075  0.3673  0.0935 -0.2150
    51IDQ   C2037076   7.244   6.364  24.256  0.5146 -1.2459  0.1116
    51IDQ   C2137077   7.242   6.474  24.037  0.5526 -0.4522 -0.7613
    51IDQ   C2237078   7.334   6.485  23.921 -0.3153  0.2760 -0.4562
    51IDQ   C2337079   7.165   6.337  24.382  0.0910  0.1013 -0.3346
    51IDQ   C2437080   7.302   6.584  23.817  0.5152 -0.1352  0.1092
    51IDQ   C2537081   7.163   6.604  23.771 -0.0632 -0.0597 -0.2011
    51IDQ   C2637082   7.124   6.728  23.687 -0.8606  0.4636 -0.0423
    51IDQ   C2737083   7.134   6.853  23.774 -0.4479 -1.3018  0.4951
    51IDQ   C2837084   7.078   6.982  23.700  0.2823 -0.4800 -0.4095
    51IDQ   C2937085   7.120   7.113  23.768  0.1374  0.1337  0.0519
    51IDQ   C3037086   7.151   6.192  24.437 -0.0702 -0.3843 -0.5255
    51IDQ   C3137087   7.051   6.186  24.556  0.2780 -0.2172  0.2083
    51IDQ   C3237088   6.911   6.166  24.491  0.1105  0.3381  0.4770
    51IDQ   C3337089   6.784   6.218  24.563 -0.3335  0.7319  1.1351
    51IDQ   C3437090   6.662   6.194  24.480  1.4644  0.4460 -0.7349
    51IDQ   C3537091   6.530   6.245  24.550 -0.1427  0.2919 -0.1221
    4IDB    C3637092   7.189   6.001  23.947 -0.1436  0.8349 -0.2851
    4IDB    C3737093   7.320   5.950  23.963 -0.1171  0.6756 -0.9656
    11RH    C3837094   6.031   7.044  24.017 -0.5631  0.9633  0.0369
    4IDB    C3937095   7.420   6.025  24.025  0.1326  0.3145 -0.9245
    62IDT   C4037096   7.536   5.944  24.032 -0.2489  0.3092 -0.2538
    72IDQ   C4137097   7.378   5.811  23.926  0.2226 -0.2700  0.4965
    62IDT   C4237098   7.515   5.817  23.982 -0.5698  0.5214 -0.6700
    72IDQ   C4337099   7.377   5.790  23.766 -0.8540  0.0783 -0.7176
    72IDQ   C4437100   7.316   5.684  24.000 -1.0836  0.1474  0.2068
    62IDT    S537101   7.710   5.976  24.064 -0.1841 -0.2948  0.0259
    62IDT   C4537102   7.747   5.808  24.005 -0.6154 -0.2249 -0.4576
    62IDT   C4637103   7.634   5.740  23.966 -0.7774  0.2199 -0.7858
    82BTZ   C4737104   7.892   5.771  24.003  0.3319 -0.0294 -0.0469
    82BTZ   C4837105   7.984   5.872  24.005  0.3794 -0.0781  0.3920
    82BTZ   C4937106   8.123   5.849  24.036  0.2634 -0.1853  0.8440
    82BTZ   C5037107   8.169   5.723  24.065  0.1001 -0.2437  0.8569
    82BTZ   C5137108   7.936   5.638  24.033  0.1622 -0.0873 -0.0525
    82BTZ   C5237109   8.077   5.613  24.064  0.0443 -0.1961  0.4067
    92RH    C5337110   8.312   5.691  24.060 -0.0019 -0.2209  0.1719
    82BTZ    N437111   7.856   5.531  24.034  0.1011 -0.0488 -0.4563
    82BTZ    N537112   8.111   5.487  24.090 -0.1116 -0.2452  0.3729
    82BTZ    S637113   7.960   5.391  24.076 -0.1142 -0.1520 -0.2624
    92RH    C5437114   8.422   5.761  24.032 -0.0833 -0.1370  0.0620
    92RH     S737115   8.429   5.933  23.967 -0.2785 -0.1011  0.1342
    92RH    C5537116   8.560   5.709  24.051 -0.0253 -0.0576 -0.1421
    92RH     O237117   8.589   5.596  24.093  0.1030 -0.0592 -0.2337
    92RH     N637118   8.657   5.805  24.013 -0.1352  0.0225 -0.2228
    92RH    C5637119   8.614   5.927  23.967 -0.2741  0.0168 -0.1092
    92RH    C5737120   8.802   5.766  24.014 -0.2625 -0.2334  0.2525
    92RH    C5837121   8.881   5.808  24.137  0.9246  0.2856  0.9635
    92RH     S837122   8.708   6.058  23.917 -0.4234  0.1016 -0.1702
    72IDQ   C5937123   7.176   5.621  23.964  0.0117  0.3380  0.5135
    72IDQ   C6037124   7.061   5.720  23.959 -1.1013 -0.3526  0.0050
    72IDQ   C6137125   6.952   5.685  23.865 -0.3675  1.7228 -0.3246
    72IDQ   C6237126   6.813   5.732  23.889 -1.2925 -1.0862 -0.6994
    72IDQ   C6337127   6.697   5.661  23.840 -0.5430  0.8146 -0.8594
    72IDQ   C6437128   6.556   5.711  23.887 -0.6632 -0.5187  0.2463
    72IDQ   C6537129   6.524   5.733  24.031 -0.5556  0.6299 -0.1302
    72IDQ   C6637130   7.414   5.916  23.680 -0.1189 -0.3887  0.3792
    72IDQ   C6737131   7.488   5.903  23.549 -0.7677 -0.2844  0.4327
    72IDQ   C6837132   7.433   5.839  23.430  1.4080  0.7112 -0.2145
    72IDQ   C6937133   7.522   5.788  23.320 -0.6886 -0.1862 -0.0068
    72IDQ   C7037134   7.440   5.770  23.195 -0.1647 -0.0932 -0.9798
    72IDQ   C7137135   7.497   5.670  23.094 -1.2348 -0.1710  0.0864
    72IDQ   C7237136   7.398   5.667  22.977  0.1302  0.2623 -0.1377
    11RH     C137137   6.461   1.989  19.510 -0.2607 -0.2211 -0.0734
    11RH     C237138   6.371   1.955  19.623 -0.1147 -0.0105  0.1059
    11RH     N137139   6.493   2.126  19.509  0.0282 -0.2880 -0.1615
    11RH     S137140   6.336   2.105  19.721  0.3931  0.0857  0.1485
    11RH     C337141   6.440   2.206  19.608  0.3880 -0.1569 -0.0739
    11RH     C437142   6.569   2.187  19.397 -0.7421 -0.2449  0.0863
    11RH     S237143   6.463   2.372  19.629  0.7796 -0.1989 -0.1483
    11RH     O137144   6.503   1.909  19.425 -0.5931 -0.3285 -0.1416
    11RH     C537145   6.326   1.831  19.647 -0.3303  0.0889  0.2177
    21BTZ    C637146   6.248   1.776  19.760 -0.1744  0.2111 -0.2605
    21BTZ    C737147   6.217   1.841  19.876 -0.1707  0.2649 -0.2890
    21BTZ    C837148   6.195   1.644  19.739  0.0744  0.0785 -0.0639
    21BTZ    C937149   6.134   1.780  19.977  0.0759  0.1917 -0.1283
    21BTZ   C1037150   6.081   1.655  19.962  0.3184  0.0648  0.0623
    21BTZ   C1137151   6.110   1.583  19.842  0.3250  0.0041  0.0997
    21BTZ    N237152   6.218   1.571  19.629  0.0964  0.0154 -0.0172
    21BTZ    N337153   6.065   1.460  19.815  0.5486 -0.1189  0.2780
    21BTZ    S337154   6.130   1.417  19.654  0.4459 -0.1452  0.2435
    31IDT   C1237155   6.003   1.596  20.072  0.1013 -0.3597  0.0728
    31IDT   C1337156   5.925   1.483  20.070 -0.0246 -0.2908  0.6781
    31IDT   C1437157   5.875   1.448  20.199  0.0343  0.3876  0.8965
    31IDT   C1537158   5.916   1.532  20.300  0.2052  0.8393  0.4609
    31IDT    S437159   6.020   1.665  20.239  0.3055  0.4367 -0.2679
    4IDB    C1637160   5.869   1.487  20.423 -0.0113  0.3975 -0.0256
    4IDB    C1737161   5.797   1.366  20.400  0.3698  0.1160  0.2146
    51IDQ   C1837162   5.771   1.349  20.243  0.9360  0.5282 -0.8833
    4IDB    C1937163   5.748   1.290  20.505  0.7438  0.0867  0.3703
    51IDQ   C2037164   5.798   1.191  20.212 -0.3760  0.0108  0.1208
    51IDQ   C2137165   5.619   1.361  20.187 -0.2599 -1.4221  0.6926
    51IDQ   C2237166   5.509   1.353  20.288  0.0373  0.9296 -0.6177
    51IDQ   C2337167   5.910   1.142  20.120 -0.0826  1.2689 -0.4175
    51IDQ   C2437168   5.353   1.365  20.236 -0.2728  0.8555  0.6512
    51IDQ   C2537169   5.266   1.381  20.363 -0.1341  0.1108 -0.1196
    51IDQ   C2637170   5.117   1.396  20.332  0.0884 -0.6802  0.5682
    51IDQ   C2737171   5.013   1.284  20.314 -0.6890 -0.0314  0.0704
    51IDQ   C2837172   4.997   1.219  20.172 -0.2586  0.8754  0.2279
    51IDQ   C2937173   4.922   1.089  20.188 -0.0737  0.1170  0.3939
    51IDQ   C3037174   5.934   0.996  20.118 -0.5273  0.1320  0.8026
    51IDQ   C3137175   6.045   0.968  20.008  0.4406 -0.3800  0.6871
    51IDQ   C3237176   6.054   0.815  19.960  0.5086 -1.1498 -0.2907
    51IDQ   C3337177   6.183   0.781  19.899 -1.2252  0.3825  0.5473
    51IDQ   C3437178   6.177   0.635  19.840 -0.0192 -0.0095 -0.0396
    51IDQ   C3537179   6.289   0.618  19.730  0.3933  1.2092 -0.4400
    4IDB    C3637180   5.893   1.532  20.554 -0.0209  0.6529 -0.1121
    4IDB    C3737181   5.843   1.453  20.661  0.3642  0.6186  0.0496
    11RH    C3837182   6.721   2.133  19.381  0.6365  0.1574  1.5837
    4IDB    C3937183   5.772   1.336  20.636  0.7341  0.3420  0.2842
    62IDT   C4037184   5.730   1.271  20.759 -0.4323  0.1261  0.1949
    72IDQ   C4137185   5.858   1.467  20.810 -0.3940 -0.5898  0.1168
    62IDT   C4237186   5.769   1.351  20.864 -0.5249 -0.0570  0.3705
    72IDQ   C4337187   5.786   1.599  20.851 -0.2494  0.1228  0.3381
    72IDQ   C4437188   6.012   1.477  20.843  0.5147  0.3961 -0.0020
    62IDT    S537189   5.624   1.136  20.813 -0.1897 -0.1768 -0.0820
    62IDT   C4537190   5.639   1.198  20.983 -0.2283 -0.5533  0.0613
    62IDT   C4637191   5.717   1.310  20.991 -0.4096 -0.4413  0.2947
    82BTZ   C4737192   5.595   1.123  21.100 -0.4000  0.3134 -0.4735
    82BTZ   C4837193   5.577   0.988  21.082 -0.2755  0.2831 -0.3691
    82BTZ   C4937194   5.522   0.905  21.186  0.0806  0.2594 -0.1931
    82BTZ   C5037195   5.483   0.956  21.307  0.3118  0.2660 -0.1225
    82BTZ   C5137196   5.557   1.181  21.225 -0.1678  0.3215 -0.4053
    82BTZ   C5237197   5.500   1.097  21.330  0.1942  0.2974 -0.2265
    92RH    C5337198   5.403   0.885  21.403 -0.2477  0.1159 -0.3972
    82BTZ    N437199   5.569   1.311  21.254 -0.2584  0.3502 -0.4940
    82BTZ    N537200   5.466   1.158  21.444  0.3945  0.3068 -0.1712
    82BTZ    S637201   5.507   1.331  21.420  0.1234  0.3476 -0.3504
    92RH    C5437202   5.349   0.762  21.406 -0.1328  0.0706 -0.1211
    92RH     S737203   5.399   0.618  21.304 -0.0172 -0.1052  0.1825
    92RH    C5537204   5.237   0.724  21.495 -0.0808  0.1594 -0.0176
    92RH     O237205   5.181   0.800  21.576 -0.1358  0.2837 -0.1702
    92RH     N637206   5.200   0.589  21.477  0.0417  0.0849  0.2820
    92RH    C5637207   5.269   0.514  21.385  0.0945 -0.0528  0.4320
    92RH    C5737208   5.081   0.532  21.541  0.3905  0.9404  0.1558
    92RH    C5837209   4.947   0.544  21.468 -1.5714 -0.0367 -0.0546
    92RH     S837210   5.245   0.352  21.345  0.2382 -0.1640  0.7873
    72IDQ   C5937211   6.085   1.441  20.971 -0.3175 -0.0470 -0.6612
    72IDQ   C6037212   6.241   1.409  20.961  1.1180 -0.5718 -0.9076
    72IDQ   C6137213   6.329   1.504  20.876 -0.4124 -0.2164  0.5214
    72IDQ   C6237214   6.359   1.633  20.949  0.4721  0.1898 -0.5467
    72IDQ   C6337215   6.476   1.715  20.917 -1.1460  1.0678  0.6487
    72IDQ   C6437216   6.468   1.867  20.945 -0.0968  0.4216 -0.8343
    72IDQ   C6537217   6.383   1.944  20.855  0.5482 -0.6121  0.3154
    72IDQ   C6637218   5.840   1.741  20.834  0.1031 -0.1679 -0.2397
    72IDQ   C6737219   5.840   1.811  20.970  0.8640 -0.3072  0.1418
    72IDQ   C6837220   5.929   1.934  20.998 -0.6579 -0.8189 -0.2538
    72IDQ   C6937221   5.898   1.951  21.155  0.7753 -1.2887 -0.1081
    72IDQ   C7037222   5.989   2.060  21.207 -0.9076 -0.9759 -0.2592
    72IDQ   C7137223   5.952   2.203  21.167 -1.5434 -0.1329  0.2504
    72IDQ   C7237224   6.073   2.308  21.148  0.4394  0.0335  0.3040
    11RH     C137225   4.689   0.778  23.290  0.1541  0.5347  0.1359
    11RH     C237226   4.832   0.744  23.307  0.1323  0.3509 -0.0353
    11RH     N137227   4.612   0.664  23.258  0.0133  0.6777 -0.0443
    11RH     S137228   4.857   0.564  23.280 -0.0717  0.3781 -0.4220
    11RH     C337229   4.677   0.542  23.247 -0.1184  0.6309 -0.3390
    11RH     C437230   4.467   0.679  23.247 -0.5277 -0.2281 -0.4347
    11RH     S237231   4.609   0.392  23.211 -0.2992  0.7736 -0.5994
    11RH     O137232   4.639   0.891  23.301  0.2787  0.5635  0.4039
    11RH     C537233   4.926   0.834  23.337  0.2472  0.1925  0.0832
    21BTZ    C637234   5.065   0.828  23.385 -0.1156  0.1388  0.0392
    21BTZ    C737235   5.146   0.718  23.395 -0.1919  0.0747 -0.0420
    21BTZ    C837236   5.110   0.952  23.442 -0.0027  0.0805  0.0782
    21BTZ    C937237   5.274   0.724  23.461 -0.1618 -0.0490 -0.0892
    21BTZ   C1037238   5.321   0.840  23.516 -0.0549 -0.1084 -0.0552
    21BTZ   C1137239   5.240   0.958  23.508  0.0280 -0.0452  0.0305
    21BTZ    N237240   5.040   1.066  23.438  0.0792  0.1335  0.1569
    21BTZ    N337241   5.275   1.077  23.558  0.1347 -0.0933  0.0706
    21BTZ    S337242   5.140   1.188  23.522  0.2015  0.0225  0.1740
    31IDT   C1237243   5.466   0.835  23.550  0.3754 -0.4488 -0.1561
    31IDT   C1337244   5.542   0.947  23.567  0.3954 -0.4361 -0.3281
    31IDT   C1437245   5.681   0.917  23.587  0.3827 -0.4332 -0.2341
    31IDT   C1537246   5.710   0.783  23.585  0.3530 -0.4438  0.0095
    31IDT    S437247   5.564   0.682  23.558  0.3388 -0.4583  0.1395
    4IDB    C1637248   5.849   0.754  23.581 -0.3009 -0.3965 -0.5452
    4IDB    C1737249   5.917   0.877  23.607 -0.5498 -0.2723 -0.4792
    51IDQ   C1837250   5.811   0.990  23.621 -0.1848  0.1643 -0.2168
    4IDB    C1937251   6.056   0.884  23.604 -0.5598 -0.0149 -0.3625
    51IDQ   C2037252   5.819   1.058  23.762  0.6661 -0.6713  0.2487
    51IDQ   C2137253   5.842   1.109  23.521 -0.1831 -0.4310  0.0381
    51IDQ   C2237254   5.928   1.103  23.396 -1.2371 -0.3697 -0.0380
    51IDQ   C2337255   5.688   1.064  23.850 -0.1945  0.2691  0.7320
    51IDQ   C2437256   5.956   1.241  23.328  0.4963 -0.3923 -0.3595
    51IDQ   C2537257   5.999   1.230  23.181  0.0927  0.9261 -0.6282
    51IDQ   C2637258   6.012   1.356  23.091  0.1619  0.2997  0.6602
    51IDQ   C2737259   5.934   1.488  23.105  0.1846 -0.5644  1.2520
    51IDQ   C2837260   5.973   1.600  22.992 -0.9485  0.1771 -1.6735
    51IDQ   C2937261   5.945   1.742  23.042  0.0464 -0.9747 -0.1894
    51IDQ   C3037262   5.683   1.187  23.937  0.7264 -0.4022  0.4839
    51IDQ   C3137263   5.565   1.179  24.023  0.0310 -0.9016  0.3867
    51IDQ   C3237264   5.596   1.203  24.172 -0.5321  1.0350  0.6233
    51IDQ   C3337265   5.482   1.185  24.264  0.4524  0.1116  0.5527
    51IDQ   C3437266   5.378   1.306  24.232  0.3443  0.0558 -0.4136
    51IDQ   C3537267   5.273   1.293  24.342  0.4488 -0.5999  0.2714
    4IDB    C3637268   5.921   0.637  23.552 -0.0590 -0.2631 -0.4945
    4IDB    C3737269   6.063   0.646  23.550 -0.0731 -0.0003 -0.3753
    11RH    C3837270   4.380   0.646  23.370 -0.1685 -0.0264 -0.0864
    4IDB    C3937271   6.127   0.767  23.576 -0.3179  0.1184 -0.3118
    62IDT   C4037272   6.268   0.742  23.576 -0.2769 -0.1252  0.3168
    72IDQ   C4137273   6.162   0.535  23.511  0.8230 -0.5988  0.0217
    62IDT   C4237274   6.293   0.609  23.547 -0.3375 -0.1109  0.1998
    72IDQ   C4337275   6.181   0.518  23.357 -0.2038 -0.4106  0.3049
    72IDQ   C4437276   6.131   0.391  23.567 -0.5296  0.4716  0.1583
    62IDT    S537277   6.420   0.834  23.602 -0.2354 -0.2206  0.4150
    62IDT   C4537278   6.513   0.681  23.571 -0.3052 -0.2369  0.2850
    62IDT   C4637279   6.431   0.575  23.544 -0.3536 -0.1740  0.1817
    82BTZ   C4737280   6.662   0.675  23.599  0.1019  0.1753 -0.4732
    82BTZ   C4837281   6.716   0.776  23.674  0.0288  0.1776 -0.4244
    82BTZ   C4937282   6.858   0.789  23.695  0.0032  0.1223 -0.2074
    82BTZ   C5037283   6.947   0.700  23.640  0.0508  0.0648 -0.0390
    82BTZ   C5137284   6.751   0.579  23.539  0.1538  0.1161 -0.3023
    82BTZ   C5237285   6.896   0.592  23.560  0.1278  0.0599 -0.0815
    92RH    C5337286   7.091   0.712  23.667  0.0480 -0.3683  0.3261
    82BTZ    N437287   6.712   0.476  23.464  0.2266  0.1079 -0.3295
    82BTZ    N537288   6.972   0.500  23.501  0.1794  0.0065  0.0687
    82BTZ    S637289   6.860   0.390  23.415  0.2652  0.0263 -0.0683
    92RH    C5437290   7.160   0.802  23.738 -0.0343 -0.3234  0.3490
    92RH     S737291   7.090   0.933  23.846 -0.1582 -0.3177  0.2636
    92RH    C5537292   7.308   0.809  23.739 -0.0377 -0.2698  0.4525
    92RH     O237293   7.384   0.734  23.677  0.0339 -0.2601  0.5269
    92RH     N637294   7.354   0.913  23.823 -0.1341 -0.2297  0.4557
    92RH    C5637295   7.261   0.991  23.888 -0.2083 -0.2447  0.3676
    92RH    C5737296   7.495   0.940  23.840  0.0853  0.6976 -0.7178
    92RH    C5837297   7.570   0.892  23.971 -0.1214 -0.7402  0.0929
    92RH     S837298   7.289   1.121  23.992 -0.3285 -0.2051  0.3514
    72IDQ   C5937299   6.078   0.369  23.708 -0.2416  1.1129 -0.0074
    72IDQ   C6037300   6.143   0.415  23.837  0.1588 -1.0736 -1.0738
    72IDQ   C6137301   6.057   0.447  23.966 -0.3774  0.8044 -0.4038
    72IDQ   C6237302   5.933   0.528  23.934 -0.0566  0.5217 -0.6467
    72IDQ   C6337303   5.843   0.564  24.050  0.2258  0.7354 -0.2571
    72IDQ   C6437304   5.713   0.651  24.010 -0.1847 -0.3314  0.7345
    72IDQ   C6537305   5.676   0.771  24.088  0.3502 -0.2272 -1.1563
    72IDQ   C6637306   6.060   0.505  23.257  0.0569 -0.5899  0.3032
    72IDQ   C6737307   6.084   0.467  23.111 -0.3211  0.0784 -0.0289
    72IDQ   C6837308   6.179   0.558  23.039 -0.2413 -0.0089 -0.1017
    72IDQ   C6937309   6.229   0.514  22.907  0.5504 -0.1191 -0.4164
    72IDQ   C7037310   6.128   0.540  22.793  0.1630  0.5797 -0.3878
    72IDQ   C7137311   6.013   0.451  22.781 -0.1920 -0.7628  0.5056
    72IDQ   C7237312   5.919   0.487  22.667 -0.1453  0.4659  0.5061
    11RH     C137313   5.896   0.139  21.706 -0.0721  0.1681 -0.0539
    11RH     C237314   5.812   0.025  21.750 -0.0348  0.0865 -0.1945
    11RH     N137315   5.990   0.174  21.805 -0.2460  0.2351  0.0906
    11RH     S137316   5.863  -0.029  21.917 -0.2308  0.1032 -0.1291
    11RH     C337317   5.993   0.102  21.922 -0.3526  0.2171  0.0811
    11RH     C437318   6.073   0.298  21.790 -0.3213  0.8586 -0.3729
    11RH     S237319   6.095   0.124  22.054 -0.5634  0.2849  0.2337
    11RH     O137320   5.886   0.198  21.597  0.0333  0.1782 -0.0577
    11RH     C537321   5.715  -0.029  21.675  0.1202  0.0133 -0.3457
    21BTZ    C637322   5.598  -0.112  21.708 -0.0071  0.1528 -0.2193
    21BTZ    C737323   5.562  -0.145  21.837 -0.0671  0.3070 -0.1960
    21BTZ    C837324   5.517  -0.160  21.600 -0.0035  0.0907 -0.1945
    21BTZ    C937325   5.447  -0.227  21.865 -0.1262  0.4073 -0.1469
    21BTZ   C1037326   5.367  -0.275  21.765 -0.1251  0.3534 -0.1217
    21BTZ   C1137327   5.399  -0.243  21.629 -0.0634  0.1925 -0.1450
    21BTZ    N237328   5.541  -0.135  21.471  0.0522 -0.0575 -0.2141
    21BTZ    N337329   5.329  -0.284  21.523 -0.0560  0.1265 -0.1245
    21BTZ    S337330   5.412  -0.217  21.379  0.0297 -0.0733 -0.1685
    31IDT   C1237331   5.239  -0.349  21.803 -1.0753  0.1360 -0.4134
    31IDT   C1337332   5.173  -0.444  21.728 -1.7129  0.5138 -0.3390
    31IDT   C1437333   5.060  -0.499  21.796 -1.5644  0.6931  0.0596
    31IDT   C1537334   5.039  -0.447  21.922 -0.8143  0.4540  0.2919
    31IDT    S437335   5.163  -0.323  21.965 -0.2327 -0.0213  0.0201
    4IDB    C1637336   4.943  -0.525  21.991 -0.3414 -0.1298 -0.3940
    4IDB    C1737337   4.870  -0.603  21.896 -0.7948  0.2124 -0.3300
    51IDQ   C1837338   4.948  -0.595  21.759  0.8695  0.5945 -0.1570
    4IDB    C1937339   4.753  -0.669  21.933 -0.5298 -0.0584  0.0425
    51IDQ   C2037340   4.989  -0.742  21.737 -0.3703  0.9100 -0.3030
    51IDQ   C2137341   4.872  -0.553  21.628 -0.3591  0.2177  0.2904
    51IDQ   C2237342   4.727  -0.519  21.602  0.2087 -0.0311  0.0863
    51IDQ   C2337343   5.135  -0.788  21.751 -0.3211  0.0972 -0.6005
    51IDQ   C2437344   4.665  -0.389  21.665 -0.7999 -0.7589 -0.1855
    51IDQ   C2537345   4.743  -0.247  21.680 -0.0485  0.0623  0.4434
    51IDQ   C2637346   4.769  -0.204  21.537 -0.3839  0.2655 -0.2350
    51IDQ   C2737347   4.882  -0.115  21.521  0.1077 -0.3789  0.1031
    51IDQ   C2837348   4.919  -0.073  21.384  1.0791  0.1499 -0.1139
    51IDQ   C2937349   5.006   0.050  21.382 -0.1521 -0.0120 -0.6065
    51IDQ   C3037350   5.139  -0.931  21.716 -0.6111  0.1790  0.8276
    51IDQ   C3137351   5.082  -1.034  21.819  0.3439 -0.2466  0.4107
    51IDQ   C3237352   5.032  -1.166  21.754 -0.2260  0.7747  1.0173
    51IDQ   C3337353   5.125  -1.238  21.656 -0.5113  0.0551  0.2423
    51IDQ   C3437354   5.218  -1.350  21.716  0.3958 -1.2429 -0.3904
    51IDQ   C3537355   5.349  -1.321  21.647  1.0291  0.0074  0.5796
    4IDB    C3637356   4.900  -0.513  22.124  0.3841 -0.7490 -0.0849
    4IDB    C3737357   4.781  -0.581  22.160  0.6454 -1.0178  0.2933
    11RH    C3837358   6.216   0.283  21.744  0.8022 -0.5713  0.0869
    4IDB    C3937359   4.710  -0.656  22.066  0.1957 -0.6773  0.3522
    62IDT   C4037360   4.593  -0.712  22.126  0.1854 -0.3236 -0.4358
    72IDQ   C4137361   4.713  -0.582  22.296  1.1277  0.6719  0.3290
    62IDT   C4237362   4.592  -0.683  22.261  0.5984 -0.7280 -0.3409
    72IDQ   C4337363   4.691  -0.445  22.371  0.7294 -0.5232 -0.5805
    72IDQ   C4437364   4.785  -0.684  22.396 -0.2776  0.0000 -0.4633
    62IDT    S537365   4.453  -0.813  22.078 -0.1691  0.1388 -0.3879
    62IDT   C4537366   4.397  -0.811  22.251  0.2817 -0.2590 -0.2346
    62IDT   C4637367   4.482  -0.739  22.332  0.6534 -0.6922 -0.2265
    82BTZ   C4737368   4.277  -0.883  22.293 -0.2859  0.2484 -0.2420
    82BTZ   C4837369   4.252  -0.998  22.223 -0.0989  0.0776 -0.0267
    82BTZ   C4937370   4.162  -1.099  22.273  0.1644 -0.0383  0.2246
    82BTZ   C5037371   4.096  -1.084  22.392  0.2402  0.0168  0.2596
    82BTZ   C5137372   4.210  -0.863  22.418 -0.2162  0.3123 -0.2155
    82BTZ   C5237373   4.118  -0.965  22.469  0.0514  0.1945  0.0401
    92RH    C5337374   3.993  -1.181  22.449  0.0139 -0.1486  0.0967
    82BTZ    N437375   4.225  -0.754  22.495 -0.3810  0.4760 -0.4106
    82BTZ    N537376   4.059  -0.939  22.586  0.1017  0.2636  0.0501
    82BTZ    S637377   4.121  -0.779  22.638 -0.1972  0.4866 -0.2731
    92RH    C5437378   3.948  -1.304  22.421 -0.0621 -0.1103  0.0472
    92RH     S737379   4.024  -1.426  22.308 -0.1850 -0.0806 -0.0670
    92RH    C5537380   3.825  -1.362  22.481 -0.0579 -0.0849  0.0811
    92RH     O237381   3.750  -1.304  22.562  0.0149 -0.0960  0.1559
    92RH     N637382   3.801  -1.493  22.434 -0.1485 -0.0455  0.0158
    92RH    C5637383   3.890  -1.547  22.344 -0.2248 -0.0360 -0.0653
    92RH    C5737384   3.707  -1.593  22.509 -0.3216 -0.4934  0.7814
    92RH    C5837385   3.560  -1.568  22.478 -1.1309  0.4668 -0.1408
    92RH     S837386   3.885  -1.701  22.274 -0.3392  0.0083 -0.1540
    72IDQ   C5937387   4.904  -0.641  22.487 -0.4146 -1.1615  0.6773
    72IDQ   C6037388   5.004  -0.745  22.519  0.1664  0.2219  0.0394
    72IDQ   C6137389   5.022  -0.854  22.421  1.3767 -0.9186  0.9140
    72IDQ   C6237390   5.124  -0.953  22.468  0.3676 -0.1408  0.5378
    72IDQ   C6337391   5.099  -1.098  22.413 -0.0593 -0.4752  0.5058
    72IDQ   C6437392   5.181  -1.211  22.460 -1.1147 -0.2964 -0.1443
    72IDQ   C6537393   5.108  -1.344  22.451  0.0626 -0.5130 -0.1389
    72IDQ   C6637394   4.635  -0.320  22.302 -0.2143  0.4276 -0.0383
    72IDQ   C6737395   4.593  -0.199  22.406 -0.8243  0.0351  1.3932
    72IDQ   C6837396   4.565  -0.059  22.347 -0.0848  0.1428 -0.0425
    72IDQ   C6937397   4.502   0.027  22.458 -0.3894 -0.4137  0.7625
    72IDQ   C7037398   4.473   0.166  22.396 -0.6545  0.1166 -0.1677
    72IDQ   C7137399   4.472   0.291  22.476  0.3306 -0.3947  0.1234
    72IDQ   C7237400   4.480   0.427  22.410  0.2125 -0.6083  0.3184
    11RH     C137401   3.909   6.104  19.760 -0.1462  0.1111  0.0949
    11RH     C237402   4.017   6.135  19.857 -0.1974  0.0969  0.1564
    11RH     N137403   3.781   6.119  19.818 -0.1738 -0.1061  0.0933
    11RH     S137404   3.943   6.183  20.018 -0.2787 -0.2010  0.2090
    11RH     C337405   3.773   6.159  19.950 -0.2409 -0.2922  0.1464
    11RH     C437406   3.663   6.080  19.744  0.2968  0.0634  0.0699
    11RH     S237407   3.634   6.185  20.042 -0.2857 -0.5674  0.1569
    11RH     O137408   3.926   6.068  19.642 -0.0862  0.2885  0.0496
    11RH     C537409   4.147   6.129  19.828 -0.1846  0.2780  0.1705
    21BTZ    C637410   4.272   6.151  19.902 -0.3947 -0.2724 -0.4352
    21BTZ    C737411   4.269   6.195  20.031 -0.6809 -0.2580 -0.4463
    21BTZ    C837412   4.399   6.118  19.843 -0.2671 -0.3092 -0.1407
    21BTZ    C937413   4.389   6.210  20.109 -0.8552 -0.2786 -0.1712
    21BTZ   C1037414   4.512   6.181  20.058 -0.7429 -0.3138  0.1151
    21BTZ   C1137415   4.521   6.134  19.923 -0.4442 -0.3303  0.1388
    21BTZ    N237416   4.415   6.074  19.718  0.0094 -0.3264 -0.1006
    21BTZ    N337417   4.636   6.102  19.862 -0.3102 -0.3644  0.4044
    21BTZ    S337418   4.591   6.050  19.696  0.0558 -0.3712  0.3051
    31IDT   C1237419   4.629   6.230  20.135  0.0939 -0.0610 -0.5213
    31IDT   C1337420   4.748   6.162  20.144  0.1544  0.0587 -0.4129
    31IDT   C1437421   4.825   6.200  20.258 -0.0021  0.1130 -0.3247
    31IDT   C1537422   4.766   6.296  20.337 -0.1826  0.0354 -0.3644
    31IDT    S437423   4.606   6.347  20.272 -0.1681 -0.1140 -0.5185
    4IDB    C1637424   4.852   6.328  20.451  0.1648 -0.0149 -0.1850
    4IDB    C1737425   4.978   6.264  20.435  0.5287  0.7954 -0.7076
    51IDQ   C1837426   4.972   6.176  20.309 -0.6562 -0.2769  0.3040
    4IDB    C1937427   5.079   6.282  20.529  0.3596  0.4614 -0.4579
    51IDQ   C2037428   5.092   6.222  20.208  0.3645 -0.3013 -0.2141
    51IDQ   C2137429   4.995   6.019  20.340 -0.9699  0.3499  0.4441
    51IDQ   C2237430   5.006   5.954  20.478  0.5836 -0.1428 -1.0601
    51IDQ   C2337431   5.073   6.285  20.072  0.5380 -0.8003  1.1783
    51IDQ   C2437432   5.024   5.803  20.493  0.4338  0.2062 -0.7765
    51IDQ   C2537433   5.099   5.726  20.391  0.1018 -0.2479  0.6608
    51IDQ   C2637434   5.249   5.757  20.402  0.7787 -0.6088 -0.6885
    51IDQ   C2737435   5.311   5.782  20.265 -0.9012  0.8325  0.5365
    51IDQ   C2837436   5.412   5.667  20.228  0.3780  0.6113  0.1285
    51IDQ   C2937437   5.394   5.613  20.087  0.0493 -0.6580  0.7651
    51IDQ   C3037438   5.051   6.180  19.956 -0.3506  0.1829 -0.6919
    51IDQ   C3137439   5.156   6.064  19.949  0.3522  0.5605 -0.0002
    51IDQ   C3237440   5.119   5.970  19.840 -0.8463  0.2333  0.6884
    51IDQ   C3337441   5.226   5.862  19.825  0.2472 -0.4055  0.8531
    51IDQ   C3437442   5.194   5.771  19.699 -0.0553  0.6464  0.4737
    51IDQ   C3537443   5.189   5.835  19.558  0.3537  0.4069  0.5372
    4IDB    C3637444   4.825   6.411  20.561 -0.3740 -1.1716  0.5946
    4IDB    C3737445   4.930   6.428  20.656 -0.5397 -1.4974  0.8392
    11RH    C3837446   3.585   6.195  19.689  0.4604 -0.4650  0.0142
    4IDB    C3937447   5.053   6.365  20.639 -0.1792 -0.6953  0.3219
    62IDT   C4037448   5.141   6.416  20.742 -0.4099 -0.0393  0.6819
    72IDQ   C4137449   4.925   6.511  20.791 -0.1416 -0.4309 -0.0780
    62IDT   C4237450   5.070   6.498  20.828 -0.3061 -0.2029  0.9260
    72IDQ   C4337451   4.830   6.456  20.897  0.4774 -0.3756 -1.0128
    72IDQ   C4437452   4.896   6.670  20.796 -0.7037  0.3371 -0.4210
    62IDT    S537453   5.310   6.392  20.796 -0.2961 -0.0078  0.3389
    62IDT   C4537454   5.276   6.500  20.938 -0.1051 -0.2285  0.5546
    62IDT   C4637455   5.147   6.545  20.939 -0.1335 -0.3102  0.8535
    82BTZ   C4737456   5.387   6.543  21.032 -0.2041 -0.5473  0.2500
    82BTZ   C4837457   5.517   6.507  21.008 -0.1936 -0.4911  0.2208
    82BTZ   C4937458   5.619   6.519  21.109 -0.0961 -0.0859  0.0777
    82BTZ   C5037459   5.592   6.568  21.234 -0.0095  0.2625 -0.0369
    82BTZ   C5137460   5.353   6.595  21.162 -0.1156 -0.1919  0.1330
    82BTZ   C5237461   5.457   6.607  21.264 -0.0167  0.2199 -0.0129
    92RH    C5337462   5.698   6.586  21.336 -0.1273 -0.0707  0.0764
    82BTZ    N437463   5.231   6.634  21.197 -0.1163 -0.2072  0.1473
    82BTZ    N537464   5.418   6.656  21.382  0.0623  0.5356 -0.1159
    82BTZ    S637465   5.243   6.689  21.367  0.0123  0.3155 -0.0282
    92RH    C5437466   5.830   6.569  21.336 -0.1088  0.0638 -0.0973
    92RH     S737467   5.933   6.502  21.200 -0.2136  0.2011 -0.2458
    92RH    C5537468   5.917   6.604  21.451  0.0032  0.1235 -0.1998
    92RH     O237469   5.878   6.653  21.559  0.0918  0.0578 -0.1383
    92RH     N637470   6.053   6.576  21.424 -0.0019  0.2678 -0.3804
    92RH    C5637471   6.085   6.523  21.302 -0.1044  0.3308 -0.4354
    92RH    C5737472   6.160   6.589  21.534  0.2850 -0.3566 -0.6946
    92RH    C5837473   6.231   6.724  21.561 -0.0216  0.5724 -0.4206
    92RH     S837474   6.238   6.480  21.245 -0.1330  0.4997 -0.6423
    72IDQ   C5937475   4.798   6.737  20.702  0.2162 -0.9537  0.2179
    72IDQ   C6037476   4.786   6.890  20.711 -0.6284  0.3374 -0.3738
    72IDQ   C6137477   4.681   6.955  20.614  0.2879 -0.1191  0.2129
    72IDQ   C6237478   4.737   7.018  20.479  0.5535  0.2486 -0.3430
    72IDQ   C6337479   4.632   7.077  20.389 -0.2731  0.0116 -0.5003
    72IDQ   C6437480   4.533   6.973  20.344  0.8444  0.8234 -0.1965
    72IDQ   C6537481   4.419   7.032  20.271  0.5273  0.6555  0.2896
    72IDQ   C6637482   4.754   6.321  20.897  0.4512 -0.4750  0.0749
    72IDQ   C6737483   4.806   6.224  21.004  0.1519  1.0521 -0.1474
    72IDQ   C6837484   4.689   6.163  21.088 -0.3602  0.4364  0.0865
    72IDQ   C6937485   4.636   6.258  21.198 -0.2864 -0.1563 -0.1078
    72IDQ   C7037486   4.725   6.244  21.327 -0.1769  0.6424  0.4718
    72IDQ   C7137487   4.679   6.346  21.431  0.5539 -0.5638 -0.2747
    72IDQ   C7237488   4.767   6.379  21.555  0.0135 -0.1962 -0.8294
    11RH     C137489   5.150   0.043  20.908  0.0932 -0.3441  0.0725
    11RH     C237490   5.055   0.030  20.795 -0.0325 -0.3028  0.1740
    11RH     N137491   5.164  -0.078  20.979  0.1804 -0.3731  0.0063
    11RH     S137492   4.989  -0.141  20.789 -0.0281 -0.3047  0.1765
    11RH     C337493   5.090  -0.187  20.936  0.1398 -0.3600  0.0424
    11RH     C437494   5.265  -0.091  21.088  0.4721 -0.2335  0.0410
    11RH     S237495   5.088  -0.342  21.002  0.2240 -0.3880 -0.0200
    11RH     O137496   5.212   0.146  20.939  0.1212 -0.3530  0.0463
    11RH     C537497   5.024   0.131  20.712 -0.1321 -0.2699  0.2504
    21BTZ    C637498   4.942   0.140  20.587  0.3127 -0.1787 -0.2166
    21BTZ    C737499   4.877   0.033  20.532  0.4315 -0.2529 -0.2146
    21BTZ    C837500   4.957   0.259  20.508 -0.0426 -0.0726 -0.1283
    21BTZ    C937501   4.823   0.037  20.398  0.2091 -0.2268 -0.1259
    21BTZ   C1037502   4.835   0.149  20.319 -0.1318 -0.1265 -0.0389
    21BTZ   C1137503   4.903   0.263  20.372 -0.2686 -0.0461 -0.0381
    21BTZ    N237504   5.019   0.370  20.551 -0.1882  0.0065 -0.1211
    21BTZ    N337505   4.921   0.378  20.305 -0.5962  0.0544  0.0415
    21BTZ    S337506   5.010   0.487  20.416 -0.6300  0.1207  0.0039
    31IDT   C1237507   4.828   0.126  20.174 -0.4476  0.3104  0.0487
    31IDT   C1337508   4.891   0.189  20.070 -0.9897  0.6404 -0.0906
    31IDT   C1437509   4.872   0.122  19.945 -0.8994  0.5256 -0.0439
    31IDT   C1537510   4.794   0.009  19.953 -0.2897  0.1084  0.1309
    31IDT    S437511   4.738  -0.023  20.121  0.2224 -0.1741  0.2511
    4IDB    C1637512   4.759  -0.044  19.822  0.7858 -0.2628 -0.2064
    4IDB    C1737513   4.820   0.037  19.721  0.2128 -0.0340 -0.3796
    51IDQ   C1837514   4.901   0.144  19.796 -0.2428  0.1729 -0.1359
    4IDB    C1937515   4.800   0.011  19.586 -0.1404 -0.0491 -0.3241
    51IDQ   C2037516   5.048   0.118  19.757 -0.2886  1.0169  0.0003
    51IDQ   C2137517   4.842   0.289  19.760 -0.7267 -0.0535  0.0527
    51IDQ   C2237518   4.719   0.333  19.666 -0.2838  0.2165  0.8871
    51IDQ   C2337519   5.163   0.071  19.850 -0.2703  0.8884  0.3498
    51IDQ   C2437520   4.585   0.275  19.695 -0.0541  0.6671  0.0549
    51IDQ   C2537521   4.464   0.321  19.620 -0.3454  0.2238  0.1381
    51IDQ   C2637522   4.334   0.287  19.696  0.3970  0.5983  0.0469
    51IDQ   C2737523   4.292   0.407  19.784  0.8370 -0.7402  0.8024
    51IDQ   C2837524   4.149   0.412  19.838  0.4307  0.7363 -0.5120
    51IDQ   C2937525   4.106   0.544  19.893 -0.5159 -0.0279  0.1885
    51IDQ   C3037526   5.273   0.007  19.761  1.1366  0.1535 -0.8660
    51IDQ   C3137527   5.399  -0.033  19.841 -0.6111 -0.4716  0.0285
    51IDQ   C3237528   5.506  -0.108  19.765 -1.1189 -0.2152  0.5981
    51IDQ   C3337529   5.456  -0.210  19.660 -0.7677  0.3774 -0.6845
    51IDQ   C3437530   5.547  -0.332  19.653 -0.2057  0.0912 -0.1181
    51IDQ   C3537531   5.500  -0.448  19.738  0.4080  0.3191 -0.0221
    4IDB    C3637532   4.677  -0.152  19.788  1.0099 -0.5099  0.0243
    4IDB    C3737533   4.657  -0.177  19.649  0.6427 -0.5215  0.0777
    11RH    C3837534   5.398  -0.143  21.028  0.1559 -0.1625  0.5590
    4IDB    C3937535   4.717  -0.097  19.552  0.0838 -0.2962 -0.0942
    62IDT   C4037536   4.673  -0.150  19.428 -0.0328 -1.1889 -0.1021
    72IDQ   C4137537   4.557  -0.277  19.593 -0.2316 -0.0376  0.5619
    62IDT   C4237538   4.563  -0.232  19.440  0.0275 -1.3640 -0.6924
    72IDQ   C4337539   4.409  -0.238  19.653 -0.0769  1.2914 -0.1735
    72IDQ   C4437540   4.600  -0.423  19.634 -0.6187  1.0025  0.1637
    62IDT    S537541   4.705  -0.106  19.257  0.2338 -0.3383  0.1583
    62IDT   C4537542   4.562  -0.206  19.208  0.4220 -0.2606 -0.5810
    62IDT   C4637543   4.500  -0.264  19.315  0.2849 -0.8395 -0.9632
    82BTZ   C4737544   4.541  -0.225  19.067 -0.3132  0.1715  0.0148
    82BTZ   C4837545   4.584  -0.126  18.984 -0.2832  0.0346 -0.1326
    82BTZ   C4937546   4.578  -0.139  18.840 -0.3421 -0.1523 -0.1135
    82BTZ   C5037547   4.527  -0.251  18.781 -0.4306 -0.2022  0.0539
    82BTZ   C5137548   4.487  -0.345  19.010 -0.4053  0.1261  0.1936
    82BTZ   C5237549   4.480  -0.358  18.864 -0.4650 -0.0639  0.2131
    92RH    C5337550   4.536  -0.278  18.631  0.1988  0.1026  0.5003
    82BTZ    N437551   4.441  -0.449  19.081 -0.4421  0.2475  0.3476
    82BTZ    N537552   4.429  -0.472  18.817 -0.5500 -0.0954  0.3839
    82BTZ    S637553   4.386  -0.570  18.961 -0.5573  0.1211  0.5294
    92RH    C5437554   4.586  -0.213  18.525  0.0923  0.0582  0.4220
    92RH     S737555   4.662  -0.046  18.524 -0.0084  0.1030  0.2561
    92RH    C5537556   4.588  -0.270  18.388  0.0385 -0.0373  0.4611
    92RH     O237557   4.545  -0.382  18.355  0.0843 -0.0868  0.5670
    92RH     N637558   4.647  -0.181  18.296 -0.0741 -0.0669  0.3596
    92RH    C5637559   4.692  -0.059  18.342 -0.1171 -0.0066  0.2451
    92RH    C5737560   4.664  -0.232  18.157  0.2800 -0.0330  0.4299
    92RH    C5837561   4.557  -0.183  18.058 -0.0385  0.9739 -0.1234
    92RH     S837562   4.766   0.065  18.254 -0.2475 -0.0246  0.1101
    72IDQ   C5937563   4.695  -0.506  19.534 -0.0688  0.5306 -0.4598
    72IDQ   C6037564   4.607  -0.589  19.431  0.3523  0.2792 -0.0165
    72IDQ   C6137565   4.514  -0.704  19.480 -0.1534 -0.2264  0.3428
    72IDQ   C6237566   4.427  -0.789  19.382  0.0253 -0.2985  0.0237
    72IDQ   C6337567   4.480  -0.854  19.265 -0.4908  0.1992  1.5820
    72IDQ   C6437568   4.566  -0.986  19.273  0.0098  0.0135  0.5531
    72IDQ   C6537569   4.694  -1.002  19.356  0.0066 -0.2832 -0.0305
    72IDQ   C6637570   4.299  -0.346  19.650 -0.0777 -0.3005  0.8468
    72IDQ   C6737571   4.177  -0.271  19.691 -0.3942 -0.3965 -0.7700
    72IDQ   C6837572   4.132  -0.329  19.829 -0.2996  0.1241 -0.0013
    72IDQ   C6937573   4.074  -0.226  19.924  0.9933 -0.2601  0.1546
    72IDQ   C7037574   4.053  -0.261  20.071  0.8934  0.0102 -0.5246
    72IDQ   C7137575   3.982  -0.137  20.127  0.0268 -0.0872 -1.2502
    72IDQ   C7237576   3.861  -0.155  20.225 -0.2028 -0.2498 -0.7528
    11RH     C137577   0.997   0.934  18.705  0.0646  0.2009  0.0601
    11RH     C237578   0.987   1.065  18.637  0.0468  0.3402  0.3271
    11RH     N137579   0.912   0.928  18.818 -0.0941 -0.1179 -0.0742
    11RH     S137580   0.866   1.172  18.724 -0.1773  0.0431  0.3826
    11RH     C337581   0.835   1.038  18.848 -0.2367 -0.2508  0.0520
    11RH     C437582   0.901   0.810  18.912 -0.8949 -0.6349  1.3048
    11RH     S237583   0.727   1.057  18.975 -0.4392 -0.6230 -0.0639
    11RH     O137584   1.071   0.840  18.671  0.1999  0.3407 -0.0367
    11RH     C537585   1.057   1.097  18.527  0.1778  0.6389  0.4946
    21BTZ    C637586   1.054   1.209  18.437 -0.6245  0.1023 -0.0600
    21BTZ    C737587   0.986   1.326  18.460 -0.5999  0.1596 -0.2756
    21BTZ    C837588   1.103   1.182  18.305 -0.4627 -0.0637  0.0324
    21BTZ    C937589   0.962   1.421  18.354 -0.4162  0.0573 -0.4106
    21BTZ   C1037590   1.006   1.400  18.226 -0.2575 -0.1020 -0.3305
    21BTZ   C1137591   1.078   1.279  18.198 -0.2760 -0.1676 -0.1054
    21BTZ    N237592   1.171   1.073  18.271 -0.4686 -0.1334  0.2408
    21BTZ    N337593   1.126   1.248  18.077 -0.1320 -0.3209 -0.0072
    21BTZ    S337594   1.207   1.089  18.096 -0.2310 -0.3391  0.2706
    31IDT   C1237595   0.979   1.504  18.128 -1.1189 -0.7157 -0.0010
    31IDT   C1337596   0.988   1.488  17.992 -0.9892 -0.5595 -0.0119
    31IDT   C1437597   0.953   1.606  17.920 -0.2737 -0.2681  0.1049
    31IDT   C1537598   0.918   1.713  18.000  0.1458 -0.2004  0.2036
    31IDT    S437599   0.926   1.671  18.175 -0.3372 -0.5032  0.1576
    4IDB    C1637600   0.886   1.829  17.925  0.1112 -0.3237  0.1253
    4IDB    C1737601   0.904   1.801  17.786 -0.8584 -0.5701  0.0377
    51IDQ   C1837602   0.947   1.650  17.773  1.3843  0.1706  0.5121
    4IDB    C1937603   0.882   1.899  17.690 -0.6731 -0.4788  0.0879
    51IDQ   C2037604   0.827   1.577  17.693  0.6372 -1.2357  0.4354
    51IDQ   C2137605   1.078   1.620  17.682 -0.4973  0.5328 -0.0353
    51IDQ   C2237606   1.179   1.716  17.624  0.3166  0.5591  1.2485
    51IDQ   C2337607   0.722   1.506  17.774 -1.0156  0.7132  0.1936
    51IDQ   C2437608   1.276   1.758  17.726  0.5018 -0.2850 -0.2092
    51IDQ   C2537609   1.346   1.898  17.701 -0.0751 -0.1286  0.2213
    51IDQ   C2637610   1.259   2.021  17.700  0.7246 -1.2657 -0.1029
    51IDQ   C2737611   1.319   2.143  17.632 -0.2520 -0.1092 -0.0164
    51IDQ   C2837612   1.219   2.241  17.583 -0.6956 -0.0214  0.1328
    51IDQ   C2937613   1.191   2.204  17.437  0.2756  0.0994  0.1203
    51IDQ   C3037614   0.633   1.413  17.687 -0.5635 -0.2611  0.6646
    51IDQ   C3137615   0.528   1.328  17.743  0.1680  0.1839  0.6666
    51IDQ   C3237616   0.444   1.275  17.631  1.3244 -0.6596  0.4899
    51IDQ   C3337617   0.293   1.282  17.651 -0.2356 -0.1540  1.6707
    51IDQ   C3437618   0.244   1.419  17.681 -0.4456  0.0689 -0.0837
    51IDQ   C3537619   0.101   1.429  17.644  0.1502  0.2637  0.2439
    4IDB    C3637620   0.846   1.957  17.968  1.2792  0.0174  0.2637
    4IDB    C3737621   0.824   2.056  17.868  1.4516  0.1060  0.3123
    11RH    C3837622   0.815   0.708  18.863 -0.2922 -0.1836  0.9370
    4IDB    C3937623   0.842   2.026  17.733  0.4949 -0.1377  0.2259
    62IDT   C4037624   0.814   2.138  17.647  0.2309  0.5978 -0.2215
    72IDQ   C4137625   0.813   2.215  17.870  0.8104  0.2331  0.3191
    62IDT   C4237626   0.800   2.254  17.720  0.4420  0.7468 -0.4177
    72IDQ   C4337627   0.927   2.306  17.931  0.7934  0.3622 -0.6458
    72IDQ   C4437628   0.686   2.259  17.943 -0.1309 -0.7614  0.0910
    62IDT    S537629   0.809   2.168  17.470 -0.3411  0.2303 -0.2759
    62IDT   C4537630   0.788   2.345  17.506 -0.2609  0.3008 -0.5756
    62IDT   C4637631   0.786   2.372  17.640  0.1642  0.5792 -0.6185
    82BTZ   C4737632   0.768   2.437  17.390 -0.1653 -0.0208 -0.0028
    82BTZ   C4837633   0.737   2.382  17.268 -0.4641 -0.0198  0.0710
    82BTZ   C4937634   0.728   2.463  17.149 -0.5874 -0.0451  0.0629
    82BTZ   C5037635   0.750   2.598  17.151 -0.4117 -0.0713 -0.0192
    82BTZ   C5137636   0.792   2.578  17.398  0.0279 -0.0477 -0.0896
    82BTZ   C5237637   0.783   2.660  17.276 -0.0975 -0.0734 -0.0978
    92RH    C5337638   0.744   2.682  17.029 -0.0932  0.0040  0.0649
    82BTZ    N437639   0.823   2.643  17.510  0.3224 -0.0513 -0.1664
    82BTZ    N537640   0.806   2.790  17.292  0.0963 -0.0977 -0.1812
    82BTZ    S637641   0.842   2.815  17.465  0.4547 -0.0886 -0.2547
    92RH    C5437642   0.714   2.651  16.903 -0.0219  0.1230  0.0181
    92RH     S737643   0.676   2.484  16.837  0.1846  0.1584 -0.1940
    92RH    C5537644   0.708   2.750  16.793 -0.1025  0.2487  0.1364
    92RH     O237645   0.729   2.872  16.805 -0.2429  0.2586  0.2894
    92RH     N637646   0.675   2.689  16.670  0.0008  0.3592  0.0528
    92RH    C5637647   0.654   2.553  16.668  0.1543  0.3374 -0.1168
    92RH    C5737648   0.653   2.764  16.546 -0.3812 -0.6907  0.8913
    92RH    C5837649   0.511   2.774  16.491 -0.2494 -0.4315 -0.6346
    92RH     S837650   0.614   2.457  16.535  0.3000  0.4509 -0.2451
    72IDQ   C5937651   0.545   2.270  17.871  0.3851 -0.9883  0.0405
    72IDQ   C6037652   0.458   2.372  17.954 -0.7138 -0.5468 -0.3041
    72IDQ   C6137653   0.315   2.384  17.923  0.5034  0.2513 -0.1137
    72IDQ   C6237654   0.227   2.266  17.937  0.4420  0.7349  0.8039
    72IDQ   C6337655   0.070   2.308  17.939  0.0114  0.0894 -0.4996
    72IDQ   C6437656   0.044   2.390  18.060  0.3114 -0.1308 -0.5125
    72IDQ   C6537657  -0.093   2.453  18.044  1.0361  0.0585  0.1546
    72IDQ   C6637658   1.072   2.291  17.901 -0.3312  0.4832  0.3395
    72IDQ   C6737659   1.174   2.390  17.960 -0.1664  0.0318  0.9448
    72IDQ   C6837660   1.173   2.516  17.876  0.7546  0.5428  0.3086
    72IDQ   C6937661   1.285   2.607  17.908 -0.2433 -0.7647  0.1468
    72IDQ   C7037662   1.347   2.664  17.781  0.7007  1.5790  0.3931
    72IDQ   C7137663   1.473   2.740  17.807  0.5103  0.3093  0.4707
    72IDQ   C7237664   1.577   2.746  17.693 -0.8249 -0.6449 -0.0953
    11RH     C137665   1.655   0.650  27.899  0.2342 -0.0250  0.0186
    11RH     C237666   1.621   0.731  28.018  0.1552  0.1382 -0.1163
    11RH     N137667   1.795   0.634  27.886  0.2414 -0.0916  0.1631
    11RH     S137668   1.775   0.783  28.104  0.0956  0.1935 -0.0432
    11RH     C337669   1.877   0.694  27.979  0.1779 -0.0016  0.1612
    11RH     C437670   1.849   0.589  27.755  0.3847 -0.3759  1.2689
    11RH     S237671   2.045   0.691  27.986  0.1712 -0.0525  0.3166
    11RH     O137672   1.574   0.599  27.820  0.2882 -0.0971  0.0081
    11RH     C537673   1.495   0.761  28.054  0.1330  0.2276 -0.2674
    21BTZ    C637674   1.431   0.818  28.165 -0.1422  0.3193 -0.0356
    21BTZ    C737675   1.505   0.848  28.276 -0.1906  0.5548 -0.0668
    21BTZ    C837676   1.288   0.835  28.170 -0.1711  0.0977 -0.0548
    21BTZ    C937677   1.444   0.897  28.397 -0.2693  0.5843 -0.1183
    21BTZ   C1037678   1.308   0.916  28.407 -0.2995  0.3783 -0.1388
    21BTZ   C1137679   1.226   0.885  28.293 -0.2511  0.1277 -0.1073
    21BTZ    N237680   1.206   0.809  28.069 -0.1296 -0.1415 -0.0281
    21BTZ    N337681   1.093   0.899  28.291 -0.2739 -0.0875 -0.1225
    21BTZ    S337682   1.041   0.848  28.127 -0.1923 -0.3428 -0.0694
    31IDT   C1237683   1.265   0.943  28.550 -0.4827  0.1933  0.2921
    31IDT   C1337684   1.138   0.964  28.598 -0.2641  0.2754  0.8545
    31IDT   C1437685   1.134   0.984  28.739  0.3389 -0.0332  0.9197
    31IDT   C1537686   1.258   0.978  28.800  0.5835 -0.3518  0.4091
    31IDT    S437687   1.390   0.947  28.682  0.0644 -0.2851 -0.1999
    4IDB    C1637688   1.244   1.002  28.944  0.3362  0.5262  0.4309
    4IDB    C1737689   1.106   1.019  28.974  0.2135 -0.1242  0.2522
    51IDQ   C1837690   1.026   1.011  28.843  0.0583 -1.2586  0.9323
    4IDB    C1937691   1.063   1.043  29.104 -0.0430 -0.0610  0.1576
    51IDQ   C2037692   0.909   0.899  28.858  0.1519 -0.5475 -0.5020
    51IDQ   C2137693   0.948   1.156  28.813 -0.4533  0.7147  0.4389
    51IDQ   C2237694   0.939   1.285  28.895  0.2319 -0.3452  0.4560
    51IDQ   C2337695   0.895   0.772  28.786  0.3060 -0.0743  0.6966
    51IDQ   C2437696   1.069   1.364  28.914 -0.2548 -0.4743  0.3091
    51IDQ   C2537697   1.176   1.368  28.799 -0.7064  0.7803 -0.6028
    51IDQ   C2637698   1.139   1.447  28.677  0.5368 -0.0661  0.2490
    51IDQ   C2737699   1.258   1.477  28.592 -0.2370 -0.1976 -0.8838
    51IDQ   C2837700   1.219   1.512  28.453  0.5790  0.7114  0.4185
    51IDQ   C2937701   1.170   1.649  28.432  0.5643  0.5040 -0.1365
    51IDQ   C3037702   0.802   0.677  28.848 -0.0786  0.7559 -0.6958
    51IDQ   C3137703   0.786   0.550  28.757  0.3773  0.3167  0.4174
    51IDQ   C3237704   0.902   0.489  28.666  0.0796  0.4186 -0.0527
    51IDQ   C3337705   0.939   0.348  28.713  0.5607  0.8204  0.0049
    51IDQ   C3437706   1.031   0.331  28.828 -0.6225 -0.9531 -0.7829
    51IDQ   C3537707   1.075   0.189  28.874  0.4298 -0.0046  0.4404
    4IDB    C3637708   1.342   1.010  29.044  0.2020  1.2480  0.5165
    4IDB    C3737709   1.296   1.035  29.177 -0.0600  1.3016  0.4177
    11RH    C3837710   1.852   0.436  27.749  0.0989  0.1416  0.2410
    4IDB    C3937711   1.161   1.050  29.204 -0.1772  0.6608  0.2432
    62IDT   C4037712   1.141   1.068  29.349  0.8359  0.5928  0.3966
    72IDQ   C4137713   1.375   1.055  29.305 -0.7234 -0.0673 -0.9441
    62IDT   C4237714   1.264   1.078  29.411  0.6464  0.0154  0.8808
    72IDQ   C4337715   1.469   1.187  29.314  0.4321 -0.0033 -0.0409
    72IDQ   C4437716   1.451   0.921  29.353 -0.1133  0.1762 -0.5057
    62IDT    S537717   1.006   1.065  29.468  0.4016  0.4773 -0.0939
    62IDT   C4537718   1.128   1.078  29.601 -0.0345 -0.3878  0.4058
    62IDT   C4637719   1.257   1.083  29.554  0.1542 -0.5397  0.8867
    82BTZ   C4737720   1.084   1.075  29.743 -0.1162 -0.7369 -0.1332
    82BTZ   C4837721   0.950   1.088  29.767 -0.0872 -0.5029 -0.0954
    82BTZ   C4937722   0.898   1.099  29.901  0.0356  0.3690 -0.1043
    82BTZ   C5037723   0.980   1.096  30.011  0.1293  1.0053 -0.1511
    82BTZ   C5137724   1.174   1.072  29.854 -0.0213 -0.0937 -0.1829
    82BTZ   C5237725   1.121   1.082  29.991  0.1036  0.7924 -0.1920
    92RH    C5337726   0.921   1.106  30.143 -0.1944  0.1395  0.0216
    82BTZ    N437727   1.307   1.059  29.844 -0.0382 -0.2428 -0.2228
    82BTZ    N537728   1.211   1.078  30.089  0.1871  1.3555 -0.2392
    82BTZ    S637729   1.370   1.060  30.011  0.1079  0.7644 -0.2747
    92RH    C5437730   0.800   1.134  30.192 -0.2051  0.1703 -0.0222
    92RH     S737731   0.654   1.194  30.098 -0.0224  0.6546 -0.0062
    92RH    C5537732   0.765   1.122  30.336 -0.3729 -0.1971 -0.0928
    92RH     O237733   0.842   1.084  30.426 -0.5205 -0.5695 -0.1193
    92RH     N637734   0.631   1.158  30.360 -0.3456 -0.0733 -0.1276
    92RH    C5637735   0.554   1.199  30.253 -0.1764  0.3484 -0.0935
    92RH    C5737736   0.573   1.174  30.499  0.6417  0.1796  0.5120
    92RH    C5837737   0.557   1.319  30.563 -0.0445  0.4007 -0.0673
    92RH     S837738   0.392   1.247  30.255 -0.1087  0.5768 -0.1231
    72IDQ   C5937739   1.567   0.928  29.455 -1.2246  0.5979 -0.6468
    72IDQ   C6037740   1.657   0.799  29.486  0.2305 -0.5731  0.0386
    72IDQ   C6137741   1.755   0.757  29.379  0.3851 -0.4708  0.1065
    72IDQ   C6237742   1.866   0.656  29.393 -0.2759 -0.0257 -0.3252
    72IDQ   C6337743   1.846   0.512  29.453  0.7596 -0.5915 -0.6261
    72IDQ   C6437744   1.886   0.401  29.371  1.4324  0.7873 -0.4674
    72IDQ   C6537745   1.867   0.269  29.442  1.1339  0.2323 -0.2867
    72IDQ   C6637746   1.502   1.270  29.191  0.0384  0.1927  0.2505
    72IDQ   C6737747   1.485   1.423  29.204 -0.0442 -0.7111  0.5105
    72IDQ   C6837748   1.603   1.516  29.159 -0.1818  0.4445 -0.0723
    72IDQ   C6937749   1.585   1.670  29.177  0.3211 -0.4802 -0.9434
    72IDQ   C7037750   1.518   1.722  29.310  0.8880  1.6546  1.1884
    72IDQ   C7137751   1.483   1.863  29.329 -0.5153 -0.9874 -0.5497
    72IDQ   C7237752   1.378   1.915  29.232  0.7216 -0.1797 -0.3452
    11RH     C137753   5.333   7.297  16.190 -0.2050 -0.3722  0.3872
    11RH     C237754   5.406   7.425  16.205 -0.0477 -0.4590  0.3610
    11RH     N137755   5.196   7.313  16.219 -0.2065 -0.1735  0.2737
    11RH     S137756   5.290   7.558  16.254  0.0885 -0.2740  0.1886
    11RH     C337757   5.150   7.438  16.254 -0.0693 -0.0907  0.1597
    11RH     C437758   5.107   7.190  16.204  0.1821 -1.0348  0.3352
    11RH     S237759   4.992   7.483  16.293 -0.0398  0.1412  0.0114
    11RH     O137760   5.383   7.188  16.158 -0.3229 -0.4591  0.4935
    11RH     C537761   5.538   7.438  16.183 -0.0145 -0.6452  0.4520
    21BTZ    C637762   5.639   7.540  16.203 -0.7781  0.2502 -0.4652
    21BTZ    C737763   5.621   7.654  16.277 -0.9403  0.1324 -0.3223
    21BTZ    C837764   5.769   7.513  16.148 -0.6708  0.3646 -0.2699
    21BTZ    C937765   5.730   7.746  16.302 -1.0051  0.1210  0.0172
    21BTZ   C1037766   5.855   7.724  16.251 -0.9075  0.2275  0.2142
    21BTZ   C1137767   5.879   7.607  16.173 -0.7366  0.3531  0.0763
    21BTZ    N237768   5.798   7.406  16.074 -0.5107  0.4848 -0.3815
    21BTZ    N337769   5.997   7.575  16.118 -0.6294  0.4639  0.2422
    21BTZ    S337770   5.971   7.421  16.031 -0.4357  0.5903 -0.0415
    31IDT   C1237771   5.960   7.820  16.294  0.6123  0.8456 -0.6895
    31IDT   C1337772   6.097   7.809  16.286  0.6725  1.8027 -1.1764
    31IDT   C1437773   6.165   7.899  16.373  0.3273  1.7044 -0.7977
    31IDT   C1537774   6.081   7.979  16.448  0.0026  0.6744 -0.0216
    31IDT    S437775   5.908   7.946  16.414  0.1099 -0.2597  0.2927
    4IDB    C1637776   6.164   8.075  16.530  0.3450 -0.2137  0.2774
    4IDB    C1737777   6.302   8.057  16.500  0.3228  0.2079 -0.1159
    51IDQ   C1837778   6.312   7.930  16.413  0.4486 -0.3845  0.5721
    4IDB    C1937779   6.399   8.138  16.557  0.2256  0.6497 -0.5679
    51IDQ   C2037780   6.385   7.993  16.289  0.3820  0.8867 -0.1231
    51IDQ   C2137781   6.394   7.798  16.447 -0.1027 -0.1211 -0.4261
    51IDQ   C2237782   6.468   7.796  16.578  0.4656 -0.1130 -0.2566
    51IDQ   C2337783   6.315   8.013  16.150  0.0230  0.7197 -0.1178
    51IDQ   C2437784   6.581   7.703  16.577 -0.4994  0.4582  0.2722
    51IDQ   C2537785   6.673   7.691  16.453 -0.4799  0.9124 -0.5184
    51IDQ   C2637786   6.798   7.594  16.465  1.0059 -0.3123  0.1034
    51IDQ   C2737787   6.850   7.529  16.335  0.5315  0.2355 -0.3109
    51IDQ   C2837788   6.884   7.636  16.233 -0.6953 -0.1432  0.2585
    51IDQ   C2937789   6.985   7.572  16.135 -0.2787 -0.3167  1.4398
    51IDQ   C3037790   6.413   8.076  16.051  0.7391 -0.9433 -0.3314
    51IDQ   C3137791   6.450   8.221  16.095 -0.9531  0.6589 -0.7669
    51IDQ   C3237792   6.371   8.337  16.050 -0.5144 -0.5603 -0.0689
    51IDQ   C3337793   6.309   8.338  15.906 -0.4061 -0.2845  0.1230
    51IDQ   C3437794   6.204   8.448  15.899 -0.3060 -0.5232 -0.4546
    51IDQ   C3537795   6.245   8.589  15.848 -0.1257  1.1328 -1.0064
    4IDB    C3637796   6.122   8.177  16.617  0.2698 -0.1954  0.2203
    4IDB    C3737797   6.222   8.259  16.674  0.1709  0.2593 -0.2446
    11RH    C3837798   5.062   7.161  16.059  0.5018 -0.3909 -0.8553
    4IDB    C3937799   6.357   8.239  16.644  0.1502  0.6680 -0.6257
    62IDT   C4037800   6.433   8.318  16.739 -0.2813 -0.2267  0.3801
    72IDQ   C4137801   6.209   8.382  16.763  1.1707 -0.2291  0.3906
    62IDT   C4237802   6.355   8.407  16.810  0.1870  0.1021  0.4897
    72IDQ   C4337803   6.120   8.345  16.891  0.4929 -0.3881 -0.2948
    72IDQ   C4437804   6.156   8.501  16.669 -1.4762  0.5473  0.3654
    62IDT    S537805   6.600   8.308  16.804 -0.0116 -0.3573 -0.3146
    62IDT   C4537806   6.554   8.430  16.930  0.7577  0.0599 -0.4248
    62IDT   C4637807   6.423   8.470  16.918  0.7751  0.2646  0.0353
    82BTZ   C4737808   6.654   8.492  17.022 -0.0908 -0.0594 -0.3782
    82BTZ   C4837809   6.782   8.443  17.019 -0.1175 -0.1315 -0.3586
    82BTZ   C4937810   6.892   8.517  17.075 -0.0972 -0.2329 -0.2642
    82BTZ   C5037811   6.875   8.639  17.134 -0.0500 -0.2620 -0.1906
    82BTZ   C5137812   6.630   8.619  17.083 -0.0414 -0.0861 -0.3033
    82BTZ   C5237813   6.742   8.694  17.140 -0.0207 -0.1891 -0.2069
    92RH    C5337814   6.981   8.727  17.181 -0.0443  0.2807  0.0359
    82BTZ    N437815   6.510   8.677  17.093 -0.0116 -0.0225 -0.3133
    82BTZ    N537816   6.713   8.812  17.195  0.0259 -0.2084 -0.1407
    82BTZ    S637817   6.536   8.833  17.176  0.0452 -0.0931 -0.1992
    92RH    C5437818   7.114   8.719  17.172 -0.0538  0.1190  0.0410
    92RH     S737819   7.211   8.582  17.098 -0.2109 -0.0841  0.2068
    92RH    C5537820   7.206   8.823  17.224  0.0663  0.0792 -0.0906
    92RH     O237821   7.172   8.928  17.280  0.1872  0.1883 -0.2198
    92RH     N637822   7.341   8.788  17.202  0.0266 -0.1018 -0.0528
    92RH    C5637823   7.369   8.669  17.138 -0.1106 -0.2118  0.0935
    92RH    C5737824   7.452   8.886  17.250  0.2198  0.3654  0.4469
    92RH    C5837825   7.502   8.986  17.151  0.8509 -1.1096  0.2271
    92RH     S837826   7.520   8.605  17.100 -0.1843 -0.4309  0.1669
    72IDQ   C5937827   6.161   8.647  16.716 -0.3041  0.4072  0.1603
    72IDQ   C6037828   6.029   8.696  16.797 -0.9115 -0.8131 -0.8401
    72IDQ   C6137829   5.895   8.721  16.729  0.1080 -1.0605  0.2453
    72IDQ   C6237830   5.907   8.823  16.606  0.1639  0.1316 -0.8465
    72IDQ   C6337831   5.776   8.850  16.529 -0.3647 -0.3108  0.0451
    72IDQ   C6437832   5.672   8.736  16.516 -0.0338 -0.3389  0.7510
    72IDQ   C6537833   5.543   8.755  16.434  0.3565  0.1986  0.0128
    72IDQ   C6637834   5.969   8.380  16.912 -0.3220  0.1394 -0.2489
    72IDQ   C6737835   5.905   8.307  17.029  0.6847  0.7192  1.0221
    72IDQ   C6837836   5.748   8.325  17.052 -0.4211  0.0793  0.6638
    72IDQ   C6937837   5.656   8.294  16.930 -0.4268  0.4015  0.8754
    72IDQ   C7037838   5.508   8.298  16.962  0.2036  0.0254  0.2157
    72IDQ   C7137839   5.455   8.450  16.980 -0.3285  0.7720  0.8775
    72IDQ   C7237840   5.420   8.512  16.845 -0.5097 -0.0041 -0.3006
    11RH     C137841   3.055   1.623  26.440  0.2080  0.2659 -0.0887
    11RH     C237842   2.922   1.562  26.413  0.2151  0.1273  0.1888
    11RH     N137843   3.055   1.698  26.559  0.3652  0.3102 -0.1155
    11RH     S137844   2.806   1.608  26.548  0.4281  0.0642  0.3963
    11RH     C337845   2.938   1.705  26.632  0.4975  0.2241  0.1073
    11RH     C437846   3.177   1.746  26.618  0.1452 -0.0015 -1.1173
    11RH     S237847   2.911   1.787  26.777  0.6961  0.2521  0.1292
    11RH     O137848   3.155   1.611  26.368  0.0817  0.3365 -0.2775
    11RH     C537849   2.896   1.487  26.307  0.0831  0.0616  0.2676
    21BTZ    C637850   2.767   1.432  26.254  0.6509  0.1816 -0.3408
    21BTZ    C737851   2.647   1.449  26.318  0.7738  0.2936 -0.1392
    21BTZ    C837852   2.772   1.346  26.139  0.4230  0.0081 -0.2217
    21BTZ    C937853   2.527   1.382  26.273  0.6797  0.2410  0.1869
    21BTZ   C1037854   2.527   1.299  26.165  0.4627  0.0767  0.3112
    21BTZ   C1137855   2.650   1.278  26.094  0.3272 -0.0453  0.1101
    21BTZ    N237856   2.883   1.322  26.068  0.2865 -0.1126 -0.3958
    21BTZ    N337857   2.663   1.200  25.987  0.1138 -0.2089  0.2027
    21BTZ    S337858   2.835   1.209  25.938  0.0244 -0.3036 -0.1367
    31IDT   C1237859   2.398   1.248  26.120  0.3338  0.6282  0.5129
    31IDT   C1337860   2.376   1.160  26.017  0.7925  0.9115  0.1688
    31IDT   C1437861   2.239   1.123  26.003  0.9121  0.6169 -0.2809
    31IDT   C1537862   2.155   1.181  26.096  0.5463  0.1084 -0.2828
    31IDT    S437863   2.245   1.289  26.209  0.0172 -0.0382  0.2902
    4IDB    C1637864   2.023   1.132  26.075  0.2063  0.1874 -0.2533
    4IDB    C1737865   2.016   1.052  25.957  0.0974  0.1512 -0.2232
    51IDQ   C1837866   2.151   1.061  25.890  0.4754 -0.0019 -0.3257
    4IDB    C1937867   1.902   0.979  25.927  0.0545  0.1730 -0.1154
    51IDQ   C2037868   2.191   0.919  25.818 -0.7333 -0.0006  0.8382
    51IDQ   C2137869   2.163   1.169  25.776  0.1899  0.6989  0.9971
    51IDQ   C2237870   2.065   1.282  25.732 -0.4165 -0.6572  0.6501
    51IDQ   C2337871   2.306   0.831  25.870  0.5164  0.7224  0.0008
    51IDQ   C2437872   2.093   1.325  25.584  0.3611  0.5236 -0.3876
    51IDQ   C2537873   2.223   1.390  25.548 -0.5273  0.6610  0.4667
    51IDQ   C2637874   2.229   1.448  25.408  0.3180 -0.2594 -0.2940
    51IDQ   C2737875   2.173   1.367  25.298 -0.3894 -0.3589  0.5555
    51IDQ   C2837876   2.179   1.435  25.150  1.0998  0.0591 -0.5142
    51IDQ   C2937877   2.132   1.344  25.040  0.2374 -0.0442  0.6669
    51IDQ   C3037878   2.341   0.702  25.789  0.2653 -0.1080  0.9117
    51IDQ   C3137879   2.240   0.644  25.683  0.2258 -0.3305  0.8581
    51IDQ   C3237880   2.268   0.493  25.662 -0.2342 -0.9419 -0.6480
    51IDQ   C3337881   2.159   0.436  25.577 -1.1454  0.4151  0.5393
    51IDQ   C3437882   2.192   0.293  25.545 -0.1520 -0.3403 -0.2720
    51IDQ   C3537883   2.107   0.222  25.437 -0.0211 -0.1492  0.2217
    4IDB    C3637884   1.914   1.139  26.165  0.2733  0.2460 -0.1760
    4IDB    C3737885   1.799   1.063  26.132  0.2280  0.2675 -0.0668
    11RH    C3837886   3.255   1.636  26.701 -0.0223  0.5696  0.4891
    4IDB    C3937887   1.794   0.985  26.016  0.1215  0.2316 -0.0384
    62IDT   C4037888   1.661   0.930  25.998 -0.0145 -0.0462 -0.4061
    72IDQ   C4137889   1.672   1.045  26.214  0.0640  1.1168  0.9416
    62IDT   C4237890   1.584   0.952  26.109 -0.0860 -0.2544 -0.4125
    72IDQ   C4337891   1.594   1.182  26.243 -0.4772  0.1062  0.1801
    72IDQ   C4437892   1.702   0.971  26.341  0.0793  0.5877  0.9326
    62IDT    S537893   1.573   0.835  25.873  0.1637 -0.0641 -0.5191
    62IDT   C4537894   1.429   0.831  25.984  0.1305 -0.3670 -0.5713
    62IDT   C4637895   1.452   0.896  26.102 -0.0042 -0.4360 -0.5054
    82BTZ   C4737896   1.317   0.733  25.952  0.1191 -0.2591  0.2359
    82BTZ   C4837897   1.334   0.655  25.841  0.1465 -0.0037  0.0591
    82BTZ   C4937898   1.228   0.571  25.790  0.0653  0.3311 -0.3309
    82BTZ   C5037899   1.105   0.566  25.850 -0.0431  0.4099 -0.5432
    82BTZ   C5137900   1.190   0.731  26.018  0.0067 -0.1892  0.0262
    82BTZ   C5237901   1.082   0.646  25.967 -0.0759  0.1511 -0.3705
    92RH    C5337902   0.991   0.489  25.810 -0.3118 -0.1895  0.0687
    82BTZ    N437903   1.161   0.803  26.128 -0.0300 -0.4168  0.1669
    82BTZ    N537904   0.967   0.650  26.034 -0.1789  0.1970 -0.5474
    82BTZ    S637905   0.992   0.764  26.170 -0.1747 -0.2012 -0.2081
    92RH    C5437906   0.987   0.398  25.713 -0.1041 -0.2271  0.0958
    92RH     S737907   1.130   0.334  25.616  0.0760 -0.1224  0.2916
    92RH    C5537908   0.862   0.332  25.667  0.0151 -0.3641 -0.0348
    92RH     O237909   0.748   0.353  25.712 -0.0613 -0.4585 -0.1807
    92RH     N637910   0.888   0.239  25.563  0.2314 -0.3756  0.0277
    92RH    C5637911   1.018   0.223  25.520  0.3001 -0.2646  0.1922
    92RH    C5737912   0.772   0.161  25.510 -0.8237  0.1329 -0.2358
    92RH    C5837913   0.703   0.241  25.398  0.3622 -0.1838 -0.5110
    92RH     S837914   1.074   0.120  25.400  0.5478 -0.2519  0.2966
    72IDQ   C5937915   1.770   0.828  26.339  0.2270 -1.0810 -0.5859
    72IDQ   C6037916   1.790   0.766  26.464 -0.4713 -0.1784 -0.6694
    72IDQ   C6137917   1.804   0.628  26.423 -0.4576  0.4965  0.5195
    72IDQ   C6237918   1.772   0.529  26.529  0.9744 -0.0896 -0.0524
    72IDQ   C6337919   1.709   0.392  26.505  0.3602  0.0545 -0.0940
    72IDQ   C6437920   1.771   0.304  26.395  0.3255 -0.5788  0.6395
    72IDQ   C6537921   1.695   0.189  26.354  1.4348  0.1341  0.4735
    72IDQ   C6637922   1.670   1.303  26.302  0.3462  0.1188  0.4650
    72IDQ   C6737923   1.626   1.450  26.308 -0.7551  0.2640  0.6038
    72IDQ   C6837924   1.532   1.483  26.187 -0.6478  0.3197 -0.7763
    72IDQ   C6937925   1.459   1.609  26.167  0.0464 -0.4988 -0.1577
    72IDQ   C7037926   1.534   1.725  26.229  0.1611 -0.5429 -1.4913
    72IDQ   C7137927   1.465   1.794  26.340  0.1672 -0.6638 -0.0727
    72IDQ   C7237928   1.567   1.868  26.428 -0.2794 -0.3328 -1.0095
    11RH     C137929   3.274   1.663  22.227 -0.2347 -0.1478 -0.0491
    11RH     C237930   3.310   1.719  22.094 -0.1888 -0.1313 -0.0300
    11RH     N137931   3.173   1.566  22.216 -0.2535 -0.1235 -0.0922
    11RH     S137932   3.209   1.639  21.964 -0.1734 -0.0850 -0.0705
    11RH     C337933   3.123   1.536  22.091 -0.2283 -0.0896 -0.1111
    11RH     C437934   3.127   1.502  22.337  0.2160  1.3226  0.1966
    11RH     S237935   3.003   1.425  22.051 -0.2429 -0.0558 -0.1621
    11RH     O137936   3.325   1.696  22.335 -0.2548 -0.1789 -0.0310
    11RH     C537937   3.404   1.813  22.076 -0.1636 -0.1486  0.0106
    21BTZ    C637938   3.457   1.882  21.955  0.0784  0.5078  0.1714
    21BTZ    C737939   3.415   1.853  21.828 -0.0170  0.7204  0.1535
    21BTZ    C837940   3.561   1.978  21.973  0.2414  0.3187  0.2422
    21BTZ    C937941   3.474   1.917  21.712  0.0426  0.7577  0.2041
    21BTZ   C1037942   3.574   2.009  21.725  0.1974  0.5825  0.2726
    21BTZ   C1137943   3.621   2.043  21.856  0.3020  0.3567  0.2937
    21BTZ    N237944   3.610   2.014  22.092  0.3458  0.1039  0.2666
    21BTZ    N337945   3.718   2.131  21.881  0.4550  0.1724  0.3600
    21BTZ    S337946   3.737   2.136  22.059  0.5298 -0.0623  0.3577
    31IDT   C1237947   3.615   2.089  21.606  1.0077 -0.4955 -0.7976
    31IDT   C1337948   3.702   2.193  21.593  1.0926 -0.5829 -0.9356
    31IDT   C1437949   3.709   2.245  21.460  0.6426 -0.3361 -0.8669
    31IDT   C1537950   3.627   2.180  21.371  0.2127 -0.0595 -0.6764
    31IDT    S437951   3.533   2.048  21.448  0.3456 -0.0905 -0.5686
    4IDB    C1637952   3.655   2.230  21.247  0.0203  0.1068  0.7700
    4IDB    C1737953   3.748   2.338  21.253 -0.1173  0.2548  0.3133
    51IDQ   C1837954   3.788   2.363  21.395  0.8765  0.3708  0.3704
    4IDB    C1937955   3.791   2.402  21.137 -0.1323 -0.2341  0.0319
    51IDQ   C2037956   3.942   2.348  21.407 -0.4250  0.1195 -0.9123
    51IDQ   C2137957   3.736   2.497  21.466  0.0721 -0.0437  0.2944
    51IDQ   C2237958   3.633   2.592  21.407  0.0627  0.8427 -0.8969
    51IDQ   C2337959   4.017   2.232  21.484  0.7350 -0.2759  1.0370
    51IDQ   C2437960   3.633   2.714  21.483  0.5586 -0.9014 -0.5318
    51IDQ   C2537961   3.540   2.732  21.605  0.8584 -0.0609 -0.7706
    51IDQ   C2637962   3.456   2.859  21.633 -0.7692 -0.2659 -0.0923
    51IDQ   C2737963   3.345   2.872  21.529 -0.0544  0.8930 -0.4257
    51IDQ   C2837964   3.219   2.801  21.538  1.6636 -0.1649 -0.0501
    51IDQ   C2937965   3.137   2.823  21.408  0.1399 -0.8963 -0.2775
    51IDQ   C3037966   4.160   2.197  21.473  0.1662 -0.0876  0.3959
    51IDQ   C3137967   4.267   2.294  21.529 -0.2411 -0.5435 -0.4039
    51IDQ   C3237968   4.415   2.253  21.506  0.0969  0.1812 -0.4249
    51IDQ   C3337969   4.525   2.363  21.484  0.6778 -0.0216  0.4622
    51IDQ   C3437970   4.529   2.478  21.574  0.0557  0.4792 -0.6282
    51IDQ   C3537971   4.562   2.449  21.720  0.8714  0.7469  0.5439
    4IDB    C3637972   3.605   2.184  21.124  0.1445 -0.5352  0.9484
    4IDB    C3737973   3.650   2.251  21.007  0.1272 -1.0284  0.6557
    11RH    C3837974   3.204   1.373  22.356 -0.8811  0.4682  0.8383
    4IDB    C3937975   3.740   2.357  21.014 -0.0080 -0.8761  0.2101
    62IDT   C4037976   3.756   2.415  20.885  0.5500 -0.2393 -0.1166
    72IDQ   C4137977   3.597   2.236  20.860 -0.2605  0.5932 -0.4284
    62IDT   C4237978   3.679   2.345  20.794  0.4634 -0.1512 -0.1116
    72IDQ   C4337979   3.443   2.289  20.839 -0.2499  0.2134  0.5305
    72IDQ   C4437980   3.613   2.079  20.817  0.8913  0.2511  0.0938
    62IDT    S537981   3.842   2.552  20.808  0.2135  0.0398 -0.0029
    62IDT   C4537982   3.767   2.506  20.650 -0.0389  0.2723  0.0476
    62IDT   C4637983   3.685   2.396  20.661  0.1304  0.1381 -0.0186
    82BTZ   C4737984   3.822   2.574  20.530  0.3192 -0.1562 -0.0480
    82BTZ   C4837985   3.910   2.677  20.551  0.2245 -0.0882  0.0181
    82BTZ   C4937986   3.973   2.748  20.442  0.1568  0.0423  0.0639
    82BTZ   C5037987   3.946   2.716  20.312  0.1838  0.1046  0.0429
    82BTZ   C5137988   3.791   2.537  20.395  0.3511 -0.0952 -0.0730
    82BTZ   C5237989   3.855   2.609  20.284  0.2823  0.0375 -0.0257
    92RH    C5337990   4.022   2.775  20.198 -0.4400 -0.1331 -0.2344
    82BTZ    N437991   3.707   2.439  20.361  0.4415 -0.1514 -0.1359
    82BTZ    N537992   3.821   2.569  20.161  0.3173  0.0879 -0.0515
    82BTZ    S637993   3.705   2.435  20.182  0.4425 -0.0346 -0.1389
    92RH    C5437994   4.119   2.866  20.197 -0.4812 -0.0874 -0.1106
    92RH     S737995   4.179   2.965  20.340 -0.7256 -0.0412 -0.0394
    92RH    C5537996   4.196   2.903  20.075 -0.3295 -0.0669 -0.0086
    92RH     O237997   4.180   2.854  19.962 -0.1497 -0.0889 -0.0257
    92RH     N637998   4.292   3.002  20.103 -0.4144 -0.0179  0.1125
    92RH    C5637999   4.302   3.050  20.232 -0.6155  0.0032  0.1211
    92RH    C5738000   4.361   3.061  19.979 -0.4812  1.1591 -1.2471
    92RH    C5838001   4.503   2.993  19.979 -0.1237 -0.9487  0.0439
    92RH     S838002   4.408   3.167  20.291 -0.7522  0.0604  0.2546
    72IDQ   C5938003   3.751   2.034  20.783 -0.4967  0.3273 -0.0839
    72IDQ   C6038004   3.758   1.899  20.714  0.2578  0.0718 -0.0954
    72IDQ   C6138005   3.905   1.863  20.699 -0.3361  0.0822  0.2650
    72IDQ   C6238006   3.931   1.759  20.580 -0.0091  0.2720 -0.1714
    72IDQ   C6338007   3.841   1.641  20.556  0.7344  0.8322  0.1975
    72IDQ   C6438008   3.857   1.520  20.648 -0.6552  0.2476 -0.6637
    72IDQ   C6538009   3.774   1.394  20.633  0.5856 -0.7879  0.0002
    72IDQ   C6638010   3.345   2.299  20.958  0.8719  0.8369 -1.7552
    72IDQ   C6738011   3.352   2.433  21.043  0.2524  0.5537  0.1020
    72IDQ   C6838012   3.334   2.562  20.974  0.3389  0.2652  0.4081
    72IDQ   C6938013   3.346   2.687  21.054 -0.2464  0.1415  0.6531
    72IDQ   C7038014   3.497   2.726  21.090  0.2312  0.1825 -0.6387
    72IDQ   C7138015   3.584   2.834  21.014  0.9419 -0.5238 -0.5278
    72IDQ   C7238016   3.511   2.968  21.004  0.8563  0.2914  0.1447
    11RH     C138017   5.159   6.915  18.870 -0.0223 -0.0204  0.0033
    11RH     C238018   5.280   6.941  18.951 -0.0410  0.1116 -0.0095
    11RH     N138019   5.059   7.012  18.894 -0.0155  0.0375 -0.2006
    11RH     S138020   5.256   7.091  19.054 -0.0484  0.3031 -0.2893
    11RH     C338021   5.086   7.113  18.984 -0.0263  0.1997 -0.3757
    11RH     C438022   4.918   6.993  18.844 -0.6672 -0.3850  0.1875
    11RH     S238023   4.985   7.240  19.030 -0.0215  0.2983 -0.6342
    11RH     O138024   5.144   6.821  18.790 -0.0135 -0.1644  0.1707
    11RH     C538025   5.389   6.863  18.947 -0.0506  0.0891  0.1613
    21BTZ    C638026   5.536   6.885  18.980  0.1201  0.0186  0.3774
    21BTZ    C738027   5.571   6.995  19.053  0.2015 -0.1334  0.5713
    21BTZ    C838028   5.633   6.780  18.964  0.0161 -0.0592  0.2604
    21BTZ    C938029   5.702   7.008  19.113  0.1849 -0.3678  0.6604
    21BTZ   C1038030   5.797   6.911  19.101  0.0869 -0.4500  0.5542
    21BTZ   C1138031   5.765   6.793  19.026 -0.0008 -0.2974  0.3505
    21BTZ    N238032   5.610   6.667  18.896 -0.0691  0.0722  0.0696
    21BTZ    N338033   5.849   6.691  19.006 -0.0997 -0.3575  0.2327
    21BTZ    S338034   5.761   6.571  18.907 -0.1771 -0.1066 -0.0038
    31IDT   C1238035   5.927   6.945  19.158 -0.3612 -0.3015  0.0241
    31IDT   C1338036   6.050   6.890  19.133 -0.2701  0.0250 -0.2642
    31IDT   C1438037   6.157   6.967  19.189 -0.3399  0.3215 -0.5360
    31IDT   C1538038   6.116   7.081  19.255 -0.4848  0.2233 -0.4572
    31IDT    S438039   5.938   7.099  19.253 -0.5442 -0.2569 -0.0276
    4IDB    C1638040   6.233   7.150  19.309 -0.0892  0.0017 -0.2793
    4IDB    C1738041   6.348   7.070  19.284  0.0255  0.1538 -0.2403
    51IDQ   C1838042   6.315   6.948  19.200 -0.1173 -0.1187  0.1645
    4IDB    C1938043   6.473   7.107  19.333 -0.1238  0.0679  0.2138
    51IDQ   C2038044   6.401   6.964  19.071  0.7823  0.3628 -0.1938
    51IDQ   C2138045   6.336   6.812  19.264  0.1492  1.5962  1.5179
    51IDQ   C2238046   6.389   6.771  19.391  0.2321 -0.3806 -0.4620
    51IDQ   C2338047   6.344   6.977  18.934  0.1712  0.0217  0.5643
    51IDQ   C2438048   6.404   6.627  19.429  0.6188 -0.5164  0.0724
    51IDQ   C2538049   6.467   6.605  19.559 -0.1019  0.0776  0.1103
    51IDQ   C2638050   6.489   6.455  19.593  0.2755 -0.8329 -0.4415
    51IDQ   C2738051   6.561   6.447  19.729 -0.2422  0.8904 -0.6349
    51IDQ   C2838052   6.580   6.304  19.775  0.5236 -0.3320  0.4359
    51IDQ   C2938053   6.626   6.289  19.914  0.1355 -0.4055 -0.7296
    51IDQ   C3038054   6.459   6.991  18.821  0.2906 -0.8101 -0.7154
    51IDQ   C3138055   6.535   7.127  18.804 -1.2425  0.4425  0.5035
    51IDQ   C3238056   6.632   7.170  18.910  1.0498 -0.7699  0.0123
    51IDQ   C3338057   6.732   7.276  18.873  0.2050  0.2187  0.5700
    51IDQ   C3438058   6.846   7.308  18.965  0.1871  0.6254 -0.6906
    51IDQ   C3538059   6.800   7.346  19.111 -0.2965 -0.4141  0.1636
    4IDB    C3638060   6.242   7.268  19.384 -0.3556 -0.2383  0.1392
    4IDB    C3738061   6.370   7.304  19.433 -0.5050 -0.3228  0.6003
    11RH    C3838062   4.900   7.039  18.696 -0.0037  0.6584  0.0330
    4IDB    C3938063   6.482   7.225  19.408 -0.3900 -0.1722  0.6321
    62IDT   C4038064   6.601   7.281  19.460 -0.1730 -0.5939  0.8704
    72IDQ   C4138065   6.420   7.431  19.501  0.6621 -0.0192 -0.0883
    62IDT   C4238066   6.567   7.402  19.516  0.0340 -0.6491  1.1177
    72IDQ   C4338067   6.361   7.454  19.643  0.3128  0.5730 -0.6129
    72IDQ   C4438068   6.387   7.550  19.410  0.9116 -0.5073  0.4383
    62IDT    S538069   6.778   7.253  19.464 -0.1434 -0.5664  0.1167
    62IDT   C4538070   6.798   7.414  19.546  0.1619 -0.6343  0.1802
    62IDT   C4638071   6.678   7.478  19.565  0.2235 -0.6719  0.7281
    82BTZ   C4738072   6.936   7.456  19.578  0.2753  0.1790  0.2412
    82BTZ   C4838073   7.033   7.375  19.525  0.2387  0.2328  0.0906
    82BTZ   C4938074   7.172   7.415  19.522  0.2215  0.2814 -0.0639
    82BTZ   C5038075   7.213   7.536  19.572  0.2410  0.2760 -0.0668
    82BTZ   C5138076   6.974   7.583  19.631  0.2970  0.1711  0.2446
    82BTZ   C5238077   7.115   7.624  19.628  0.2794  0.2205  0.0877
    92RH    C5338078   7.351   7.578  19.585  0.3664 -0.2134  0.3940
    82BTZ    N438079   6.889   7.671  19.685  0.3330  0.1208  0.3839
    82BTZ    N538080   7.143   7.744  19.679  0.3014  0.2098  0.1006
    82BTZ    S638081   6.987   7.812  19.735  0.3461  0.1347  0.3186
    92RH    C5438082   7.465   7.516  19.555  0.2671 -0.3118  0.2179
    92RH     S738083   7.484   7.345  19.490  0.0236 -0.3489  0.2448
    92RH    C5538084   7.599   7.578  19.570  0.3424 -0.4086 -0.0339
    92RH     O238085   7.621   7.693  19.612  0.5032 -0.4103 -0.1111
    92RH     N638086   7.702   7.490  19.531  0.2074 -0.5014 -0.1817
    92RH    C5638087   7.667   7.364  19.486  0.0331 -0.4908 -0.0787
    92RH    C5738088   7.835   7.533  19.558 -0.2796 -0.3539  1.6669
    92RH    C5838089   7.897   7.578  19.426  0.1233  0.2126 -0.3563
    92RH     S838090   7.770   7.241  19.433 -0.1513 -0.5879 -0.2136
    72IDQ   C5938091   6.241   7.623  19.421 -0.6070 -0.1239  1.3167
    72IDQ   C6038092   6.224   7.741  19.326  0.0803  0.2252  0.3234
    72IDQ   C6138093   6.075   7.788  19.341  0.3715  0.1449  0.5351
    72IDQ   C6238094   6.007   7.890  19.244  1.3797  0.2433 -0.5962
    72IDQ   C6338095   5.897   7.967  19.315  0.7639 -0.1184 -0.0605
    72IDQ   C6438096   5.771   7.897  19.376 -0.1353  0.7973  1.0686
    72IDQ   C6538097   5.661   7.989  19.438 -0.0154  0.1775  0.0797
    72IDQ   C6638098   6.392   7.582  19.717  0.0119 -0.4513 -0.8837
    72IDQ   C6738099   6.314   7.608  19.853 -0.4534  0.6817  0.1394
    72IDQ   C6838100   6.161   7.609  19.837  0.1362  0.1431  0.1856
    72IDQ   C6938101   6.068   7.618  19.957  0.9264 -1.2015 -0.2134
    72IDQ   C7038102   5.919   7.641  19.914 -0.6721  0.8993 -0.7453
    72IDQ   C7138103   5.880   7.752  19.820  0.7265  0.1298 -0.6461
    72IDQ   C7238104   5.738   7.729  19.788  0.5113 -0.4592  0.2333
    11RH     C138105   3.287   3.582  20.106 -0.3457  0.4115 -0.1378
    11RH     C238106   3.267   3.609  20.250 -0.0982  0.1498 -0.0539
    11RH     N138107   3.195   3.486  20.059 -0.3536  0.4146 -0.1290
    11RH     S138108   3.130   3.507  20.315  0.1083 -0.0752  0.0321
    11RH     C338109   3.104   3.433  20.148 -0.1425  0.1873 -0.0482
    11RH     C438110   3.199   3.439  19.920 -0.3834 -0.4869  1.0520
    11RH     S238111   2.985   3.317  20.117 -0.1031  0.1390 -0.0205
    11RH     O138112   3.372   3.636  20.033 -0.5266  0.6067 -0.2074
    11RH     C538113   3.342   3.696  20.319 -0.0414  0.0943 -0.0443
    21BTZ    C638114   3.348   3.718  20.462 -0.0891 -0.0054 -0.1139
    21BTZ    C738115   3.272   3.659  20.560  0.0398 -0.2896 -0.1826
    21BTZ    C838116   3.448   3.813  20.500 -0.1230 -0.0232  0.0200
    21BTZ    C938117   3.291   3.691  20.699  0.1414 -0.6035 -0.1240
    21BTZ   C1038118   3.385   3.781  20.740  0.1138 -0.6328  0.0045
    21BTZ   C1138119   3.467   3.846  20.641 -0.0198 -0.3422  0.0806
    21BTZ    N238120   3.527   3.877  20.413 -0.2450  0.2361  0.0978
    21BTZ    N338121   3.562   3.935  20.669 -0.0589 -0.3394  0.2065
    21BTZ    S338122   3.632   3.984  20.512 -0.2329  0.0802  0.2545
    31IDT   C1238123   3.392   3.813  20.887  0.2651  0.0927 -0.0351
    31IDT   C1338124   3.503   3.857  20.953  0.1834  0.2517 -0.0019
    31IDT   C1438125   3.482   3.874  21.093  0.0899  0.3175 -0.0229
    31IDT   C1538126   3.355   3.842  21.135  0.0998  0.2094 -0.0734
    31IDT    S438127   3.250   3.789  20.999  0.2294  0.0140 -0.0975
    4IDB    C1638128   3.338   3.866  21.268 -0.0519  0.2076 -0.0396
    4IDB    C1738129   3.457   3.925  21.322  0.2574 -0.5681  0.1502
    51IDQ   C1838130   3.570   3.930  21.211  0.4611  0.0674 -0.5033
    4IDB    C1938131   3.464   3.958  21.457  0.2508 -0.6025  0.1595
    51IDQ   C2038132   3.601   4.080  21.212  0.1359 -0.3315 -0.2247
    51IDQ   C2138133   3.696   3.849  21.240  0.1599 -0.3291 -0.0383
    51IDQ   C2238134   3.704   3.757  21.366 -0.1943  0.7309 -1.0298
    51IDQ   C2338135   3.563   4.196  21.123  0.3907  0.1598  0.0009
    51IDQ   C2438136   3.839   3.676  21.379  0.9159 -0.8662  0.0155
    51IDQ   C2538137   3.865   3.632  21.525  0.4237  1.3330 -0.4092
    51IDQ   C2638138   4.012   3.600  21.557  0.3704 -0.5856  0.2240
    51IDQ   C2738139   4.117   3.703  21.502  0.3727 -0.4336 -0.0023
    51IDQ   C2838140   4.248   3.687  21.564  0.2410 -0.7406 -0.8764
    51IDQ   C2938141   4.324   3.810  21.544  0.0009 -0.0527 -0.0482
    51IDQ   C3038142   3.438   4.271  21.175 -0.1909 -0.2037 -0.5430
    51IDQ   C3138143   3.300   4.209  21.195  0.2150 -0.3312  0.2019
    51IDQ   C3238144   3.191   4.312  21.220 -0.0043 -0.2025  0.4313
    51IDQ   C3338145   3.184   4.435  21.122 -1.4664  0.5147  0.4122
    51IDQ   C3438146   3.114   4.412  20.981 -0.1749 -0.2710  0.1338
    51IDQ   C3538147   3.122   4.548  20.906 -0.4036 -0.2987  0.6395
    4IDB    C3638148   3.226   3.840  21.348 -0.3716  0.9578 -0.2232
    4IDB    C3738149   3.236   3.874  21.486 -0.3734  0.9105 -0.2108
    11RH    C3838150   3.124   3.529  19.818  0.1255 -0.6052 -0.4284
    4IDB    C3938151   3.352   3.932  21.538 -0.0690  0.1477 -0.0236
    62IDT   C4038152   3.338   3.958  21.684 -0.3830  0.2513  0.0511
    72IDQ   C4138153   3.141   3.852  21.611 -0.6190 -0.0087  0.1718
    62IDT   C4238154   3.219   3.908  21.731 -0.3884  0.3681  0.1626
    72IDQ   C4338155   3.102   3.696  21.639  0.0441  0.1234  0.8160
    72IDQ   C4438156   3.010   3.935  21.621  0.7025 -0.0447  0.2724
    62IDT    S538157   3.437   4.032  21.815 -0.0293 -0.1632  0.0222
    62IDT   C4538158   3.305   3.989  21.932  0.0989 -0.1560  0.1699
    62IDT   C4638159   3.200   3.926  21.872 -0.1159  0.1382  0.2294
    82BTZ   C4738160   3.317   4.016  22.074  0.3927  0.2110 -0.1028
    82BTZ   C4838161   3.271   4.139  22.114  0.1385  0.0783  0.0205
    82BTZ   C4938162   3.295   4.189  22.247 -0.3516 -0.1905  0.2141
    82BTZ   C5038163   3.365   4.115  22.340 -0.5866 -0.3260  0.2847
    82BTZ   C5138164   3.390   3.936  22.167  0.1622  0.0775 -0.0353
    82BTZ   C5238165   3.414   3.986  22.302 -0.3359 -0.1957  0.1612
    92RH    C5338166   3.402   4.168  22.472 -0.4169 -0.2432 -0.0205
    82BTZ    N438167   3.439   3.815  22.139  0.3724  0.1858 -0.1421
    82BTZ    N538168   3.483   3.906  22.384 -0.5261 -0.3071  0.2127
    82BTZ    S638169   3.520   3.759  22.289 -0.0671 -0.0622  0.0084
    92RH    C5438170   3.383   4.283  22.538 -0.1990 -0.1379 -0.1392
    92RH     S738171   3.303   4.435  22.475  0.3269  0.0414 -0.3836
    92RH    C5538172   3.426   4.304  22.679 -0.3574 -0.1518 -0.0877
    92RH     O238173   3.484   4.221  22.750 -0.7033 -0.2600  0.0677
    92RH     N638174   3.394   4.434  22.723 -0.0629 -0.0246 -0.2390
    92RH    C5638175   3.330   4.520  22.636  0.3121  0.0894 -0.4063
    92RH    C5738176   3.436   4.485  22.861  0.3481 -0.6289  0.5114
    92RH    C5838177   3.327   4.492  22.969 -0.5174 -0.3722 -0.2600
    92RH     S838178   3.281   4.679  22.664  0.7132  0.2519 -0.6061
    72IDQ   C5938179   2.981   4.030  21.502 -0.7773 -0.9667 -0.4983
    72IDQ   C6038180   2.869   4.135  21.518 -0.6165  0.3039  0.1095
    72IDQ   C6138181   2.731   4.085  21.548  0.4893  0.4735 -1.3328
    72IDQ   C6238182   2.641   4.197  21.557 -0.4401 -0.3039 -0.2648
    72IDQ   C6338183   2.650   4.308  21.654 -0.3539 -0.3245 -0.9170
    72IDQ   C6438184   2.538   4.313  21.756 -0.1492  0.4489  0.5119
    72IDQ   C6538185   2.546   4.433  21.845  0.5285  0.0449  0.1344
    72IDQ   C6638186   2.978   3.626  21.574 -0.4562 -1.0616 -0.4990
    72IDQ   C6738187   2.969   3.634  21.424 -0.7306 -0.0622 -0.1017
    72IDQ   C6838188   2.844   3.573  21.366  0.6636  0.6467  0.0471
    72IDQ   C6938189   2.822   3.637  21.231  0.2704 -1.4570 -1.1768
    72IDQ   C7038190   2.811   3.534  21.116  0.2016 -0.0532 -1.4192
    72IDQ   C7138191   2.714   3.417  21.123  1.3162  0.9494 -1.3674
    72IDQ   C7238192   2.749   3.300  21.033  0.8195 -0.1289  0.2134
    11RH     C138193   4.406   1.201  19.852  0.1465 -0.2862 -0.3276
    11RH     C238194   4.399   1.312  19.950 -0.1070 -0.2615 -0.3734
    11RH     N138195   4.460   1.084  19.910  0.4530 -0.1296 -0.2878
    11RH     S138196   4.462   1.256  20.113  0.0738 -0.0339 -0.3628
    11RH     C338197   4.495   1.088  20.043  0.4758  0.0176 -0.2975
    11RH     C438198   4.495   0.962  19.844  0.1830 -0.9094  0.1388
    11RH     S238199   4.561   0.963  20.136  0.8098  0.2191 -0.2580
    11RH     O138200   4.371   1.208  19.733  0.1023 -0.4253 -0.3228
    11RH     C538201   4.352   1.434  19.920 -0.4183 -0.3894 -0.4157
    21BTZ    C638202   4.326   1.550  19.998 -0.2630 -0.3112 -0.1159
    21BTZ    C738203   4.364   1.560  20.129 -0.1333 -0.3175 -0.1531
    21BTZ    C838204   4.265   1.664  19.936 -0.2300 -0.2739 -0.0806
    21BTZ    C938205   4.345   1.681  20.205  0.0345 -0.2877 -0.1574
    21BTZ   C1038206   4.287   1.792  20.150  0.0721 -0.2515 -0.1245
    21BTZ   C1138207   4.245   1.787  20.013 -0.0596 -0.2436 -0.0839
    21BTZ    N238208   4.224   1.667  19.809 -0.3458 -0.2643 -0.0424
    21BTZ    N338209   4.188   1.889  19.948 -0.0385 -0.2096 -0.0496
    21BTZ    S338210   4.156   1.831  19.782 -0.2399 -0.2151 -0.0095
    31IDT   C1238211   4.253   1.903  20.248 -0.1071 -0.0489  0.1307
    31IDT   C1338212   4.230   2.033  20.210  0.2470 -0.0517 -0.1059
    31IDT   C1438213   4.217   2.122  20.321  0.5407  0.1982 -0.2670
    31IDT   C1538214   4.230   2.061  20.444  0.4129  0.3927 -0.1553
    31IDT    S438215   4.260   1.884  20.429 -0.0941  0.2733  0.1658
    4IDB    C1638216   4.214   2.162  20.550 -0.2184  0.1512 -0.2096
    4IDB    C1738217   4.186   2.286  20.487 -0.2109  0.2196 -0.0796
    51IDQ   C1838218   4.199   2.272  20.335 -0.4068  0.5919 -0.7035
    4IDB    C1938219   4.165   2.402  20.561  0.1022  0.2085  0.0283
    51IDQ   C2038220   4.081   2.335  20.282  0.3557 -0.5354  0.1464
    51IDQ   C2138221   4.327   2.340  20.269  0.2873 -0.1349 -0.0120
    51IDQ   C2238222   4.431   2.416  20.365 -0.0267 -0.0779 -0.3938
    51IDQ   C2338223   3.982   2.244  20.194 -0.2277 -0.3264 -0.1090
    51IDQ   C2438224   4.550   2.477  20.285  0.2663  0.7359  0.3488
    51IDQ   C2538225   4.632   2.585  20.355  1.0690  0.2986  0.5065
    51IDQ   C2638226   4.573   2.729  20.335  0.5678  0.8724 -0.2294
    51IDQ   C2738227   4.615   2.845  20.424 -0.4112 -0.3580  0.3024
    51IDQ   C2838228   4.659   2.815  20.568  0.6555 -0.1433 -1.0343
    51IDQ   C2938229   4.708   2.932  20.664  0.6096  0.2284  0.4953
    51IDQ   C3038230   3.993   2.257  20.039  0.8401  0.0013 -0.2169
    51IDQ   C3138231   4.106   2.310  19.959 -0.6097 -0.1947  0.4695
    51IDQ   C3238232   4.077   2.374  19.822  1.0115  0.1489  0.2379
    51IDQ   C3338233   3.965   2.314  19.734  0.1849 -0.2054  0.8295
    51IDQ   C3438234   3.960   2.162  19.709 -0.0308 -0.2257  0.2074
    51IDQ   C3538235   3.832   2.121  19.645  0.0164 -1.0937  1.1554
    4IDB    C3638236   4.222   2.152  20.690  0.0893  0.0706 -0.2308
    4IDB    C3738237   4.200   2.271  20.765  0.4069  0.0604 -0.1183
    11RH    C3838238   4.383   0.864  19.814 -0.6886 -0.2823 -0.6163
    4IDB    C3938239   4.172   2.392  20.701  0.4099  0.1279  0.0076
    62IDT   C4038240   4.171   2.502  20.790 -0.6621  0.3343 -0.6395
    72IDQ   C4138241   4.228   2.301  20.918  0.2902  0.0878  0.6614
    62IDT   C4238242   4.197   2.455  20.917 -0.9705 -0.2931 -0.8011
    72IDQ   C4338243   4.376   2.273  20.976  0.5007 -0.3351  0.0433
    72IDQ   C4438244   4.120   2.235  21.021  0.5426 -0.7667 -0.3552
    62IDT    S538245   4.159   2.681  20.786  0.0295  0.4090  0.0844
    62IDT   C4538246   4.191   2.683  20.965 -0.1432 -0.4542  0.1323
    62IDT   C4638247   4.209   2.557  21.016 -0.6775 -0.7398 -0.3648
    82BTZ   C4738248   4.205   2.812  21.029  0.3526  0.1064  0.0135
    82BTZ   C4838249   4.294   2.905  20.981  0.3651  0.1668  0.1545
    82BTZ   C4938250   4.278   3.045  21.010  0.2974  0.1420  0.2394
    82BTZ   C5038251   4.175   3.092  21.087  0.2171  0.0569  0.1836
    82BTZ   C5138252   4.095   2.856  21.109  0.2697  0.0164 -0.0505
    82BTZ   C5238253   4.080   2.999  21.139  0.2007 -0.0087  0.0362
    92RH    C5338254   4.146   3.236  21.121  0.3564 -0.0069  0.2490
    82BTZ    N438255   4.003   2.774  21.161  0.2494 -0.0482 -0.1869
    82BTZ    N538256   3.975   3.032  21.214  0.1252 -0.0936 -0.0305
    82BTZ    S638257   3.889   2.879  21.252  0.1393 -0.1461 -0.2112
    92RH    C5438258   4.208   3.349  21.082  0.1994  0.0241  0.0873
    92RH     S738259   4.372   3.362  21.003 -0.0678  0.0967 -0.4628
    92RH    C5538260   4.149   3.484  21.099  0.2196  0.0033  0.3400
    92RH     O238261   4.038   3.509  21.149  0.3808 -0.0442  0.7229
    92RH     N638262   4.235   3.584  21.049  0.0298  0.0447  0.0900
    92RH    C5638263   4.356   3.545  20.995 -0.1397  0.0961 -0.3328
    92RH    C5738264   4.191   3.723  21.058 -0.3525 -0.1939  0.1558
    92RH    C5838265   4.259   3.813  21.163  0.5774  0.8124 -0.0115
    92RH     S838266   4.476   3.644  20.929 -0.3818  0.1522 -0.6971
    72IDQ   C5938267   4.094   2.090  21.030 -1.0193  0.1821 -0.2044
    72IDQ   C6038268   3.991   2.043  21.131 -0.8783 -0.1827  0.1216
    72IDQ   C6138269   3.933   1.904  21.098  0.6525  0.1905 -0.2486
    72IDQ   C6238270   3.845   1.858  21.225  0.6528 -1.0837 -0.0892
    72IDQ   C6338271   3.778   1.720  21.219  0.2416  0.2619  0.2782
    72IDQ   C6438272   3.850   1.596  21.163 -0.1742 -0.2471 -0.4891
    72IDQ   C6538273   3.766   1.475  21.170  1.1113  0.3426  1.7671
    72IDQ   C6638274   4.505   2.270  20.890 -0.2054 -0.3438  0.0918
    72IDQ   C6738275   4.630   2.331  20.953  0.7352 -0.0509 -0.0003
    72IDQ   C6838276   4.676   2.254  21.075 -0.4886  0.2803  0.6217
    72IDQ   C6938277   4.780   2.323  21.158  0.1430  0.2550  0.8464
    72IDQ   C7038278   4.920   2.260  21.144 -0.7339 -0.9078 -0.8260
    72IDQ   C7138279   5.023   2.336  21.240 -0.3044  0.2391  0.1809
    72IDQ   C7238280   5.002   2.359  21.389 -0.0282 -0.9668  0.5906
    11RH     C138281   3.440   3.979  18.723  0.3322  0.3393 -0.4039
    11RH     C238282   3.393   4.119  18.732  0.1906  0.2902 -0.3815
    11RH     N138283   3.395   3.917  18.604  0.4018  0.3153 -0.4178
    11RH     S138284   3.292   4.160  18.584  0.1579  0.2157 -0.3811
    11RH     C338285   3.318   3.990  18.517  0.3331  0.2530 -0.4101
    11RH     C438286   3.444   3.778  18.576  0.7805 -0.1333  0.1674
    11RH     S238287   3.252   3.940  18.370  0.3921  0.2131 -0.4225
    11RH     O138288   3.511   3.921  18.807  0.3857  0.3948 -0.4101
    11RH     C538289   3.421   4.200  18.835  0.1029  0.3008 -0.3656
    21BTZ    C638290   3.389   4.335  18.876 -0.1172 -0.4366  0.1671
    21BTZ    C738291   3.309   4.416  18.800 -0.2654 -0.5525  0.2003
    21BTZ    C838292   3.438   4.385  19.002 -0.0329 -0.3188  0.0877
    21BTZ    C938293   3.272   4.549  18.843 -0.3377 -0.5587  0.1578
    21BTZ   C1038294   3.316   4.601  18.962 -0.2617 -0.4490  0.0822
    21BTZ   C1138295   3.401   4.520  19.045 -0.1065 -0.3251  0.0443
    21BTZ    N238296   3.517   4.316  19.084  0.1119 -0.2000  0.0491
    21BTZ    N338297   3.450   4.560  19.163 -0.0207 -0.2115 -0.0286
    21BTZ    S338298   3.548   4.423  19.225  0.1614 -0.0889 -0.0461
    31IDT   C1238299   3.267   4.731  19.005  0.1120 -0.4713  0.3849
    31IDT   C1338300   3.266   4.788  19.130 -0.1669 -0.3443  0.3262
    31IDT   C1438301   3.209   4.919  19.131 -0.4961 -0.4818  0.1278
    31IDT   C1538302   3.167   4.963  19.007 -0.4705 -0.7142  0.0341
    31IDT    S438303   3.196   4.841  18.879 -0.0231 -0.7772  0.1916
    4IDB    C1638304   3.109   5.097  19.016 -0.0100  0.4365  0.0596
    4IDB    C1738305   3.117   5.139  19.153 -0.0603  0.5202  0.0367
    51IDQ   C1838306   3.171   5.024  19.237  0.0610  0.1714 -0.3953
    4IDB    C1938307   3.068   5.262  19.192  0.0712  0.6117 -0.0854
    51IDQ   C2038308   3.287   5.085  19.322  0.2882  0.8599 -0.3719
    51IDQ   C2138309   3.056   4.957  19.332  0.4115  0.7286  0.8838
    51IDQ   C2238310   2.908   4.999  19.337  0.5701  0.4393  0.1819
    51IDQ   C2338311   3.437   5.044  19.322 -0.6347  0.6181  0.0398
    51IDQ   C2438312   2.832   5.000  19.201 -0.7675 -0.7663 -0.4448
    51IDQ   C2538313   2.800   4.854  19.160 -0.6078 -0.6732  0.1474
    51IDQ   C2638314   2.731   4.859  19.022  0.4480  0.1955 -0.3615
    51IDQ   C2738315   2.688   4.728  18.963 -0.3682  0.5368 -0.7755
    51IDQ   C2838316   2.798   4.615  18.963 -0.4431 -0.7221  0.6894
    51IDQ   C2938317   2.746   4.502  18.881  0.6301 -0.2968 -0.4284
    51IDQ   C3038318   3.549   5.088  19.227 -0.4230  0.8352 -0.5802
    51IDQ   C3138319   3.692   5.014  19.250  1.1930 -0.5361 -0.9182
    51IDQ   C3238320   3.710   4.866  19.277 -0.5355  0.0899 -0.1912
    51IDQ   C3338321   3.854   4.819  19.291  0.2346  0.5504 -0.5881
    51IDQ   C3438322   3.837   4.679  19.336 -0.1604  0.5493  0.4168
    51IDQ   C3538323   3.937   4.600  19.410 -0.3588 -0.2047 -0.2249
    4IDB    C3638324   3.052   5.180  18.918  0.1733  0.4443 -0.0410
    4IDB    C3738325   3.003   5.306  18.961  0.3058  0.5385 -0.1650
    11RH    C3838326   3.570   3.762  18.503  0.0938  0.3538  0.1690
    4IDB    C3938327   3.011   5.345  19.094  0.2545  0.6196 -0.1858
    62IDT   C4038328   2.938   5.465  19.108 -0.0436 -0.2777 -0.0447
    72IDQ   C4138329   2.960   5.425  18.871 -1.3061  0.0684 -0.1512
    62IDT   C4238330   2.922   5.523  18.984  0.1248 -0.2332 -0.0448
    72IDQ   C4338331   2.823   5.401  18.804 -0.2904 -0.1128 -0.5860
    72IDQ   C4438332   3.079   5.458  18.765  0.7133  0.5757 -0.8060
    62IDT    S538333   2.871   5.567  19.239 -0.1154 -0.2701 -0.0873
    62IDT   C4538334   2.823   5.689  19.113  0.0965 -0.2040 -0.1047
    62IDT   C4638335   2.857   5.650  18.986  0.2043 -0.1915 -0.0787
    82BTZ   C4738336   2.735   5.806  19.161 -0.3928  0.5145  0.5100
    82BTZ   C4838337   2.676   5.795  19.284 -0.3057  0.7387  0.5722
    82BTZ   C4938338   2.613   5.909  19.348 -0.0442  0.9142  0.5212
    82BTZ   C5038339   2.610   6.032  19.289  0.1296  0.8650  0.4079
    82BTZ   C5138340   2.734   5.933  19.095 -0.2181  0.4543  0.3910
    82BTZ   C5238341   2.671   6.048  19.160  0.0477  0.6326  0.3390
    92RH    C5338342   2.553   6.158  19.341 -0.0226 -0.2107  0.0599
    82BTZ    N438343   2.789   5.956  18.975 -0.2802  0.2419  0.3214
    82BTZ    N538344   2.674   6.164  19.092  0.1991  0.5634  0.2275
    82BTZ    S638345   2.760   6.129  18.939  0.0043  0.2612  0.1835
    92RH    C5438346   2.491   6.173  19.459  0.0405 -0.0217  0.0696
    92RH     S738347   2.442   6.039  19.574 -0.2337  0.1375  0.1373
    92RH    C5538348   2.453   6.305  19.515  0.3533  0.0907  0.0267
    92RH     O238349   2.472   6.415  19.461  0.5897  0.0252 -0.0234
    92RH     N638350   2.389   6.291  19.640  0.3531  0.2867  0.0494
    92RH    C5638351   2.372   6.164  19.691  0.0782  0.3449  0.1049
    92RH    C5738352   2.298   6.397  19.693 -0.5877 -0.6471 -0.6421
    92RH    C5838353   2.383   6.512  19.755 -0.4348  0.9014  0.0196
    92RH     S838354   2.300   6.120  19.837  0.0155  0.5684  0.1416
    72IDQ   C5938355   3.204   5.531  18.833  0.0611  0.8334 -0.0327
    72IDQ   C6038356   3.319   5.497  18.739 -0.0059  0.0044 -0.4618
    72IDQ   C6138357   3.403   5.618  18.720 -0.6891 -0.5562  0.9559
    72IDQ   C6238358   3.554   5.629  18.671  0.6576  0.3725 -0.7073
    72IDQ   C6338359   3.647   5.519  18.724  0.2338 -0.0574 -0.0988
    72IDQ   C6438360   3.780   5.547  18.657 -0.3302  0.6584 -0.1199
    72IDQ   C6538361   3.875   5.426  18.644 -0.5470 -1.0549 -0.9194
    72IDQ   C6638362   2.800   5.276  18.723  0.4011  0.2975  0.1604
    72IDQ   C6738363   2.695   5.293  18.613 -0.0600  0.2577 -0.7861
    72IDQ   C6838364   2.725   5.186  18.513  0.4924  0.1836  0.5736
    72IDQ   C6938365   2.608   5.131  18.437  0.1769 -0.3596 -0.0775
    72IDQ   C7038366   2.652   5.033  18.333 -0.6330 -0.1530 -0.1045
    72IDQ   C7138367   2.551   4.961  18.244  0.0749 -0.2033  0.5645
    72IDQ   C7238368   2.593   4.897  18.115  0.2567  0.6733  0.0191
    11RH     C138369   2.395   3.675   3.974  0.2761 -0.0467 -0.2874
    11RH     C238370   2.492   3.779   3.929  0.2859  0.0319 -0.0846
    11RH     N138371   2.271   3.732   4.010  0.3066 -0.0978 -0.1032
    11RH     S138372   2.413   3.945   3.939  0.3347  0.0335  0.3353
    11RH     C338373   2.257   3.869   4.001  0.3397 -0.0697  0.2226
    11RH     C438374   2.171   3.649   4.078  0.0830  0.0326 -0.3338
    11RH     S238375   2.120   3.961   4.038  0.3800 -0.1181  0.4942
    11RH     O138376   2.418   3.553   3.979  0.2452 -0.0668 -0.5823
    11RH     C538377   2.616   3.752   3.889  0.2620  0.0910 -0.2000
    21BTZ    C638378   2.723   3.833   3.834 -0.2036 -0.3269  0.3877
    21BTZ    C738379   2.725   3.968   3.812 -0.3972 -0.3653  0.1269
    21BTZ    C838380   2.845   3.759   3.817 -0.1710 -0.2341  0.2116
    21BTZ    C938381   2.845   4.037   3.773 -0.5677 -0.3150 -0.3171
    21BTZ   C1038382   2.964   3.970   3.756 -0.5440 -0.2263 -0.4996
    21BTZ   C1138383   2.967   3.829   3.777 -0.3442 -0.1830 -0.2397
    21BTZ    N238384   2.856   3.627   3.836  0.0106 -0.1893  0.4332
    21BTZ    N338385   3.077   3.753   3.764 -0.3019 -0.0971 -0.3808
    21BTZ    S338386   3.027   3.586   3.802 -0.0333 -0.0774  0.0667
    31IDT   C1238387   3.082   4.053   3.731  0.1514 -0.4301  1.4322
    31IDT   C1338388   3.191   4.009   3.660  0.0768 -0.9758  1.6423
    31IDT   C1438389   3.299   4.102   3.662  0.1330 -1.0178  0.9400
    31IDT   C1538390   3.274   4.217   3.734  0.2504 -0.5059  0.1917
    31IDT    S438391   3.110   4.216   3.806  0.2995  0.0747  0.3195
    4IDB    C1638392   3.376   4.314   3.726 -0.5126  0.3268 -0.0138
    4IDB    C1738393   3.484   4.268   3.646 -0.6129  0.1518 -0.0491
    51IDQ   C1838394   3.446   4.113   3.603 -0.2324 -0.5969 -1.3133
    4IDB    C1938395   3.593   4.350   3.618 -0.4605 -0.0437 -0.0338
    51IDQ   C2038396   3.471   4.111   3.446 -0.2413  0.6883  0.0811
    51IDQ   C2138397   3.542   3.998   3.675 -0.2400 -0.3809 -0.5867
    51IDQ   C2238398   3.640   4.011   3.790  0.4025 -0.4330  0.4374
    51IDQ   C2338399   3.331   4.094   3.371  0.5778  0.9166 -0.4428
    51IDQ   C2438400   3.761   3.930   3.751 -0.3820  0.2950  0.1526
    51IDQ   C2538401   3.847   3.927   3.883 -0.1624 -0.9644  1.4148
    51IDQ   C2638402   3.983   3.894   3.871 -0.3790 -1.1490  0.3275
    51IDQ   C2738403   3.993   3.744   3.855  0.1359 -0.3601  0.7698
    51IDQ   C2838404   4.144   3.721   3.840 -0.5982  1.2738  0.2744
    51IDQ   C2938405   4.212   3.654   3.963  1.3740 -0.7817  0.5658
    51IDQ   C3038406   3.317   4.172   3.234 -0.4540 -0.0832 -0.1818
    51IDQ   C3138407   3.408   4.141   3.113 -1.0762  0.8978  0.6225
    51IDQ   C3238408   3.407   4.244   3.001  0.8990  0.5472  0.2058
    51IDQ   C3338409   3.503   4.205   2.887  0.0021 -0.2084 -0.0792
    51IDQ   C3438410   3.512   4.296   2.757 -0.5415  0.2968 -1.2835
    51IDQ   C3538411   3.403   4.314   2.654  0.1415 -0.1164 -0.4029
    4IDB    C3638412   3.376   4.444   3.780 -0.2579  0.3072  0.0370
    4IDB    C3738413   3.488   4.526   3.751 -0.1051  0.1062  0.0519
    11RH    C3838414   2.101   3.573   3.973  0.6025 -0.2233  0.3029
    4IDB    C3938415   3.593   4.479   3.672 -0.2058 -0.0635  0.0171
    62IDT   C4038416   3.698   4.579   3.669 -0.0513  0.3692 -0.4898
    72IDQ   C4138417   3.521   4.671   3.802 -0.6019 -0.8996  0.2819
    62IDT   C4238418   3.663   4.693   3.738 -0.0339  0.5040 -0.6993
    72IDQ   C4338419   3.521   4.689   3.963  0.3908 -0.8674 -0.2315
    72IDQ   C4438420   3.453   4.789   3.724 -0.3639 -0.4372 -0.0235
    62IDT    S538421   3.863   4.592   3.598  0.1431  0.0208 -0.1080
    62IDT   C4538422   3.876   4.758   3.670  0.2426  0.0783 -0.2591
    62IDT   C4638423   3.764   4.794   3.739  0.1323  0.3396 -0.5691
    82BTZ   C4738424   3.994   4.851   3.653  0.3958 -0.3358  0.3756
    82BTZ   C4838425   4.079   4.828   3.548  0.2792  0.0026  0.2059
    82BTZ   C4938426   4.194   4.912   3.524 -0.1409  0.5058 -0.0669
    82BTZ   C5038427   4.223   5.019   3.604 -0.4435  0.6695 -0.1694
    82BTZ   C5138428   4.021   4.961   3.741  0.0902 -0.1824  0.2776
    82BTZ   C5238429   4.137   5.047   3.716 -0.3366  0.3289  0.0004
    92RH    C5338430   4.344   5.100   3.587  0.0102 -0.5470  0.1403
    82BTZ    N438431   3.946   4.993   3.846  0.1662 -0.4778  0.4238
    82BTZ    N538432   4.156   5.148   3.801 -0.6039  0.4445 -0.0764
    82BTZ    S638433   4.022   5.138   3.920 -0.3149 -0.1069  0.2083
    92RH    C5438434   4.454   5.088   3.512 -0.0062 -0.4668  0.1032
    92RH     S738435   4.494   4.951   3.397 -0.0072 -0.3701 -0.0126
    92RH    C5538436   4.564   5.188   3.511 -0.0267 -0.4437  0.1522
    92RH     O238437   4.567   5.292   3.578 -0.0308 -0.4946  0.2318
    92RH     N638438   4.667   5.150   3.423 -0.0412 -0.3547  0.0968
    92RH    C5638439   4.654   5.032   3.353 -0.0349 -0.3037  0.0094
    92RH    C5738440   4.788   5.242   3.408 -0.0328 -1.0805  0.5287
    92RH    C5838441   4.913   5.217   3.490  0.5874 -0.7046 -0.4685
    92RH     S838442   4.762   4.965   3.242 -0.0490 -0.1969 -0.0699
    72IDQ   C5938443   3.312   4.830   3.741 -0.2375  0.0765  0.5242
    72IDQ   C6038444   3.267   4.950   3.645 -0.2902  0.4299 -0.5117
    72IDQ   C6138445   3.131   5.011   3.670  0.2222  0.2240 -0.3096
    72IDQ   C6238446   3.019   4.907   3.628  0.0801  0.5312 -0.2695
    72IDQ   C6338447   2.981   4.789   3.717 -0.2142  0.3040  0.3660
    72IDQ   C6438448   2.881   4.691   3.652 -0.2596 -0.4646  0.4251
    72IDQ   C6538449   2.824   4.577   3.725 -0.2953 -0.0396  0.1986
    72IDQ   C6638450   3.605   4.806   4.039 -0.8956 -0.4006 -0.0823
    72IDQ   C6738451   3.583   4.947   3.995  0.0676  0.0156 -0.8277
    72IDQ   C6838452   3.679   5.041   4.073 -0.8187 -0.5157 -0.1051
    72IDQ   C6938453   3.721   5.014   4.215  1.3219  0.6213 -1.0992
    72IDQ   C7038454   3.805   5.118   4.293 -0.0893  0.1185 -0.1988
    72IDQ   C7138455   3.834   5.254   4.238  0.4147 -0.4050  0.4352
    72IDQ   C7238456   3.895   5.344   4.350  0.9123 -0.7318 -0.8620
    11RH     C138457   3.978   6.535  19.914 -0.0198  0.4189  0.0014
    11RH     C238458   4.098   6.614  19.952  0.0676  0.3889 -0.2079
    11RH     N138459   3.860   6.593  19.965  0.0965  0.3684  0.3310
    11RH     S138460   4.047   6.758  20.053  0.2973  0.2962  0.0420
    11RH     C338461   3.870   6.708  20.040  0.2666  0.3017  0.4110
    11RH     C438462   3.729   6.534  19.931  0.2863 -0.1129  0.3282
    11RH     S238463   3.746   6.796  20.112  0.4299  0.2325  0.7830
    11RH     O138464   3.978   6.431  19.845 -0.1754  0.4804 -0.0939
    11RH     C538465   4.222   6.580  19.916 -0.0134  0.4256 -0.5300
    21BTZ    C638466   4.350   6.638  19.926  0.2126 -0.0654  0.0560
    21BTZ    C738467   4.373   6.758  19.986  0.2390 -0.0368 -0.0114
    21BTZ    C838468   4.460   6.570  19.863  0.1757 -0.0732  0.0000
    21BTZ    C938469   4.504   6.818  19.988  0.2311 -0.0144 -0.1364
    21BTZ   C1038470   4.612   6.757  19.930  0.1963 -0.0208 -0.1934
    21BTZ   C1138471   4.593   6.630  19.866  0.1676 -0.0505 -0.1268
    21BTZ    N238472   4.450   6.452  19.802  0.1475 -0.1004  0.0563
    21BTZ    N338473   4.690   6.561  19.805  0.1328 -0.0594 -0.1731
    21BTZ    S338474   4.614   6.412  19.742  0.1085 -0.0980 -0.0528
    31IDT   C1238475   4.736   6.835  19.925  0.4283  0.3308 -0.4115
    31IDT   C1338476   4.851   6.796  19.861  0.5312  0.6429 -0.4215
    31IDT   C1438477   4.963   6.878  19.893  0.3948  0.7221 -0.1378
    31IDT   C1538478   4.935   6.980  19.981  0.1879  0.4714  0.0902
    31IDT    S438479   4.763   6.981  20.032  0.1490  0.1124 -0.0376
    4IDB    C1638480   5.059   7.042  20.009 -0.1198  0.4155 -0.0758
    4IDB    C1738481   5.169   6.970  19.953 -0.1704  0.7886 -0.6647
    51IDQ   C1838482   5.107   6.882  19.842 -0.7426 -0.6796  0.0738
    4IDB    C1938483   5.299   6.997  19.991 -0.1529  0.3735 -0.4151
    51IDQ   C2038484   5.116   6.955  19.699 -0.4079 -0.3946 -0.1942
    51IDQ   C2138485   5.165   6.737  19.826  0.1789 -0.1847  0.4205
    51IDQ   C2238486   5.271   6.669  19.904 -0.0355  1.1252 -0.2523
    51IDQ   C2338487   5.005   7.001  19.598 -0.3245  0.3083  0.3031
    51IDQ   C2438488   5.294   6.526  19.865  0.5740  0.2454 -0.6047
    51IDQ   C2538489   5.366   6.500  19.737  1.2493  0.7087  0.4545
    51IDQ   C2638490   5.320   6.364  19.685 -0.1743  0.5958  0.5864
    51IDQ   C2738491   5.398   6.330  19.562 -0.1318 -0.4709 -0.3308
    51IDQ   C2838492   5.365   6.193  19.510 -0.2199  0.4225  0.4490
    51IDQ   C2938493   5.394   6.155  19.373  0.0218 -1.4216  0.9611
    51IDQ   C3038494   5.049   7.079  19.478  0.3811 -0.0848  0.3813
    51IDQ   C3138495   5.108   7.216  19.493  0.2447 -0.8307 -0.6599
    51IDQ   C3238496   5.137   7.279  19.361 -0.1748 -1.6028  0.0964
    51IDQ   C3338497   5.129   7.439  19.373 -0.0640  0.0978 -0.4546
    51IDQ   C3438498   5.128   7.520  19.246  0.1149 -0.2577  0.0566
    51IDQ   C3538499   5.110   7.674  19.262 -0.3622  0.7117  0.7140
    4IDB    C3638500   5.080   7.142  20.105 -0.0515 -0.3803  0.7710
    4IDB    C3738501   5.215   7.169  20.143 -0.0346 -0.7951  1.0142
    11RH    C3838502   3.646   6.606  19.830 -1.0307 -0.0916  0.3484
    4IDB    C3938503   5.320   7.098  20.087 -0.0843 -0.4222  0.4314
    62IDT   C4038504   5.438   7.139  20.148 -0.2076  0.5572 -0.8815
    72IDQ   C4138505   5.269   7.271  20.242  0.6138 -0.2938  0.3359
    62IDT   C4238506   5.417   7.240  20.240 -0.7281 -0.1329 -0.2155
    72IDQ   C4338507   5.197   7.263  20.390  0.0907  0.6456  0.0247
    72IDQ   C4438508   5.250   7.411  20.178  0.0253 -0.5290  0.4405
    62IDT    S538509   5.611   7.090  20.139 -0.1490  0.6349 -0.2608
    62IDT   C4538510   5.648   7.215  20.267 -0.8662 -0.3163  0.9241
    62IDT   C4638511   5.536   7.283  20.307 -1.1011 -0.6278  0.8063
    82BTZ   C4738512   5.783   7.212  20.330 -0.0127 -0.2024  0.5698
    82BTZ   C4838513   5.844   7.090  20.343  0.0460 -0.1937  0.3901
    82BTZ   C4938514   5.980   7.078  20.392  0.1893 -0.1755  0.0062
    82BTZ   C5038515   6.053   7.188  20.428  0.2737 -0.1660 -0.1969
    82BTZ   C5138516   5.856   7.330  20.365  0.0713 -0.1931  0.3695
    82BTZ   C5238517   5.994   7.318  20.415  0.2170 -0.1746 -0.0210
    92RH    C5338518   6.195   7.183  20.488  0.2104  0.1919  0.0758
    82BTZ    N438519   5.808   7.454  20.356  0.0259 -0.2002  0.5150
    82BTZ    N538520   6.055   7.432  20.446  0.2885 -0.1668 -0.1888
    82BTZ    S638521   5.938   7.563  20.413  0.1704 -0.1832  0.1514
    92RH    C5438522   6.275   7.082  20.524  0.0498  0.0600  0.0634
    92RH     S738523   6.256   6.905  20.479 -0.0922  0.1324 -0.1648
    92RH    C5538524   6.395   7.099  20.609 -0.0399 -0.1731  0.2384
    92RH     O238525   6.435   7.207  20.656  0.0212 -0.2723  0.4148
    92RH     N638526   6.460   6.976  20.632 -0.2078 -0.2731  0.1818
    92RH    C5638527   6.407   6.862  20.575 -0.2631 -0.1487 -0.0172
    92RH    C5738528   6.572   6.974  20.724 -0.0941 -0.1530  0.2364
    92RH    C5838529   6.706   7.038  20.663  0.9922  0.4096 -0.3994
    92RH     S838530   6.465   6.705  20.586 -0.4557 -0.2276 -0.1230
    72IDQ   C5938531   5.249   7.553  20.245  1.3302 -0.0314 -0.8082
    72IDQ   C6038532   5.379   7.625  20.210  0.6329 -0.1833 -0.7151
    72IDQ   C6138533   5.374   7.769  20.267 -1.4488 -0.7864  0.3168
    72IDQ   C6238534   5.517   7.841  20.260 -0.3646  0.3241  1.4358
    72IDQ   C6338535   5.620   7.781  20.351  0.2554 -1.2370 -0.7020
    72IDQ   C6438536   5.742   7.869  20.359 -0.2406  0.0801 -0.2361
    72IDQ   C6538537   5.825   7.886  20.241  0.4801 -0.5837  1.1895
    72IDQ   C6638538   5.245   7.184  20.508  1.1615  0.8432  0.3998
    72IDQ   C6738539   5.250   7.036  20.473 -0.0064 -0.0906 -1.0226
    72IDQ   C6838540   5.121   6.953  20.481 -0.8277 -0.3106  0.8020
    72IDQ   C6938541   5.136   6.838  20.388  0.2403  0.0993 -0.2526
    72IDQ   C7038542   4.998   6.792  20.347  0.1559 -0.6292  0.0312
    72IDQ   C7138543   4.995   6.659  20.250  0.2572 -0.5768  0.0641
    72IDQ   C7238544   4.847   6.634  20.219  0.9972  0.0654 -0.2035
    11RH     C138545   1.172   0.280   1.412  0.1877  0.8664 -0.1016
    11RH     C238546   1.028   0.290   1.443  0.1901  0.5242  0.0299
    11RH     N138547   1.194   0.233   1.280  0.1784  0.7222 -0.0520
    11RH     S138548   0.929   0.237   1.297  0.1800  0.0349  0.2102
    11RH     C338549   1.084   0.205   1.202  0.1731  0.3062  0.1031
    11RH     C438550   1.340   0.221   1.237  0.4124 -0.1445  0.2330
    11RH     S238551   1.082   0.148   1.044  0.1619  0.0571  0.1914
    11RH     O138552   1.265   0.308   1.489  0.1930  1.2356 -0.2388
    11RH     C538553   0.981   0.332   1.561  0.1985  0.5774  0.0145
    21BTZ    C638554   0.852   0.346   1.630 -0.0351 -0.1842  0.0624
    21BTZ    C738555   0.729   0.325   1.571 -0.1075 -0.1742  0.2094
    21BTZ    C838556   0.856   0.391   1.765  0.1319 -0.1527  0.0467
    21BTZ    C938557   0.606   0.347   1.643 -0.0200 -0.1330  0.3475
    21BTZ   C1038558   0.606   0.391   1.773  0.1398 -0.1019  0.3384
    21BTZ   C1138559   0.731   0.414   1.838  0.2209 -0.1108  0.1870
    21BTZ    N238560   0.969   0.415   1.833  0.2156 -0.1587 -0.0901
    21BTZ    N338561   0.743   0.457   1.964  0.3761 -0.0831  0.1631
    21BTZ    S338562   0.919   0.470   1.996  0.4158 -0.1100 -0.0442
    31IDT   C1238563   0.476   0.396   1.849 -0.4527 -0.6098  0.0289
    31IDT   C1338564   0.438   0.319   1.955 -0.6028 -0.0324  0.4029
    31IDT   C1438565   0.298   0.325   1.981 -0.5855  0.3955  0.4060
    31IDT   C1538566   0.228   0.407   1.895 -0.4226  0.1478  0.0352
    31IDT    S438567   0.336   0.483   1.773 -0.2770 -0.6541 -0.3501
    4IDB    C1638568   0.092   0.401   1.927  0.1062  0.0210 -0.4224
    4IDB    C1738569   0.078   0.326   2.048  0.0980  0.5543 -0.0882
    51IDQ   C1838570   0.209   0.256   2.079 -0.2454  0.6913 -1.5580
    4IDB    C1938571  -0.043   0.322   2.116  0.0415  0.7063 -0.1788
    51IDQ   C2038572   0.260   0.274   2.231  0.4913  0.2762 -0.1906
    51IDQ   C2138573   0.186   0.095   2.055 -0.7026 -0.1823 -0.1009
    51IDQ   C2238574   0.085   0.047   1.957  0.2402 -0.3431  0.8352
    51IDQ   C2338575   0.378   0.347   2.285  0.8314  0.3762 -0.2045
    51IDQ   C2438576   0.095  -0.097   1.937  0.2263  0.2329  0.4837
    51IDQ   C2538577  -0.006  -0.151   1.834 -0.8198  0.3521 -0.6606
    51IDQ   C2638578   0.038  -0.296   1.800  0.2398 -0.4411 -0.0078
    51IDQ   C2738579  -0.055  -0.350   1.693  0.4349 -0.7309  0.6657
    51IDQ   C2838580  -0.006  -0.483   1.626 -0.0688  0.7730  0.2550
    51IDQ   C2938581   0.119  -0.483   1.528  0.0186 -0.5370 -0.6988
    51IDQ   C3038582   0.377   0.338   2.437 -1.3051  0.4842 -0.0878
    51IDQ   C3138583   0.314   0.453   2.512  1.2115 -0.2154  1.3888
    51IDQ   C3238584   0.298   0.440   2.665  0.1989  0.9162 -0.5139
    51IDQ   C3338585   0.269   0.559   2.757  0.3486 -0.7894 -0.8960
    51IDQ   C3438586   0.281   0.518   2.901 -0.2613 -0.6413  0.2080
    51IDQ   C3538587   0.266   0.637   3.000 -0.2291  0.2283 -0.6662
    4IDB    C3638588  -0.016   0.472   1.873  0.0575 -0.3655 -0.8519
    4IDB    C3738589  -0.139   0.467   1.944 -0.0001 -0.2029 -0.9385
    11RH    C3838590   1.395   0.329   1.139  0.5463 -0.7104 -0.7205
    4IDB    C3938591  -0.151   0.394   2.063 -0.0074  0.3198 -0.6083
    62IDT   C4038592  -0.286   0.417   2.125 -0.1639 -0.2244  0.1865
    72IDQ   C4138593  -0.278   0.528   1.920  1.1439 -0.3983 -0.2757
    62IDT   C4238594  -0.365   0.485   2.035 -0.3284 -0.5323  0.0941
    72IDQ   C4338595  -0.360   0.456   1.810 -0.2720 -0.1670 -0.5079
    72IDQ   C4438596  -0.272   0.682   1.871 -1.1880 -0.3682  0.8848
    62IDT    S538597  -0.369   0.391   2.282  0.0772  0.2035  0.3880
    62IDT   C4538598  -0.513   0.478   2.215 -0.0643 -0.0698  0.3341
    62IDT   C4638599  -0.494   0.520   2.086 -0.2723 -0.4454  0.1774
    82BTZ   C4738600  -0.631   0.528   2.296  0.0067 -0.5609 -0.2657
    82BTZ   C4838601  -0.623   0.520   2.433  0.0393 -0.8029 -0.2817
    82BTZ   C4938602  -0.727   0.570   2.518  0.1646 -0.7450 -0.1611
    82BTZ   C5038603  -0.840   0.629   2.467  0.2573 -0.4452 -0.0250
    82BTZ   C5138604  -0.747   0.589   2.238  0.1001 -0.2428 -0.1253
    82BTZ   C5238605  -0.853   0.640   2.324  0.2275 -0.1839 -0.0029
    92RH    C5338606  -0.946   0.679   2.557  0.5083  0.5406  0.1498
    82BTZ    N438607  -0.766   0.603   2.106  0.0794  0.0124 -0.0965
    82BTZ    N538608  -0.958   0.695   2.263  0.3092  0.1185  0.1245
    82BTZ    S638609  -0.924   0.684   2.087  0.2252  0.3456  0.0926
    92RH    C5438610  -0.946   0.692   2.690  0.3992  0.1522  0.1899
    92RH     S738611  -0.821   0.625   2.807  0.2123 -0.3349  0.1160
    92RH    C5538612  -1.050   0.765   2.766  0.4139  0.0557  0.3043
    92RH     O238613  -1.149   0.822   2.716  0.5267  0.3171  0.3752
    92RH     N638614  -1.025   0.763   2.905  0.2817 -0.3790  0.3242
    92RH    C5638615  -0.913   0.697   2.950  0.1630 -0.6425  0.2398
    92RH    C5738616  -1.121   0.823   3.000  0.6654 -0.1351  1.0542
    92RH    C5838617  -1.223   0.713   3.037  0.2813 -0.7013  0.2370
    92RH     S838618  -0.860   0.680   3.109 -0.0058 -1.1686  0.2421
    72IDQ   C5938619  -0.296   0.795   1.974  0.3472  0.6712  1.0038
    72IDQ   C6038620  -0.277   0.928   1.901  0.0509  1.3268 -0.3644
    72IDQ   C6138621  -0.334   1.045   1.980  0.3180 -0.7206 -1.0917
    72IDQ   C6238622  -0.303   1.189   1.922  0.2027  0.0777 -0.7608
    72IDQ   C6338623  -0.337   1.218   1.774  0.4656 -1.0242  0.2195
    72IDQ   C6438624  -0.483   1.204   1.730 -0.0708  0.0825  0.8720
    72IDQ   C6538625  -0.531   1.318   1.640 -0.4828  0.5660 -0.3426
    72IDQ   C6638626  -0.297   0.343   1.722 -0.3456 -0.4004 -1.1224
    72IDQ   C6738627  -0.381   0.306   1.597  0.0231  0.0782  0.1847
    72IDQ   C6838628  -0.332   0.206   1.502 -0.0332  0.3718  0.0336
    72IDQ   C6938629  -0.300   0.058   1.544  1.1478  0.1573 -1.0068
    72IDQ   C7038630  -0.160  -0.002   1.518 -0.5547  0.3117 -0.8963
    72IDQ   C7138631  -0.110   0.000   1.375 -0.2297  0.3782  0.8574
    72IDQ   C7238632  -0.002  -0.104   1.336 -0.3575 -0.6845  0.3951
    11RH     C138633   6.401   2.662  24.405 -0.9526 -0.3976 -0.2670
    11RH     C238634   6.350   2.714  24.534 -0.4765 -0.2641 -0.1287
    11RH     N138635   6.358   2.742  24.296 -0.7517 -0.0841 -0.1177
    11RH     S138636   6.249   2.864  24.505  0.2045  0.2646  0.1872
    11RH     C338637   6.279   2.851  24.323 -0.1729  0.2840  0.1221
    11RH     C438638   6.392   2.700  24.152  0.1244  0.4609 -0.9110
    11RH     S238639   6.215   2.962  24.213  0.1742  0.7036  0.3366
    11RH     O138640   6.472   2.561  24.390 -1.4664 -0.7392 -0.4849
    11RH     C538641   6.376   2.656  24.652 -0.5508 -0.5032 -0.2279
    21BTZ    C638642   6.340   2.689  24.793 -0.0064 -0.0470 -0.0987
    21BTZ    C738643   6.270   2.799  24.835  0.1675  0.0249  0.0052
    21BTZ    C838644   6.395   2.601  24.892 -0.1233 -0.2145 -0.1807
    21BTZ    C938645   6.251   2.829  24.974  0.2352 -0.0635  0.0324
    21BTZ   C1038646   6.302   2.748  25.073  0.1286 -0.2237 -0.0438
    21BTZ   C1138647   6.376   2.631  25.034 -0.0545 -0.3044 -0.1531
    21BTZ    N238648   6.465   2.491  24.864 -0.2952 -0.2978 -0.2851
    21BTZ    N338649   6.430   2.545  25.121 -0.1712 -0.4600 -0.2346
    21BTZ    S338650   6.510   2.419  25.022 -0.3782 -0.4989 -0.3522
    31IDT   C1238651   6.258   2.784  25.202 -0.2786  0.1068 -0.0033
    31IDT   C1338652   6.237   2.694  25.304 -0.3381  0.1074 -0.0153
    31IDT   C1438653   6.181   2.754  25.420 -0.0855  0.1748  0.0749
    31IDT   C1538654   6.158   2.890  25.408  0.1676  0.2258  0.1543
    31IDT    S438655   6.207   2.952  25.247  0.1052  0.1923  0.1218
    4IDB    C1638656   6.100   2.944  25.532  0.6749  0.1515  0.1214
    4IDB    C1738657   6.088   2.833  25.622  0.0210 -0.0339 -0.1807
    51IDQ   C1838658   6.121   2.700  25.547  1.1969 -0.3259  0.1375
    4IDB    C1938659   6.045   2.852  25.753 -0.1633 -0.1863 -0.2170
    51IDQ   C2038660   6.209   2.604  25.634  0.4265  0.3216 -0.0968
    51IDQ   C2138661   6.007   2.611  25.492  1.2308  0.5151  0.2972
    51IDQ   C2238662   5.857   2.651  25.501  0.0600  0.0580  0.1306
    51IDQ   C2338663   6.317   2.521  25.573 -0.1080  0.3576 -0.1888
    51IDQ   C2438664   5.769   2.532  25.452  0.7634 -0.2197 -0.7410
    51IDQ   C2538665   5.640   2.591  25.415  0.3961  0.1174 -0.3614
    51IDQ   C2638666   5.574   2.507  25.314  0.6723  0.2403  0.3027
    51IDQ   C2738667   5.465   2.591  25.248  0.5233  1.0269 -0.0248
    51IDQ   C2838668   5.328   2.565  25.311  0.2176  0.6188 -0.3716
    51IDQ   C2938669   5.229   2.672  25.277 -0.0854  0.8568  0.6130
    51IDQ   C3038670   6.427   2.432  25.635  0.1796 -0.8711  0.1331
    51IDQ   C3138671   6.508   2.343  25.543  0.6911  0.7274 -0.1279
    51IDQ   C3238672   6.596   2.415  25.430 -0.0376 -0.1697 -0.1850
    51IDQ   C3338673   6.659   2.315  25.338  0.7325  0.8989 -0.2083
    51IDQ   C3438674   6.762   2.217  25.379 -0.0339  0.1893 -0.1677
    51IDQ   C3538675   6.906   2.268  25.408 -0.3739  0.3800  0.2753
    4IDB    C3638676   6.069   3.074  25.573  1.1510  0.1857  0.3896
    4IDB    C3738677   6.025   3.092  25.707  0.9538  0.0281  0.3476
    11RH    C3838678   6.496   2.796  24.112 -0.5255 -0.2655  0.4048
    4IDB    C3938679   6.014   2.983  25.794  0.3129 -0.1522  0.0507
    62IDT   C4038680   5.942   3.020  25.916 -0.2645  0.0648 -0.0165
    72IDQ   C4138681   5.963   3.220  25.782  0.9258 -0.3629  1.2689
    62IDT   C4238682   5.920   3.156  25.913 -0.1761  0.0799  0.0134
    72IDQ   C4338683   5.842   3.303  25.707 -0.6387  0.0556 -0.9070
    72IDQ   C4438684   6.078   3.318  25.835 -0.2363 -0.0763  1.6278
    62IDT    S538685   5.899   2.949  26.075  0.2575  0.1546  0.1677
    62IDT   C4538686   5.852   3.115  26.132  0.5836  0.2103  0.2809
    62IDT   C4638687   5.869   3.210  26.035  0.3035  0.1621  0.1822
    82BTZ   C4738688   5.807   3.136  26.274 -0.2904 -0.0158 -0.1612
    82BTZ   C4838689   5.846   3.042  26.366 -0.1650  0.0660 -0.1292
    82BTZ   C4938690   5.812   3.054  26.505  0.2131  0.3021 -0.0539
    82BTZ   C5038691   5.739   3.160  26.553  0.4649  0.4561 -0.0110
    82BTZ   C5138692   5.731   3.249  26.319 -0.0373  0.1389 -0.1187
    82BTZ   C5238693   5.697   3.261  26.461  0.3469  0.3790 -0.0420
    92RH    C5338694   5.696   3.174  26.694 -0.4641 -0.2787 -0.3124
    82BTZ    N438695   5.688   3.347  26.239 -0.1268  0.0796 -0.1435
    82BTZ    N538696   5.626   3.369  26.495  0.5662  0.5126 -0.0052
    82BTZ    S638697   5.600   3.462  26.344  0.2848  0.3336 -0.0682
    92RH    C5438698   5.733   3.108  26.804 -0.2774 -0.1459 -0.2928
    92RH     S738699   5.873   2.991  26.821  0.0750  0.2762 -0.2492
    92RH    C5538700   5.662   3.120  26.934 -0.3306 -0.3280 -0.3037
    92RH     O238701   5.563   3.192  26.956 -0.5493 -0.6191 -0.3324
    92RH     N638702   5.722   3.039  27.033 -0.0980 -0.1282 -0.2781
    92RH    C5638703   5.831   2.963  26.999  0.1349  0.1918 -0.2480
    92RH    C5738704   5.658   3.040  27.168  0.8763  0.3334 -0.3863
    92RH    C5838705   5.708   3.139  27.276  0.4155 -0.3664 -0.9994
    92RH     S838706   5.920   2.859  27.097  0.4374  0.4788 -0.2136
    72IDQ   C5938707   6.062   3.471  25.859 -0.7166 -0.6594 -0.9603
    72IDQ   C6038708   6.091   3.554  25.730  0.9558  0.5232 -1.0292
    72IDQ   C6138709   6.233   3.522  25.670 -0.0447 -0.5283  0.3751
    72IDQ   C6238710   6.262   3.620  25.564 -0.0500  0.0049 -0.3137
    72IDQ   C6338711   6.366   3.588  25.460  0.4179  0.1169  0.3736
    72IDQ   C6438712   6.387   3.699  25.360 -0.6533  0.4971 -0.8836
    72IDQ   C6538713   6.456   3.641  25.231  0.0295  0.8360 -0.2124
    72IDQ   C6638714   5.755   3.245  25.604  0.1019  0.0059  0.3198
    72IDQ   C6738715   5.671   3.127  25.643 -0.0923 -1.2050 -0.3832
    72IDQ   C6838716   5.664   3.004  25.551  1.2096  0.3314 -0.2584
    72IDQ   C6938717   5.580   2.896  25.615 -0.4014  0.2193 -0.8480
    72IDQ   C7038718   5.630   2.839  25.746  0.6157 -0.2562 -0.3052
    72IDQ   C7138719   5.528   2.760  25.826  0.2640  0.7984 -0.4462
    72IDQ   C7238720   5.480   2.627  25.762  0.4301 -0.4291  0.7603
    11RH     C138721   1.877   5.042  17.996 -0.0956  0.1724 -0.4063
    11RH     C238722   1.964   4.942  17.931  0.2808  0.2433 -0.0219
    11RH     N138723   1.932   5.172  17.987 -0.2136  0.2338 -0.2562
    11RH     S138724   2.113   5.024  17.862  0.4550  0.3863  0.5118
    11RH     C338725   2.053   5.187  17.922  0.0222  0.3455  0.2012
    11RH     C438726   1.870   5.285  18.072  0.1503  1.0338 -0.7334
    11RH     S238727   2.139   5.330  17.898 -0.0509  0.4365  0.4654
    11RH     O138728   1.769   5.019  18.053 -0.2889  0.0718 -0.8116
    11RH     C538729   1.935   4.811  17.926  0.4570  0.2056 -0.0711
    21BTZ    C638730   1.997   4.684  17.890 -0.0132 -0.0737 -0.0297
    21BTZ    C738731   2.123   4.670  17.837 -0.0645 -0.0838 -0.1512
    21BTZ    C838732   1.919   4.566  17.913 -0.0250 -0.0632 -0.0162
    21BTZ    C938733   2.178   4.540  17.806 -0.1296 -0.0840 -0.2646
    21BTZ   C1038734   2.107   4.425  17.827 -0.1433 -0.0742 -0.2560
    21BTZ   C1138735   1.975   4.434  17.881 -0.0911 -0.0634 -0.1311
    21BTZ    N238736   1.795   4.566  17.964  0.0210 -0.0528  0.0968
    21BTZ    N338737   1.896   4.329  17.906 -0.0983 -0.0532 -0.1106
    21BTZ    S338738   1.744   4.395  17.973 -0.0192 -0.0426  0.0601
    31IDT   C1238739   2.170   4.294  17.789  0.0397  0.0775 -0.2422
    31IDT   C1338740   2.299   4.257  17.814 -0.0734 -0.2233 -0.0939
    31IDT   C1438741   2.334   4.132  17.753 -0.3095 -0.3327 -0.0052
    31IDT   C1538742   2.231   4.074  17.682 -0.3777 -0.1166 -0.0860
    31IDT    S438743   2.081   4.173  17.686 -0.1461  0.2454 -0.2808
    4IDB    C1638744   2.279   3.943  17.628  0.5370 -0.0551  0.2561
    4IDB    C1738745   2.420   3.939  17.650  0.7343  0.2223 -0.8321
    51IDQ   C1838746   2.465   4.056  17.732 -0.7864 -0.7770 -0.9360
    4IDB    C1938747   2.497   3.833  17.601  0.4555  0.0360 -0.8713
    51IDQ   C2038748   2.531   3.986  17.867  0.6593  0.2420  0.2416
    51IDQ   C2138749   2.570   4.155  17.668 -0.1636  0.0789 -0.1709
    51IDQ   C2238750   2.622   4.132  17.526 -0.2074 -0.6181  0.2223
    51IDQ   C2338751   2.456   3.986  17.999  0.3484 -0.0254  0.2221
    51IDQ   C2438752   2.568   4.262  17.452 -0.9481 -0.0567  1.1321
    51IDQ   C2538753   2.628   4.274  17.310 -1.3386  0.7842  0.6636
    51IDQ   C2638754   2.562   4.390  17.230  0.2422 -0.2646  0.0585
    51IDQ   C2738755   2.602   4.415  17.086 -0.4140 -0.0405 -0.1146
    51IDQ   C2838756   2.527   4.332  16.987  0.9033 -0.5752 -0.1798
    51IDQ   C2938757   2.533   4.399  16.839  0.0945 -0.1362  0.2851
    51IDQ   C3038758   2.530   3.921  18.109 -0.5494 -0.6335  0.1335
    51IDQ   C3138759   2.418   3.897  18.213 -0.0792 -0.4119 -0.2967
    51IDQ   C3238760   2.471   3.835  18.337  0.1206 -0.1413  0.0702
    51IDQ   C3338761   2.374   3.859  18.454 -0.3485  0.7221  1.6923
    51IDQ   C3438762   2.240   3.795  18.451 -0.3843  0.2104  0.5551
    51IDQ   C3538763   2.126   3.869  18.537 -0.5400  0.5474  0.4150
    4IDB    C3638764   2.214   3.842  17.557  0.0565 -0.5234  1.3175
    4IDB    C3738765   2.293   3.735  17.507 -0.2231 -0.7079  1.2603
    11RH    C3838766   1.754   5.358  18.000  0.0955 -0.3230 -0.5087
    4IDB    C3938767   2.431   3.732  17.530 -0.0250 -0.4324  0.1901
    62IDT   C4038768   2.491   3.628  17.454  0.0126  0.4985  0.3174
    72IDQ   C4138769   2.260   3.611  17.425  0.7828  0.8406  0.8058
    62IDT   C4238770   2.397   3.559  17.381 -0.2369  0.6298  0.5074
    72IDQ   C4338771   2.170   3.644  17.296  1.0530 -0.2932  0.7988
    72IDQ   C4438772   2.177   3.526  17.522  0.3288 -0.8910  0.2357
    62IDT    S538773   2.657   3.564  17.429 -0.1192  0.3009 -0.0658
    62IDT   C4538774   2.587   3.441  17.315 -0.5244  0.4117  0.0573
    62IDT   C4638775   2.451   3.453  17.301 -0.5409  0.5808  0.3605
    82BTZ   C4738776   2.685   3.349  17.258 -0.7838  0.0953 -0.0275
    82BTZ   C4838777   2.811   3.342  17.312 -0.8211  0.2432  0.0801
    82BTZ   C4938778   2.906   3.241  17.271 -0.6759  0.3376  0.1802
    82BTZ   C5038779   2.874   3.148  17.176 -0.4936  0.2841  0.1722
    82BTZ   C5138780   2.648   3.254  17.158 -0.5952  0.0340 -0.0405
    82BTZ   C5238781   2.744   3.151  17.116 -0.4475  0.1300  0.0606
    92RH    C5338782   2.973   3.042  17.131 -0.4326 -0.5272  0.2291
    82BTZ    N438783   2.529   3.251  17.098 -0.5415 -0.1082 -0.1411
    82BTZ    N538784   2.702   3.066  17.022 -0.2753  0.0649  0.0420
    82BTZ    S638785   2.534   3.114  16.983 -0.2949 -0.1258 -0.1089
    92RH    C5438786   3.100   3.019  17.168 -0.3056 -0.2770 -0.0372
    92RH     S738787   3.194   3.106  17.299 -0.1890 -0.0648 -0.2616
    92RH    C5538788   3.185   2.914  17.106 -0.2380 -0.1295 -0.1955
    92RH     O238789   3.150   2.838  17.015 -0.2897 -0.2176 -0.1030
    92RH     N638790   3.313   2.911  17.165 -0.1045  0.1302 -0.4717
    92RH    C5638791   3.342   3.000  17.266 -0.0567  0.2086 -0.5541
    92RH    C5738792   3.407   2.805  17.111  0.4596 -1.1481  0.6660
    92RH    C5838793   3.498   2.861  17.004  0.3738  0.1514  0.6127
    92RH     S838794   3.486   3.017  17.351  0.0975  0.5049 -0.8683
    72IDQ   C5938795   2.158   3.377  17.503  0.1807 -0.4140 -0.8355
    72IDQ   C6038796   2.261   3.271  17.539  0.1512 -0.3765  0.1971
    72IDQ   C6138797   2.295   3.177  17.429 -0.7893  0.4717 -0.5175
    72IDQ   C6238798   2.191   3.124  17.334  0.2870  1.3312  0.6762
    72IDQ   C6338799   2.128   2.996  17.380  0.8755  0.7618 -0.4629
    72IDQ   C6438800   2.028   2.955  17.267  0.5411 -0.1283  0.1461
    72IDQ   C6538801   1.915   2.864  17.306  0.0164  0.3889 -0.0767
    72IDQ   C6638802   2.116   3.530  17.198  0.1877  0.0234  1.7565
    72IDQ   C6738803   2.027   3.580  17.075  0.0239 -0.2481 -0.1822
    72IDQ   C6838804   2.008   3.454  16.991  0.0092  0.2409 -0.9346
    72IDQ   C6938805   2.116   3.396  16.906 -0.1778  0.6515  0.4668
    72IDQ   C7038806   2.069   3.251  16.889 -0.0267  0.1826 -0.7053
    72IDQ   C7138807   2.143   3.134  16.819 -1.2352  0.1938  0.3164
    72IDQ   C7238808   2.083   2.997  16.831 -0.2390 -0.0871  1.5383
    11RH     C138809   0.507   0.805  10.592  0.2940  0.1216 -0.3257
    11RH     C238810   0.412   0.752  10.491  0.2261  0.0401 -0.2186
    11RH     N138811   0.509   0.726  10.708  0.2722  0.2924 -0.2085
    11RH     S138812   0.331   0.600  10.557  0.1380  0.1933  0.0297
    11RH     C338813   0.427   0.615  10.714  0.1951  0.3577 -0.0203
    11RH     C438814   0.585   0.779  10.829 -0.1016 -0.1059  0.2791
    11RH     S238815   0.411   0.505  10.840  0.1543  0.5558  0.1483
    11RH     O138816   0.577   0.907  10.578  0.3619  0.0519 -0.4969
    11RH     C538817   0.391   0.808  10.372  0.2308 -0.1214 -0.2963
    21BTZ    C638818   0.308   0.775  10.256 -0.0457  0.2201  0.1656
    21BTZ    C738819   0.226   0.666  10.251  0.0702  0.1369  0.0901
    21BTZ    C838820   0.298   0.874  10.153  0.0423  0.1436  0.0834
    21BTZ    C938821   0.131   0.648  10.144  0.2769 -0.0247 -0.0684
    21BTZ   C1038822   0.118   0.739  10.043  0.3675 -0.1027 -0.1515
    21BTZ   C1138823   0.202   0.856  10.044  0.2524 -0.0206 -0.0775
    21BTZ    N238824   0.373   0.985  10.148 -0.0552  0.2122  0.1447
    21BTZ    N338825   0.198   0.952   9.952  0.3239 -0.0839 -0.1459
    21BTZ    S338826   0.321   1.072  10.001  0.1213  0.0668 -0.0046
    31IDT   C1238827   0.039   0.701   9.923  0.6766 -0.6098 -0.3271
    31IDT   C1338828   0.009   0.772   9.810  1.1623 -0.9658 -0.6897
    31IDT   C1438829  -0.100   0.716   9.737  0.8837 -0.6881 -0.4895
    31IDT   C1538830  -0.154   0.603   9.793  0.1857 -0.1201  0.0257
    31IDT    S438831  -0.070   0.557   9.945 -0.1764  0.1094  0.2998
    4IDB    C1638832  -0.260   0.552   9.713 -0.4674  0.5996  0.1984
    4IDB    C1738833  -0.288   0.648   9.611 -0.8928  0.4890  0.2062
    51IDQ   C1838834  -0.181   0.759   9.615 -0.4990  0.0731  0.1090
    4IDB    C1938835  -0.384   0.623   9.514 -0.6039 -0.0462  0.0491
    51IDQ   C2038836  -0.084   0.766   9.487 -0.6596 -0.2186  0.3160
    51IDQ   C2138837  -0.219   0.914   9.647 -0.2932 -0.1775  0.2703
    51IDQ   C2238838  -0.370   0.946   9.655 -0.3194 -0.6243 -0.2997
    51IDQ   C2338839   0.051   0.693   9.484 -0.3934  0.3008  0.0268
    51IDQ   C2438840  -0.401   1.087   9.667 -0.4689  0.2250  0.0249
    51IDQ   C2538841  -0.553   1.104   9.685 -0.2226 -0.9892  0.4398
    51IDQ   C2638842  -0.565   1.259   9.676 -0.9395  0.0635  0.0270
    51IDQ   C2738843  -0.718   1.295   9.673 -0.5273 -0.4357 -0.3375
    51IDQ   C2838844  -0.752   1.446   9.671  0.0114 -0.8354  0.2993
    51IDQ   C2938845  -0.908   1.467   9.668  0.1366  0.2851  0.1494
    51IDQ   C3038846   0.153   0.757   9.385  1.0903 -0.0800 -0.5674
    51IDQ   C3138847   0.258   0.858   9.450  0.4614  0.8461  0.3091
    51IDQ   C3238848   0.337   0.947   9.341  0.9615 -0.2814 -0.9560
    51IDQ   C3338849   0.428   0.873   9.249 -1.2007  0.0189 -0.5624
    51IDQ   C3438850   0.503   0.939   9.145  0.2336 -0.5626  0.6502
    51IDQ   C3538851   0.549   1.082   9.166  0.0949  0.0222 -0.0802
    4IDB    C3638852  -0.329   0.430   9.719  0.2539  0.1726  0.0324
    4IDB    C3738853  -0.427   0.406   9.619  0.5399 -0.3718 -0.1264
    11RH    C3838854   0.720   0.713  10.863 -0.3742  0.3912  0.8962
    4IDB    C3938855  -0.453   0.501   9.519  0.1174 -0.4733 -0.1170
    62IDT   C4038856  -0.565   0.468   9.442 -0.6467  0.2817  0.2646
    72IDQ   C4138857  -0.534   0.297   9.596 -0.0447  1.0482  0.4038
    62IDT   C4238858  -0.630   0.357   9.491 -0.5674  0.2273  0.2458
    72IDQ   C4338859  -0.590   0.261   9.741 -0.7334 -0.7552  0.6501
    72IDQ   C4438860  -0.459   0.163   9.559  0.1459  0.3168  0.4225
    62IDT    S538861  -0.661   0.551   9.315 -0.6113  0.1133  0.1281
    62IDT   C4538862  -0.790   0.425   9.335 -0.4849 -0.0287  0.0494
    62IDT   C4638863  -0.757   0.332   9.431 -0.4759  0.0518  0.1242
    82BTZ   C4738864  -0.921   0.419   9.250 -0.6262 -0.0183  0.2563
    82BTZ   C4838865  -1.030   0.355   9.301 -0.8591  0.2507  0.1068
    82BTZ   C4938866  -1.148   0.331   9.222 -0.7441  0.3901 -0.1097
    82BTZ   C5038867  -1.157   0.372   9.092 -0.3963  0.2603 -0.1762
    82BTZ   C5138868  -0.925   0.464   9.114 -0.2595 -0.1630  0.1941
    82BTZ   C5238869  -1.046   0.440   9.033 -0.1426 -0.0213 -0.0257
    92RH    C5338870  -1.268   0.344   8.997  0.1301 -0.2414 -0.0809
    82BTZ    N438871  -0.826   0.528   9.052 -0.0076 -0.4251  0.3250
    82BTZ    N538872  -1.042   0.485   8.907  0.2033 -0.1695 -0.0715
    82BTZ    S638873  -0.882   0.561   8.886  0.3978 -0.5035  0.1693
    92RH    C5438874  -1.392   0.298   9.012  0.1433 -0.2637 -0.0393
    92RH     S738875  -1.476   0.258   9.170  0.1434 -0.1122 -0.0007
    92RH    C5538876  -1.484   0.271   8.899  0.1607 -0.4201 -0.0169
    92RH     O238877  -1.458   0.288   8.778  0.1650 -0.5467 -0.0343
    92RH     N638878  -1.609   0.223   8.943  0.1722 -0.4091  0.0268
    92RH    C5638879  -1.629   0.208   9.079  0.1662 -0.2629  0.0427
    92RH    C5738880  -1.715   0.183   8.843  0.4613 -0.5757  0.1692
    92RH    C5838881  -1.837   0.286   8.835 -0.7192 -0.0399 -0.3774
    92RH     S838882  -1.767   0.153   9.158  0.1774 -0.2179  0.0937
    72IDQ   C5938883  -0.330   0.171   9.470  0.3744 -0.1267  0.0600
    72IDQ   C6038884  -0.278   0.045   9.406  0.6521 -0.9196  0.7658
    72IDQ   C6138885  -0.189  -0.028   9.495 -0.4218  0.4876 -0.0833
    72IDQ   C6238886  -0.193  -0.185   9.482  0.1605  0.6750  0.8117
    72IDQ   C6338887  -0.092  -0.265   9.568  0.2051 -0.7195  0.3355
    72IDQ   C6438888  -0.169  -0.386   9.620  0.2816  0.1439 -1.4598
    72IDQ   C6538889  -0.075  -0.479   9.698  0.2049  1.2133 -0.4558
    72IDQ   C6638890  -0.735   0.251   9.774  0.3186 -0.9361  0.1128
    72IDQ   C6738891  -0.740   0.239   9.923  0.5626  0.6018  0.4463
    72IDQ   C6838892  -0.887   0.221   9.977 -0.2088  0.1719  0.2460
    72IDQ   C6938893  -0.957   0.325  10.064  0.4229 -0.2870 -0.8078
    72IDQ   C7038894  -1.098   0.309  10.124 -0.3981 -0.8157  0.1966
    72IDQ   C7138895  -1.108   0.194  10.224  0.1486 -0.7556 -0.5672
    72IDQ   C7238896  -1.039   0.225  10.370 -0.1335  0.7240  1.0096
    11RH     C138897   3.080   4.612   4.399  0.1331  0.0185  0.0014
    11RH     C238898   3.138   4.686   4.514  0.4283 -0.0943 -0.0747
    11RH     N138899   3.112   4.674   4.276 -0.2625  0.1933 -0.0189
    11RH     S138900   3.232   4.832   4.452  0.1661  0.0368 -0.1680
    11RH     C338901   3.190   4.788   4.278 -0.3206  0.2342 -0.1020
    11RH     C438902   3.064   4.616   4.141  0.6601  0.4471 -0.8054
    11RH     S238903   3.242   4.879   4.147 -0.7582  0.4308 -0.1428
    11RH     O138904   3.011   4.510   4.407  0.2146 -0.0306  0.0747
    11RH     C538905   3.123   4.649   4.641  0.8238 -0.2655 -0.0726
    21BTZ    C638906   3.166   4.712   4.767  0.2312 -0.0673  0.3291
    21BTZ    C738907   3.244   4.825   4.766  0.1612 -0.0184  0.3078
    21BTZ    C838908   3.110   4.669   4.892  0.1202  0.0184  0.3096
    21BTZ    C938909   3.272   4.899   4.887 -0.0202  0.1160  0.2669
    21BTZ   C1038910   3.221   4.861   5.008 -0.1313  0.2016  0.2472
    21BTZ   C1138911   3.138   4.744   5.014 -0.0641  0.1550  0.2680
    21BTZ    N238912   3.032   4.561   4.906  0.1732 -0.0176  0.3271
    21BTZ    N338913   3.083   4.697   5.127 -0.1594  0.2286  0.2521
    21BTZ    S338914   2.990   4.551   5.080 -0.0143  0.1245  0.2904
    31IDT   C1238915   3.271   4.932   5.132 -0.1882  0.7035 -0.1191
    31IDT   C1338916   3.202   4.941   5.250 -0.3052  0.9910 -0.2091
    31IDT   C1438917   3.268   5.022   5.348 -0.0079  0.5707 -0.0610
    31IDT   C1538918   3.388   5.074   5.306  0.3369 -0.0382  0.1422
    31IDT    S438919   3.427   5.025   5.137  0.3117 -0.1276  0.1619
    4IDB    C1638920   3.451   5.165   5.406 -0.1419  0.1048 -0.0838
    4IDB    C1738921   3.372   5.153   5.524 -0.0625 -0.3012 -0.0684
    51IDQ   C1838922   3.246   5.077   5.495  0.7079  1.0882 -0.5534
    4IDB    C1938923   3.398   5.230   5.637 -0.0607 -0.6021  0.1405
    51IDQ   C2038924   3.232   4.962   5.609  0.1850 -0.0019 -0.2469
    51IDQ   C2138925   3.102   5.143   5.512 -1.2547  0.0114  0.6988
    51IDQ   C2238926   3.074   5.292   5.491  0.0250 -0.9237  0.0447
    51IDQ   C2338927   3.234   4.814   5.562  0.1075 -0.6475  0.2865
    51IDQ   C2438928   3.130   5.371   5.374  0.1849 -0.5457  0.2597
    51IDQ   C2538929   3.124   5.527   5.386  0.0107  0.1840 -0.1230
    51IDQ   C2638930   3.230   5.606   5.303 -0.3284 -0.4744 -1.0905
    51IDQ   C2738931   3.228   5.567   5.157  0.6455 -0.6581  0.6883
    51IDQ   C2838932   3.306   5.651   5.058 -0.4646  0.4838 -0.2437
    51IDQ   C2938933   3.312   5.616   4.908 -0.1253  0.5610  0.6146
    51IDQ   C3038934   3.110   4.744   5.497 -0.2424 -0.0930 -0.0028
    51IDQ   C3138935   2.991   4.748   5.591  0.7052 -0.1916  0.0242
    51IDQ   C3238936   2.867   4.672   5.550  0.4534  0.0277 -0.4765
    51IDQ   C3338937   2.859   4.520   5.534  0.2130  0.6629  0.5821
    51IDQ   C3438938   2.957   4.434   5.619 -0.5223  1.2951  0.2415
    51IDQ   C3538939   2.959   4.285   5.582  0.2412 -0.2395  0.5299
    4IDB    C3638940   3.559   5.255   5.400 -0.2203  0.2126  0.1109
    4IDB    C3738941   3.584   5.333   5.516 -0.2171 -0.0991  0.3228
    11RH    C3838942   3.131   4.486   4.092  0.6064 -0.0444  0.0256
    4IDB    C3938943   3.506   5.320   5.631 -0.1390 -0.4943  0.3352
    62IDT   C4038944   3.556   5.399   5.733  0.4839  0.0725  0.4948
    72IDQ   C4138945   3.686   5.447   5.543 -1.6595  0.3102 -0.4591
    62IDT   C4238946   3.639   5.496   5.681  0.3621  0.3039  0.7235
    72IDQ   C4338947   3.679   5.577   5.457  0.7588 -0.7469  0.1521
    72IDQ   C4438948   3.831   5.385   5.540 -0.8421  0.9875 -0.0264
    62IDT    S538949   3.517   5.430   5.906  0.1115 -0.1602  0.4553
    62IDT   C4538950   3.620   5.580   5.898 -0.2047  0.0793  0.7649
    62IDT   C4638951   3.676   5.598   5.774 -0.0274  0.3079  0.8764
    82BTZ   C4738952   3.637   5.666   6.016 -0.3757  0.0559 -0.1153
    82BTZ   C4838953   3.593   5.612   6.134 -0.4493  0.0460 -0.1475
    82BTZ   C4938954   3.597   5.685   6.258 -0.2887 -0.0560 -0.0923
    82BTZ   C5038955   3.646   5.813   6.264 -0.0548 -0.1480 -0.0048
    82BTZ   C5138956   3.688   5.800   6.018 -0.1324 -0.0379 -0.0244
    82BTZ   C5238957   3.693   5.875   6.144  0.0308 -0.1416  0.0318
    92RH    C5338958   3.659   5.877   6.392 -0.7113  0.0034 -0.1718
    82BTZ    N438959   3.734   5.864   5.909 -0.0400 -0.0385  0.0144
    82BTZ    N538960   3.742   5.999   6.137  0.2545 -0.2255  0.1158
    82BTZ    S638961   3.786   6.026   5.966  0.2663 -0.1743  0.1268
    92RH    C5438962   3.632   5.847   6.520 -0.3052 -0.1771 -0.1268
    92RH     S738963   3.562   5.690   6.583  0.1622 -0.3752 -0.0896
    92RH    C5538964   3.657   5.940   6.632 -0.1689 -0.2458 -0.0998
    92RH     O238965   3.705   6.054   6.622 -0.4089 -0.1466 -0.1148
    92RH     N638966   3.620   5.883   6.756  0.2773 -0.4423 -0.0533
    92RH    C5638967   3.569   5.755   6.756  0.5150 -0.5394 -0.0399
    92RH    C5738968   3.657   5.956   6.885 -0.7088 -0.6574  1.3601
    92RH    C5838969   3.542   6.055   6.932 -0.3532  0.6553 -0.2001
    92RH     S838970   3.517   5.664   6.888  1.0475 -0.7721  0.0129
    72IDQ   C5938971   3.958   5.458   5.589  0.3696 -0.1260 -0.2089
    72IDQ   C6038972   4.089   5.390   5.568  0.1807  0.8003 -0.2295
    72IDQ   C6138973   4.115   5.245   5.622 -0.1312  1.0415  0.8594
    72IDQ   C6238974   4.247   5.180   5.604 -0.5035 -0.2535 -0.0473
    72IDQ   C6338975   4.377   5.237   5.663 -0.5096 -0.0094 -0.3690
    72IDQ   C6438976   4.427   5.338   5.557  0.4752  0.5565 -0.4439
    72IDQ   C6538977   4.568   5.362   5.584 -0.3057 -0.7195 -0.6947
    72IDQ   C6638978   3.723   5.571   5.318 -1.6719  0.5173  1.0663
    72IDQ   C6738979   3.760   5.697   5.235  0.8160  0.1634 -0.1981
    72IDQ   C6838980   3.771   5.681   5.081 -0.3406  0.0613 -1.1530
    72IDQ   C6938981   3.776   5.832   5.033 -0.2730  0.2103 -0.9700
    72IDQ   C7038982   3.752   5.848   4.884  0.4878 -0.8078 -0.1226
    72IDQ   C7138983   3.599   5.843   4.860 -0.0953 -0.4203 -0.3407
    72IDQ   C7238984   3.562   5.908   4.731 -0.1064  0.2583 -0.3757
    11RH     C138985   3.247   4.642  24.962 -0.1903 -0.1029  0.4935
    11RH     C238986   3.146   4.612  24.858  0.1200 -0.1692  0.2131
    11RH     N138987   3.199   4.741  25.052 -0.5049 -0.1334  0.3627
    11RH     S138988   2.996   4.714  24.884 -0.0220 -0.2675 -0.2034
    11RH     C338989   3.073   4.792  25.032 -0.4845 -0.2162  0.0119
    11RH     C438990   3.296   4.790  25.153  0.8280  0.4638  0.1404
    11RH     S238991   2.994   4.909  25.123 -0.8174 -0.2679 -0.2074
    11RH     O138992   3.359   4.590  24.973 -0.1827 -0.0292  0.8054
    11RH     C538993   3.166   4.522  24.760  0.4497 -0.1567  0.2678
    21BTZ    C638994   3.070   4.458  24.663  0.1042 -0.5475  0.3528
    21BTZ    C738995   2.934   4.471  24.678  0.1345 -0.1535  0.3014
    21BTZ    C838996   3.120   4.380  24.553 -0.0785 -0.5019  0.2356
    21BTZ    C938997   2.842   4.409  24.586 -0.0123  0.3021  0.1340
    21BTZ   C1038998   2.885   4.333  24.480 -0.1890  0.3632  0.0180
    21BTZ   C1138999   3.026   4.317  24.461 -0.2276 -0.0387  0.0653
    21BTZ    N239000   3.249   4.360  24.529 -0.1250 -0.8590  0.2699
    21BTZ    N339001   3.080   4.246  24.361 -0.3940 -0.0238 -0.0362
    21BTZ    S339002   3.257   4.257  24.382 -0.3666 -0.6135  0.0837
    31IDT   C1239003   2.779   4.277  24.391  0.2506 -0.5908  0.0659
    31IDT   C1339004   2.777   4.268  24.255  0.2609 -0.6670  0.0706
    31IDT   C1439005   2.649   4.233  24.202  0.1352 -0.1971  0.0510
    31IDT   C1539006   2.552   4.214  24.299  0.0283  0.2392  0.0309
    31IDT    S439007   2.616   4.241  24.465  0.0792  0.0875  0.0362
    4IDB    C1639008   2.427   4.175  24.232 -0.0801  0.3154  0.1838
    4IDB    C1739009   2.447   4.168  24.090  0.0110 -0.1256  0.2165
    51IDQ   C1839010   2.594   4.220  24.062  0.3536  0.0621  0.3582
    4IDB    C1939011   2.346   4.124  24.006 -0.0514 -0.0625  0.2573
    51IDQ   C2039012   2.660   4.129  23.955 -0.9515  0.4829 -0.5236
    51IDQ   C2139013   2.589   4.365  23.995  0.1406 -0.0100 -0.4457
    51IDQ   C2239014   2.457   4.433  23.950 -0.5665 -0.3097  0.9661
    51IDQ   C2339015   2.787   4.037  23.998  0.2027 -1.2721 -0.6174
    51IDQ   C2439016   2.509   4.569  23.903 -0.5334  0.3723  0.7391
    51IDQ   C2539017   2.438   4.667  23.823  0.2234 -1.2199 -0.1801
    51IDQ   C2639018   2.308   4.718  23.890  0.2518 -0.5941 -0.3288
    51IDQ   C2739019   2.228   4.816  23.797  0.7920  0.4401  0.2762
    51IDQ   C2839020   2.135   4.911  23.857  0.2871  0.4606 -0.1140
    51IDQ   C2939021   2.069   4.987  23.746  0.1055 -0.0440 -0.8368
    51IDQ   C3039022   2.856   3.965  23.896 -0.8502 -0.7898  0.8492
    51IDQ   C3139023   2.928   4.047  23.788 -0.3072  0.0384  0.0459
    51IDQ   C3239024   3.018   3.966  23.697 -0.2232  0.0667 -0.1300
    51IDQ   C3339025   3.108   3.854  23.745 -0.1667  0.0021 -0.1161
    51IDQ   C3439026   3.190   3.893  23.868  0.9841 -0.5888 -0.1347
    51IDQ   C3539027   3.187   3.774  23.950  0.0460 -0.5382 -0.5753
    4IDB    C3639028   2.305   4.138  24.290 -0.2352  0.8256  0.1917
    4IDB    C3739029   2.202   4.093  24.202 -0.2970  0.8827  0.2341
    11RH    C3839030   3.288   4.749  25.298 -0.6293  0.1232 -0.6032
    4IDB    C3939031   2.223   4.087  24.064 -0.2064  0.4478  0.2659
    62IDT   C4039032   2.106   4.030  23.996 -0.9140  0.1913  0.3510
    72IDQ   C4139033   2.047   4.066  24.226 -0.7632 -1.0192 -0.0147
    62IDT   C4239034   2.003   4.019  24.086 -1.2478  0.6179  0.0281
    72IDQ   C4339035   1.980   4.195  24.278  0.6037  0.2841  1.2440
    72IDQ   C4439036   2.002   3.928  24.292  0.0087 -0.3186 -0.8171
    62IDT    S539037   2.056   3.981  23.830 -0.4048 -0.2504  0.3197
    62IDT   C4539038   1.889   3.947  23.895 -0.6838  0.1865 -0.1499
    62IDT   C4639039   1.880   3.973  24.030 -1.1182  0.6158 -0.2551
    82BTZ   C4739040   1.777   3.896  23.806 -0.4542 -0.0048  0.1333
    82BTZ   C4839041   1.811   3.852  23.681 -0.4405 -0.0468  0.1512
    82BTZ   C4939042   1.713   3.805  23.587 -0.4244 -0.1258  0.1745
    82BTZ   C5039043   1.580   3.800  23.619 -0.4221 -0.1627  0.1800
    82BTZ   C5139044   1.638   3.893  23.844 -0.4523 -0.0410  0.1373
    82BTZ   C5239045   1.538   3.845  23.749 -0.4360 -0.1213  0.1607
    92RH    C5339046   1.477   3.764  23.519 -0.1893  0.3334 -0.2157
    82BTZ    N439047   1.592   3.933  23.963 -0.4647 -0.0063  0.1211
    82BTZ    N539048   1.412   3.845  23.791 -0.4353 -0.1510  0.1640
    82BTZ    S639049   1.415   3.909  23.958 -0.4559 -0.0761  0.1356
    92RH    C5439050   1.495   3.749  23.387 -0.0728  0.3046 -0.1965
    92RH     S739051   1.652   3.771  23.295  0.0146  0.2620 -0.0590
    92RH    C5539052   1.387   3.710  23.294  0.0055  0.3030 -0.2861
    92RH     O239053   1.269   3.688  23.325 -0.0265  0.3274 -0.3881
    92RH     N639054   1.434   3.701  23.161  0.1241  0.2694 -0.2425
    92RH    C5639055   1.567   3.727  23.137  0.1504  0.2440 -0.1273
    92RH    C5739056   1.338   3.685  23.045  0.4840 -0.3052 -0.7938
    92RH    C5839057   1.311   3.544  22.999 -0.3646  0.3105 -0.1392
    92RH     S839058   1.648   3.724  22.989  0.2835  0.2023 -0.0539
    72IDQ   C5939059   2.089   3.863  24.401  0.9542 -0.7645 -0.5751
    72IDQ   C6039060   2.117   3.928  24.545 -0.8607  0.6513  1.4524
    72IDQ   C6139061   2.001   3.923  24.640 -0.0060 -0.2446  0.4614
    72IDQ   C6239062   2.032   3.955  24.777 -0.2970 -0.4320 -0.5144
    72IDQ   C6339063   2.067   4.103  24.818  0.3922  0.2024 -0.4887
    72IDQ   C6439064   1.962   4.227  24.799  0.5754  0.3360  0.5933
    72IDQ   C6539065   1.815   4.208  24.845  0.4195  0.7708  0.8992
    72IDQ   C6639066   1.965   4.233  24.420  0.0569  0.4900 -0.8096
    72IDQ   C6739067   1.976   4.381  24.453  0.1690  0.1711 -0.2812
    72IDQ   C6839068   2.106   4.458  24.440 -0.8195  0.2922 -0.6640
    72IDQ   C6939069   2.159   4.492  24.298 -0.0891  0.0425 -0.1098
    72IDQ   C7039070   2.090   4.598  24.207 -1.0359  0.5087 -0.8313
    72IDQ   C7139071   2.062   4.743  24.250 -0.3024  1.3787  0.1434
    72IDQ   C7239072   1.966   4.802  24.146 -0.4417  0.0370 -0.0764
    11RH     C139073   6.334   1.246   3.544 -0.0648 -0.3009 -0.2457
    11RH     C239074   6.441   1.181   3.624 -0.0161 -0.0566 -0.1112
    11RH     N139075   6.296   1.370   3.599 -0.2198 -0.2555 -0.4520
    11RH     S139076   6.484   1.287   3.767 -0.1770  0.2170 -0.2648
    11RH     C339077   6.359   1.413   3.714 -0.3008 -0.0046 -0.4992
    11RH     C439078   6.175   1.441   3.551  0.6785 -0.6275  0.5670
    11RH     S239079   6.332   1.555   3.799 -0.4855  0.1010 -0.7313
    11RH     O139080   6.283   1.199   3.440  0.0174 -0.5203 -0.1886
    11RH     C539081   6.494   1.062   3.593  0.1252 -0.0458  0.0910
    21BTZ    C639082   6.600   0.978   3.645 -0.1811 -0.0086  0.1675
    21BTZ    C739083   6.684   1.016   3.747 -0.0859  0.0550  0.0661
    21BTZ    C839084   6.617   0.849   3.586 -0.1262  0.0206  0.1186
    21BTZ    C939085   6.787   0.928   3.796  0.0674  0.1498 -0.0872
    21BTZ   C1039086   6.807   0.804   3.743  0.1249  0.1808 -0.1390
    21BTZ   C1139087   6.722   0.760   3.636  0.0294  0.1170 -0.0373
    21BTZ    N239088   6.541   0.801   3.487 -0.2084 -0.0348  0.2068
    21BTZ    N339089   6.732   0.641   3.576  0.0725  0.1390 -0.0744
    21BTZ    S339090   6.604   0.637   3.451 -0.0875  0.0353  0.0918
    31IDT   C1239091   6.911   0.727   3.809 -0.3087  0.5900 -0.0115
    31IDT   C1339092   6.967   0.610   3.766 -1.3826 -0.0650  0.2838
    31IDT   C1439093   7.064   0.557   3.857 -1.7157 -0.6307  0.3223
    31IDT   C1539094   7.082   0.634   3.970 -0.8999 -0.4112  0.0572
    31IDT    S439095   6.977   0.780   3.970  0.3650  0.5377 -0.2646
    4IDB    C1639096   7.182   0.573   4.056 -0.2972  0.0383 -0.5380
    4IDB    C1739097   7.231   0.455   3.993  0.2655  0.4225 -0.8308
    51IDQ   C1839098   7.165   0.434   3.858 -0.3909 -0.6593 -1.1800
    4IDB    C1939099   7.324   0.374   4.056  0.0019  0.2508 -0.6596
    51IDQ   C2039100   7.278   0.439   3.742  0.7081  0.2037 -0.6167
    51IDQ   C2139101   7.077   0.313   3.829 -0.2944  1.1067 -2.0485
    51IDQ   C2239102   7.042   0.200   3.931  0.6567  0.1615  0.8072
    51IDQ   C2339103   7.289   0.567   3.666  0.4125 -0.3483  0.2691
    51IDQ   C2439104   6.954   0.086   3.866  0.3226  0.1890 -0.0929
    51IDQ   C2539105   6.827   0.120   3.784 -0.0938  0.3429  0.7160
    51IDQ   C2639106   6.721   0.189   3.863 -0.4541 -0.4255  0.6054
    51IDQ   C2739107   6.717   0.340   3.864  0.7538 -0.3086  0.4335
    51IDQ   C2839108   6.593   0.393   3.942 -0.2237 -0.4291 -0.6816
    51IDQ   C2939109   6.619   0.543   3.961 -0.1482 -0.3061 -0.2935
    51IDQ   C3039110   7.412   0.585   3.582 -0.5204  0.1628  0.4147
    51IDQ   C3139111   7.380   0.680   3.461 -0.5828  1.3285 -0.0693
    51IDQ   C3239112   7.495   0.719   3.382  0.2749 -0.1855 -0.1218
    51IDQ   C3339113   7.495   0.816   3.269  0.3735 -1.5353 -0.0631
    51IDQ   C3439114   7.382   0.913   3.242 -0.0867 -0.7524 -1.0070
    51IDQ   C3539115   7.384   0.948   3.094  0.1908  0.7939 -0.5522
    4IDB    C3639116   7.225   0.611   4.184 -1.1322 -0.5235 -0.0694
    4IDB    C3739117   7.321   0.526   4.247 -1.3906 -0.6914  0.0994
    11RH    C3839118   6.226   1.528   3.439 -0.1207 -0.5873  0.3013
    4IDB    C3939119   7.368   0.411   4.184 -0.8332 -0.3109 -0.1910
    62IDT   C4039120   7.460   0.340   4.268  0.6190  0.4245 -0.6415
    72IDQ   C4139121   7.407   0.548   4.377  1.2413  0.3343 -0.1769
    62IDT   C4239122   7.476   0.410   4.386  0.8879  0.8165 -0.9078
    72IDQ   C4339123   7.309   0.560   4.503 -0.0451 -1.3261  0.8973
    72IDQ   C4439124   7.503   0.669   4.357 -0.4917  0.3913 -1.4292
    62IDT    S539125   7.557   0.189   4.265  0.0702  0.0458 -0.0826
    62IDT   C4539126   7.619   0.231   4.431  0.2417  0.4576 -0.2464
    62IDT   C4639127   7.566   0.348   4.478  0.6750  0.8358 -0.6850
    82BTZ   C4739128   7.716   0.140   4.497 -0.0999  0.0982  0.2287
    82BTZ   C4839129   7.732   0.017   4.439 -0.1300  0.1097  0.1966
    82BTZ   C4939130   7.817  -0.084   4.496 -0.0480  0.1220  0.0986
    82BTZ   C5039131   7.885  -0.063   4.613  0.0640  0.1229  0.0325
    82BTZ   C5139132   7.786   0.167   4.620  0.0164  0.0987  0.1622
    82BTZ   C5239133   7.872   0.064   4.678  0.0997  0.1112  0.0625
    92RH    C5339134   7.982  -0.159   4.671 -0.2922  0.0037 -0.0664
    82BTZ    N439135   7.778   0.283   4.686  0.0560  0.0882  0.1848
    82BTZ    N539136   7.934   0.097   4.792  0.2064  0.1110  0.0049
    82BTZ    S639137   7.883   0.264   4.830  0.2047  0.0941  0.0774
    92RH    C5439138   8.015  -0.282   4.634 -0.3257  0.0087 -0.1131
    92RH     S739139   7.950  -0.374   4.488 -0.4237  0.0444 -0.0921
    92RH    C5539140   8.113  -0.367   4.706 -0.2871 -0.0144 -0.1919
    92RH     O239141   8.175  -0.334   4.809 -0.2204 -0.0410 -0.2232
    92RH     N639142   8.129  -0.493   4.644 -0.3358 -0.0027 -0.2281
    92RH    C5639143   8.056  -0.519   4.531 -0.4088  0.0269 -0.1884
    92RH    C5739144   8.229  -0.595   4.701  0.2389 -1.5267  0.3605
    92RH    C5839145   8.158  -0.703   4.789 -0.2717  0.1925 -0.8008
    92RH     S839146   8.056  -0.661   4.439 -0.4777  0.0461 -0.2182
    72IDQ   C5939147   7.561   0.755   4.474  1.4013 -0.7638 -0.2187
    72IDQ   C6039148   7.702   0.726   4.532  0.3870  0.8823  0.0961
    72IDQ   C6139149   7.812   0.683   4.440  0.2034  0.3350 -0.0240
    72IDQ   C6239150   7.924   0.792   4.439 -1.4267  0.0658  0.8681
    72IDQ   C6339151   8.060   0.739   4.392  0.0156  0.6764 -0.5736
    72IDQ   C6439152   8.142   0.820   4.293 -0.3364  0.9238 -0.0829
    72IDQ   C6539153   8.271   0.747   4.231  0.3433  0.1260 -0.7531
    72IDQ   C6639154   7.216   0.678   4.491  0.2755 -0.4496 -0.0664
    72IDQ   C6739155   7.090   0.695   4.582 -0.6308 -0.3424 -0.4060
    72IDQ   C6839156   6.986   0.591   4.556 -0.8918  0.0437  0.8223
    72IDQ   C6939157   6.897   0.601   4.429 -0.0358 -0.7048  0.2780
    72IDQ   C7039158   6.825   0.482   4.386  0.0344  0.5399 -0.4982
    72IDQ   C7139159   6.918   0.378   4.326  0.6601 -0.0924  0.0996
    72IDQ   C7239160   6.843   0.250   4.275 -0.3770 -0.0738 -0.5921
    11RH     C139161   4.713   6.908  21.202  0.3709  0.0770  0.2694
    11RH     C239162   4.657   6.995  21.096  0.2027  0.0013  0.2956
    11RH     N139163   4.667   6.776  21.190  0.2277  0.1021  0.5307
    11RH     S139164   4.547   6.897  20.987 -0.1326 -0.0324  0.6611
    11RH     C339165   4.580   6.746  21.087 -0.0345  0.0557  0.7625
    11RH     C439166   4.730   6.666  21.281  0.4259  0.1916  0.2755
    11RH     S239167   4.511   6.596  21.051 -0.2474  0.0718  1.0934
    11RH     O139168   4.791   6.945  21.292  0.6077  0.1149  0.0496
    11RH     C539169   4.685   7.126  21.085  0.2902 -0.0354  0.0799
    21BTZ    C639170   4.633   7.228  20.991 -0.4471 -0.2025  0.0663
    21BTZ    C739171   4.535   7.203  20.898 -0.5261  0.1159  0.0634
    21BTZ    C839172   4.690   7.359  20.999 -0.1447 -0.3380  0.1888
    21BTZ    C939173   4.489   7.306  20.808 -0.3132  0.3159  0.1807
    21BTZ   C1039174   4.540   7.433  20.812 -0.0217  0.1974  0.3002
    21BTZ   C1139175   4.642   7.464  20.907  0.0718 -0.1346  0.3085
    21BTZ    N239176   4.785   7.395  21.085 -0.0411 -0.6446  0.2041
    21BTZ    N339177   4.700   7.584  20.920  0.3493 -0.2776  0.4196
    21BTZ    S339178   4.819   7.568  21.052  0.3455 -0.6871  0.3748
    31IDT   C1239179   4.487   7.536  20.716 -0.3630  0.4734  0.4818
    31IDT   C1339180   4.401   7.516  20.611 -0.2835  0.3799  0.4349
    31IDT   C1439181   4.364   7.638  20.547  0.0646  0.2929  0.0572
    31IDT   C1539182   4.420   7.751  20.602  0.2523  0.3195 -0.1842
    31IDT    S439183   4.526   7.711  20.742  0.0005  0.4580  0.0483
    4IDB    C1639184   4.396   7.870  20.529 -0.2343 -0.3285  0.4290
    4IDB    C1739185   4.300   7.832  20.430 -0.1990 -0.3966  0.4215
    51IDQ   C1839186   4.268   7.682  20.442 -0.1830  0.8335  0.3271
    4IDB    C1939187   4.239   7.928  20.349 -0.3945 -0.4195  0.5390
    51IDQ   C2039188   4.106   7.670  20.490 -0.2607 -1.0948 -0.2510
    51IDQ   C2139189   4.289   7.597  20.306  0.1999  0.4772  0.0625
    51IDQ   C2239190   4.337   7.650  20.169 -0.1300 -0.1342 -0.0565
    51IDQ   C2339191   4.087   7.648  20.640  0.1767 -0.0312 -0.5736
    51IDQ   C2439192   4.484   7.661  20.151 -0.2517  0.9638 -0.0380
    51IDQ   C2539193   4.534   7.758  20.031 -0.5181 -0.1180 -0.6217
    51IDQ   C2639194   4.504   7.906  20.049  0.1619  0.4988  1.0252
    51IDQ   C2739195   4.604   7.996  19.967  1.0638 -0.4749  0.9280
    51IDQ   C2839196   4.746   7.998  20.000 -0.1490  0.4623 -0.2399
    51IDQ   C2939197   4.822   8.112  19.953  0.4929 -0.3577  0.0129
    51IDQ   C3039198   3.957   7.578  20.693  0.1378 -0.1770 -0.9390
    51IDQ   C3139199   3.944   7.429  20.694 -0.4887  0.4478 -0.0484
    51IDQ   C3239200   4.016   7.368  20.823 -0.4872  0.0657 -0.3986
    51IDQ   C3339201   3.960   7.237  20.870 -0.2720 -0.0808 -1.0883
    51IDQ   C3439202   3.849   7.226  20.983 -0.3339 -0.3046  0.4196
    51IDQ   C3539203   3.716   7.254  20.932  0.4604  0.8740 -0.1604
    4IDB    C3639204   4.432   8.004  20.548 -0.4669 -0.2825  0.5560
    4IDB    C3739205   4.369   8.100  20.464 -0.6648 -0.3068  0.6752
    11RH    C3839206   4.875   6.629  21.251 -1.3765 -0.5998 -0.3035
    4IDB    C3939207   4.276   8.062  20.368 -0.6273 -0.3736  0.6660
    62IDT   C4039208   4.227   8.180  20.308 -0.4631  0.0757  0.4540
    72IDQ   C4139209   4.375   8.260  20.481  0.2749  0.3931  0.6552
    62IDT   C4239210   4.272   8.294  20.372 -0.7236 -0.0889  0.9403
    72IDQ   C4339211   4.523   8.314  20.448  0.8150 -0.0278 -0.4074
    72IDQ   C4439212   4.345   8.303  20.625  0.8136 -0.9139 -0.1036
    62IDT    S539213   4.118   8.220  20.171  0.2167  0.4353  0.0086
    62IDT   C4539214   4.141   8.397  20.209  0.1077  0.3394  0.5286
    62IDT   C4639215   4.224   8.416  20.316 -0.4014  0.0598  0.9842
    82BTZ   C4739216   4.102   8.509  20.114 -0.4948  0.2278  0.4075
    82BTZ   C4839217   4.093   8.477  19.981 -0.6119  0.1069  0.4439
    82BTZ   C4939218   4.057   8.574  19.881 -0.4174  0.0865  0.3524
    82BTZ   C5039219   4.029   8.704  19.914 -0.1061  0.1870  0.2238
    82BTZ   C5139220   4.074   8.644  20.153 -0.1702  0.3362  0.2737
    82BTZ   C5239221   4.037   8.743  20.052  0.0274  0.3154  0.1807
    92RH    C5339222   3.986   8.796  19.817 -0.3358 -0.9542  0.2984
    82BTZ    N439223   4.079   8.687  20.280 -0.0293  0.4584  0.2265
    82BTZ    N539224   4.013   8.867  20.097  0.3275  0.4210  0.0582
    82BTZ    S639225   4.036   8.861  20.274  0.3707  0.5542  0.0565
    92RH    C5439226   3.961   8.795  19.686 -0.2465 -0.6862  0.2766
    92RH     S739227   3.970   8.650  19.574 -0.5607 -0.5453  0.0650
    92RH    C5539228   3.919   8.915  19.609  0.1343 -0.4553  0.4268
    92RH     O239229   3.903   9.029  19.656  0.4106 -0.4816  0.5865
    92RH     N639230   3.899   8.885  19.473  0.1489 -0.1945  0.3660
    92RH    C5639231   3.919   8.755  19.431 -0.1737 -0.1882  0.1850
    92RH    C5739232   3.851   8.987  19.378  0.3200 -0.1732 -0.2152
    92RH    C5839233   3.706   8.986  19.311 -0.1253 -0.6100 -0.7712
    92RH     S839234   3.902   8.693  19.275 -0.2314  0.0931  0.0787
    72IDQ   C5939235   4.197   8.341  20.663  0.5297 -0.1795 -0.3274
    72IDQ   C6039236   4.188   8.375  20.819 -0.4710 -0.9488 -0.1486
    72IDQ   C6139237   4.039   8.367  20.861 -0.7463 -0.1692  0.1889
    72IDQ   C6239238   4.012   8.419  20.995 -0.0836 -0.6165 -0.6176
    72IDQ   C6339239   4.022   8.578  21.017 -0.3895 -0.6804  0.3463
    72IDQ   C6439240   4.094   8.611  21.138 -0.2640 -0.6381  0.0644
    72IDQ   C6539241   4.134   8.757  21.144 -1.2657 -0.6037  0.3857
    72IDQ   C6639242   4.644   8.236  20.488  0.0945 -0.0942 -0.8663
    72IDQ   C6739243   4.785   8.298  20.470  1.3282 -0.6186  0.1714
    72IDQ   C6839244   4.915   8.260  20.537 -0.3962  0.4727  0.9590
    72IDQ   C6939245   4.995   8.342  20.640  0.7243 -0.8688  0.1724
    72IDQ   C7039246   5.139   8.282  20.671  0.1197 -0.1458 -0.1304
    72IDQ   C7139247   5.247   8.365  20.602  0.3700 -0.3624  0.7304
    72IDQ   C7239248   5.276   8.493  20.673 -0.5739 -0.3978  0.2532
    11RH     C139249   0.134   4.549  20.013 -0.1488 -0.1457  0.4506
    11RH     C239250   0.235   4.556  20.121  0.1029 -0.2251  0.2246
    11RH     N139251   0.110   4.416  19.973 -0.1604 -0.1095  0.3357
    11RH     S139252   0.292   4.387  20.164  0.3080 -0.2467 -0.1260
    11RH     C339253   0.179   4.315  20.037  0.0513 -0.1503  0.0443
    11RH     C439254   0.036   4.394  19.848  0.5741  0.3299  0.1563
    11RH     S239255   0.169   4.149  20.009  0.0869 -0.1206 -0.1454
    11RH     O139256   0.076   4.646  19.962 -0.3298 -0.1138  0.7105
    11RH     C539257   0.276   4.671  20.177  0.1637 -0.2717  0.2760
    21BTZ    C639258   0.373   4.692  20.283  0.9661 -0.1035 -0.0764
    21BTZ    C739259   0.441   4.589  20.344  1.1465  0.0187 -0.0696
    21BTZ    C839260   0.393   4.825  20.332  0.6321 -0.0812 -0.0014
    21BTZ    C939261   0.530   4.612  20.454  1.0089  0.1683  0.0119
    21BTZ   C1039262   0.552   4.738  20.505  0.6910  0.1953  0.0860
    21BTZ   C1139263   0.483   4.848  20.445  0.4922  0.0708  0.0811
    21BTZ    N239264   0.332   4.933  20.282  0.4319 -0.1915 -0.0005
    21BTZ    N339265   0.496   4.975  20.485  0.1795  0.0827  0.1483
    21BTZ    S339266   0.390   5.072  20.378  0.0480 -0.1037  0.1089
    31IDT   C1239267   0.628   4.738  20.629 -1.0304 -0.2956  0.2987
    31IDT   C1339268   0.677   4.848  20.694 -1.4541 -0.0805  0.2580
    31IDT   C1439269   0.757   4.815  20.807 -0.8797  0.2517 -0.0405
    31IDT   C1539270   0.770   4.679  20.829 -0.0164  0.2922 -0.2304
    31IDT    S439271   0.681   4.583  20.707  0.1375 -0.0911 -0.0432
    4IDB    C1639272   0.845   4.651  20.943  0.2211  0.1807 -0.2466
    4IDB    C1739273   0.884   4.774  21.004 -0.4617  0.0668  0.4458
    51IDQ   C1839274   0.831   4.894  20.919  0.2420  0.1983  0.8523
    4IDB    C1939275   0.959   4.776  21.121 -0.3332 -0.1846  0.3678
    51IDQ   C2039276   0.736   4.988  21.010 -0.6337 -0.2379  0.3568
    51IDQ   C2139277   0.942   4.982  20.856 -0.5795 -0.8025  0.8956
    51IDQ   C2239278   1.085   4.953  20.868  0.0211  0.5303  0.0153
    51IDQ   C2339279   0.593   4.967  21.064  0.3204  0.1354 -0.5604
    51IDQ   C2439280   1.173   5.048  20.789 -0.5459  0.0271  0.5385
    51IDQ   C2539281   1.320   5.048  20.802 -1.2148 -0.2220  1.0101
    51IDQ   C2639282   1.414   5.099  20.695  0.3997 -0.0282  0.6659
    51IDQ   C2739283   1.548   5.057  20.737 -0.4612 -0.3408  0.0581
    51IDQ   C2839284   1.641   5.011  20.621 -0.0022  0.5009  0.3871
    51IDQ   C2939285   1.624   4.861  20.576 -0.0140  0.1179 -0.3992
    51IDQ   C3039286   0.485   4.894  20.975 -0.0925 -0.7611 -0.2720
    51IDQ   C3139287   0.394   4.986  20.895 -0.7677  0.1479 -0.0100
    51IDQ   C3239288   0.309   4.894  20.805  0.4266  0.2410  0.0736
    51IDQ   C3339289   0.176   4.954  20.762 -0.3239  1.2151 -0.1906
    51IDQ   C3439290   0.170   5.076  20.667  0.4617 -0.1017  0.9363
    51IDQ   C3539291   0.023   5.075  20.631 -1.0567  0.4631 -0.4150
    4IDB    C3639292   0.881   4.528  20.999  1.0413  0.0432 -1.0257
    4IDB    C3739293   0.957   4.531  21.119  1.1606 -0.2133 -1.0929
    11RH    C3839294  -0.118   4.383  19.842  0.3066 -0.0734 -0.8906
    4IDB    C3939295   0.994   4.652  21.178  0.4870 -0.3220 -0.4110
    62IDT   C4039296   1.064   4.630  21.299  0.6071 -0.7155 -0.3089
    72IDQ   C4139297   0.986   4.415  21.233 -0.3519 -0.8319  1.1238
    62IDT   C4239298   1.054   4.499  21.342  0.6745 -0.6773 -0.1755
    72IDQ   C4339299   1.094   4.308  21.187 -0.2314  0.1232 -0.4640
    72IDQ   C4439300   0.869   4.352  21.317  0.3874 -0.4545 -0.1265
    62IDT    S539301   1.146   4.735  21.420 -0.0088 -0.4161 -0.1458
    62IDT   C4539302   1.162   4.589  21.528 -0.1494 -0.2469  0.1055
    62IDT   C4639303   1.109   4.476  21.471  0.2470 -0.4126  0.0587
    82BTZ   C4739304   1.223   4.601  21.655  0.1435 -0.3013 -0.1864
    82BTZ   C4839305   1.302   4.712  21.672  0.1669 -0.3054 -0.2675
    82BTZ   C4939306   1.348   4.753  21.802  0.1018 -0.1690 -0.2866
    82BTZ   C5039307   1.316   4.683  21.916  0.0134 -0.0288 -0.2248
    82BTZ   C5139308   1.186   4.525  21.771  0.0517 -0.1572 -0.1202
    82BTZ   C5239309   1.233   4.566  21.903 -0.0145 -0.0186 -0.1392
    92RH    C5339310   1.354   4.720  22.047 -0.2888  0.3701  0.1281
    82BTZ    N439311   1.110   4.415  21.767  0.0208 -0.1384 -0.0386
    82BTZ    N539312   1.195   4.490  22.006 -0.0986  0.1113 -0.0734
    82BTZ    S639313   1.095   4.359  21.936 -0.0967  0.0610  0.0177
    92RH    C5439314   1.429   4.823  22.086 -0.1786  0.3395 -0.0005
    92RH     S739315   1.500   4.955  21.980 -0.2635  0.2823 -0.1285
    92RH    C5539316   1.468   4.847  22.227  0.0367  0.3481 -0.0601
    92RH     O239317   1.436   4.775  22.324  0.1386  0.3837  0.0000
    92RH     N639318   1.547   4.963  22.240  0.1153  0.3102 -0.1976
    92RH    C5639319   1.577   5.035  22.127 -0.0106  0.2725 -0.2551
    92RH    C5739320   1.598   5.002  22.378 -0.5308  0.3460 -0.3480
    92RH    C5839321   1.724   4.928  22.417  0.0612 -0.7651 -0.2770
    92RH     S839322   1.668   5.176  22.115  0.0453  0.2234 -0.4144
    72IDQ   C5939323   0.744   4.294  21.253  0.3965 -0.6826 -0.8365
    72IDQ   C6039324   0.759   4.171  21.179  0.3573 -0.3631 -0.2546
    72IDQ   C6139325   0.636   4.095  21.124 -0.8100 -0.6798 -0.2341
    72IDQ   C6239326   0.650   3.974  21.033  0.6264  0.3996 -0.4968
    72IDQ   C6339327   0.618   3.842  21.121 -0.6198 -0.3874  0.9209
    72IDQ   C6439328   0.610   3.706  21.039  0.3470  0.1785 -0.5183
    72IDQ   C6539329   0.567   3.698  20.889  0.2579 -0.6111 -0.2212
    72IDQ   C6639330   1.092   4.245  21.050  0.1933  1.0624  0.0926
    72IDQ   C6739331   1.203   4.137  21.043 -0.4941 -0.8440 -0.6949
    72IDQ   C6839332   1.333   4.186  20.966 -0.7840  0.9399 -0.2024
    72IDQ   C6939333   1.331   4.167  20.823  0.4493  0.6565  0.0169
    72IDQ   C7039334   1.384   4.035  20.767  0.5267  0.4566 -0.1813
    72IDQ   C7139335   1.432   4.039  20.624  0.1005  0.6308  0.2578
    72IDQ   C7239336   1.328   4.051  20.509  0.9993 -0.0929 -0.7325
    11RH     C139337   6.570   1.898  20.211 -0.5740 -0.1116 -0.0296
    11RH     C239338   6.516   1.790  20.296 -0.4214 -0.1752 -0.0124
    11RH     N139339   6.644   1.992  20.286 -0.3651 -0.2155 -0.1050
    11RH     S139340   6.566   1.818  20.471 -0.0129 -0.3674 -0.0977
    11RH     C339341   6.656   1.971  20.422 -0.0637 -0.3546 -0.1512
    11RH     C439342   6.734   2.086  20.224 -0.2897  0.0881  0.1509
    11RH     S239343   6.739   2.066  20.534  0.2289 -0.4976 -0.2432
    11RH     O139344   6.553   1.908  20.088 -0.8500  0.0163  0.0167
    11RH     C539345   6.442   1.689  20.250 -0.5677 -0.0998  0.0559
    21BTZ    C639346   6.377   1.572  20.317  0.1112  0.0294  0.3818
    21BTZ    C739347   6.364   1.555  20.452 -0.0650  0.0034  0.3614
    21BTZ    C839348   6.327   1.469  20.230  0.1318  0.0935  0.2947
    21BTZ    C939349   6.302   1.437  20.508 -0.2285  0.0387  0.2556
    21BTZ   C1039350   6.253   1.337  20.429 -0.2154  0.1000  0.1700
    21BTZ   C1139351   6.264   1.350  20.287 -0.0343  0.1294  0.1869
    21BTZ    N239352   6.334   1.474  20.096  0.2958  0.1240  0.3037
    21BTZ    N339353   6.220   1.259  20.199 -0.0042  0.1888  0.1101
    21BTZ    S339354   6.259   1.323  20.037  0.2435  0.2015  0.1731
    31IDT   C1239355   6.209   1.218  20.498 -0.3397 -0.3581 -0.0652
    31IDT   C1339356   6.129   1.117  20.450 -0.6180 -0.4195  0.5031
    31IDT   C1439357   6.073   1.037  20.553 -0.4188 -0.0035  0.9432
    31IDT   C1539358   6.108   1.076  20.681  0.0116  0.3769  0.7142
    31IDT    S439359   6.217   1.218  20.680  0.1999  0.2365 -0.0845
    4IDB    C1639360   6.041   1.003  20.782 -0.7677  0.0955  0.0790
    4IDB    C1739361   5.956   0.904  20.724 -0.4807 -0.2386  0.2279
    51IDQ   C1839362   5.977   0.920  20.575  0.0021  0.0555 -0.1612
    4IDB    C1939363   5.892   0.809  20.804  0.0551 -0.5188  0.3396
    51IDQ   C2039364   6.050   0.793  20.524  0.4453  0.0377 -1.2514
    51IDQ   C2139365   5.856   0.920  20.483 -0.0699 -0.3161  0.3581
    51IDQ   C2239366   5.711   0.914  20.530  0.6640 -0.2825  0.7156
    51IDQ   C2339367   6.186   0.767  20.457 -0.0190  0.8103  0.1661
    51IDQ   C2439368   5.599   0.863  20.440  0.0003 -0.8346  0.3813
    51IDQ   C2539369   5.532   0.949  20.332 -0.9353  0.2382 -0.1712
    51IDQ   C2639370   5.426   0.870  20.256 -0.5062  0.6684 -0.9433
    51IDQ   C2739371   5.343   0.945  20.163  0.8026  0.1984  0.8891
    51IDQ   C2839372   5.397   0.986  20.032 -0.2157  0.5062  0.2143
    51IDQ   C2939373   5.458   0.881  19.933  0.3121  0.6133  0.5382
    51IDQ   C3039374   6.267   0.659  20.528  0.0822  0.5373  0.6971
    51IDQ   C3139375   6.402   0.676  20.460 -0.5454 -0.7706  0.7350
    51IDQ   C3239376   6.523   0.599  20.522  0.4218 -0.2430 -0.4722
    51IDQ   C3339377   6.664   0.614  20.470  0.1572 -0.5765 -0.3719
    51IDQ   C3439378   6.714   0.754  20.462 -1.2988  0.9870 -0.1832
    51IDQ   C3539379   6.831   0.780  20.368  0.0640  0.0020 -0.3409
    4IDB    C3639380   6.061   1.009  20.921 -0.5184  0.1513  0.0401
    4IDB    C3739381   5.994   0.912  21.001  0.0293 -0.1381  0.1554
    11RH    C3839382   6.684   2.213  20.174  0.7845 -0.2843  0.1134
    4IDB    C3939383   5.912   0.815  20.942  0.3044 -0.4630  0.3013
    62IDT   C4039384   5.865   0.729  21.050  0.0011 -0.1029 -0.0450
    72IDQ   C4139385   5.991   0.905  21.159 -0.6824 -0.1478  1.1560
    62IDT   C4239386   5.905   0.776  21.173 -0.3074 -0.1297  0.0653
    72IDQ   C4339387   5.923   1.028  21.229  0.2641  0.3261 -0.6883
    72IDQ   C4439388   6.138   0.886  21.205 -0.7297  1.7759  0.3641
    62IDT    S539389   5.755   0.587  21.064  0.0337 -0.1600 -0.3530
    62IDT   C4539390   5.769   0.600  21.245 -0.3926 -0.2201 -0.3149
    62IDT   C4639391   5.850   0.703  21.284 -0.5305 -0.1961 -0.0873
    82BTZ   C4739392   5.717   0.497  21.342  0.1147 -0.2752  0.3641
    82BTZ   C4839393   5.675   0.542  21.464  0.0063 -0.1803  0.2923
    82BTZ   C4939394   5.598   0.458  21.553 -0.2967 -0.0261  0.1826
    82BTZ   C5039395   5.565   0.329  21.520 -0.4908  0.0329  0.1449
    82BTZ   C5139396   5.685   0.363  21.302 -0.0799 -0.2187  0.3295
    82BTZ   C5239397   5.608   0.278  21.393 -0.3879 -0.0620  0.2179
    92RH    C5339398   5.471   0.243  21.598 -0.1733  0.2388 -0.3132
    82BTZ    N439399   5.721   0.308  21.186  0.0001 -0.3001  0.3920
    82BTZ    N539400   5.582   0.154  21.349 -0.5555 -0.0174  0.1907
    82BTZ    S639401   5.656   0.142  21.187 -0.3221 -0.1773  0.3088
    92RH    C5439402   5.382   0.259  21.696  0.0381  0.2186 -0.1159
    92RH     S739403   5.348   0.414  21.788  0.0989  0.2501 -0.1461
    92RH    C5539404   5.294   0.151  21.746  0.2629  0.1659  0.1669
    92RH     O239405   5.293   0.034  21.705  0.2817  0.1347  0.2532
    92RH     N639406   5.210   0.196  21.850  0.4585  0.1547  0.3320
    92RH    C5639407   5.219   0.328  21.889  0.4182  0.1920  0.2160
    92RH    C5739408   5.112   0.105  21.911  0.0663  0.2464 -0.5047
    92RH    C5839409   4.966   0.101  21.865  0.1108  0.5714  1.1110
    92RH     S839410   5.131   0.407  22.009  0.6188  0.1884  0.3667
    72IDQ   C5939411   6.165   0.825  21.352 -0.2112 -0.7308 -0.1270
    72IDQ   C6039412   6.304   0.813  21.406 -0.0737 -1.2247  0.3537
    72IDQ   C6139413   6.338   0.751  21.544  0.4491 -0.0470  0.2497
    72IDQ   C6239414   6.487   0.759  21.576 -0.4889 -0.8441 -0.2658
    72IDQ   C6339415   6.544   0.635  21.508 -0.9246 -0.0374  0.3626
    72IDQ   C6439416   6.684   0.580  21.560  0.1209 -0.1921  0.4398
    72IDQ   C6539417   6.808   0.681  21.568 -0.0102  0.7626  0.2026
    72IDQ   C6639418   5.969   1.174  21.215  0.6749 -0.2404 -0.0615
    72IDQ   C6739419   6.070   1.248  21.296  0.0796  0.1291 -0.2487
    72IDQ   C6839420   6.111   1.221  21.443 -0.2534  0.2709  0.5559
    72IDQ   C6939421   6.229   1.296  21.494  0.4665  0.3160 -0.2940
    72IDQ   C7039422   6.222   1.453  21.522 -0.2795  0.9591  0.0991
    72IDQ   C7139423   6.187   1.546  21.409 -1.0861  0.2804  1.1539
    72IDQ   C7239424   6.103   1.661  21.450  0.6089  0.2887 -0.7842
    11RH     C139425   3.544   6.076  26.380 -0.1754  0.2604  0.0091
    11RH     C239426   3.666   6.141  26.326 -0.1352  0.1994  0.0257
    11RH     N139427   3.549   6.067  26.521 -0.1383  0.1351 -0.0002
    11RH     S139428   3.779   6.186  26.464 -0.0514 -0.0184  0.0294
    11RH     C339429   3.659   6.117  26.586 -0.0735 -0.0186  0.0076
    11RH     C439430   3.437   5.996  26.591 -0.5229  0.1139  0.2689
    11RH     S239431   3.689   6.118  26.752 -0.0191 -0.1879  0.0005
    11RH     O139432   3.449   6.034  26.313 -0.2341  0.4027  0.0029
    11RH     C539433   3.687   6.162  26.196 -0.1584  0.2934  0.0370
    21BTZ    C639434   3.805   6.213  26.111  0.2985 -0.2116 -0.3934
    21BTZ    C739435   3.925   6.245  26.169  0.3776 -0.3424 -0.4849
    21BTZ    C839436   3.790   6.226  25.969  0.1970 -0.1699 -0.3796
    21BTZ    C939437   4.036   6.292  26.090  0.3613 -0.4383 -0.5660
    21BTZ   C1039438   4.027   6.307  25.954  0.2658 -0.4033 -0.5557
    21BTZ   C1139439   3.904   6.274  25.889  0.1803 -0.2674 -0.4625
    21BTZ    N239440   3.679   6.198  25.902  0.1138 -0.0453 -0.2947
    21BTZ    N339441   3.883   6.284  25.758  0.0838 -0.2211 -0.4439
    21BTZ    S339442   3.714   6.232  25.730  0.0085 -0.0472 -0.3172
    31IDT   C1239443   4.135   6.388  25.901 -0.4327 -0.3224  0.1785
    31IDT   C1339444   4.154   6.422  25.770 -0.5099 -0.0157  0.2456
    31IDT   C1439445   4.265   6.510  25.751 -0.6410  0.1876  0.4072
    31IDT   C1539446   4.331   6.543  25.867 -0.6644  0.0376  0.4644
    31IDT    S439447   4.258   6.465  26.011 -0.5212 -0.3764  0.3166
    4IDB    C1639448   4.440   6.628  25.825  0.1220 -0.0687  0.0185
    4IDB    C1739449   4.448   6.648  25.684  0.3678 -0.5823 -0.0463
    51IDQ   C1839450   4.331   6.568  25.623  0.3814 -0.3509  0.2205
    4IDB    C1939451   4.541   6.737  25.630 -0.0478 -0.2012 -0.1441
    51IDQ   C2039452   4.242   6.668  25.529  0.0223 -0.3015 -0.3370
    51IDQ   C2139453   4.351   6.451  25.514 -1.4824  0.2768 -0.5264
    51IDQ   C2239454   4.494   6.425  25.466  1.2520 -0.3382 -0.0629
    51IDQ   C2339455   4.100   6.709  25.558  0.2543 -0.2351  0.4646
    51IDQ   C2439456   4.487   6.318  25.357 -0.1067 -0.4278 -0.1263
    51IDQ   C2539457   4.600   6.243  25.299 -0.9367  0.2774 -0.0522
    51IDQ   C2639458   4.697   6.160  25.389  0.6344  0.4973  0.5265
    51IDQ   C2739459   4.649   6.055  25.487 -0.0792  0.7016  0.3779
    51IDQ   C2839460   4.599   5.919  25.428 -0.3484 -0.9881  0.4280
    51IDQ   C2939461   4.467   5.927  25.356 -0.7741  0.5430  0.2265
    51IDQ   C3039462   3.999   6.629  25.480  0.5653 -0.0019 -0.2408
    51IDQ   C3139463   3.858   6.678  25.519 -0.4861 -0.8965 -0.5403
    51IDQ   C3239464   3.807   6.654  25.661  1.0556 -0.4929  0.4987
    51IDQ   C3339465   3.667   6.714  25.666  0.4387 -0.0260  0.3608
    51IDQ   C3439466   3.604   6.700  25.798  0.4623  0.1042  0.7397
    51IDQ   C3539467   3.453   6.716  25.819  0.3915  0.6938  0.8343
    4IDB    C3639468   4.525   6.696  25.914 -0.5454  0.8351 -0.0143
    4IDB    C3739469   4.619   6.787  25.857 -0.9629  1.2133 -0.1140
    11RH    C3839470   3.335   6.078  26.672  1.2504  0.5056  0.2846
    4IDB    C3939471   4.625   6.806  25.719 -0.7152  0.7025 -0.1765
    62IDT   C4039472   4.742   6.886  25.689 -0.1778  0.4866 -0.0124
    72IDQ   C4139473   4.726   6.865  25.922  0.3534 -0.7393 -1.2071
    62IDT   C4239474   4.798   6.937  25.805 -0.0942  0.6291 -0.1159
    72IDQ   C4339475   4.826   6.784  26.022  0.1436  0.4958  0.5114
    72IDQ   C4439476   4.670   6.994  26.003 -0.0680  0.1152 -0.8173
    62IDT    S539477   4.845   6.918  25.545 -0.1505  0.0760 -0.0877
    62IDT   C4539478   4.963   7.003  25.654 -0.0208  0.1211 -0.2628
    62IDT   C4639479   4.923   7.004  25.785 -0.0052  0.4227 -0.2575
    82BTZ   C4739480   5.077   7.085  25.592  0.3095 -0.1038 -0.4354
    82BTZ   C4839481   5.049   7.136  25.468  0.3208 -0.0240 -0.4048
    82BTZ   C4939482   5.143   7.222  25.399  0.2608  0.1467 -0.2732
    82BTZ   C5039483   5.263   7.257  25.455  0.1898  0.2371 -0.1735
    82BTZ   C5139484   5.202   7.118  25.654  0.2363 -0.0144 -0.3338
    82BTZ   C5239485   5.297   7.205  25.584  0.1754  0.1589 -0.2003
    92RH    C5339486   5.359   7.342  25.390 -0.0532 -0.3295  0.1735
    82BTZ    N439487   5.240   7.074  25.774  0.2185 -0.0787 -0.3519
    82BTZ    N539488   5.411   7.231  25.648  0.1087  0.2341 -0.1116
    82BTZ    S639489   5.402   7.144  25.804  0.1210  0.0833 -0.1954
    92RH    C5439490   5.370   7.397  25.269  0.0626 -0.1417  0.2694
    92RH     S739491   5.254   7.378  25.128  0.1721  0.1144  0.1425
    92RH    C5539492   5.482   7.486  25.230  0.1211 -0.1123  0.5012
    92RH     O239493   5.577   7.519  25.303  0.0712 -0.2552  0.6318
    92RH     N639494   5.469   7.530  25.096  0.2433  0.1019  0.5594
    92RH    C5639495   5.360   7.488  25.024  0.2899  0.2478  0.4025
    92RH    C5739496   5.566   7.630  25.033  0.3550 -0.4042 -0.6468
    92RH    C5839497   5.692   7.562  24.976 -0.5072  0.8049  0.0106
    92RH     S839498   5.321   7.526  24.864  0.4317  0.5108  0.4287
    72IDQ   C5939499   4.537   6.996  26.081  0.2005  0.4654  0.4523
    72IDQ   C6039500   4.524   7.118  26.175  1.0146  0.5223 -0.1336
    72IDQ   C6139501   4.642   7.143  26.260  0.4817  0.2682 -0.1755
    72IDQ   C6239502   4.676   7.036  26.372  0.7431 -0.6792  0.3589
    72IDQ   C6339503   4.572   6.983  26.475 -0.3176  0.6462 -0.3945
    72IDQ   C6439504   4.524   7.058  26.598  0.2601  0.3395  0.0965
    72IDQ   C6539505   4.634   7.091  26.692  0.5732 -0.0809 -0.3862
    72IDQ   C6639506   4.946   6.709  25.963 -0.0366  0.0763  0.3786
    72IDQ   C6739507   5.066   6.707  26.057 -0.7521 -0.3105  0.4086
    72IDQ   C6839508   5.171   6.811  26.036 -0.7235 -0.4340 -0.0294
    72IDQ   C6939509   5.140   6.936  26.108  0.4182  0.5366  0.3793
    72IDQ   C7039510   5.250   7.035  26.119 -0.2265  0.6058  0.2979
    72IDQ   C7139511   5.337   6.995  26.242 -1.0985 -0.0321  0.1654
    72IDQ   C7239512   5.444   7.101  26.248 -0.0513 -0.6112 -0.7939
    11RH     C139513   6.402   6.582  27.506 -0.3774  0.0792  0.1693
    11RH     C239514   6.438   6.725  27.493 -0.1674  0.0186  0.0653
    11RH     N139515   6.511   6.505  27.552 -0.5031 -0.0404  0.2690
    11RH     S139516   6.613   6.750  27.544 -0.1485 -0.1918  0.1049
    11RH     C339517   6.630   6.569  27.578 -0.4191 -0.1894  0.2575
    11RH     C439518   6.496   6.362  27.576 -0.3472  0.4663 -0.1148
    11RH     S239519   6.774   6.502  27.634 -0.5349 -0.3518  0.3610
    11RH     O139520   6.291   6.532  27.479 -0.4395  0.2170  0.1721
    11RH     C539521   6.353   6.819  27.452 -0.0180  0.1079 -0.0395
    21BTZ    C639522   6.374   6.964  27.434 -0.0302 -0.0090  0.0608
    21BTZ    C739523   6.500   7.018  27.444 -0.0585  0.0502  0.0906
    21BTZ    C839524   6.262   7.051  27.414 -0.0608 -0.0662 -0.0205
    21BTZ    C939525   6.521   7.161  27.435 -0.1179  0.0564  0.0429
    21BTZ   C1039526   6.417   7.248  27.417 -0.1489  0.0032 -0.0346
    21BTZ   C1139527   6.284   7.196  27.405 -0.1212 -0.0600 -0.0687
    21BTZ    N239528   6.136   7.010  27.402 -0.0381 -0.1265 -0.0563
    21BTZ    N339529   6.175   7.271  27.387 -0.1470 -0.1153 -0.1435
    21BTZ    S339530   6.037   7.157  27.380 -0.0939 -0.1791 -0.1558
    31IDT   C1239531   6.444   7.395  27.407  0.4476 -0.4288  0.2524
    31IDT   C1339532   6.359   7.500  27.431  0.4023 -0.3441 -0.2623
    31IDT   C1439533   6.426   7.625  27.441  0.3458 -0.2565 -0.8998
    31IDT   C1539534   6.563   7.617  27.425  0.3476 -0.2739 -0.8755
    31IDT    S439535   6.617   7.448  27.396  0.4216 -0.4036 -0.0364
    4IDB    C1639536   6.623   7.749  27.435  0.1395 -0.1074 -0.0875
    4IDB    C1739537   6.522   7.844  27.470  0.3173 -0.2702  0.9484
    51IDQ   C1839538   6.385   7.769  27.475 -0.0162 -0.9263 -0.7963
    4IDB    C1939539   6.552   7.978  27.489  0.3569 -0.2917  1.0368
    51IDQ   C2039540   6.335   7.798  27.623 -0.3850 -0.2468 -1.1877
    51IDQ   C2139541   6.270   7.805  27.372  0.8102 -0.2550 -1.1554
    51IDQ   C2239542   6.293   7.905  27.270 -0.7252 -0.3586  0.0791
    51IDQ   C2339543   6.298   7.691  27.727 -0.6196 -0.5816  0.4822
    51IDQ   C2439544   6.182   7.976  27.197 -0.7886 -1.2244  0.5819
    51IDQ   C2539545   6.098   7.883  27.112 -1.1776  0.4580 -0.0973
    51IDQ   C2639546   5.970   7.949  27.057 -0.2559 -0.6426 -0.4052
    51IDQ   C2739547   5.871   8.005  27.161 -1.1438 -0.5469 -0.2470
    51IDQ   C2839548   5.788   7.893  27.231 -0.3965 -0.6095 -1.0978
    51IDQ   C2939549   5.695   7.949  27.338 -0.3919 -0.4186 -0.6708
    51IDQ   C3039550   6.178   7.730  27.813 -0.3925 -1.2856 -0.1223
    51IDQ   C3139551   6.122   7.624  27.892  0.6492  0.2818 -1.0173
    51IDQ   C3239552   6.050   7.519  27.813  0.2413 -0.3939 -0.1316
    51IDQ   C3339553   6.082   7.373  27.858  0.6577 -0.7627  0.0706
    51IDQ   C3439554   6.009   7.271  27.780 -0.5769 -0.7871 -0.4777
    51IDQ   C3539555   5.855   7.264  27.805 -0.9567 -0.2682  0.1483
    4IDB    C3639556   6.757   7.789  27.420 -0.0008  0.0357 -1.0467
    4IDB    C3739557   6.786   7.927  27.440  0.0421  0.0113 -0.9398
    11RH    C3839558   6.495   6.320  27.731  0.8256 -0.1215  0.2519
    4IDB    C3939559   6.686   8.018  27.473  0.2165 -0.1486  0.0780
    62IDT   C4039560   6.742   8.148  27.481 -0.1424 -0.4102  1.0432
    72IDQ   C4139561   6.911   8.009  27.398  0.1588  0.2494  0.1286
    62IDT   C4239562   6.874   8.146  27.443 -0.1450 -0.5009  1.0386
    72IDQ   C4339563   6.922   8.008  27.243  0.5933 -0.5028 -0.1033
    72IDQ   C4439564   7.050   7.949  27.451 -0.0316 -0.5540  0.1797
    62IDT    S539565   6.687   8.313  27.526 -0.2339 -0.2351  0.3139
    62IDT   C4539566   6.854   8.374  27.490 -0.2725 -0.2968  0.0275
    62IDT   C4639567   6.938   8.274  27.448 -0.2184 -0.4369  0.4644
    82BTZ   C4739568   6.902   8.509  27.543 -0.2834  0.3073 -0.0944
    82BTZ   C4839569   6.814   8.564  27.632 -0.1550  0.4104 -0.0291
    82BTZ   C4939570   6.837   8.693  27.691  0.0942  0.3379  0.0372
    82BTZ   C5039571   6.947   8.768  27.661  0.2143  0.1624  0.0399
    82BTZ   C5139572   7.020   8.584  27.508 -0.1657  0.1228 -0.0944
    82BTZ   C5239573   7.043   8.715  27.568  0.0874  0.0490 -0.0267
    92RH    C5339574   6.977   8.896  27.726 -0.0049 -0.4084  0.0937
    82BTZ    N439575   7.113   8.541  27.422 -0.2718  0.0091 -0.1535
    82BTZ    N539576   7.154   8.779  27.530  0.1847 -0.1239 -0.0315
    82BTZ    S639577   7.236   8.670  27.414 -0.0478 -0.2015 -0.1247
    92RH    C5439578   6.926   8.964  27.829  0.0082 -0.3343  0.0515
    92RH     S739579   6.780   8.916  27.930 -0.0333 -0.2163  0.0476
    92RH    C5539580   6.982   9.092  27.879  0.0598 -0.3369  0.0010
    92RH     O239581   7.081   9.150  27.833  0.0966 -0.4064 -0.0095
    92RH     N639582   6.908   9.141  27.989  0.0629 -0.2489 -0.0366
    92RH    C5639583   6.800   9.068  28.034  0.0200 -0.1762 -0.0210
    92RH    C5739584   6.945   9.273  28.041 -1.0504  0.5278 -0.5872
    92RH    C5839585   7.074   9.286  28.135 -0.4890  0.7277  0.0461
    92RH     S839586   6.696   9.104  28.162  0.0135 -0.0653 -0.0567
    72IDQ   C5939587   7.107   7.975  27.596  0.5533  0.7927  0.2023
    72IDQ   C6039588   7.264   7.964  27.588 -0.0573  0.0253  0.1475
    72IDQ   C6139589   7.337   7.994  27.716  0.0877 -0.2267 -0.0646
    72IDQ   C6239590   7.382   7.874  27.783  0.3543  0.3486 -0.4620
    72IDQ   C6339591   7.472   7.774  27.702  0.5859  0.8468 -0.4124
    72IDQ   C6439592   7.537   7.665  27.788 -1.1225 -0.2987  0.3335
    72IDQ   C6539593   7.628   7.581  27.702  0.2456  0.1275 -0.2541
    72IDQ   C6639594   6.905   7.891  27.147 -0.3105  0.3454  0.0066
    72IDQ   C6739595   6.768   7.872  27.074  0.0393 -0.9155 -0.1185
    72IDQ   C6839596   6.750   7.759  26.987 -0.1374  0.0287 -0.3175
    72IDQ   C6939597   6.605   7.773  26.935  0.5373  0.4032  0.8986
    72IDQ   C7039598   6.547   7.649  26.847 -0.5500 -0.1930 -0.8649
    72IDQ   C7139599   6.427   7.676  26.775  0.1763  0.8310  0.2484
    72IDQ   C7239600   6.374   7.541  26.727  0.0610  0.2021  0.0593
    11RH     C139601   0.766   0.624  17.049 -0.2425 -0.1044 -0.1712
    11RH     C239602   0.815   0.688  16.924 -0.2507 -0.0759 -0.1588
    11RH     N139603   0.795   0.704  17.162 -0.3913 -0.0471 -0.1727
    11RH     S139604   0.895   0.848  16.963 -0.4537  0.0244 -0.1512
    11RH     C339605   0.861   0.823  17.143 -0.5178  0.0239 -0.1640
    11RH     C439606   0.768   0.653  17.296 -0.0048 -0.0053  0.5241
    11RH     S239607   0.906   0.936  17.260 -0.7062  0.1014 -0.1645
    11RH     O139608   0.708   0.515  17.056 -0.1218 -0.1700 -0.1774
    11RH     C539609   0.800   0.633  16.803 -0.1261 -0.1188 -0.1551
    21BTZ    C639610   0.842   0.665  16.667  0.4447 -0.0948 -0.2015
    21BTZ    C739611   0.900   0.787  16.639  0.2826 -0.0595 -0.3905
    21BTZ    C839612   0.823   0.573  16.559  0.1549 -0.1093 -0.1378
    21BTZ    C939613   0.941   0.823  16.506 -0.1692 -0.0369 -0.5260
    21BTZ   C1039614   0.924   0.738  16.400 -0.4583 -0.0496 -0.4716
    21BTZ   C1139615   0.864   0.610  16.423 -0.3043 -0.0863 -0.2751
    21BTZ    N239616   0.768   0.452  16.573  0.2741 -0.1432  0.0439
    21BTZ    N339617   0.842   0.518  16.328 -0.5543 -0.1018 -0.2046
    21BTZ    S339618   0.767   0.378  16.410 -0.2057 -0.1473  0.0453
    31IDT   C1239619   0.989   0.767  16.267  0.1133  0.2493 -0.6570
    31IDT   C1339620   0.946   0.727  16.144 -0.1161  1.0559 -0.8535
    31IDT   C1439621   1.025   0.779  16.037  0.2460  1.0284 -0.6013
    31IDT   C1539622   1.129   0.860  16.079  0.7526  0.2029 -0.2121
    31IDT    S439623   1.135   0.876  16.257  0.8108 -0.6114 -0.1337
    4IDB    C1639624   1.203   0.899  15.967 -0.3217  0.1000 -0.2343
    4IDB    C1739625   1.139   0.861  15.846  0.1603 -0.0814 -0.4375
    51IDQ   C1839626   1.018   0.776  15.886  1.0365  0.1203  1.2844
    4IDB    C1939627   1.186   0.906  15.723  0.3065  0.2039 -0.2792
    51IDQ   C2039628   0.878   0.828  15.826 -0.1097 -0.2456  0.6762
    51IDQ   C2139629   1.012   0.623  15.829 -0.0578 -0.0527  0.3891
    51IDQ   C2239630   1.124   0.541  15.764 -0.3017 -0.4645  0.1733
    51IDQ   C2339631   0.769   0.893  15.913 -0.7132 -0.0710 -0.0754
    51IDQ   C2439632   1.173   0.583  15.628 -0.5880  0.9671  0.9604
    51IDQ   C2539633   1.069   0.549  15.517  0.2167 -0.5306 -0.0165
    51IDQ   C2639634   1.107   0.609  15.382 -0.3727  0.8999 -0.1578
    51IDQ   C2739635   1.114   0.762  15.378 -0.7994 -0.4225 -0.5859
    51IDQ   C2839636   0.989   0.846  15.386 -0.1354  0.7521 -0.9542
    51IDQ   C2939637   0.996   0.998  15.366 -0.6794 -0.0546  0.3380
    51IDQ   C3039638   0.646   0.951  15.834 -1.0122  0.7670 -0.1072
    51IDQ   C3139639   0.584   1.063  15.906 -0.3659 -0.1389  0.2951
    51IDQ   C3239640   0.659   1.199  15.887  0.1310 -0.0713  0.0368
    51IDQ   C3339641   0.624   1.306  15.985  0.5318  0.8452  0.2577
    51IDQ   C3439642   0.684   1.430  15.928 -0.8564  0.0929  0.1233
    51IDQ   C3539643   0.660   1.559  16.010  0.2183 -0.2522  0.5817
    4IDB    C3639644   1.315   0.982  15.967 -0.6623  0.5710  0.1307
    4IDB    C3739645   1.362   1.027  15.840 -0.5063  0.8574  0.2887
    11RH    C3839646   0.651   0.717  17.359  0.0808 -0.3415  0.6105
    4IDB    C3939647   1.298   0.990  15.722 -0.0341  0.6749  0.0862
    62IDT   C4039648   1.372   1.038  15.613 -0.2222  0.1208  0.2619
    72IDQ   C4139649   1.493   1.101  15.803 -0.2820 -0.5871  0.5602
    62IDT   C4239650   1.493   1.093  15.650  0.1230 -0.4872  0.0715
    72IDQ   C4339651   1.622   1.035  15.869  0.1305 -0.1246 -0.5965
    72IDQ   C4439652   1.489   1.262  15.821 -0.3304  0.0346  0.0661
    62IDT    S539653   1.355   1.028  15.434 -0.3269 -0.2705  0.2911
    62IDT   C4539654   1.520   1.103  15.419  0.1233 -1.2848  0.0325
    62IDT   C4639655   1.577   1.130  15.540  0.3188 -1.2826 -0.0579
    82BTZ   C4739656   1.562   1.146  15.286  0.2110 -0.1116 -0.1057
    82BTZ   C4839657   1.474   1.147  15.180  0.2080 -0.0943 -0.1032
    82BTZ   C4939658   1.517   1.182  15.047  0.1682  0.0869 -0.0684
    82BTZ   C5039659   1.646   1.217  15.019  0.1314  0.2506 -0.0364
    82BTZ   C5139660   1.698   1.182  15.262  0.1733  0.0556 -0.0727
    82BTZ   C5239661   1.742   1.218  15.127  0.1329  0.2398 -0.0377
    92RH    C5339662   1.695   1.251  14.883  0.1036  0.8320  0.0553
    82BTZ    N439663   1.793   1.186  15.357  0.1722  0.0569 -0.0715
    82BTZ    N539664   1.870   1.250  15.113  0.0992  0.3891 -0.0081
    82BTZ    S639665   1.944   1.236  15.275  0.1183  0.2986 -0.0244
    92RH    C5439666   1.643   1.270  14.762  0.0615  0.4106  0.0017
    92RH     S739667   1.467   1.302  14.722  0.0154  0.0711 -0.0700
    92RH    C5539668   1.723   1.270  14.637  0.0455  0.1468 -0.0081
    92RH     O239669   1.846   1.251  14.630  0.0686  0.2812  0.0312
    92RH     N639670   1.642   1.293  14.524 -0.0002 -0.2870 -0.0688
    92RH    C5639671   1.507   1.313  14.542 -0.0228 -0.4029 -0.1092
    92RH    C5739672   1.712   1.305  14.386  0.6601 -0.0378  0.3408
    92RH    C5839673   1.706   1.179  14.310 -0.2775 -0.0315  0.2676
    92RH     S839674   1.390   1.343  14.425 -0.0770 -0.8946 -0.1838
    72IDQ   C5939675   1.369   1.338  15.880  1.0976  0.6196  0.9837
    72IDQ   C6039676   1.386   1.443  15.986 -0.1977 -0.4474  0.3117
    72IDQ   C6139677   1.302   1.418  16.114  0.2259  0.1565  0.0149
    72IDQ   C6239678   1.289   1.539  16.208 -0.1042  0.4939  0.4305
    72IDQ   C6339679   1.163   1.557  16.283  0.8820  0.4657 -1.4337
    72IDQ   C6439680   1.172   1.646  16.406 -0.0365  0.0201  0.2363
    72IDQ   C6539681   1.238   1.789  16.397 -0.5162  0.9602 -0.3127
    72IDQ   C6639682   1.687   1.084  16.002  1.1295  0.8035 -0.3039
    72IDQ   C6739683   1.608   1.025  16.118 -1.4108  0.3074 -0.7199
    72IDQ   C6839684   1.645   1.055  16.266 -0.5351 -1.7720 -0.2511
    72IDQ   C6939685   1.539   1.070  16.371  0.7958 -1.2643 -0.4118
    72IDQ   C7039686   1.487   0.945  16.432 -0.0922  0.3329 -0.4288
    72IDQ   C7139687   1.387   0.964  16.549  0.5429  0.7798  0.2050
    72IDQ   C7239688   1.331   0.826  16.596  0.9400 -0.3646  0.9332
    11RH     C139689   2.744   3.920  18.915  0.0603  0.0125  0.2060
    11RH     C239690   2.643   3.843  18.992 -0.0949  0.1208  0.1121
    11RH     N139691   2.830   3.991  19.001  0.1161 -0.1528  0.2891
    11RH     S139692   2.668   3.869  19.172 -0.1574 -0.0021  0.1388
    11RH     C339693   2.811   3.981  19.137  0.0246 -0.1904  0.2732
    11RH     C439694   2.936   4.080  18.941  0.0126  0.6338  0.4656
    11RH     S239695   2.899   4.056  19.260  0.0637 -0.3763  0.3586
    11RH     O139696   2.753   3.923  18.792  0.1346  0.0581  0.2127
    11RH     C539697   2.549   3.766  18.935 -0.1735  0.2830  0.0226
    21BTZ    C639698   2.446   3.676  18.982 -0.0566  0.3590  0.0574
    21BTZ    C739699   2.429   3.649  19.115 -0.0722  0.4283  0.0706
    21BTZ    C839700   2.368   3.603  18.886 -0.0469  0.3105  0.0868
    21BTZ    C939701   2.335   3.548  19.160 -0.0791  0.4532  0.1116
    21BTZ   C1039702   2.259   3.476  19.072 -0.0703  0.4089  0.1404
    21BTZ   C1139703   2.274   3.501  18.932 -0.0539  0.3360  0.1287
    21BTZ    N239704   2.376   3.621  18.754 -0.0315  0.2420  0.0787
    21BTZ    N339705   2.205   3.437  18.837 -0.0442  0.2878  0.1550
    21BTZ    S339706   2.260   3.505  18.681 -0.0252  0.2062  0.1253
    31IDT   C1239707   2.175   3.370  19.131  0.5539  0.7736  0.5692
    31IDT   C1339708   2.063   3.312  19.079  0.0986  1.6947  0.4673
    31IDT   C1439709   1.997   3.224  19.171 -0.2921  1.6694  0.1731
    31IDT   C1539710   2.059   3.216  19.294 -0.1376  0.7310  0.0486
    31IDT    S439711   2.206   3.319  19.303  0.5207 -0.2017  0.2966
    4IDB    C1639712   1.976   3.135  19.378  0.1749  0.4070  0.7958
    4IDB    C1739713   1.859   3.089  19.309  0.4696  0.1954  0.4296
    51IDQ   C1839714   1.865   3.149  19.163  0.5844 -0.1367 -0.6602
    4IDB    C1939715   1.760   3.019  19.377  0.2929  0.1859  0.1616
    51IDQ   C2039716   1.855   3.022  19.066 -1.5401  0.4048 -0.3827
    51IDQ   C2139717   1.755   3.256  19.125 -1.4017 -0.4900 -0.4624
    51IDQ   C2239718   1.643   3.301  19.208  0.2156  0.3897 -0.1111
    51IDQ   C2339719   1.991   2.965  19.013  0.5493  0.0751 -0.2670
    51IDQ   C2439720   1.665   3.393  19.323 -0.1186  0.0883  0.2278
    51IDQ   C2539721   1.574   3.368  19.443  0.1915  0.7625  0.1676
    51IDQ   C2639722   1.638   3.420  19.572  0.4990 -0.2145  0.8332
    51IDQ   C2739723   1.625   3.321  19.687  1.1932  1.1149  0.1215
    51IDQ   C2839724   1.516   3.336  19.788  1.0714 -0.1575  0.3858
    51IDQ   C2939725   1.495   3.225  19.879  0.3849 -0.4669  0.7515
    51IDQ   C3039726   2.084   2.909  19.122 -0.1462 -0.0174 -0.2160
    51IDQ   C3139727   2.228   2.871  19.070  1.1563 -0.3626  0.0892
    51IDQ   C3239728   2.319   2.984  19.015 -1.3543  0.3150 -0.5651
    51IDQ   C3339729   2.400   3.055  19.122  0.2235 -0.3373  0.5910
    51IDQ   C3439730   2.513   2.977  19.190 -0.4482  0.3106  0.1414
    51IDQ   C3539731   2.611   3.049  19.283 -0.3279  0.1727  0.1066
    4IDB    C3639732   1.993   3.111  19.515 -0.3012  0.6118  0.8950
    4IDB    C3739733   1.890   3.040  19.582 -0.4756  0.5989  0.6166
    11RH    C3839734   3.067   4.014  18.902  0.2015 -0.2292 -0.6596
    4IDB    C3939735   1.777   2.996  19.514 -0.1832  0.3908  0.2609
    62IDT   C4039736   1.672   2.953  19.610  0.3496  0.3631  0.5266
    72IDQ   C4139737   1.878   2.984  19.731  0.6534  0.4678 -0.0491
    62IDT   C4239738   1.727   2.942  19.736 -0.1701  0.6146  0.7815
    72IDQ   C4339739   1.909   3.084  19.844  0.7283  0.2562 -0.2434
    72IDQ   C4439740   1.941   2.846  19.766  0.6223 -0.1575  0.6850
    62IDT    S539741   1.501   2.898  19.607  0.3936  0.2459 -0.0992
    62IDT   C4539742   1.514   2.862  19.785 -0.3280  0.5584  0.0229
    62IDT   C4639743   1.638   2.891  19.835 -0.5539  0.7253  0.4973
    82BTZ   C4739744   1.392   2.820  19.859 -0.5424  0.2929 -0.2506
    82BTZ   C4839745   1.288   2.763  19.789 -0.6680  0.3487 -0.1116
    82BTZ   C4939746   1.165   2.724  19.854 -0.5735  0.3474  0.0687
    82BTZ   C5039747   1.146   2.743  19.988 -0.3537  0.2905  0.1099
    82BTZ   C5139748   1.376   2.842  19.999 -0.3114  0.2320 -0.2141
    82BTZ   C5239749   1.251   2.803  20.065 -0.2154  0.2307 -0.0315
    92RH    C5339750   1.014   2.723  20.055 -0.1127 -0.0281 -0.1971
    82BTZ    N439751   1.469   2.897  20.078 -0.1723  0.1746 -0.3376
    82BTZ    N539752   1.243   2.826  20.196  0.0009  0.1723 -0.0072
    82BTZ    S639753   1.399   2.901  20.242  0.0929  0.1151 -0.2232
    92RH    C5439754   0.890   2.695  20.013 -0.1311 -0.0536 -0.1264
    92RH     S739755   0.829   2.701  19.840 -0.1897 -0.2209 -0.1104
    92RH    C5539756   0.780   2.654  20.103 -0.1058  0.0541 -0.0472
    92RH     O239757   0.789   2.642  20.226 -0.0654  0.1780 -0.0362
    92RH     N639758   0.661   2.631  20.032 -0.1335 -0.0016  0.0178
    92RH    C5639759   0.661   2.649  19.895 -0.1779 -0.1406 -0.0005
    92RH    C5739760   0.538   2.597  20.111  0.2933 -0.3363  0.0748
    92RH    C5839761   0.536   2.449  20.164 -0.5898 -0.1219 -0.5224
    92RH     S839762   0.533   2.628  19.788 -0.2177 -0.2319  0.0644
    72IDQ   C5939763   2.088   2.798  19.737  0.1623 -0.7111  0.4412
    72IDQ   C6039764   2.131   2.794  19.585  0.9994  0.1119 -0.1504
    72IDQ   C6139765   2.291   2.825  19.576  0.7358 -0.5014 -1.1668
    72IDQ   C6239766   2.371   2.777  19.468 -0.6759  0.1929  0.5959
    72IDQ   C6339767   2.330   2.634  19.425 -0.3015 -0.0031  0.1592
    72IDQ   C6439768   2.398   2.595  19.294 -0.2937 -0.3794 -1.0789
    72IDQ   C6539769   2.475   2.464  19.305  0.6866  0.8780  0.5553
    72IDQ   C6639770   2.023   3.182  19.854 -0.5774 -0.0677 -0.4039
    72IDQ   C6739771   1.980   3.322  19.807  1.4286  0.3921  0.1551
    72IDQ   C6839772   2.029   3.447  19.878  0.2706  0.8965 -0.7412
    72IDQ   C6939773   1.961   3.498  20.000 -0.4727  0.3406 -0.1782
    72IDQ   C7039774   1.981   3.639  20.048  0.2414  0.4529  0.7455
    72IDQ   C7139775   1.925   3.686  20.188 -0.8104 -0.0758 -0.2638
    72IDQ   C7239776   2.000   3.617  20.300  0.8198 -0.1584 -0.0613
    11RH     C139777   1.592   2.014  25.095 -0.2219  0.0909 -0.7110
    11RH     C239778   1.464   1.940  25.091 -0.1074 -0.1193 -0.4940
    11RH     N139779   1.699   1.935  25.049 -0.1003  0.1231 -0.4864
    11RH     S139780   1.492   1.770  25.028  0.1527 -0.2607 -0.0097
    11RH     C339781   1.672   1.806  25.009  0.0976 -0.0355 -0.1159
    11RH     C439782   1.832   1.993  25.060  0.4636  0.4801 -0.6911
    11RH     S239783   1.781   1.691  24.950  0.2729 -0.0368  0.2084
    11RH     O139784   1.606   2.132  25.133 -0.4018  0.2246 -1.0471
    11RH     C539785   1.347   1.992  25.130 -0.1874 -0.1892 -0.6406
    21BTZ    C639786   1.217   1.923  25.153 -0.0387 -0.0494 -0.2208
    21BTZ    C739787   1.199   1.787  25.145 -0.1383 -0.0387 -0.1822
    21BTZ    C839788   1.105   2.005  25.188  0.0627  0.0277 -0.0763
    21BTZ    C939789   1.071   1.726  25.171 -0.1435  0.0476 -0.0010
    21BTZ   C1039790   0.961   1.801  25.205 -0.0489  0.1231  0.1418
    21BTZ   C1139791   0.975   1.943  25.215  0.0575  0.1155  0.1082
    21BTZ    N239792   1.110   2.138  25.199  0.1647  0.0259 -0.0968
    21BTZ    N339793   0.875   2.026  25.247  0.1554  0.1841  0.2356
    21BTZ    S339794   0.945   2.191  25.245  0.2605  0.1386  0.1223
    31IDT   C1239795   0.836   1.728  25.246  0.0202 -0.3892  0.0130
    31IDT   C1339796   0.711   1.775  25.274 -0.0348 -0.3762 -0.2513
    31IDT   C1439797   0.615   1.671  25.294 -0.0084 -0.3712 -0.0958
    31IDT   C1539798   0.667   1.544  25.281  0.0668 -0.3803  0.2854
    31IDT    S439799   0.843   1.546  25.243  0.1103 -0.3961  0.4802
    4IDB    C1639800   0.553   1.447  25.272 -0.0373 -0.3150 -0.7484
    4IDB    C1739801   0.428   1.515  25.290  0.1122 -0.1023 -0.5054
    51IDQ   C1839802   0.463   1.662  25.327 -0.5321 -0.3680 -0.2280
    4IDB    C1939803   0.307   1.447  25.280 -0.0207  0.0700 -0.1087
    51IDQ   C2039804   0.365   1.752  25.257  0.0782 -0.8441 -0.3114
    51IDQ   C2139805   0.439   1.708  25.483 -0.4424  0.3204  0.6125
    51IDQ   C2239806   0.383   1.609  25.585 -0.6625  0.2474 -0.3743
    51IDQ   C2339807   0.387   1.785  25.110 -0.2603  0.6585 -0.0312
    51IDQ   C2439808   0.330   1.673  25.708 -0.7319 -0.2738 -0.1175
    51IDQ   C2539809   0.253   1.562  25.778  0.0480 -0.5164  0.0897
    51IDQ   C2639810   0.263   1.561  25.927  0.3171  0.0387  0.1712
    51IDQ   C2739811   0.217   1.442  26.012 -0.0043  0.0566  0.2633
    51IDQ   C2839812   0.225   1.438  26.162  0.6136 -0.7025  0.4203
    51IDQ   C2939813   0.356   1.477  26.224 -0.1497 -0.3217 -0.1168
    51IDQ   C3039814   0.257   1.854  25.068  0.4589  0.4338 -0.1666
    51IDQ   C3139815   0.290   1.903  24.929 -0.5739  0.3410  0.0849
    51IDQ   C3239816   0.232   1.814  24.819  0.6714 -0.4778 -0.3067
    51IDQ   C3339817   0.181   1.892  24.703  0.5383 -1.0850 -0.0175
    51IDQ   C3439818   0.165   1.807  24.582 -0.3442  0.4735 -0.6216
    51IDQ   C3539819   0.126   1.886  24.464 -0.1711 -0.0817 -0.4154
    4IDB    C3639820   0.557   1.310  25.244 -0.3224 -0.3568 -0.5946
    4IDB    C3739821   0.432   1.242  25.234 -0.4547 -0.1786 -0.1888
    11RH    C3839822   1.861   2.104  24.965 -0.0274 -0.3887  0.1066
    4IDB    C3939823   0.312   1.309  25.252 -0.3058  0.0283  0.0447
    62IDT   C4039824   0.206   1.216  25.253 -0.1449  0.5021 -0.0847
    72IDQ   C4139825   0.409   1.092  25.201  0.3935 -0.2860 -0.2356
    62IDT   C4239826   0.255   1.091  25.222  0.0220  0.5324  0.0558
    72IDQ   C4339827   0.487   1.003  25.309  0.6149  0.0633  0.6041
    72IDQ   C4439828   0.447   1.031  25.067 -1.1726 -0.1303  0.9589
    62IDT    S539829   0.027   1.215  25.270 -0.1117  0.1974  0.3007
    62IDT   C4539830   0.028   1.037  25.232  0.1383  0.1233  0.6483
    62IDT   C4639831   0.155   0.990  25.210  0.1824  0.3183  0.4697
    82BTZ   C4739832  -0.092   0.958  25.197 -0.6361  0.3448 -0.2298
    82BTZ   C4839833  -0.206   1.026  25.161 -0.8574  0.1207  0.0396
    82BTZ   C4939834  -0.330   0.957  25.135 -0.7671 -0.1320  0.2646
    82BTZ   C5039835  -0.340   0.821  25.144 -0.4555 -0.1601  0.2189
    82BTZ   C5139836  -0.098   0.816  25.208 -0.3066  0.3255 -0.2885
    82BTZ   C5239837  -0.224   0.746  25.181 -0.2148  0.0687 -0.0601
    92RH    C5339838  -0.461   0.747  25.104  0.1986 -0.1541 -0.6180
    82BTZ    N439839   0.006   0.739  25.242 -0.0694  0.5296 -0.5422
    82BTZ    N539840  -0.222   0.613  25.194  0.0962  0.0663 -0.1297
    82BTZ    S639841  -0.054   0.570  25.241  0.2889  0.3992 -0.4995
    92RH    C5439842  -0.574   0.795  25.050  0.0802 -0.1884 -0.4058
    92RH     S739843  -0.607   0.969  25.000 -0.0304 -0.2171 -0.4336
    92RH    C5539844  -0.693   0.711  25.020  0.0192 -0.2090 -0.1068
    92RH     O239845  -0.702   0.589  25.042  0.0693 -0.1973 -0.0186
    92RH     N639846  -0.797   0.787  24.963 -0.1054 -0.2445  0.0724
    92RH    C5639847  -0.776   0.922  24.943 -0.1518 -0.2549 -0.0477
    92RH    C5739848  -0.931   0.734  24.928 -0.5388  1.2163 -0.1577
    92RH    C5839849  -1.033   0.732  25.044 -0.2302  0.2130  0.3024
    92RH     S839850  -0.883   1.034  24.877 -0.2964 -0.2954  0.1168
    72IDQ   C5939851   0.509   1.102  24.946 -0.2590  0.1487  0.7993
    72IDQ   C6039852   0.423   1.201  24.870 -0.9801 -0.1487  0.2902
    72IDQ   C6139853   0.312   1.141  24.800  1.4607 -0.8426  0.2035
    72IDQ   C6239854   0.340   1.035  24.692  0.7948 -0.4279 -0.7817
    72IDQ   C6339855   0.227   1.024  24.592 -1.4519  0.2303  0.4861
    72IDQ   C6439856   0.263   0.933  24.475  0.1368  0.3014  0.5242
    72IDQ   C6539857   0.155   0.926  24.378  0.2985  0.2883  0.1928
    72IDQ   C6639858   0.486   1.041  25.453 -0.5876  0.1960 -0.3108
    72IDQ   C6739859   0.549   0.946  25.542 -0.5288  0.0879 -0.1713
    72IDQ   C6839860   0.505   0.960  25.687 -0.8289 -0.5916 -0.5223
    72IDQ   C6939861   0.611   0.907  25.785  0.0518  0.3849  0.0444
    72IDQ   C7039862   0.595   0.957  25.926  0.0552 -0.0884  0.2040
    72IDQ   C7139863   0.588   1.103  25.957 -0.1204  0.2785  0.7277
    72IDQ   C7239864   0.472   1.156  26.039  0.9825 -0.7387 -0.1824
    11RH     C139865   1.123   1.295  25.403 -0.2177 -0.1486 -0.3319
    11RH     C239866   1.156   1.418  25.477 -0.2074 -0.2874 -0.1049
    11RH     N139867   0.996   1.245  25.438 -0.2387 -0.1822 -0.4519
    11RH     S139868   1.018   1.462  25.590 -0.2260 -0.4531 -0.0630
    11RH     C339869   0.923   1.314  25.533 -0.2465 -0.3310 -0.3481
    11RH     C439870   0.955   1.107  25.413 -0.5393  0.9113 -0.0735
    11RH     S239871   0.770   1.277  25.592 -0.2708 -0.4008 -0.4535
    11RH     O139872   1.196   1.239  25.319 -0.2092 -0.0180 -0.4115
    11RH     C539873   1.271   1.485  25.462 -0.1875 -0.2870  0.0440
    21BTZ    C639874   1.317   1.615  25.507 -0.2890  0.2431 -0.4235
    21BTZ    C739875   1.256   1.702  25.593 -0.4632  0.2917 -0.5941
    21BTZ    C839876   1.442   1.654  25.448 -0.2342  0.2646 -0.2942
    21BTZ    C939877   1.314   1.830  25.626 -0.5917  0.3635 -0.6456
    21BTZ   C1039878   1.433   1.871  25.572 -0.5456  0.3865 -0.5264
    21BTZ   C1139879   1.501   1.784  25.481 -0.3648  0.3376 -0.3467
    21BTZ    N239880   1.511   1.578  25.362 -0.0684  0.2221 -0.1240
    21BTZ    N339881   1.618   1.813  25.422 -0.3038  0.3538 -0.2189
    21BTZ    S339882   1.658   1.672  25.319 -0.0722  0.2747 -0.0213
    31IDT   C1239883   1.479   1.998  25.616 -0.0774 -0.0258 -0.1968
    31IDT   C1339884   1.535   2.101  25.545 -0.2746 -0.0259 -0.3543
    31IDT   C1439885   1.552   2.220  25.622 -0.2715  0.0467 -0.4663
    31IDT   C1539886   1.509   2.209  25.753 -0.0724  0.1026 -0.3951
    31IDT    S439887   1.443   2.045  25.788  0.1284  0.0672 -0.1787
    4IDB    C1639888   1.530   2.341  25.814 -0.5855  0.7991 -0.2258
    4IDB    C1739889   1.577   2.435  25.717 -0.3722  0.5198 -0.3972
    51IDQ   C1839890   1.598   2.369  25.583  0.3546  0.5552 -0.4180
    4IDB    C1939891   1.593   2.569  25.750 -0.1305  0.5574 -0.6572
    51IDQ   C2039892   1.513   2.431  25.471 -0.5762 -0.8152 -0.4346
    51IDQ   C2139893   1.758   2.365  25.530  0.6410 -0.4378  0.6929
    51IDQ   C2239894   1.862   2.426  25.621  0.3814  1.0627 -0.2645
    51IDQ   C2339895   1.389   2.364  25.412 -0.7429  0.9415  0.3870
    51IDQ   C2439896   1.988   2.440  25.539 -0.2147  0.3354  0.4607
    51IDQ   C2539897   2.000   2.570  25.447  0.6388 -0.2372 -0.2118
    51IDQ   C2639898   1.949   2.699  25.523  0.2244  0.3179  0.7491
    51IDQ   C2739899   1.974   2.844  25.472  0.0386 -0.3189  0.0181
    51IDQ   C2839900   1.877   2.944  25.544 -0.3588  0.3033  0.2761
    51IDQ   C2939901   1.915   2.993  25.686 -0.1059 -0.2796 -0.0645
    51IDQ   C3039902   1.320   2.430  25.302  0.7054 -0.3141  0.3653
    51IDQ   C3139903   1.203   2.522  25.354 -0.2840  0.6189  0.4203
    51IDQ   C3239904   1.096   2.606  25.275 -0.3755  0.2842 -0.0176
    51IDQ   C3339905   1.054   2.548  25.141  0.4266 -0.6219  0.4064
    51IDQ   C3439906   0.955   2.650  25.086 -0.0003 -0.0838  0.2682
    51IDQ   C3539907   0.987   2.795  25.058 -0.4003 -0.0671  0.1867
    4IDB    C3639908   1.498   2.380  25.944 -0.5579  1.1197 -0.3142
    4IDB    C3739909   1.514   2.518  25.976 -0.3095  1.1533 -0.5813
    11RH    C3839910   0.881   1.084  25.276 -0.1029 -0.2249 -0.4408
    4IDB    C3939911   1.561   2.609  25.881 -0.1029  0.8780 -0.7463
    62IDT   C4039912   1.555   2.742  25.950 -0.2003 -0.1884 -0.0422
    72IDQ   C4139913   1.504   2.583  26.117  0.0269  1.9056  0.4896
    62IDT   C4239914   1.516   2.725  26.081  0.1936 -0.3527  0.0587
    72IDQ   C4339915   1.607   2.518  26.218  0.4303 -1.0509 -0.2001
    72IDQ   C4439916   1.357   2.555  26.175  0.7045  0.0873 -0.8509
    62IDT    S539917   1.593   2.914  25.912 -0.3734 -0.1317  0.0404
    62IDT   C4539918   1.551   2.956  26.084  0.1198 -0.3432  0.2163
    62IDT   C4639919   1.513   2.846  26.157  0.3750 -0.4405  0.2046
    82BTZ   C4739920   1.560   3.096  26.128  0.0885  0.0323  0.3603
    82BTZ   C4839921   1.668   3.164  26.080 -0.0202  0.1272  0.2508
    82BTZ   C4939922   1.696   3.300  26.119 -0.2663  0.2537 -0.0076
    82BTZ   C5039923   1.615   3.367  26.207 -0.4033  0.2853 -0.1570
    82BTZ   C5139924   1.473   3.162  26.221 -0.0475  0.0606  0.2117
    82BTZ   C5239925   1.500   3.300  26.261 -0.2976  0.1892 -0.0510
    92RH    C5339926   1.634   3.511  26.241  0.3176 -0.1636  0.5228
    82BTZ    N439927   1.364   3.105  26.275  0.0385 -0.0238  0.2966
    82BTZ    N539928   1.414   3.354  26.347 -0.4127  0.2083 -0.1769
    82BTZ    S639929   1.292   3.229  26.382 -0.2018  0.0594  0.0396
    92RH    C5439930   1.728   3.599  26.207  0.1773 -0.0535  0.4139
    92RH     S739931   1.875   3.568  26.101 -0.2245  0.2728 -0.2550
    92RH    C5539932   1.729   3.740  26.252  0.3324 -0.1842  0.8335
    92RH     O239933   1.643   3.793  26.325  0.6050 -0.4067  1.3270
    92RH     N639934   1.840   3.810  26.202  0.1301 -0.0232  0.6052
    92RH    C5639935   1.930   3.743  26.122 -0.1682  0.2206  0.0534
    92RH    C5739936   1.852   3.953  26.217  0.7236 -0.4601 -1.3634
    92RH    C5839937   1.815   4.041  26.099  0.2675  0.4967 -0.5547
    92RH     S839938   2.070   3.803  26.049 -0.4528  0.4486 -0.3171
    72IDQ   C5939939   1.216   2.606  26.113 -0.1443  0.0486  0.3117
    72IDQ   C6039940   1.187   2.632  25.964  0.0922 -0.5598  0.4099
    72IDQ   C6139941   1.147   2.522  25.860 -0.1448 -0.0236 -0.7320
    72IDQ   C6239942   1.013   2.458  25.878  0.1926  0.4022  0.3708
    72IDQ   C6339943   0.982   2.339  25.770 -0.5158 -1.1312 -0.5653
    72IDQ   C6439944   1.094   2.257  25.711  0.4897  0.2590  0.0730
    72IDQ   C6539945   1.058   2.131  25.624 -0.2012  0.1282  0.5270
    72IDQ   C6639946   1.743   2.584  26.236 -0.4728 -0.3416 -0.5657
    72IDQ   C6739947   1.808   2.544  26.366 -0.0345 -0.4806 -0.2554
    72IDQ   C6839948   1.861   2.399  26.386  0.0049  0.1057 -0.1473
    72IDQ   C6939949   1.840   2.330  26.519 -0.4887 -0.2622 -0.9307
    72IDQ   C7039950   1.893   2.188  26.490 -0.1445  0.1029  0.0046
    72IDQ   C7139951   1.888   2.079  26.588 -0.0397  0.5140 -0.5451
    72IDQ   C7239952   1.910   1.936  26.542 -0.2045 -0.0713 -0.6756
    11RH     C139953   1.321   2.450  19.974  0.1299 -0.3439  0.0119
    11RH     C239954   1.342   2.409  19.833  0.1611 -0.2465 -0.0134
    11RH     N139955   1.212   2.382  20.032  0.2059 -0.4876 -0.0158
    11RH     S139956   1.218   2.282  19.787  0.2884 -0.3502 -0.0707
    11RH     C339957   1.144   2.290  19.955  0.2942 -0.5172 -0.0596
    11RH     C439958   1.160   2.424  20.164  0.7882  0.3859 -0.5452
    11RH     S239959   1.012   2.195  20.000  0.3958 -0.6781 -0.0978
    11RH     O139960   1.388   2.535  20.035  0.0479 -0.3070  0.0510
    11RH     C539961   1.439   2.459  19.755  0.1029 -0.1048  0.0049
    21BTZ    C639962   1.472   2.443  19.614  0.0521 -0.1140  0.1439
    21BTZ    C739963   1.390   2.374  19.530  0.1555 -0.2427  0.1478
    21BTZ    C839964   1.593   2.499  19.562  0.0184 -0.0226  0.1631
    21BTZ    C939965   1.422   2.356  19.390  0.2304 -0.2876  0.1712
    21BTZ   C1039966   1.537   2.407  19.336  0.2018 -0.2039  0.1900
    21BTZ   C1139967   1.626   2.480  19.420  0.0945 -0.0683  0.1864
    21BTZ    N239968   1.682   2.568  19.634 -0.0801  0.1050  0.1602
    21BTZ    N339969   1.741   2.535  19.379  0.0573  0.0226  0.2031
    21BTZ    S339970   1.813   2.614  19.522 -0.0796  0.1737  0.1892
    31IDT   C1239971   1.575   2.374  19.201  0.1858  0.0691  0.3785
    31IDT   C1339972   1.623   2.468  19.114 -0.3356  0.2624  0.2937
    31IDT   C1439973   1.632   2.421  18.980 -0.6758  0.4035  0.2170
    31IDT   C1539974   1.592   2.290  18.963 -0.4167  0.3187  0.2431
    31IDT    S439975   1.538   2.216  19.118  0.2847  0.0513  0.3681
    4IDB    C1639976   1.607   2.257  18.823  0.0635  0.5247 -0.0740
    4IDB    C1739977   1.643   2.369  18.743  0.2600  0.1490 -0.5198
    51IDQ   C1839978   1.665   2.491  18.840  0.3223  1.4771 -0.9882
    4IDB    C1939979   1.661   2.356  18.606  0.3006 -0.4364 -0.4651
    51IDQ   C2039980   1.809   2.542  18.812  0.3942  0.8037 -0.2406
    51IDQ   C2139981   1.564   2.596  18.795  0.1079 -0.1995  0.4994
    51IDQ   C2239982   1.446   2.642  18.871  0.7121  0.7903  0.2465
    51IDQ   C2339983   1.922   2.510  18.917  0.9393 -0.4231 -0.2649
    51IDQ   C2439984   1.328   2.545  18.863  0.4894  0.1469 -0.2682
    51IDQ   C2539985   1.199   2.604  18.904  0.5779 -0.4745 -0.0667
    51IDQ   C2639986   1.081   2.507  18.876  0.6272  0.0472  0.6276
    51IDQ   C2739987   0.941   2.545  18.950 -0.4416  0.4574  0.5389
    51IDQ   C2839988   0.844   2.434  18.918  0.3954  0.0711  0.0752
    51IDQ   C2939989   0.690   2.450  18.943  0.0880 -0.0924 -0.0239
    51IDQ   C3039990   2.058   2.558  18.877 -0.3535 -0.0211 -0.0022
    51IDQ   C3139991   2.112   2.536  18.737 -0.0727  0.0191 -0.6230
    51IDQ   C3239992   2.142   2.402  18.681  0.9331 -1.3780  0.3718
    51IDQ   C3339993   2.099   2.276  18.746 -0.7275  0.3730 -0.1783
    51IDQ   C3439994   2.060   2.149  18.670 -0.2232  0.8149  0.2256
    51IDQ   C3539995   2.048   2.019  18.747  0.2137  0.4459  0.1771
    4IDB    C3639996   1.587   2.130  18.766 -0.0944  0.3152  0.4320
    4IDB    C3739997   1.606   2.119  18.626 -0.0501 -0.2843  0.4802
    11RH    C3839998   1.211   2.332  20.268 -0.6550 -0.9653 -0.2890
    4IDB    C3939999   1.641   2.229  18.549  0.1427 -0.6459  0.0416
    62IDT   C4040000   1.647   2.188  18.417  0.1292 -0.1277 -0.1141
    72IDQ   C4140001   1.587   2.001  18.530  0.1939 -0.2095 -1.0221
    62IDT   C4240002   1.612   2.056  18.399  0.6301 -0.2444 -0.2656
    72IDQ   C4340003   1.437   1.951  18.518 -0.2701  0.2811  0.3768
    72IDQ   C4440004   1.681   1.877  18.581  0.0427  0.3087  0.5011
    62IDT    S540005   1.706   2.263  18.265 -0.0650  0.2459 -0.0070
    62IDT   C4540006   1.679   2.104  18.181  0.5724  0.2235 -0.1816
    62IDT   C4640007   1.630   2.008  18.265  0.8814 -0.0461 -0.3033
    82BTZ   C4740008   1.684   2.101  18.039 -0.0495  0.0833 -0.0642
    82BTZ   C4840009   1.618   2.202  17.973  0.0351  0.1518 -0.0439
    82BTZ   C4940010   1.647   2.235  17.836  0.1257  0.2137 -0.0100
    82BTZ   C5040011   1.742   2.167  17.764  0.1314  0.2071  0.0035
    82BTZ   C5140012   1.785   2.027  17.968 -0.0472  0.0735 -0.0510
    82BTZ   C5240013   1.814   2.061  17.828  0.0449  0.1364 -0.0162
    92RH    C5340014   1.779   2.194  17.626 -0.2515  0.0673  0.4020
    82BTZ    N440015   1.856   1.927  18.020 -0.1247  0.0095 -0.0677
    82BTZ    N540016   1.909   1.988  17.769  0.0413  0.1231 -0.0062
    82BTZ    S640017   1.965   1.870  17.891 -0.0825  0.0274 -0.0400
    92RH    C5440018   1.747   2.287  17.536 -0.1828 -0.0943  0.2079
    92RH     S740019   1.625   2.423  17.557 -0.0550  0.0636 -0.0569
    92RH    C5540020   1.808   2.295  17.401 -0.2008 -0.4377  0.1769
    92RH     O240021   1.894   2.218  17.356 -0.2799 -0.6134  0.3242
    92RH     N640022   1.756   2.404  17.327 -0.1155 -0.5463 -0.0446
    92RH    C5640023   1.660   2.484  17.386 -0.0314 -0.3318 -0.1950
    92RH    C5740024   1.813   2.438  17.191 -0.1504  0.0849  0.2475
    92RH    C5840025   1.727   2.413  17.067  0.4127 -0.8878  0.4058
    92RH     S840026   1.583   2.618  17.320  0.0791 -0.3996 -0.4663
    72IDQ   C5940027   1.751   1.785  18.487  0.2976  0.0009 -0.1650
    72IDQ   C6040028   1.820   1.661  18.547  0.5124 -0.9945 -0.2731
    72IDQ   C6140029   1.735   1.549  18.584  0.1479  0.3538 -0.1310
    72IDQ   C6240030   1.792   1.430  18.654 -0.6580  0.1879 -0.1679
    72IDQ   C6340031   1.879   1.454  18.771 -0.2836  0.7626  0.6629
    72IDQ   C6440032   1.947   1.324  18.816 -0.0574  0.8660  0.0673
    72IDQ   C6540033   2.005   1.324  18.953 -0.3297 -0.7623  1.0894
    72IDQ   C6640034   1.319   1.999  18.604  0.3237  0.4806 -0.1713
    72IDQ   C6740035   1.188   1.921  18.587 -0.8913  0.3966  1.0994
    72IDQ   C6840036   1.171   1.788  18.680 -0.1618 -0.0247  0.2499
    72IDQ   C6940037   1.244   1.663  18.646 -0.5411 -0.3880 -0.6155
    72IDQ   C7040038   1.230   1.570  18.759 -0.3185 -0.5602 -0.7734
    72IDQ   C7140039   1.254   1.437  18.708 -0.1524 -0.0813  0.2177
    72IDQ   C7240040   1.399   1.387  18.704  0.5156  0.3295  0.0780
    11RH     C140041   2.015   4.525  26.882 -0.2160 -0.1091  0.0234
    11RH     C240042   2.108   4.422  26.935 -0.2580 -0.2078 -0.0968
    11RH     N140043   1.942   4.586  26.986 -0.0414 -0.0549  0.1149
    11RH     S140044   2.092   4.412  27.117 -0.0650 -0.2231 -0.0814
    11RH     C340045   1.965   4.545  27.116  0.0618 -0.0985  0.0830
    11RH     C440046   1.857   4.699  26.955 -0.4049 -0.9009  0.3350
    11RH     S240047   1.891   4.601  27.257  0.2725 -0.0504  0.1740
    11RH     O140048   2.002   4.556  26.763 -0.3187 -0.0759  0.0429
    11RH     C540049   2.188   4.349  26.857 -0.4146 -0.2735 -0.1986
    21BTZ    C640050   2.285   4.238  26.888  0.3499  0.0630 -0.0159
    21BTZ    C740051   2.315   4.192  27.013  0.3642  0.1491  0.0124
    21BTZ    C840052   2.347   4.176  26.775  0.2298 -0.1086  0.0110
    21BTZ    C940053   2.408   4.083  27.033  0.2619  0.0718  0.0677
    21BTZ   C1040054   2.470   4.021  26.928  0.1455 -0.0919  0.0957
    21BTZ   C1140055   2.441   4.066  26.795  0.1258 -0.1874  0.0677
    21BTZ    N240056   2.325   4.212  26.648  0.2043 -0.2056 -0.0124
    21BTZ    N340057   2.495   4.013  26.685  0.0168 -0.3477  0.0901
    21BTZ    S340058   2.426   4.104  26.547  0.0430 -0.4057  0.0385
    31IDT   C1240059   2.568   3.921  26.970 -0.6436  0.6259  0.6532
    31IDT   C1340060   2.633   3.831  26.889 -0.6381  0.9298  0.3119
    31IDT   C1440061   2.719   3.743  26.962 -0.4106  0.8448 -0.0525
    31IDT   C1540062   2.720   3.765  27.099 -0.2416  0.4767  0.0088
    31IDT    S440063   2.611   3.900  27.145 -0.3584  0.2064  0.5374
    4IDB    C1640064   2.805   3.673  27.168  0.2763  0.6089  0.6684
    4IDB    C1740065   2.862   3.589  27.067 -0.3206  0.6391  0.2975
    51IDQ   C1840066   2.827   3.630  26.928  0.0884 -0.2938  0.5556
    4IDB    C1940067   2.940   3.479  27.102 -0.6137  0.2702 -0.1953
    51IDQ   C2040068   2.945   3.678  26.846  0.1811 -0.1376  0.2277
    51IDQ   C2140069   2.743   3.527  26.832  0.2991  0.1843  0.4832
    51IDQ   C2240070   2.696   3.398  26.882 -0.2334  0.0490 -0.5675
    51IDQ   C2340071   2.964   3.823  26.797  0.1974  0.8711 -0.3727
    51IDQ   C2440072   2.799   3.280  26.855  0.5452 -0.4625  0.9678
    51IDQ   C2540073   2.778   3.156  26.945 -0.0045  0.5076  1.3056
    51IDQ   C2640074   2.866   3.032  26.897 -0.2187 -0.7042 -0.7897
    51IDQ   C2740075   2.805   2.913  26.829  0.0518  0.1292 -0.2651
    51IDQ   C2840076   2.878   2.780  26.803  0.6179 -0.3963 -0.3494
    51IDQ   C2940077   2.857   2.678  26.918 -0.2156  0.3521 -0.6353
    51IDQ   C3040078   2.897   3.846  26.661 -0.3302 -0.5420  0.1557
    51IDQ   C3140079   2.958   3.953  26.576 -0.6803 -0.5264 -0.3075
    51IDQ   C3240080   2.888   3.984  26.448  0.8735  0.1979 -0.4481
    51IDQ   C3340081   2.974   4.024  26.332 -0.5516  1.0203 -0.4504
    51IDQ   C3440082   3.044   3.894  26.267 -0.1324 -0.6865  0.1992
    51IDQ   C3540083   3.135   3.954  26.159 -0.7946 -0.4724 -0.1083
    4IDB    C3640084   2.826   3.647  27.304  0.5850  0.2068  0.5484
    4IDB    C3740085   2.906   3.534  27.337  0.2782 -0.1667  0.0424
    11RH    C3840086   1.939   4.828  26.982 -0.2585 -0.3004 -0.1313
    4IDB    C3940087   2.961   3.453  27.238 -0.3050 -0.1319 -0.3157
    62IDT   C4040088   3.028   3.337  27.304  0.3706  0.0419  0.3336
    72IDQ   C4140089   2.969   3.490  27.477  0.0304  0.0186 -0.2082
    62IDT   C4240090   3.033   3.356  27.440  0.0450 -0.7914  0.4725
    72IDQ   C4340091   2.843   3.492  27.579 -0.4162  0.2379 -0.1420
    72IDQ   C4440092   3.065   3.604  27.517 -0.4609 -1.0464 -0.3481
    62IDT    S540093   3.119   3.191  27.252  0.2521  0.1875 -0.3074
    62IDT   C4540094   3.162   3.162  27.427 -0.2560 -0.9408 -0.3563
    62IDT   C4640095   3.109   3.257  27.510 -0.3096 -1.3482  0.0830
    82BTZ   C4740096   3.239   3.035  27.461 -0.2450  0.1759  0.2665
    82BTZ   C4840097   3.248   2.938  27.365 -0.1852  0.3237  0.1225
    82BTZ   C4940098   3.323   2.817  27.387  0.0490  0.4221 -0.1283
    82BTZ   C5040099   3.389   2.793  27.504  0.2230  0.3726 -0.2342
    82BTZ   C5140100   3.306   3.015  27.586 -0.0690  0.1187  0.1640
    82BTZ   C5240101   3.382   2.892  27.608  0.1690  0.2187 -0.0916
    92RH    C5340102   3.444   2.659  27.538 -0.8875 -0.2624  0.0455
    82BTZ    N440103   3.304   3.102  27.687 -0.1059 -0.0230  0.2861
    82BTZ    N540104   3.442   2.880  27.727  0.3234  0.1574 -0.1736
    82BTZ    S640105   3.402   3.029  27.818  0.1678 -0.0349  0.0758
    92RH    C5440106   3.450   2.541  27.477 -0.5135 -0.1816 -0.0787
    92RH     S740107   3.381   2.498  27.312  0.2236 -0.0469 -0.4304
    92RH    C5540108   3.516   2.422  27.536 -0.6461 -0.1896  0.0548
    92RH     O240109   3.573   2.418  27.646 -1.1091 -0.2702  0.2928
    92RH     N640110   3.508   2.310  27.450 -0.1737 -0.0925 -0.1245
    92RH    C5640111   3.443   2.325  27.329  0.3210 -0.0076 -0.3848
    92RH    C5740112   3.562   2.177  27.494  0.1037 -0.8704  0.2275
    92RH    C5840113   3.701   2.142  27.447 -0.1558 -0.5305 -0.7170
    92RH     S840114   3.419   2.208  27.210  0.9399  0.1158 -0.6361
    72IDQ   C5940115   3.150   3.572  27.644  0.2900  0.0465  0.5143
    72IDQ   C6040116   3.256   3.677  27.659 -0.3352  0.6948 -0.2431
    72IDQ   C6140117   3.389   3.638  27.728 -0.0090 -0.3652 -0.5856
    72IDQ   C6240118   3.487   3.744  27.753 -0.5246 -0.0498  0.6084
    72IDQ   C6340119   3.443   3.891  27.789  0.2381  0.3836  0.7741
    72IDQ   C6440120   3.553   3.988  27.806 -0.4565 -0.9373 -1.3246
    72IDQ   C6540121   3.523   4.108  27.907  0.1391  0.8763 -0.1803
    72IDQ   C6640122   2.735   3.382  27.577 -0.2795 -0.1408 -0.4479
    72IDQ   C6740123   2.608   3.423  27.650  1.3021  0.6602  1.1560
    72IDQ   C6840124   2.542   3.306  27.728 -0.0220  0.4238  0.4775
    72IDQ   C6940125   2.437   3.364  27.818 -0.0614 -0.4489  0.5333
    72IDQ   C7040126   2.376   3.267  27.920  0.4207 -0.8916  0.8755
    72IDQ   C7140127   2.252   3.306  27.997  0.1532  0.3289 -0.2190
    72IDQ   C7240128   2.217   3.175  28.063 -0.2073  0.7695 -0.8743
    11RH     C140129   1.131   1.122  10.711 -0.1415 -0.1707 -0.0384
    11RH     C240130   1.057   0.998  10.675 -0.0200 -0.1954 -0.2015
    11RH     N140131   1.205   1.104  10.830 -0.1499 -0.2450 -0.0441
    11RH     S140132   1.090   0.867  10.799  0.0754 -0.3148 -0.3520
    11RH     C340133   1.200   0.982  10.893 -0.0499 -0.3263 -0.1919
    11RH     C440134   1.236   1.228  10.915 -0.9207  1.1641 -0.0686
    11RH     S240135   1.278   0.935  11.035 -0.0362 -0.4244 -0.2317
    11RH     O140136   1.130   1.228  10.648 -0.2267 -0.0949  0.0889
    11RH     C540137   0.980   0.988  10.566  0.0117 -0.1373 -0.2296
    21BTZ    C640138   0.925   0.871  10.501 -0.1879 -0.1745 -0.1855
    21BTZ    C740139   0.940   0.745  10.553 -0.1769 -0.1887 -0.2229
    21BTZ    C840140   0.847   0.886  10.382 -0.2121 -0.1425 -0.1655
    21BTZ    C940141   0.879   0.629  10.492 -0.1890 -0.1722 -0.2420
    21BTZ   C1040142   0.804   0.640  10.378 -0.2121 -0.1416 -0.2235
    21BTZ   C1140143   0.785   0.769  10.319 -0.2244 -0.1258 -0.1848
    21BTZ    N240144   0.825   1.004  10.321 -0.2247 -0.1261 -0.1295
    21BTZ    N340145   0.714   0.792  10.208 -0.2469 -0.0960 -0.1643
    21BTZ    S340146   0.723   0.968  10.179 -0.2534 -0.0879 -0.1185
    31IDT   C1240147   0.741   0.519  10.331  0.1062  0.1103 -0.4287
    31IDT   C1340148   0.609   0.510  10.297  0.2671  0.3041 -1.1489
    31IDT   C1440149   0.572   0.380  10.250  0.2759  0.2773 -1.0822
    31IDT   C1540150   0.676   0.290  10.247  0.1222  0.0635 -0.3130
    31IDT    S440151   0.830   0.362  10.305 -0.0471 -0.1222  0.3933
    4IDB    C1640152   0.626   0.164  10.194 -0.4498 -0.2593  0.6150
    4IDB    C1740153   0.493   0.186  10.146 -0.2072  0.1222  0.0956
    51IDQ   C1840154   0.442   0.320  10.185 -0.2304  1.0168 -0.3627
    4IDB    C1940155   0.429   0.092  10.066 -0.0918  0.4039 -0.3378
    51IDQ   C2040156   0.379   0.403  10.070 -0.5583 -0.9813  0.1709
    51IDQ   C2140157   0.327   0.306  10.298 -0.4992 -0.5493 -1.0305
    51IDQ   C2240158   0.291   0.181  10.360 -1.2114  0.1613 -0.4714
    51IDQ   C2340159   0.458   0.519  10.005 -0.6508  0.8955 -0.2478
    51IDQ   C2440160   0.156   0.174  10.418 -0.1926 -0.5340  0.3136
    51IDQ   C2540161   0.063   0.093  10.315 -0.9591 -0.1558  0.1558
    51IDQ   C2640162   0.061  -0.068  10.326 -0.1393  0.2606 -0.0877
    51IDQ   C2740163   0.013  -0.149  10.205  0.6375  0.2079 -0.0176
    51IDQ   C2840164   0.054  -0.298  10.235 -0.3446 -0.7576  0.2075
    51IDQ   C2940165   0.045  -0.369  10.099  0.2152 -0.0349 -0.5094
    51IDQ   C3040166   0.417   0.607   9.891  0.5476  0.5502  0.1808
    51IDQ   C3140167   0.369   0.558   9.751 -0.1956  0.3037 -0.1368
    51IDQ   C3240168   0.262   0.453   9.737  0.2246  0.8787 -0.2261
    51IDQ   C3340169   0.231   0.411   9.591  0.4857  0.3851  0.8447
    51IDQ   C3440170   0.134   0.293   9.552 -0.1484 -0.3062 -0.1836
    51IDQ   C3540171   0.168   0.158   9.620 -0.0191 -0.2445  0.4039
    4IDB    C3640172   0.696   0.047  10.162 -0.5791 -0.3618  0.7045
    4IDB    C3740173   0.629  -0.048  10.080 -0.4583 -0.0701  0.2570
    11RH    C3840174   1.360   1.300  10.874 -0.3121  1.0585  0.5122
    4IDB    C3940175   0.499  -0.025  10.034 -0.2212  0.3015 -0.2482
    62IDT   C4040176   0.467  -0.134   9.944  0.2809  0.7714 -0.3631
    72IDQ   C4140177   0.678  -0.187  10.035 -0.8167 -0.1310  0.7377
    62IDT   C4240178   0.564  -0.231   9.947  0.4567  0.9507 -0.2453
    72IDQ   C4340179   0.699  -0.297  10.156 -0.9158 -1.9756  0.4979
    72IDQ   C4440180   0.824  -0.168   9.967 -0.3207  0.9768  1.0600
    62IDT    S540181   0.346  -0.164   9.814  0.0045  0.0774  0.0434
    62IDT   C4540182   0.439  -0.313   9.768  0.1483  0.0659  0.3673
    62IDT   C4640183   0.549  -0.333   9.847  0.3820  0.5523  0.1678
    82BTZ   C4740184   0.385  -0.412   9.670  0.0919  0.5688 -0.2482
    82BTZ   C4840185   0.251  -0.409   9.641  0.0951  0.8205 -0.2429
    82BTZ   C4940186   0.198  -0.475   9.524 -0.0440  0.8491 -0.1957
    82BTZ   C5040187   0.278  -0.543   9.437 -0.1861  0.6256 -0.1533
    82BTZ   C5140188   0.473  -0.482   9.582 -0.0541  0.3287 -0.2053
    82BTZ   C5240189   0.419  -0.549   9.463 -0.1955  0.3576 -0.1571
    92RH    C5340190   0.238  -0.610   9.313 -0.0776 -0.2532  0.0824
    82BTZ    N440191   0.605  -0.492   9.600 -0.0720  0.0727 -0.2055
    82BTZ    N540192   0.507  -0.612   9.386 -0.3271  0.1251 -0.1185
    82BTZ    S640193   0.667  -0.589   9.463 -0.2747 -0.1469 -0.1429
    92RH    C5440194   0.117  -0.620   9.257 -0.0220 -0.1394 -0.0606
    92RH     S740195  -0.043  -0.569   9.330 -0.0952 -0.2881 -0.1148
    92RH    C5540196   0.094  -0.678   9.122  0.1121  0.1341 -0.2007
    92RH     O240197   0.182  -0.722   9.046  0.1875  0.2874 -0.2031
    92RH     N640198  -0.043  -0.677   9.088  0.1458  0.2028 -0.3357
    92RH    C5640199  -0.133  -0.625   9.179  0.0548  0.0178 -0.3207
    92RH    C5740200  -0.082  -0.705   8.949  0.3197 -0.1533  0.0110
    92RH    C5840201  -0.137  -0.839   8.920  0.4950  0.5691  0.3321
    92RH     S840202  -0.300  -0.613   9.164  0.0703  0.0497 -0.4621
    72IDQ   C5940203   0.856  -0.223   9.832 -0.1572  0.5406 -0.6314
    72IDQ   C6040204   0.809  -0.139   9.716  0.1396 -0.2161  0.5790
    72IDQ   C6140205   0.864  -0.203   9.583  0.0372  0.9721 -0.5398
    72IDQ   C6240206   0.790  -0.185   9.454  1.0999 -0.4249 -0.3802
    72IDQ   C6340207   0.645  -0.216   9.457  0.1359  0.6547 -0.0963
    72IDQ   C6440208   0.583  -0.184   9.320 -0.1360 -0.0092  0.1871
    72IDQ   C6540209   0.436  -0.221   9.285  0.1126  0.1285 -0.6026
    72IDQ   C6640210   0.669  -0.446  10.170  1.0304 -0.7952 -0.3051
    72IDQ   C6740211   0.762  -0.543  10.093  0.1560 -0.4703  1.1177
    72IDQ   C6840212   0.911  -0.544  10.134 -0.1573 -0.0655 -0.2145
    72IDQ   C6940213   1.014  -0.606  10.034 -0.2974 -0.1360  0.1144
    72IDQ   C7040214   1.160  -0.565  10.084  0.7350  0.7978  0.4352
    72IDQ   C7140215   1.210  -0.665  10.194  0.2435  0.3772 -1.3429
    72IDQ   C7240216   1.341  -0.609  10.261 -0.1743  0.4406 -0.3333
    11RH     C140217   2.213   3.686  20.959  0.1118  0.3230  0.2351
    11RH     C240218   2.283   3.675  21.089  0.1382  0.1950  0.2098
    11RH     N140219   2.272   3.602  20.861  0.1594  0.4988  0.1113
    11RH     S140220   2.422   3.555  21.075  0.2238  0.3142  0.0260
    11RH     C340221   2.381   3.526  20.898  0.2207  0.5273 -0.0095
    11RH     C440222   2.214   3.580  20.724 -0.0132  0.0856 -0.2987
    11RH     S240223   2.468   3.418  20.802  0.2854  0.7223 -0.1693
    11RH     O140224   2.116   3.759  20.935  0.0554  0.2844  0.3490
    11RH     C540225   2.247   3.744  21.198  0.1033  0.0200  0.3108
    21BTZ    C640226   2.305   3.753  21.323 -0.1584 -0.2125  0.1513
    21BTZ    C740227   2.417   3.681  21.356 -0.1497 -0.1624  0.2327
    21BTZ    C840228   2.255   3.850  21.417 -0.2434 -0.2027  0.0958
    21BTZ    C940229   2.485   3.700  21.482 -0.2238 -0.1007  0.2632
    21BTZ   C1040230   2.441   3.791  21.574 -0.3062 -0.0892  0.2131
    21BTZ   C1140231   2.325   3.869  21.544 -0.3186 -0.1400  0.1278
    21BTZ    N240232   2.148   3.926  21.396 -0.2601 -0.2478  0.0167
    21BTZ    N340233   2.273   3.961  21.626 -0.3958 -0.1346  0.0739
    21BTZ    S340234   2.130   4.028  21.542 -0.3750 -0.2112 -0.0229
    31IDT   C1240235   2.514   3.805  21.708  0.4585  0.8521  0.1307
    31IDT   C1340236   2.526   3.912  21.793  0.4973  0.5066  0.5698
    31IDT   C1440237   2.622   3.890  21.897  0.3033 -0.0480  0.6361
    31IDT   C1540238   2.682   3.766  21.892  0.1157 -0.1288  0.2495
    31IDT    S440239   2.623   3.667  21.755  0.1707  0.4968 -0.2340
    4IDB    C1640240   2.774   3.751  21.999  0.3588 -0.3123  0.2394
    4IDB    C1740241   2.776   3.871  22.077  0.2662 -0.1608  0.0129
    51IDQ   C1840242   2.677   3.972  22.012 -0.3195 -0.7219 -0.7557
    4IDB    C1940243   2.864   3.884  22.184  0.0617  0.0002  0.1609
    51IDQ   C2040244   2.567   4.017  22.115  0.1635 -0.9646 -1.0066
    51IDQ   C2140245   2.750   4.097  21.952  0.2028  0.6093 -0.2065
    51IDQ   C2240246   2.897   4.123  21.947 -0.7028  0.3597  0.8463
    51IDQ   C2340247   2.419   3.998  22.093  0.0408 -0.1716 -1.2509
    51IDQ   C2440248   2.940   4.256  21.890  0.2747 -0.8417 -0.1475
    51IDQ   C2540249   3.080   4.279  21.832 -0.5625  0.5255  0.1877
    51IDQ   C2640250   3.098   4.431  21.802 -0.7794 -0.2722 -0.4367
    51IDQ   C2740251   3.235   4.487  21.827 -0.6429  0.2138  0.2550
    51IDQ   C2840252   3.345   4.422  21.748  0.4356 -0.3736 -0.1896
    51IDQ   C2940253   3.468   4.502  21.705 -0.1402 -0.7009 -0.7582
    51IDQ   C3040254   2.344   4.111  22.023 -0.3782  0.3834 -0.0867
    51IDQ   C3140255   2.207   4.063  21.974  0.0821 -1.3404  0.0095
    51IDQ   C3240256   2.124   4.184  21.932 -0.9503  0.7512  0.4738
    51IDQ   C3340257   2.000   4.155  21.838 -0.9016  0.1175 -0.8068
    51IDQ   C3440258   1.886   4.050  21.877  0.1678  0.7285  0.0003
    51IDQ   C3540259   1.845   4.073  22.015 -0.1327  0.1337 -0.1043
    4IDB    C3640260   2.860   3.644  22.028  0.2466 -0.3034  0.6170
    4IDB    C3740261   2.949   3.660  22.138  0.0378 -0.1377  0.7634
    11RH    C3840262   2.099   3.478  20.710 -0.2771  0.2783 -0.0591
    4IDB    C3940263   2.950   3.777  22.213 -0.0503  0.0092  0.5379
    62IDT   C4040264   3.048   3.756  22.310 -0.0846  0.1677 -0.0555
    72IDQ   C4140265   3.063   3.568  22.175  0.1938 -0.5315  0.0295
    62IDT   C4240266   3.118   3.638  22.302 -0.0388  0.1994 -0.1230
    72IDQ   C4340267   3.170   3.576  22.067 -0.1085 -0.1956  0.1915
    72IDQ   C4440268   3.025   3.421  22.219  0.3574  1.3454  0.2074
    62IDT    S540269   3.093   3.852  22.455 -0.2986 -0.0109  0.1296
    62IDT   C4540270   3.210   3.721  22.500 -0.3155 -0.0344  0.1062
    62IDT   C4640271   3.211   3.618  22.410 -0.1692  0.0852 -0.0319
    82BTZ   C4740272   3.282   3.717  22.634 -0.0757 -0.3358  0.1967
    82BTZ   C4840273   3.344   3.833  22.673 -0.1377 -0.2607  0.0739
    82BTZ   C4940274   3.411   3.843  22.800 -0.0153 -0.1370  0.0000
    82BTZ   C5040275   3.416   3.738  22.888  0.1688 -0.0887  0.0484
    82BTZ   C5140276   3.284   3.604  22.722  0.1161 -0.2894  0.2513
    82BTZ   C5240277   3.352   3.615  22.852  0.2405 -0.1637  0.1764
    92RH    C5340278   3.467   3.747  23.024 -0.1587  0.2528  0.0920
    82BTZ    N440279   3.228   3.486  22.695  0.1928 -0.3536  0.3695
    82BTZ    N540280   3.350   3.506  22.929  0.4172 -0.1269  0.2341
    82BTZ    S640281   3.260   3.382  22.837  0.4323 -0.2541  0.3899
    92RH    C5440282   3.516   3.851  23.093 -0.0232  0.1584  0.1397
    92RH     S740283   3.522   4.026  23.039 -0.0870  0.2258  0.3475
    92RH    C5540284   3.574   3.839  23.229  0.2070 -0.0215  0.0262
    92RH     O240285   3.585   3.733  23.294  0.3002 -0.1047 -0.1230
    92RH     N640286   3.617   3.964  23.278  0.3118 -0.0898  0.1094
    92RH    C5640287   3.601   4.075  23.198  0.1937  0.0132  0.2747
    92RH    C5740288   3.669   3.979  23.411 -0.2435  1.2605 -0.6797
    92RH    C5840289   3.585   3.980  23.533 -0.3286  0.7501  0.1689
    92RH     S840290   3.644   4.234  23.233  0.2794 -0.0367  0.4015
    72IDQ   C5940291   2.949   3.383  22.350  1.1034  0.3044 -0.3886
    72IDQ   C6040292   2.940   3.251  22.417 -1.1777 -0.4683 -0.6362
    72IDQ   C6140293   2.914   3.258  22.574 -0.0265 -0.1613 -0.1709
    72IDQ   C6240294   2.783   3.335  22.626 -0.2735  0.3415 -0.3796
    72IDQ   C6340295   2.803   3.489  22.642 -0.0648 -0.5197  0.0521
    72IDQ   C6440296   2.889   3.541  22.758  0.5020  0.4461  0.1148
    72IDQ   C6540297   2.833   3.495  22.898 -0.6375 -0.1354 -0.0613
    72IDQ   C6640298   3.126   3.530  21.925 -0.4134  0.6505 -1.0402
    72IDQ   C6740299   3.187   3.409  21.848 -0.2711  0.7542  0.3196
    72IDQ   C6840300   3.196   3.292  21.941  0.0546 -0.1474 -0.0148
    72IDQ   C6940301   3.230   3.152  21.889  0.2039 -0.2421 -0.0957
    72IDQ   C7040302   3.219   3.047  21.989  0.9127  0.2491  0.1342
    72IDQ   C7140303   3.126   3.043  22.111  0.5920  0.0235  0.7190
    72IDQ   C7240304   2.979   2.996  22.060  0.1978  0.7165  0.0152
    11RH     C140305   7.265   0.981  19.959 -0.1894 -0.0669  0.1054
    11RH     C240306   7.317   0.844  19.937 -0.1376 -0.0477  0.1078
    11RH     N140307   7.135   0.996  19.905 -0.0459 -0.0082 -0.2305
    11RH     S140308   7.193   0.744  19.848  0.0968  0.0464 -0.3305
    11RH     C340309   7.077   0.887  19.843  0.1148  0.0558 -0.4969
    11RH     C440310   7.057   1.120  19.938 -1.4158  0.2877 -0.1617
    11RH     S240311   6.925   0.879  19.771  0.3053  0.1333 -0.9170
    11RH     O140312   7.325   1.073  20.016 -0.3389 -0.1266  0.3600
    11RH     C540313   7.438   0.804  19.978 -0.2489 -0.0937  0.3939
    21BTZ    C640314   7.512   0.680  19.965 -0.2228  0.5097  0.2677
    21BTZ    C740315   7.464   0.571  19.897 -0.3222  0.5114  0.3352
    21BTZ    C840316   7.633   0.665  20.041 -0.1755  0.4765  0.1879
    21BTZ    C940317   7.531   0.443  19.901 -0.3798  0.4808  0.3271
    21BTZ   C1040318   7.646   0.424  19.972 -0.3380  0.4486  0.2521
    21BTZ   C1140319   7.701   0.535  20.045 -0.2341  0.4454  0.1798
    21BTZ    N240320   7.689   0.763  20.112 -0.0793  0.4715  0.1173
    21BTZ    N340321   7.812   0.529  20.118 -0.1850  0.4154  0.1020
    21BTZ    S340322   7.835   0.693  20.187 -0.0591  0.4259  0.0355
    31IDT   C1240323   7.705   0.283  19.977  0.5179 -0.0231  0.1917
    31IDT   C1340324   7.832   0.238  20.003  0.4876 -0.2239 -0.0033
    31IDT   C1440325   7.846   0.097  19.982  0.2819 -0.2156 -0.2060
    31IDT   C1540326   7.731   0.035  19.940  0.1545 -0.0089 -0.1672
    31IDT    S440327   7.594   0.150  19.923  0.2862  0.1931  0.1320
    4IDB    C1640328   7.760  -0.105  19.913  0.6255 -0.0861 -0.5536
    4IDB    C1740329   7.895  -0.137  19.950  0.3986 -0.5448 -0.0820
    51IDQ   C1840330   7.967  -0.001  19.978 -0.2242 -0.1779 -0.3953
    4IDB    C1940331   7.941  -0.268  19.947 -0.0023 -0.6895 -0.0328
    51IDQ   C2040332   8.011  -0.043  20.124 -0.8645  0.7841 -0.2235
    51IDQ   C2140333   8.072   0.056  19.876 -0.2623  0.5989  0.2224
    51IDQ   C2240334   8.102  -0.019  19.742  0.1027 -1.4306  0.5981
    51IDQ   C2340335   8.165  -0.008  20.158 -0.0033 -0.1855 -0.1652
    51IDQ   C2440336   8.162  -0.150  19.737  0.1695 -0.0823  0.6268
    51IDQ   C2540337   8.314  -0.164  19.763  0.7602 -0.3968 -0.1542
    51IDQ   C2640338   8.370  -0.200  19.897 -0.0525 -0.5396  0.0214
    51IDQ   C2740339   8.518  -0.179  19.889 -0.1540  0.4460  0.0760
    51IDQ   C2840340   8.601  -0.271  19.986  1.6402  0.9817  0.0260
    51IDQ   C2940341   8.725  -0.197  20.010 -0.3594  0.4109  0.2710
    51IDQ   C3040342   8.247  -0.112  20.214  0.7753  0.3791  0.2123
    51IDQ   C3140343   8.382  -0.069  20.264  0.0361  0.0654 -0.3813
    51IDQ   C3240344   8.389   0.055  20.368 -1.0325  0.1852 -0.0163
    51IDQ   C3340345   8.537   0.084  20.423 -0.7931  0.5739  0.7040
    51IDQ   C3440346   8.636   0.086  20.303 -0.4410 -0.1661 -0.5795
    51IDQ   C3540347   8.761   0.159  20.362  0.2156 -0.0845  0.7235
    4IDB    C3640348   7.671  -0.206  19.874  0.4513  0.2323 -0.9809
    4IDB    C3740349   7.719  -0.339  19.871  0.0411  0.0786 -0.9232
    11RH    C3840350   6.970   1.115  20.067 -0.1597  0.0702  0.6791
    4IDB    C3940351   7.851  -0.368  19.907 -0.1766 -0.3710 -0.4606
    62IDT   C4040352   7.874  -0.509  19.898 -0.1147 -0.0410 -0.1324
    72IDQ   C4140353   7.654  -0.467  19.816  0.6245 -0.3420 -1.5209
    62IDT   C4240354   7.768  -0.572  19.835 -0.1117 -0.3077  0.1287
    72IDQ   C4340355   7.609  -0.451  19.662 -1.0035 -0.1148 -0.4325
    72IDQ   C4440356   7.525  -0.501  19.898  0.0154 -0.8968  0.8663
    62IDT    S540357   8.005  -0.624  19.941  0.0790  0.2144 -0.0368
    62IDT   C4540358   7.906  -0.758  19.869  0.1576 -0.0666  0.3712
    62IDT   C4640359   7.786  -0.713  19.819  0.0422 -0.3225  0.4134
    82BTZ   C4740360   7.956  -0.907  19.874  0.1560  0.1048 -0.2458
    82BTZ   C4840361   8.067  -0.935  19.949  0.0500  0.1614 -0.0682
    82BTZ   C4940362   8.125  -1.067  19.952 -0.0897  0.1047  0.2942
    82BTZ   C5040363   8.072  -1.170  19.879 -0.1232 -0.0083  0.4772
    82BTZ   C5140364   7.897  -1.012  19.796  0.1261 -0.0135 -0.0648
    82BTZ   C5240365   7.956  -1.146  19.799 -0.0159 -0.0712  0.3033
    92RH    C5340366   8.148  -1.294  19.868 -0.4061 -0.4079  0.2426
    82BTZ    N440367   7.789  -0.997  19.719  0.2204 -0.0775 -0.2108
    82BTZ    N540368   7.896  -1.239  19.724 -0.0357 -0.1814  0.4539
    82BTZ    S640369   7.758  -1.157  19.645  0.1298 -0.2171  0.1246
    92RH    C5440370   8.267  -1.336  19.912 -0.3807 -0.3712  0.2089
    92RH     S740371   8.393  -1.237  20.001 -0.3203 -0.2914  0.0355
    92RH    C5540372   8.316  -1.475  19.894 -0.3985 -0.3906  0.3114
    92RH     O240373   8.255  -1.567  19.838 -0.4381 -0.4420  0.4382
    92RH     N640374   8.445  -1.492  19.950 -0.3643 -0.3428  0.2475
    92RH    C5640375   8.504  -1.383  20.011 -0.3214 -0.2874  0.1068
    92RH    C5740376   8.497  -1.636  19.951 -1.5005 -0.4562  0.3102
    92RH    C5840377   8.615  -1.649  19.848  0.4368  0.5126  0.0275
    92RH     S840378   8.656  -1.376  20.085 -0.2750 -0.2235  0.0052
    72IDQ   C5940379   7.528  -0.619  19.986  0.5970 -0.0113 -0.9937
    72IDQ   C6040380   7.392  -0.635  20.050  0.0268 -0.7348 -0.5109
    72IDQ   C6140381   7.299  -0.722  19.968 -0.6481 -0.3822 -0.4685
    72IDQ   C6240382   7.160  -0.748  20.017 -0.9626  0.1717 -0.5758
    72IDQ   C6340383   7.092  -0.801  19.892 -0.6428  0.7746 -0.0304
    72IDQ   C6440384   6.952  -0.822  19.901  0.4626  0.8266 -0.4614
    72IDQ   C6540385   6.912  -0.925  19.801  0.7303  0.7904 -0.6611
    72IDQ   C6640386   7.560  -0.576  19.577 -0.3965  0.0543 -0.5883
    72IDQ   C6740387   7.536  -0.555  19.431  0.0520 -0.3356 -0.0548
    72IDQ   C6840388   7.404  -0.489  19.391  0.6250  0.3719 -0.3700
    72IDQ   C6940389   7.264  -0.562  19.421  0.2810 -0.6964 -0.4620
    72IDQ   C7040390   7.232  -0.699  19.361  0.0050 -0.0958  0.2064
    72IDQ   C7140391   7.097  -0.752  19.386 -0.5506 -0.0857  0.5586
    72IDQ   C7240392   7.108  -0.889  19.315 -0.2191 -0.3667  1.0719
    11RH     C140393   1.263   2.019  19.369 -0.1253 -0.2027 -0.2122
    11RH     C240394   1.226   1.986  19.509  0.0552 -0.1481 -0.1512
    11RH     N140395   1.153   2.003  19.282 -0.2799 -0.0886 -0.0410
    11RH     S140396   1.049   1.936  19.516  0.0098  0.0496  0.1267
    11RH     C340397   1.033   1.961  19.334 -0.2454  0.0507  0.1497
    11RH     C440398   1.176   2.042  19.140  0.6272  0.1339 -1.1103
    11RH     S240399   0.888   1.934  19.253 -0.4034  0.2046  0.3767
    11RH     O140400   1.375   2.056  19.331 -0.1426 -0.3315 -0.3901
    11RH     C540401   1.311   1.993  19.611  0.2228 -0.2339 -0.2842
    21BTZ    C640402   1.314   1.948  19.746  0.4972  0.1369 -0.2396
    21BTZ    C740403   1.218   1.860  19.788  0.4692  0.1808 -0.2122
    21BTZ    C840404   1.395   2.014  19.845  0.5199  0.1405 -0.2604
    21BTZ    C940405   1.196   1.833  19.928  0.4621  0.2302 -0.2041
    21BTZ   C1040406   1.270   1.895  20.026  0.4831  0.2356 -0.2229
    21BTZ   C1140407   1.372   1.987  19.987  0.5127  0.1908 -0.2522
    21BTZ    N240408   1.492   2.102  19.816  0.5480  0.1006 -0.2880
    21BTZ    N340409   1.451   2.053  20.073  0.5350  0.1912 -0.2732
    21BTZ    S340410   1.559   2.154  19.973  0.5668  0.1259 -0.3053
    31IDT   C1240411   1.233   1.856  20.166 -0.7041  0.5883 -0.3021
    31IDT   C1340412   1.256   1.932  20.278 -0.5230  0.4555 -0.2480
    31IDT   C1440413   1.200   1.875  20.396  0.2933 -0.0570 -0.0916
    31IDT   C1540414   1.134   1.756  20.376  0.7387 -0.3175 -0.0255
    31IDT    S440415   1.138   1.705  20.204  0.1537  0.0694 -0.1576
    4IDB    C1640416   1.085   1.709  20.508 -0.1455  0.6983 -0.1755
    4IDB    C1740417   1.120   1.806  20.607  0.1523  0.5787 -0.1626
    51IDQ   C1840418   1.195   1.922  20.541  0.7174 -0.0663  1.1969
    4IDB    C1940419   1.083   1.789  20.739  0.4307  0.4884 -0.0948
    51IDQ   C2040420   1.091   2.042  20.570 -0.2191  0.2488 -0.1300
    51IDQ   C2140421   1.335   1.959  20.606  0.4462  0.3324 -0.1177
    51IDQ   C2240422   1.400   1.889  20.732  0.4401 -0.0660 -0.3451
    51IDQ   C2340423   0.987   2.087  20.469 -0.1106  0.5641 -0.5308
    51IDQ   C2440424   1.537   1.952  20.776  0.2452 -0.5470 -0.4076
    51IDQ   C2540425   1.592   1.892  20.904 -0.6667  0.2571  0.1661
    51IDQ   C2640426   1.743   1.916  20.912  0.7894 -0.0382 -0.9643
    51IDQ   C2740427   1.802   2.046  20.926  0.4580 -0.6644 -0.3307
    51IDQ   C2840428   1.759   2.141  21.029  1.2064 -0.6176 -0.6478
    51IDQ   C2940429   1.708   2.266  20.965  0.6257 -0.5113  0.1693
    51IDQ   C3040430   0.904   2.195  20.518 -0.2120 -0.6068 -0.3515
    51IDQ   C3140431   0.752   2.178  20.503 -0.4602 -1.1914  1.4797
    51IDQ   C3240432   0.646   2.271  20.554 -0.0038  0.1413 -0.4167
    51IDQ   C3340433   0.526   2.181  20.525  0.2067 -1.3572  0.4030
    51IDQ   C3440434   0.410   2.274  20.470  0.6369 -0.1478  0.4757
    51IDQ   C3540435   0.288   2.198  20.454 -0.0528 -0.9033  1.1421
    4IDB    C3640436   1.011   1.594  20.541 -0.1666  0.7284 -0.1192
    4IDB    C3740437   0.974   1.579  20.677  0.1203  0.6348 -0.0496
    11RH    C3840438   1.139   2.185  19.116  0.1083 -1.1081  0.4339
    4IDB    C3940439   1.009   1.674  20.773  0.4096  0.5184 -0.0380
    62IDT   C4040440   0.964   1.634  20.901 -0.2411 -0.0649 -0.0889
    72IDQ   C4140441   0.901   1.455  20.745 -0.2695 -0.7408 -1.4633
    62IDT   C4240442   0.903   1.510  20.895 -0.0379 -0.1995  0.5040
    72IDQ   C4340443   0.998   1.339  20.741 -0.1905  0.3749  0.1871
    72IDQ   C4440444   0.769   1.421  20.678  1.0287  0.2928  0.3842
    62IDT    S540445   0.959   1.703  21.067 -0.0927  0.5934 -0.3553
    62IDT   C4540446   0.871   1.555  21.122  0.2530  0.6550  0.3859
    62IDT   C4640447   0.850   1.465  21.020  0.2417  0.2073  0.7730
    82BTZ   C4740448   0.852   1.531  21.271 -0.1238 -0.0301  0.0715
    82BTZ   C4840449   0.922   1.613  21.356 -0.2878  0.0862  0.0958
    82BTZ   C4940450   0.889   1.623  21.496 -0.4080  0.0969  0.0663
    82BTZ   C5040451   0.785   1.551  21.551 -0.3639 -0.0086  0.0130
    82BTZ   C5140452   0.743   1.455  21.324 -0.0715 -0.1433  0.0153
    82BTZ   C5240453   0.709   1.465  21.466 -0.1936 -0.1324 -0.0143
    92RH    C5340454   0.768   1.544  21.696 -0.2901 -0.1024  0.2270
    82BTZ    N440455   0.667   1.372  21.251  0.0847 -0.2618 -0.0129
    82BTZ    N540456   0.606   1.390  21.507 -0.1356 -0.2421 -0.0668
    82BTZ    S640457   0.547   1.302  21.363  0.0821 -0.3666 -0.0809
    92RH    C5440458   0.846   1.584  21.797 -0.2473 -0.0388  0.1698
    92RH     S740459   1.007   1.669  21.785 -0.2383 -0.0727  0.0479
    92RH    C5540460   0.810   1.564  21.940 -0.1990  0.0728  0.1979
    92RH     O240461   0.707   1.509  21.982 -0.1924  0.1198  0.2766
    92RH     N640462   0.910   1.615  22.026 -0.1600  0.1213  0.1238
    92RH    C5640463   1.021   1.674  21.969 -0.1712  0.0621  0.0391
    92RH    C5740464   0.890   1.629  22.171  0.0692 -0.0902 -0.9613
    92RH    C5840465   0.821   1.757  22.218  0.4503  0.2165 -0.1964
    92RH     S840466   1.153   1.743  22.048 -0.1319  0.1007 -0.0591
    72IDQ   C5940467   0.641   1.411  20.751 -0.7625 -0.4850 -0.2745
    72IDQ   C6040468   0.523   1.376  20.666  0.0926 -0.2975  0.2046
    72IDQ   C6140469   0.500   1.460  20.538 -0.5632  0.2112 -0.8106
    72IDQ   C6240470   0.390   1.438  20.446  0.3401 -0.7391  0.0512
    72IDQ   C6340471   0.240   1.420  20.503 -0.1781  0.4287  0.5275
    72IDQ   C6440472   0.168   1.518  20.591  0.4552 -0.2398  0.6654
    72IDQ   C6540473   0.179   1.663  20.552  0.0637  0.1001  1.6117
    72IDQ   C6640474   0.949   1.215  20.799  0.2221  0.4116 -0.8480
    72IDQ   C6740475   1.060   1.127  20.866 -0.3971 -0.4977  0.8987
    72IDQ   C6840476   1.014   0.989  20.929  0.4361  0.7147  0.5227
    72IDQ   C6940477   1.136   0.909  20.981 -0.0439 -0.2278  1.1214
    72IDQ   C7040478   1.133   0.763  21.007 -0.4692  0.2735 -0.5941
    72IDQ   C7140479   1.231   0.728  21.123 -0.3794 -0.5866 -0.1934
    72IDQ   C7240480   1.232   0.581  21.156  0.1594  0.0273  0.2879
    11RH     C140481   3.807   5.514  12.472 -0.3539  0.0367  0.3045
    11RH     C240482   3.756   5.382  12.428 -0.1838 -0.0104  0.2451
    11RH     N140483   3.721   5.619  12.431 -0.3622 -0.0348  0.1376
    11RH     S140484   3.598   5.403  12.337 -0.0460 -0.1453 -0.0268
    11RH     C340485   3.608   5.586  12.360 -0.2196 -0.1333 -0.0489
    11RH     C440486   3.758   5.760  12.455  0.8182 -0.4398  1.3458
    11RH     S240487   3.490   5.691  12.300 -0.1963 -0.2323 -0.2699
    11RH     O140488   3.912   5.534  12.536 -0.4758  0.1268  0.4778
    11RH     C540489   3.818   5.266  12.454 -0.1425  0.0408  0.3751
    21BTZ    C640490   3.798   5.122  12.417 -0.1092  0.2070 -0.0336
    21BTZ    C740491   3.681   5.076  12.362 -0.0920  0.1978 -0.0632
    21BTZ    C840492   3.906   5.029  12.437 -0.0985  0.2203 -0.0293
    21BTZ    C940493   3.664   4.938  12.325 -0.0635  0.2012 -0.0899
    21BTZ   C1040494   3.763   4.846  12.343 -0.0523  0.2138 -0.0866
    21BTZ   C1140495   3.888   4.889  12.399 -0.0696  0.2238 -0.0563
    21BTZ    N240496   4.024   5.062  12.489 -0.1135  0.2300 -0.0014
    21BTZ    N340497   3.992   4.808  12.421 -0.0612  0.2364 -0.0503
    21BTZ    S340498   4.120   4.911  12.492 -0.0905  0.2443 -0.0088
    31IDT   C1240499   3.724   4.715  12.311 -0.5191  0.3895  0.5131
    31IDT   C1340500   3.776   4.597  12.358 -0.3805  0.4356  0.4790
    31IDT   C1440501   3.691   4.485  12.331 -0.1439  0.3114  0.2520
    31IDT   C1540502   3.576   4.516  12.263 -0.1007  0.1699  0.1117
    31IDT    S440503   3.564   4.692  12.228 -0.3587  0.1831  0.2574
    4IDB    C1640504   3.492   4.403  12.236 -0.5742  0.0334 -0.1803
    4IDB    C1740505   3.542   4.297  12.317  0.0319 -0.0799 -0.6876
    51IDQ   C1840506   3.683   4.334  12.376  0.4035 -0.5991 -0.0088
    4IDB    C1940507   3.474   4.177  12.328  0.1873 -0.1498 -0.4621
    51IDQ   C2040508   3.660   4.301  12.534  0.3748  0.3299  0.1318
    51IDQ   C2140509   3.811   4.260  12.319  0.3281 -0.9561  0.3464
    51IDQ   C2240510   3.810   4.137  12.222 -0.3676 -0.3694 -0.5055
    51IDQ   C2340511   3.690   4.408  12.640  0.3784 -0.0631 -0.4500
    51IDQ   C2440512   3.733   4.153  12.091 -0.0888 -1.0907  0.2805
    51IDQ   C2540513   3.755   4.049  11.978  0.7769  0.4684 -0.4617
    51IDQ   C2640514   3.692   4.098  11.840 -0.6573  0.7275  0.1432
    51IDQ   C2740515   3.720   4.020  11.715  0.4627  0.1638  0.1103
    51IDQ   C2840516   3.856   3.942  11.706 -0.3378  0.8813  0.4907
    51IDQ   C2940517   3.895   3.892  11.573  0.0492 -0.8123 -0.4250
    51IDQ   C3040518   3.838   4.456  12.670  0.0010 -0.5157  0.0155
    51IDQ   C3140519   3.854   4.571  12.766 -0.2023 -0.2513 -0.0385
    51IDQ   C3240520   3.822   4.712  12.724  0.5253 -0.0221  0.2659
    51IDQ   C3340521   3.879   4.817  12.817  0.6969  0.4311  1.2493
    51IDQ   C3440522   3.886   4.963  12.774 -0.2299 -0.8107 -0.7510
    51IDQ   C3540523   3.756   5.031  12.766  0.4767 -1.1237  0.0611
    4IDB    C3640524   3.372   4.389  12.164 -1.0311  0.0778  0.5598
    4IDB    C3740525   3.303   4.266  12.177 -0.8639  0.0052  0.7801
    11RH    C3840526   3.697   5.818  12.577 -0.0521  0.3177 -0.1826
    4IDB    C3940527   3.353   4.163  12.256 -0.2695 -0.1052  0.2777
    62IDT   C4040528   3.249   4.063  12.283  0.4264 -0.2569  0.1059
    72IDQ   C4140529   3.184   4.203  12.095 -1.3921 -0.1325 -1.3032
    62IDT   C4240530   3.157   4.067  12.180  0.4747 -0.0328  0.0713
    72IDQ   C4340531   3.226   4.173  11.947  0.1913 -0.0432  0.0697
    72IDQ   C4440532   3.054   4.282  12.105 -0.3820  0.3962  0.1895
    62IDT    S540533   3.219   3.925  12.394  0.2974 -0.4278 -0.1371
    62IDT   C4540534   3.076   3.879  12.292  0.3167 -0.1748 -0.2800
    62IDT   C4640535   3.059   3.964  12.186  0.4127  0.0139 -0.1473
    82BTZ   C4740536   2.993   3.759  12.326  0.1624 -0.1157  0.3226
    82BTZ   C4840537   2.985   3.726  12.458  0.3549 -0.3695  0.2708
    82BTZ   C4940538   2.913   3.609  12.503  0.5612 -0.5498  0.1397
    82BTZ   C5040539   2.848   3.526  12.415  0.5745 -0.4759  0.0598
    82BTZ   C5140540   2.927   3.675  12.230  0.1680 -0.0290  0.2427
    82BTZ   C5240541   2.853   3.557  12.275  0.3775 -0.2122  0.1090
    92RH    C5340542   2.790   3.394  12.450 -0.0070 -0.1974  0.0943
    82BTZ    N440543   2.927   3.698  12.098 -0.0085  0.2132  0.2816
    82BTZ    N540544   2.794   3.484  12.180  0.3696 -0.1172  0.0405
    82BTZ    S640545   2.831   3.565  12.025  0.0880  0.2174  0.1466
    92RH    C5440546   2.787   3.333  12.569  0.1191 -0.2331  0.0794
    92RH     S740547   2.853   3.397  12.727  0.0490 -0.1652  0.0814
    92RH    C5540548   2.727   3.198  12.590  0.3427 -0.3365  0.0582
    92RH     O240549   2.674   3.128  12.502  0.4380 -0.4013  0.0520
    92RH     N640550   2.738   3.158  12.725  0.4381 -0.3538  0.0453
    92RH    C5640551   2.799   3.243  12.814  0.3183 -0.2768  0.0541
    92RH    C5740552   2.695   3.020  12.774 -1.3230  0.1553  0.3126
    92RH    C5840553   2.800   2.915  12.741  0.0171  0.0446 -0.0708
    92RH     S840554   2.824   3.219  12.979  0.3935 -0.2780  0.0427
    72IDQ   C5940555   3.013   4.375  12.214 -0.5154  0.1262  0.2411
    72IDQ   C6040556   2.869   4.406  12.201  0.0127  0.2831  0.7711
    72IDQ   C6140557   2.827   4.506  12.306 -0.5289 -0.0401  0.0858
    72IDQ   C6240558   2.672   4.510  12.320 -0.9106  0.1255 -0.4331
    72IDQ   C6340559   2.643   4.579  12.459  0.5144  0.2434 -0.2767
    72IDQ   C6440560   2.495   4.603  12.496 -0.0718  1.8185  0.7456
    72IDQ   C6540561   2.476   4.685  12.622  0.7893  0.1220  0.9140
    72IDQ   C6640562   3.232   4.281  11.843  0.1594 -0.0552  0.3724
    72IDQ   C6740563   3.313   4.226  11.732 -1.3389  0.9143  0.1039
    72IDQ   C6840564   3.327   4.303  11.603  0.0177  0.2697  0.5909
    72IDQ   C6940565   3.422   4.254  11.495  0.2484 -0.4879  0.2077
    72IDQ   C7040566   3.391   4.119  11.435 -0.2804 -0.0462  0.4382
    72IDQ   C7140567   3.491   4.093  11.323  0.5788  0.4686 -0.4696
    72IDQ   C7240568   3.622   4.026  11.368  0.1732 -0.1702 -0.8544
    11RH     C140569   6.864   4.867  17.680 -0.3192  0.0548  0.0343
    11RH     C240570   6.841   4.961  17.568 -0.2875 -0.0328 -0.0443
    11RH     N140571   6.743   4.810  17.726 -0.3389  0.1341  0.0832
    11RH     S140572   6.662   4.967  17.528 -0.2856 -0.0050 -0.0498
    11RH     C340573   6.626   4.846  17.663 -0.3265  0.1210  0.0529
    11RH     C440574   6.741   4.692  17.824 -0.0177 -0.6629  0.0755
    11RH     S240575   6.470   4.793  17.697 -0.3449  0.2033  0.0987
    11RH     O140576   6.974   4.841  17.731 -0.3281  0.0600  0.0567
    11RH     C540577   6.939   5.028  17.507 -0.2645 -0.1178 -0.1025
    21BTZ    C640578   6.940   5.116  17.391 -0.0634 -0.0827 -0.1146
    21BTZ    C740579   6.831   5.145  17.313 -0.0101 -0.0755 -0.1874
    21BTZ    C840580   7.062   5.187  17.368 -0.1072  0.0658  0.1163
    21BTZ    C940581   6.837   5.246  17.210  0.0031  0.0770 -0.0372
    21BTZ   C1040582   6.951   5.318  17.185 -0.0371  0.2220  0.1845
    21BTZ   C1140583   7.068   5.290  17.264 -0.0938  0.2208  0.2685
    21BTZ    N240584   7.175   5.167  17.437 -0.1609  0.0744  0.2065
    21BTZ    N340585   7.185   5.353  17.249 -0.1367  0.3538  0.4816
    21BTZ    S340586   7.295   5.281  17.370 -0.1974  0.2854  0.4964
    31IDT   C1240587   6.950   5.418  17.078  0.4603  0.7115  0.1752
    31IDT   C1340588   7.026   5.420  16.964  0.9526  1.4076  0.4973
    31IDT   C1440589   6.987   5.522  16.873  0.6485  1.2983  0.5016
    31IDT   C1540590   6.882   5.600  16.916 -0.0755  0.5202  0.1824
    31IDT    S440591   6.822   5.548  17.077 -0.4321 -0.1408 -0.1503
    4IDB    C1640592   6.861   5.707  16.823 -0.2102 -0.9111 -0.4169
    4IDB    C1740593   6.947   5.695  16.710 -0.1568 -0.7657 -0.3910
    51IDQ   C1840594   7.041   5.569  16.739  1.3495 -0.1275  0.6567
    4IDB    C1940595   6.939   5.785  16.604 -0.1458 -0.6643 -0.3058
    51IDQ   C2040596   7.045   5.479  16.610  0.2329  0.8141  0.1787
    51IDQ   C2140597   7.183   5.611  16.750 -0.5793 -1.3520  0.8597
    51IDQ   C2240598   7.228   5.757  16.805 -0.1944  0.0462  0.2495
    51IDQ   C2340599   6.977   5.344  16.617 -0.1993 -0.4839  1.3249
    51IDQ   C2440600   7.181   5.819  16.924 -0.5999 -0.7313 -0.4727
    51IDQ   C2540601   7.223   5.746  17.056 -0.7542 -0.1040 -0.9707
    51IDQ   C2640602   7.126   5.782  17.174 -0.8890  0.6132 -0.1344
    51IDQ   C2740603   7.166   5.704  17.307 -0.1937 -0.5496  1.0331
    51IDQ   C2840604   7.251   5.782  17.400 -0.1406  0.3844  0.1067
    51IDQ   C2940605   7.276   5.717  17.537  0.2996  0.1140 -0.3709
    51IDQ   C3040606   7.020   5.264  16.490 -0.0298  0.6414 -0.7178
    51IDQ   C3140607   6.978   5.113  16.517 -0.0712 -0.6885  0.0144
    51IDQ   C3240608   7.042   5.027  16.408 -0.1655 -0.5408  0.4421
    51IDQ   C3340609   7.058   4.877  16.432 -0.2918 -0.8629 -0.3867
    51IDQ   C3440610   7.132   4.838  16.559 -0.0001  0.6975 -0.7882
    51IDQ   C3540611   7.124   4.681  16.569  0.7857 -0.8806  0.8132
    4IDB    C3640612   6.765   5.809  16.830 -0.2534 -0.9561 -0.3581
    4IDB    C3740613   6.758   5.900  16.721 -0.2413 -0.8507 -0.2713
    11RH    C3840614   6.751   4.552  17.765  0.6399 -0.0656 -0.3051
    4IDB    C3940615   6.843   5.887  16.612 -0.1889 -0.7091 -0.2471
    62IDT   C4040616   6.821   5.990  16.514 -0.4162 -0.1516 -0.4310
    72IDQ   C4140617   6.662   6.018  16.696 -0.1375  0.6254 -0.5318
    62IDT   C4240618   6.718   6.069  16.561 -0.0899  0.2472 -0.3724
    72IDQ   C4340619   6.699   6.126  16.815  0.5909 -0.1595  0.7726
    72IDQ   C4440620   6.518   5.965  16.722  0.0482  0.2856  0.2505
    62IDT    S540621   6.867   6.034  16.346 -0.2311 -0.2152 -0.3975
    62IDT   C4540622   6.738   6.163  16.349  0.3039  0.3273 -0.3009
    62IDT   C4640623   6.671   6.166  16.468  0.3176  0.5186 -0.2980
    82BTZ   C4740624   6.715   6.239  16.223 -0.1254  0.1122  0.2019
    82BTZ   C4840625   6.820   6.248  16.135 -0.0637  0.1014  0.2732
    82BTZ   C4940626   6.800   6.287  15.998  0.0262  0.0465  0.2444
    82BTZ   C5040627   6.676   6.319  15.949  0.0543  0.0019  0.1441
    82BTZ   C5140628   6.584   6.271  16.177 -0.0992  0.0668  0.0954
    82BTZ   C5240629   6.564   6.312  16.038 -0.0079  0.0107  0.0663
    92RH    C5340630   6.657   6.370  15.801 -0.3230  0.4273 -0.3579
    82BTZ    N440631   6.474   6.267  16.254 -0.1531  0.0718  0.0191
    82BTZ    N540632   6.438   6.340  16.002  0.0117 -0.0292 -0.0343
    82BTZ    S640633   6.338   6.315  16.148 -0.0881  0.0036 -0.0977
    92RH    C5440634   6.742   6.409  15.706 -0.1078  0.2856 -0.2248
    92RH     S740635   6.924   6.428  15.723 -0.1112  0.0635  0.0836
    92RH    C5540636   6.701   6.444  15.568  0.1754  0.2879 -0.3111
    92RH     O240637   6.584   6.442  15.525  0.2462  0.4183 -0.5124
    92RH     N640638   6.811   6.482  15.489  0.3612  0.1204 -0.1340
    92RH    C5640639   6.936   6.481  15.546  0.2617 -0.0157  0.0837
    92RH    C5740640   6.789   6.506  15.332 -0.3331 -0.4523 -0.1642
    92RH    C5840641   6.829   6.406  15.224  0.1281  1.0656  0.7791
    92RH     S840642   7.083   6.522  15.474  0.4387 -0.2265  0.3228
    72IDQ   C5940643   6.410   5.973  16.610  0.0097  0.2204  0.4726
    72IDQ   C6040644   6.344   6.106  16.567 -0.2649 -0.0351 -0.3845
    72IDQ   C6140645   6.254   6.157  16.676 -0.3832  0.7797  0.9760
    72IDQ   C6240646   6.122   6.085  16.714 -0.0434 -0.0727  0.4848
    72IDQ   C6340647   6.018   6.197  16.754  0.0573 -0.0658 -0.4754
    72IDQ   C6440648   6.048   6.301  16.866 -0.5971  0.3749  0.1230
    72IDQ   C6540649   5.949   6.387  16.926 -0.8549 -0.5274  0.1938
    72IDQ   C6640650   6.615   6.255  16.827  0.0254 -0.6474  0.6816
    72IDQ   C6740651   6.664   6.335  16.942  0.2955 -0.1508  0.2196
    72IDQ   C6840652   6.607   6.476  16.961  0.5023  0.2395  0.2130
    72IDQ   C6940653   6.455   6.469  16.989 -0.3126 -0.8301  0.6764
    72IDQ   C7040654   6.396   6.612  17.000  1.3038  0.9574  0.3917
    72IDQ   C7140655   6.245   6.609  16.988  0.9539  0.4021 -0.6341
    72IDQ   C7240656   6.191   6.730  16.908  1.7156 -0.9559 -0.0244
    11RH     C140657   5.114   3.439  18.746 -0.1006 -0.1554 -0.1469
    11RH     C240658   5.237   3.357  18.764 -0.0495 -0.0606 -0.0548
    11RH     N140659   5.020   3.375  18.663  0.0283 -0.2113 -0.2507
    11RH     S140660   5.219   3.200  18.669  0.1649 -0.0510 -0.1111
    11RH     C340661   5.052   3.251  18.612  0.1765 -0.1727 -0.2532
    11RH     C440662   4.893   3.431  18.629 -0.6755 -0.2576 -0.5246
    11RH     S240663   4.958   3.154  18.511  0.3483 -0.2240 -0.3653
    11RH     O140664   5.095   3.551  18.797 -0.2383 -0.1841 -0.1364
    11RH     C540665   5.341   3.395  18.838 -0.1485  0.0060  0.0513
    21BTZ    C640666   5.473   3.334  18.859  0.1667  0.0615 -0.2973
    21BTZ    C740667   5.509   3.214  18.803  0.1333  0.0735 -0.3443
    21BTZ    C840668   5.577   3.423  18.904  0.1848 -0.1197  0.0224
    21BTZ    C940669   5.647   3.176  18.789  0.1159 -0.0908 -0.0811
    21BTZ   C1040670   5.749   3.257  18.830  0.1322 -0.2670  0.2284
    21BTZ   C1140671   5.717   3.383  18.889  0.1671 -0.2868  0.2904
    21BTZ    N240672   5.555   3.542  18.960  0.2174 -0.1493  0.0982
    21BTZ    N340673   5.808   3.471  18.934  0.1857 -0.4507  0.5808
    21BTZ    S340674   5.716   3.610  18.997  0.2274 -0.3972  0.5241
    31IDT   C1240675   5.894   3.213  18.820  0.1320  0.1765  0.1034
    31IDT   C1340676   5.950   3.104  18.881  0.0176  0.3245  0.4768
    31IDT   C1440677   6.093   3.107  18.881  0.0176  0.4985  1.0605
    31IDT   C1540678   6.147   3.219  18.821  0.1312  0.4844  1.1356
    31IDT    S440679   6.020   3.329  18.758  0.2485  0.2476  0.4672
    4IDB    C1640680   6.288   3.213  18.831  0.2019 -0.2019  0.8072
    4IDB    C1740681   6.326   3.104  18.915  0.3601  0.0982  1.1301
    51IDQ   C1840682   6.204   3.020  18.941  1.3134  1.3442  0.0963
    4IDB    C1940683   6.457   3.088  18.958  0.5234  0.0453  0.6246
    51IDQ   C2040684   6.204   2.866  18.896 -0.2419  1.0226 -0.6447
    51IDQ   C2140685   6.176   3.005  19.095 -0.9029  0.4500 -0.0124
    51IDQ   C2240686   6.199   3.125  19.198 -0.3324  0.0589  0.2704
    51IDQ   C2340687   6.116   2.797  18.789  0.2554  1.0022 -0.2690
    51IDQ   C2440688   6.262   3.110  19.330  0.3158  1.2429  0.2544
    51IDQ   C2540689   6.279   3.243  19.394 -0.8084  0.3768  0.2861
    51IDQ   C2640690   6.412   3.306  19.357 -0.2181 -0.2706  0.0647
    51IDQ   C2740691   6.464   3.424  19.439 -0.2250  0.3220  0.2912
    51IDQ   C2840692   6.610   3.465  19.413  0.5692  0.8085  1.2254
    51IDQ   C2940693   6.644   3.601  19.464  0.2960 -0.0222 -0.0287
    51IDQ   C3040694   6.016   2.688  18.829  0.3535 -0.7052  0.2489
    51IDQ   C3140695   6.083   2.588  18.910  0.4426  0.5460 -0.3361
    51IDQ   C3240696   5.993   2.456  18.907  0.5423 -0.9913  0.0333
    51IDQ   C3340697   5.965   2.392  18.774  0.2823  0.0742  0.1221
    51IDQ   C3440698   6.069   2.318  18.706 -0.7117  0.3258  0.1779
    51IDQ   C3540699   6.037   2.279  18.561 -0.3331  0.7669 -0.1140
    4IDB    C3640700   6.382   3.308  18.789  0.2060 -0.5586 -0.0296
    4IDB    C3740701   6.516   3.291  18.834  0.3738 -0.6073 -0.5374
    11RH    C3840702   4.808   3.402  18.751  0.3944  0.3952 -0.2401
    4IDB    C3940703   6.551   3.183  18.916  0.5274 -0.3114 -0.2127
    62IDT   C4040704   6.697   3.192  18.941  0.0420  0.4048  0.7669
    72IDQ   C4140705   6.638   3.380  18.810  0.1560  0.8971 -0.6792
    62IDT   C4240706   6.752   3.308  18.890  0.0064  0.6346  1.2488
    72IDQ   C4340707   6.610   3.526  18.863  0.4054 -0.1229  0.5876
    72IDQ   C4440708   6.698   3.366  18.657  0.8883 -0.4117 -0.1624
    62IDT    S540709   6.823   3.081  19.005  0.0933  0.0814  0.1267
    62IDT   C4540710   6.949   3.204  18.958  0.0624  0.2838  0.5651
    62IDT   C4640711   6.894   3.316  18.900  0.0179  0.5665  1.1349
    82BTZ   C4740712   7.089   3.176  18.999  0.0850  0.1292 -0.1798
    82BTZ   C4840713   7.115   3.078  19.092  0.1521  0.2240 -0.0978
    82BTZ   C4940714   7.245   3.062  19.151  0.1178  0.4831  0.0558
    82BTZ   C5040715   7.351   3.142  19.116  0.0169  0.6472  0.1277
    82BTZ   C5140716   7.196   3.263  18.960 -0.0215  0.2934 -0.1097
    82BTZ   C5240717   7.329   3.246  19.019 -0.0563  0.5568  0.0467
    92RH    C5340718   7.490   3.116  19.168 -0.1451  0.3298  0.1474
    82BTZ    N440719   7.184   3.361  18.870 -0.0941  0.2232 -0.1760
    82BTZ    N540720   7.423   3.331  18.977 -0.1566  0.6983  0.1059
    82BTZ    S640721   7.345   3.438  18.858 -0.2121  0.4966 -0.0396
    92RH    C5440722   7.542   3.016  19.240 -0.1398  0.2918  0.0916
    92RH     S740723   7.457   2.862  19.292  0.0679 -0.0533 -0.5658
    92RH    C5540724   7.682   3.016  19.290 -0.3076  0.5326  0.5717
    92RH     O240725   7.765   3.106  19.272 -0.4698  0.7928  1.0724
    92RH     N640726   7.710   2.898  19.363 -0.2614  0.4304  0.3914
    92RH    C5640727   7.610   2.804  19.378 -0.0770  0.1372 -0.1745
    92RH    C5740728   7.850   2.863  19.409 -0.3792 -0.3062  0.5934
    92RH    C5840729   7.892   2.944  19.528 -0.7621  0.4931 -0.5910
    92RH     S840730   7.618   2.657  19.460  0.0144 -0.0389 -0.4959
    72IDQ   C5940731   6.623   3.416  18.533  0.1241 -0.2353  0.1662
    72IDQ   C6040732   6.514   3.521  18.539  0.0719 -0.4302 -0.1128
    72IDQ   C6140733   6.562   3.667  18.555  0.1561  0.1526 -0.3604
    72IDQ   C6240734   6.467   3.790  18.532 -0.6429  1.0626  1.5246
    72IDQ   C6340735   6.338   3.773  18.597  0.2234  0.0869 -1.5221
    72IDQ   C6440736   6.340   3.876  18.717  0.6518  0.3880  0.1983
    72IDQ   C6540737   6.204   3.935  18.745  0.5117  0.0891 -0.5625
    72IDQ   C6640738   6.551   3.562  19.003  0.0564  0.1625  1.1021
    72IDQ   C6740739   6.565   3.699  19.046 -0.3460 -0.0173  1.0886
    72IDQ   C6840740   6.450   3.733  19.144  0.3501  0.0768  0.2954
    72IDQ   C6940741   6.461   3.865  19.217 -1.2726  0.3597  0.4338
    72IDQ   C7040742   6.589   3.879  19.306  1.4549 -0.6556  0.5959
    72IDQ   C7140743   6.601   4.040  19.310 -0.5146  1.2494 -0.9177
    72IDQ   C7240744   6.676   4.088  19.434 -0.8884 -0.2861  0.5633
    11RH     C140745   3.492   4.197  13.282  0.0739  0.0529  0.0560
    11RH     C240746   3.637   4.186  13.314  0.0770 -0.2178 -0.0486
    11RH     N140747   3.451   4.095  13.195 -0.1424  0.2379 -0.0592
    11RH     S140748   3.708   4.041  13.226 -0.2048 -0.2119 -0.2917
    11RH     C340749   3.544   4.003  13.152 -0.3130  0.1482 -0.2429
    11RH     C440750   3.310   4.079  13.165  0.3195 -0.1428  0.4350
    11RH     S240751   3.520   3.872  13.048 -0.5837  0.3261 -0.4084
    11RH     O140752   3.416   4.284  13.326  0.2379  0.1152  0.2234
    11RH     C540753   3.702   4.271  13.394  0.2611 -0.4294  0.0281
    21BTZ    C640754   3.838   4.279  13.449  0.0440  0.1253 -0.1502
    21BTZ    C740755   3.933   4.181  13.437  0.0984  0.1851 -0.2100
    21BTZ    C840756   3.877   4.406  13.504 -0.0043  0.1446 -0.1607
    21BTZ    C940757   4.070   4.202  13.479  0.1080  0.2662 -0.2825
    21BTZ   C1040758   4.111   4.322  13.532  0.0636  0.2875 -0.2952
    21BTZ   C1140759   4.015   4.427  13.547  0.0057  0.2271 -0.2344
    21BTZ    N240760   3.793   4.509  13.521 -0.0592  0.0917 -0.1068
    21BTZ    N340761   4.043   4.548  13.597 -0.0415  0.2403 -0.2401
    21BTZ    S340762   3.890   4.641  13.593 -0.1016  0.1462 -0.1490
    31IDT   C1240763   4.257   4.335  13.561 -0.6305 -0.6158  0.3101
    31IDT   C1340764   4.311   4.447  13.618 -1.6211 -0.8237  1.7531
    31IDT   C1440765   4.450   4.432  13.649 -1.6588 -0.2317  2.2483
    31IDT   C1540766   4.502   4.309  13.615 -0.6998  0.4298  1.1884
    31IDT    S440767   4.379   4.202  13.541  0.3351  0.3536 -0.5346
    4IDB    C1640768   4.641   4.314  13.640 -0.0067  0.1209  0.2763
    4IDB    C1740769   4.683   4.441  13.692  0.0101 -0.0008  0.5682
    51IDQ   C1840770   4.565   4.536  13.696  0.3617  0.7996  0.0846
    4IDB    C1940771   4.817   4.466  13.719  0.0380 -0.0225  0.4553
    51IDQ   C2040772   4.555   4.582  13.851  0.4506 -0.0992  0.1686
    51IDQ   C2140773   4.587   4.665  13.608  0.3235 -0.4966  0.3758
    51IDQ   C2240774   4.721   4.706  13.542 -0.0559 -0.4501 -0.5121
    51IDQ   C2340775   4.454   4.513  13.937 -0.1284 -0.4854 -0.3283
    51IDQ   C2440776   4.682   4.839  13.480 -0.0675 -0.7216 -0.6832
    51IDQ   C2540777   4.800   4.913  13.429  0.4971 -0.6307  0.1254
    51IDQ   C2640778   4.753   5.017  13.327  0.0497  0.4770 -0.6629
    51IDQ   C2740779   4.703   4.962  13.199 -0.5332 -0.1885  0.8253
    51IDQ   C2840780   4.806   4.891  13.105  0.3861  0.7203  0.4656
    51IDQ   C2940781   4.915   4.992  13.071 -0.5001 -0.5713 -0.2274
    51IDQ   C3040782   4.501   4.372  13.990 -0.9065  0.5366  0.5826
    51IDQ   C3140783   4.407   4.254  14.000  0.5367 -0.1542 -0.4296
    51IDQ   C3240784   4.455   4.116  14.039 -0.8646  1.1794 -0.4371
    51IDQ   C3340785   4.333   4.039  14.090 -0.3734  0.0459  0.9792
    51IDQ   C3440786   4.355   3.895  14.119  0.7755  0.1724 -0.2578
    51IDQ   C3540787   4.223   3.827  14.121  0.4946  0.1915 -0.0925
    4IDB    C3640788   4.734   4.212  13.617  0.0042  0.2221 -0.1326
    4IDB    C3740789   4.870   4.239  13.646  0.0327  0.1980 -0.2425
    11RH    C3840790   3.242   3.994  13.264 -0.2111  0.5844 -0.6421
    4IDB    C3940791   4.909   4.364  13.696  0.0490  0.0786  0.0463
    62IDT   C4040792   5.049   4.379  13.696  0.2838 -0.3004 -0.8334
    72IDQ   C4140793   4.999   4.151  13.632  0.5886 -0.4245  0.6165
    62IDT   C4240794   5.103   4.268  13.635  0.4628 -0.4272 -0.4537
    72IDQ   C4340795   5.016   4.080  13.497 -0.5630  0.3780  0.8326
    72IDQ   C4440796   5.016   4.054  13.763 -0.8010 -0.5908  0.2444
    62IDT    S540797   5.176   4.500  13.737  0.1473 -0.1550 -0.8385
    62IDT   C4540798   5.300   4.388  13.666  0.3491 -0.2795 -0.3009
    62IDT   C4640799   5.244   4.273  13.618  0.5000 -0.4156 -0.1523
    82BTZ   C4740800   5.444   4.426  13.669 -0.1510 -0.0368  0.3611
    82BTZ   C4840801   5.490   4.528  13.748 -0.1844  0.0948  0.2110
    82BTZ   C4940802   5.631   4.560  13.756 -0.2197  0.3177 -0.0331
    82BTZ   C5040803   5.725   4.490  13.685 -0.2219  0.4088 -0.1269
    82BTZ   C5140804   5.539   4.350  13.593 -0.1518  0.0510  0.2716
    82BTZ   C5240805   5.681   4.382  13.601 -0.1876  0.2776  0.0234
    92RH    C5340806   5.872   4.514  13.698 -0.2936  0.0419  0.2603
    82BTZ    N440807   5.506   4.248  13.513 -0.1212 -0.0610  0.4005
    82BTZ    N540808   5.763   4.307  13.528 -0.1860  0.3479 -0.0470
    82BTZ    S640809   5.659   4.188  13.443 -0.1374  0.1224  0.2058
    92RH    C5440810   5.933   4.612  13.765 -0.1107  0.0206  0.1273
    92RH     S740811   5.852   4.751  13.853  0.1560  0.4513 -0.3005
    92RH    C5540812   6.080   4.623  13.779 -0.0967 -0.3700  0.3145
    92RH     O240813   6.163   4.544  13.731 -0.2493 -0.7166  0.6101
    92RH     N640814   6.117   4.736  13.855  0.1155 -0.3022  0.1135
    92RH    C5640815   6.017   4.817  13.904  0.2731  0.0949 -0.2115
    92RH    C5740816   6.251   4.799  13.861 -0.7146 -0.2371 -0.2986
    92RH    C5840817   6.341   4.722  13.967 -0.7047 -0.4649  0.6297
    92RH     S840818   6.034   4.957  13.996  0.5366  0.2576 -0.5007
    72IDQ   C5940819   4.898   3.973  13.808 -0.5740  0.4485 -0.4004
    72IDQ   C6040820   4.948   3.869  13.910  0.3374 -0.8214 -0.6024
    72IDQ   C6140821   4.996   3.746  13.839 -0.6575 -0.0619  0.5486
    72IDQ   C6240822   5.073   3.639  13.925 -0.2285  0.2935  0.0378
    72IDQ   C6340823   5.207   3.691  13.984 -0.4459 -0.1779  0.1583
    72IDQ   C6440824   5.286   3.608  14.097 -0.3511  1.0427 -0.2098
    72IDQ   C6540825   5.400   3.695  14.139 -1.2984 -0.0854 -0.1825
    72IDQ   C6640826   5.142   3.995  13.478 -1.0728 -0.3088  0.5469
    72IDQ   C6740827   5.148   3.898  13.357 -0.3226 -0.8818  0.6822
    72IDQ   C6840828   5.301   3.876  13.325  1.0124  0.1432 -0.6729
    72IDQ   C6940829   5.357   3.765  13.407  0.0371  0.1997 -0.0362
    72IDQ   C7040830   5.499   3.747  13.364  0.0763  0.7288  0.9539
    72IDQ   C7140831   5.575   3.636  13.459 -0.1463 -1.3237  1.2886
    72IDQ   C7240832   5.729   3.607  13.453  0.2461 -0.3725 -0.0605
    11RH     C140833   6.273   2.083  18.977 -0.2749  0.0865 -0.0896
    11RH     C240834   6.199   2.086  19.106 -0.2888  0.2331 -0.1006
    11RH     N140835   6.357   2.196  18.963 -0.1858  0.0113 -0.1570
    11RH     S140836   6.245   2.238  19.200 -0.1836  0.2626 -0.2002
    11RH     C340837   6.360   2.289  19.064 -0.1265  0.0799 -0.2217
    11RH     C440838   6.411   2.213  18.834 -0.7721 -0.8858 -0.0675
    11RH     S240839   6.450   2.431  19.071 -0.0170  0.0148 -0.3095
    11RH     O140840   6.264   1.994  18.892 -0.3331  0.0337 -0.0286
    11RH     C540841   6.113   1.992  19.145 -0.3673  0.3265 -0.0463
    21BTZ    C640842   6.039   1.961  19.263  0.3169 -0.1455 -0.0155
    21BTZ    C740843   6.042   2.040  19.375  0.2874 -0.1822  0.0110
    21BTZ    C840844   5.954   1.845  19.263  0.3271 -0.1531 -0.0710
    21BTZ    C940845   5.963   2.009  19.492  0.2666 -0.2276 -0.0153
    21BTZ   C1040846   5.881   1.900  19.497  0.2752 -0.2365 -0.0676
    21BTZ   C1140847   5.874   1.814  19.382  0.3060 -0.1993 -0.0973
    21BTZ    N240848   5.943   1.760  19.161  0.3551 -0.1203 -0.1011
    21BTZ    N340849   5.798   1.704  19.375  0.3170 -0.2037 -0.1483
    21BTZ    S340850   5.826   1.635  19.212  0.3559 -0.1478 -0.1660
    31IDT   C1240851   5.822   1.865  19.629 -0.4103 -0.2423  0.2173
    31IDT   C1340852   5.722   1.775  19.656 -0.1390 -0.4746  0.4730
    31IDT   C1440853   5.692   1.766  19.796  0.1180 -0.4166  0.5326
    31IDT   C1540854   5.769   1.848  19.876  0.0447 -0.1405  0.3246
    31IDT    S440855   5.887   1.944  19.780 -0.3596  0.0696  0.0330
    4IDB    C1640856   5.715   1.848  20.011  0.1530  0.1391  0.1015
    4IDB    C1740857   5.603   1.760  20.017 -0.1686  0.5366 -0.0014
    51IDQ   C1840858   5.592   1.686  19.875  1.8105  0.1392  0.1932
    4IDB    C1940859   5.537   1.738  20.137 -0.0319  0.3743  0.0460
    51IDQ   C2040860   5.592   1.531  19.848 -0.7635 -0.3677  0.2535
    51IDQ   C2140861   5.432   1.709  19.830 -0.7521  0.0718  0.7485
    51IDQ   C2240862   5.321   1.784  19.901  1.0863  0.3261  1.0641
    51IDQ   C2340863   5.717   1.452  19.795 -0.4897 -0.0868 -0.1924
    51IDQ   C2440864   5.274   1.890  19.812  0.7046  0.0610  0.0357
    51IDQ   C2540865   5.153   1.962  19.870  0.3373 -0.4986  0.0577
    51IDQ   C2640866   5.027   2.021  19.800 -0.5165  0.5566 -0.3376
    51IDQ   C2740867   5.060   2.137  19.707  0.3078 -1.4027 -0.1515
    51IDQ   C2840868   5.027   2.292  19.726  0.5293 -0.6616  0.1454
    51IDQ   C2940869   5.050   2.388  19.606  0.2586  0.4212 -0.2473
    51IDQ   C3040870   5.682   1.306  19.750 -0.4567 -0.1248 -0.4756
    51IDQ   C3140871   5.770   1.261  19.639 -0.8230 -0.2552 -0.6711
    51IDQ   C3240872   5.792   1.109  19.652 -0.7135 -0.6543  0.6508
    51IDQ   C3340873   5.892   1.074  19.538  0.3391  0.1556 -0.3807
    51IDQ   C3440874   5.998   0.982  19.586 -0.7011  0.3323  0.6416
    51IDQ   C3540875   6.118   0.993  19.496  0.3113 -0.5686 -0.2694
    4IDB    C3640876   5.762   1.915  20.125  0.6157 -0.4265  0.2522
    4IDB    C3740877   5.693   1.891  20.247  0.7490 -0.5846  0.2980
    11RH    C3840878   6.552   2.160  18.807 -0.2782  0.1999  0.0190
    4IDB    C3940879   5.583   1.805  20.252  0.4307 -0.1913  0.1967
    62IDT   C4040880   5.545   1.783  20.396 -0.4343  0.3222 -0.3277
    72IDQ   C4140881   5.720   1.953  20.391 -0.3558  0.1223  0.2665
    62IDT   C4240882   5.627   1.861  20.474 -0.3251  0.4224 -0.5412
    72IDQ   C4340883   5.682   2.111  20.422  0.0463  0.2620 -0.0051
    72IDQ   C4440884   5.855   1.915  20.454  0.4382 -0.3684 -0.2931
    62IDT    S540885   5.432   1.684  20.495 -0.1333  0.2651 -0.0369
    62IDT   C4540886   5.506   1.757  20.644  0.1373  0.3857 -0.2271
    62IDT   C4640887   5.605   1.847  20.615 -0.0019  0.4584 -0.4835
    82BTZ   C4740888   5.468   1.695  20.772 -0.0692 -0.1074 -0.0594
    82BTZ   C4840889   5.422   1.567  20.766  0.1068 -0.1769  0.0539
    82BTZ   C4940890   5.367   1.500  20.881  0.3110 -0.1931  0.1416
    82BTZ   C5040891   5.359   1.562  21.003  0.3394 -0.1398  0.1168
    82BTZ   C5140892   5.462   1.765  20.897 -0.0477 -0.0496 -0.0901
    82BTZ   C5240893   5.406   1.697  21.015  0.1601 -0.0661 -0.0010
    92RH    C5340894   5.304   1.505  21.125  0.1019 -0.1256  0.0673
    82BTZ    N440895   5.504   1.890  20.916 -0.2072  0.0202 -0.1969
    82BTZ    N540896   5.404   1.767  21.128  0.1675 -0.0095 -0.0362
    82BTZ    S640897   5.473   1.927  21.089 -0.0962  0.0689 -0.1881
    92RH    C5440898   5.256   1.386  21.162  0.1093 -0.0979  0.1659
    92RH     S740899   5.267   1.228  21.068  0.1250 -0.1763  0.2995
    92RH    C5540900   5.183   1.363  21.289  0.1062  0.0041  0.1826
    92RH     O240901   5.159   1.449  21.375  0.0964  0.0747  0.1087
    92RH     N640902   5.144   1.228  21.303  0.1159  0.0124  0.2952
    92RH    C5640903   5.176   1.140  21.202  0.1265 -0.0706  0.3705
    92RH    C5740904   5.104   1.179  21.432  0.1726  0.1244 -1.1647
    92RH    C5840905   4.951   1.159  21.454 -0.2639  0.2914  0.4740
    92RH     S840906   5.141   0.975  21.193  0.1391 -0.0805  0.5083
    72IDQ   C5940907   5.993   1.939  20.405  0.2074 -1.1774  0.8630
    72IDQ   C6040908   6.102   1.919  20.504  0.6815 -0.4405 -0.1781
    72IDQ   C6140909   6.230   2.008  20.481  0.4982  1.6735  0.0448
    72IDQ   C6240910   6.216   2.151  20.521 -0.8724  0.3942  0.2920
    72IDQ   C6340911   6.349   2.235  20.503  0.2837  0.4146  0.9902
    72IDQ   C6440912   6.339   2.377  20.552  0.6365  0.0498 -0.5153
    72IDQ   C6540913   6.414   2.489  20.493 -0.3086 -0.1370  0.2529
    72IDQ   C6640914   5.753   2.214  20.338 -0.8940  0.3258  0.3655
    72IDQ   C6740915   5.708   2.356  20.334 -0.0027 -0.9140  0.0195
    72IDQ   C6840916   5.706   2.422  20.474  0.8881 -0.1807 -0.1377
    72IDQ   C6940917   5.840   2.452  20.533  0.1989  0.0992 -0.4294
    72IDQ   C7040918   5.830   2.466  20.687 -0.6927 -0.0552  0.6096
    72IDQ   C7140919   5.961   2.435  20.768  0.3610  0.0953  0.1737
    72IDQ   C7240920   5.993   2.287  20.768 -0.1327  1.5782 -0.2780
    11RH     C140921   7.251   0.948  20.598  0.5034 -0.0290 -0.2351
    11RH     C240922   7.241   1.062  20.504  0.2028 -0.0717 -0.2594
    11RH     N140923   7.134   0.936  20.676  0.6531 -0.1423 -0.0269
    11RH     S140924   7.080   1.146  20.524  0.1366 -0.2581 -0.0069
    11RH     C340925   7.032   1.026  20.656  0.5094 -0.2705  0.1192
    11RH     C440926   7.131   0.824  20.774  0.2205  0.3926 -0.0352
    11RH     S240927   6.883   1.034  20.736  0.6374 -0.4211  0.3757
    11RH     O140928   7.348   0.871  20.609  0.6150  0.0903 -0.3772
    11RH     C540929   7.339   1.095  20.419  0.0149  0.0158 -0.4414
    21BTZ    C640930   7.355   1.194  20.319 -0.3554  0.0205 -0.0387
    21BTZ    C740931   7.262   1.291  20.294 -0.2869  0.0888 -0.0315
    21BTZ    C840932   7.479   1.196  20.246 -0.2745  0.0521  0.0973
    21BTZ    C940933   7.285   1.394  20.196 -0.1366  0.1908  0.1097
    21BTZ   C1040934   7.401   1.401  20.124 -0.0550  0.2244  0.2428
    21BTZ   C1140935   7.502   1.301  20.147 -0.1217  0.1558  0.2408
    21BTZ    N240936   7.577   1.108  20.262 -0.3290 -0.0074  0.1040
    21BTZ    N340937   7.619   1.297  20.082 -0.0534  0.1796  0.3629
    21BTZ    S340938   7.706   1.156  20.148 -0.1844  0.0682  0.2991
    31IDT   C1240939   7.408   1.514  20.030 -0.3392 -0.0053 -0.4134
    31IDT   C1340940   7.449   1.508  19.900 -0.5314  0.0637 -0.4773
    31IDT   C1440941   7.417   1.626  19.826 -0.6460  0.1000 -0.3705
    31IDT   C1540942   7.353   1.723  19.900 -0.5422  0.0590 -0.2255
    31IDT    S440943   7.326   1.671  20.070 -0.2890 -0.0296 -0.2120
    4IDB    C1640944   7.330   1.839  19.821 -0.2959  0.0326  0.1314
    4IDB    C1740945   7.370   1.809  19.687 -0.5774 -0.1843  0.0935
    51IDQ   C1840946   7.437   1.671  19.679 -0.5209  1.0592  1.0139
    4IDB    C1940947   7.354   1.903  19.585 -0.3333 -0.1609  0.0751
    51IDQ   C2040948   7.355   1.602  19.565  1.2624 -0.3061  0.7101
    51IDQ   C2140949   7.584   1.659  19.642 -0.0351  0.5980  0.6323
    51IDQ   C2240950   7.672   1.768  19.589 -0.1239 -0.5538 -0.5479
    51IDQ   C2340951   7.252   1.496  19.618 -0.1891  0.0546 -0.0374
    51IDQ   C2440952   7.816   1.715  19.555  0.0548  0.2714 -0.7499
    51IDQ   C2540953   7.913   1.805  19.503 -0.4466  0.6025 -0.8963
    51IDQ   C2640954   8.034   1.803  19.599 -0.6178  0.2227  0.6080
    51IDQ   C2740955   8.053   1.917  19.711  0.8009  0.1571  0.3141
    51IDQ   C2840956   8.185   1.912  19.796 -0.1210 -0.5854 -0.4418
    51IDQ   C2940957   8.218   1.780  19.877  0.3461 -0.6757  0.7760
    51IDQ   C3040958   7.181   1.436  19.514 -0.3425 -0.1209  0.9131
    51IDQ   C3140959   7.051   1.361  19.549 -0.3023  0.8786  0.4922
    51IDQ   C3240960   7.010   1.241  19.453  0.6010 -1.3593 -0.4026
    51IDQ   C3340961   6.874   1.182  19.490 -0.1531 -0.1948 -0.4223
    51IDQ   C3440962   6.836   1.046  19.439  0.9617  0.0889  0.1084
    51IDQ   C3540963   6.818   1.037  19.294 -0.3630 -0.7335 -0.4849
    4IDB    C3640964   7.273   1.963  19.854  0.2351  0.2758  0.1507
    4IDB    C3740965   7.257   2.057  19.749  0.4781  0.2961  0.1316
    11RH    C3840966   7.073   0.689  20.704  0.3681 -0.0164 -0.0791
    4IDB    C3940967   7.297   2.027  19.618  0.1976  0.0823  0.0942
    62IDT   C4040968   7.275   2.143  19.533 -0.0042  0.2951 -0.0244
    72IDQ   C4140969   7.197   2.195  19.761 -0.2808 -0.7144  0.9319
    62IDT   C4240970   7.215   2.240  19.610  0.4027  0.4171  0.1469
    72IDQ   C4340971   7.295   2.295  19.843  0.2391  0.6403 -0.0927
    72IDQ   C4440972   7.041   2.230  19.805  1.0264 -0.4316 -0.3734
    62IDT    S540973   7.303   2.199  19.365 -0.0125  0.3772  0.0015
    62IDT   C4540974   7.228   2.358  19.410  0.5627  0.5821  0.2548
    62IDT   C4640975   7.188   2.362  19.541  0.7240  0.5795  0.3047
    82BTZ   C4740976   7.234   2.473  19.320 -0.4275 -0.4364 -0.0316
    82BTZ   C4840977   7.321   2.467  19.215 -0.3575 -0.4512  0.0272
    82BTZ   C4940978   7.316   2.563  19.107 -0.1899 -0.3775  0.0844
    82BTZ   C5040979   7.224   2.665  19.105 -0.0926 -0.2890  0.0842
    82BTZ   C5140980   7.136   2.577  19.323 -0.3306 -0.3449 -0.0348
    82BTZ   C5240981   7.131   2.675  19.213 -0.1603 -0.2699  0.0238
    92RH    C5340982   7.203   2.751  18.991 -0.1443 -0.2996 -0.0620
    82BTZ    N440983   7.045   2.593  19.420 -0.3852 -0.3218 -0.0892
    82BTZ    N540984   7.037   2.769  19.223 -0.0780 -0.1866  0.0167
    82BTZ    S640985   6.948   2.737  19.375 -0.2173 -0.2007 -0.0669
    92RH    C5440986   7.254   2.760  18.868 -0.0597 -0.3372 -0.0300
    92RH     S740987   7.378   2.649  18.792  0.1254 -0.2558  0.1515
    92RH    C5540988   7.216   2.866  18.771 -0.1055 -0.4551 -0.1407
    92RH     O240989   7.134   2.957  18.792 -0.2247 -0.5314 -0.2737
    92RH     N640990   7.285   2.851  18.649  0.0051 -0.4714 -0.0764
    92RH    C5640991   7.374   2.747  18.636  0.1335 -0.3812  0.0725
    92RH    C5740992   7.264   2.950  18.548  0.3377 -0.4916 -0.2037
    92RH    C5840993   7.159   2.920  18.439  0.3439 -0.0645 -0.5705
    92RH     S840994   7.468   2.707  18.502  0.2812 -0.3783  0.1750
    72IDQ   C5940995   6.915   2.175  19.747  0.1528 -0.5607 -0.1437
    72IDQ   C6040996   6.916   2.027  19.786  0.8037  0.6537  0.2441
    72IDQ   C6140997   6.780   1.954  19.759 -0.2850 -0.3740 -0.4696
    72IDQ   C6240998   6.760   1.804  19.817  0.5660  1.2285 -0.3209
    72IDQ   C6340999   6.853   1.685  19.792 -0.3421 -0.6530  0.2906
    72IDQ   C6441000   6.882   1.567  19.884  0.0704  0.7431  0.0063
    72IDQ   C6541001   6.920   1.613  20.023  0.1180  0.3922  0.1878
    72IDQ   C6641002   7.308   2.266  19.994 -0.7032  0.3294  0.0582
    72IDQ   C6741003   7.205   2.346  20.070  0.1295 -0.0336  0.6270
    72IDQ   C6841004   7.224   2.354  20.220  0.2103 -0.4520 -0.7365
    72IDQ   C6941005   7.145   2.481  20.275 -0.8971  0.5788 -0.0786
    72IDQ   C7041006   7.183   2.492  20.424  0.4599 -0.7306 -0.0711
    72IDQ   C7141007   7.085   2.592  20.490  0.6290 -0.9767  0.6689
    72IDQ   C7241008   6.936   2.548  20.495  0.3069  0.0965 -1.3754
    11RH     C141009   1.348   0.347  27.862  0.3421 -0.0120  0.3190
    11RH     C241010   1.320   0.400  27.998  0.2168  0.3130  0.1683
    11RH     N141011   1.231   0.341  27.784  0.3925 -0.3185  0.2659
    11RH     S141012   1.141   0.438  28.013  0.1735  0.1945 -0.0338
    11RH     C341013   1.112   0.382  27.840  0.3230 -0.2787  0.0906
    11RH     C441014   1.247   0.279  27.654  0.9848  0.7704 -0.4777
    11RH     S241015   0.960   0.385  27.768  0.3614 -0.5985 -0.0057
    11RH     O141016   1.460   0.312  27.820  0.3978 -0.0216  0.4740
    11RH     C541017   1.414   0.416  28.092  0.1486  0.6388  0.1824
    21BTZ    C641018   1.405   0.458  28.228  0.0446 -0.5115 -0.2278
    21BTZ    C741019   1.300   0.509  28.299  0.0294 -0.3608 -0.3605
    21BTZ    C841020   1.533   0.448  28.293  0.0362 -0.3528 -0.1855
    21BTZ    C941021   1.314   0.553  28.435  0.0053 -0.0486 -0.4568
    21BTZ   C1041022   1.434   0.546  28.501 -0.0035  0.1123 -0.4210
    21BTZ   C1141023   1.547   0.492  28.432  0.0118 -0.0356 -0.2842
    21BTZ    N241024   1.643   0.399  28.235  0.0493 -0.4751 -0.0601
    21BTZ    N341025   1.669   0.480  28.485  0.0052  0.0972 -0.2375
    21BTZ    S341026   1.773   0.409  28.357  0.0306 -0.1837 -0.0616
    31IDT   C1241027   1.425   0.563  28.645  0.2407  0.0605 -0.2663
    31IDT   C1341028   1.525   0.564  28.739  0.2995 -0.3692 -0.3182
    31IDT   C1441029   1.475   0.572  28.872  0.3878 -0.8126 -0.2573
    31IDT   C1541030   1.338   0.576  28.881  0.3969 -0.7241 -0.1588
    31IDT    S441031   1.259   0.571  28.720  0.2935 -0.0663 -0.1353
    4IDB    C1641032   1.292   0.600  29.014  0.3145  0.0621  0.0615
    4IDB    C1741033   1.406   0.601  29.100  0.0990  0.1150  0.3495
    51IDQ   C1841034   1.534   0.580  29.014 -0.0170  0.2172 -0.5755
    4IDB    C1941035   1.391   0.606  29.238 -0.2517  0.0595  0.3157
    51IDQ   C2041036   1.629   0.701  29.070  0.0636  0.5182  0.3943
    51IDQ   C2141037   1.613   0.442  29.036  0.9689  0.5104  0.0430
    51IDQ   C2241038   1.545   0.314  29.106 -0.2501 -0.3585 -0.4358
    51IDQ   C2341039   1.722   0.755  28.962 -0.0341  0.3238 -1.3472
    51IDQ   C2441040   1.542   0.319  29.261  0.4646  1.7992  0.1794
    51IDQ   C2541041   1.455   0.204  29.339 -0.9160 -0.0073 -0.2516
    51IDQ   C2641042   1.304   0.206  29.312 -0.8678  0.2057 -0.1151
    51IDQ   C2741043   1.224   0.092  29.367  0.1998 -0.0377 -0.1892
    51IDQ   C2841044   1.213  -0.028  29.274 -0.1486  0.2614  0.2653
    51IDQ   C2941045   1.175  -0.158  29.349  0.0959  0.1948  0.8440
    51IDQ   C3041046   1.735   0.897  29.017 -0.0043 -0.3207  0.0624
    51IDQ   C3141047   1.785   1.012  28.922  0.3084 -0.9831 -0.2546
    51IDQ   C3241048   1.708   1.013  28.792 -0.8584 -0.3776 -1.0124
    51IDQ   C3341049   1.708   1.147  28.710 -0.1898  0.1324 -0.1035
    51IDQ   C3441050   1.590   1.230  28.755  0.4141  0.6068 -0.6619
    51IDQ   C3541051   1.580   1.327  28.654 -0.5200 -0.7948  0.3515
    4IDB    C3641052   1.162   0.603  29.066  0.1794 -0.0474 -0.2639
    4IDB    C3741053   1.148   0.608  29.207 -0.1796 -0.1028 -0.2936
    11RH    C3841054   1.295   0.365  27.547 -0.1270  0.0870 -0.9999
    4IDB    C3941055   1.261   0.609  29.290 -0.3869 -0.0500 -0.0097
    62IDT   C4041056   1.225   0.630  29.431 -0.1680 -0.2400 -0.1116
    72IDQ   C4141057   1.018   0.615  29.299 -1.0848 -0.0696 -0.5510
    62IDT   C4241058   1.087   0.632  29.441 -0.1387 -0.0004  0.2575
    72IDQ   C4341059   0.942   0.470  29.298  0.4737  1.0944  0.4308
    72IDQ   C4441060   0.916   0.725  29.252 -0.0261 -0.0268  0.2811
    62IDT    S541061   1.305   0.643  29.591  0.2871 -0.2458 -0.3341
    62IDT   C4541062   1.140   0.651  29.667  0.5035  0.0926  0.1051
    62IDT   C4641063   1.039   0.644  29.575  0.2409  0.1880  0.3806
    82BTZ   C4741064   1.114   0.686  29.809  0.2741 -0.5286  0.6357
    82BTZ   C4841065   1.227   0.712  29.882  0.1401 -0.1162  0.7026
    82BTZ   C4941066   1.221   0.750  30.020 -0.1102  0.5261  0.5189
    82BTZ   C5041067   1.102   0.763  30.086 -0.2261  0.7549  0.2688
    82BTZ   C5141068   0.987   0.698  29.874  0.1609 -0.3114  0.3761
    82BTZ   C5241069   0.980   0.737  30.015 -0.0935  0.3414  0.1895
    92RH    C5341070   1.097   0.793  30.233 -0.3753 -0.1002  0.4312
    82BTZ    N441071   0.869   0.675  29.814  0.2726 -0.6683  0.2881
    82BTZ    N541072   0.858   0.746  30.068 -0.1864  0.5092 -0.0486
    82BTZ    S641073   0.744   0.704  29.938  0.0524 -0.1744 -0.0442
    92RH    C5441074   1.191   0.818  30.325 -0.0838 -0.2904  0.1894
    92RH     S741075   1.372   0.828  30.298 -0.1544 -0.3808 -0.3327
    92RH    C5541076   1.161   0.841  30.468  0.3558 -0.4625  0.3135
    92RH     O241077   1.047   0.841  30.519  0.5038 -0.4515  0.6489
    92RH     N641078   1.278   0.864  30.543  0.5946 -0.6457 -0.0010
    92RH    C5641079   1.399   0.863  30.477  0.4000 -0.6415 -0.3618
    92RH    C5741080   1.273   0.928  30.685 -0.3441 -0.4976 -0.1983
    92RH    C5841081   1.256   0.834  30.801 -0.2390 -0.3538  0.5460
    92RH     S841082   1.553   0.887  30.542  0.6121 -0.8371 -0.7811
    72IDQ   C5941083   0.794   0.749  29.339 -0.0520 -0.1459 -1.0066
    72IDQ   C6041084   0.686   0.835  29.282  0.8909  0.0800 -0.6426
    72IDQ   C6141085   0.707   0.983  29.297 -0.8406 -0.2328  0.0959
    72IDQ   C6241086   0.626   1.069  29.195  0.1003 -0.3473 -0.8083
    72IDQ   C6341087   0.470   1.055  29.200  1.0793  0.6521  0.5220
    72IDQ   C6441088   0.388   1.053  29.337 -0.5638  0.0465  1.2443
    72IDQ   C6541089   0.373   1.203  29.399  0.8714  0.4776  0.0048
    72IDQ   C6641090   0.879   0.429  29.159  0.6737 -0.6363 -0.8308
    72IDQ   C6741091   0.781   0.315  29.159  0.0235  0.6061 -0.6457
    72IDQ   C6841092   0.839   0.177  29.200 -0.1262 -0.1352 -0.5113
    72IDQ   C6941093   0.745   0.060  29.230  0.3904  0.2138 -0.2554
    72IDQ   C7041094   0.810  -0.079  29.218  0.3096  0.4921 -0.4621
    72IDQ   C7141095   0.711  -0.205  29.189 -0.4833 -1.2646 -0.3609
    72IDQ   C7241096   0.802  -0.318  29.155 -0.5958  0.3041  0.3527
    11RH     C141097   5.018   3.893  19.086 -0.1893  0.3175 -0.1006
    11RH     C241098   5.021   3.745  19.091  0.0678  0.3277  0.0582
    11RH     N141099   4.894   3.940  19.038 -0.1839  0.0455 -0.3896
    11RH     S141100   4.861   3.677  19.032  0.2999 -0.0210 -0.1831
    11RH     C341101   4.797   3.848  19.004  0.0460 -0.1634 -0.4816
    11RH     C441102   4.885   4.077  18.994 -0.6631  0.0781  0.0090
    11RH     S241103   4.642   3.878  18.945  0.1038 -0.5025 -0.8121
    11RH     O141104   5.111   3.969  19.118 -0.3872  0.5189  0.0024
    11RH     C541105   5.127   3.675  19.132  0.1155  0.5606  0.3352
    21BTZ    C641106   5.157   3.531  19.131  0.3269  0.4876  0.2118
    21BTZ    C741107   5.063   3.443  19.084  0.2697  0.6018  0.1097
    21BTZ    C841108   5.273   3.480  19.196  0.1944  0.3437  0.3376
    21BTZ    C941109   5.080   3.300  19.098  0.0803  0.5805  0.1259
    21BTZ   C1041110   5.190   3.247  19.160 -0.0511  0.4450  0.2451
    21BTZ   C1141111   5.291   3.335  19.211  0.0020  0.3219  0.3548
    21BTZ    N241112   5.371   3.556  19.247  0.2337  0.2240  0.4444
    21BTZ    N341113   5.402   3.295  19.273 -0.1131  0.1849  0.4749
    21BTZ    S341114   5.491   3.444  19.316  0.0219  0.0753  0.5731
    31IDT   C1241115   5.210   3.104  19.169  0.6681 -0.1827 -0.3671
    31IDT   C1341116   5.237   3.035  19.284  1.5184 -0.3772 -0.6742
    31IDT   C1441117   5.207   2.896  19.274  1.5674 -0.3840 -0.7286
    31IDT   C1541118   5.157   2.858  19.152  0.7568 -0.1951 -0.4640
    31IDT    S441119   5.143   2.996  19.039 -0.1396  0.0078 -0.1214
    4IDB    C1641120   5.143   2.715  19.147 -0.4224 -0.2963  0.1173
    4IDB    C1741121   5.196   2.661  19.268  0.5687 -0.2585 -0.2828
    51IDQ   C1841122   5.221   2.773  19.362 -0.9219  0.9357 -0.3952
    4IDB    C1941123   5.201   2.523  19.288  0.7070 -0.2514 -0.2695
    51IDQ   C2041124   5.124   2.773  19.480 -0.6405 -0.5924 -0.2291
    51IDQ   C2141125   5.371   2.746  19.436 -0.2644 -0.6694  1.4570
    51IDQ   C2241126   5.491   2.660  19.398 -0.2693 -0.1542  0.0630
    51IDQ   C2341127   5.021   2.876  19.530  0.1214 -0.0238 -0.1235
    51IDQ   C2441128   5.586   2.692  19.279  0.7421  0.1264  0.4445
    51IDQ   C2541129   5.628   2.836  19.275  0.4317  0.5153  0.1581
    51IDQ   C2641130   5.698   2.882  19.145 -1.1942 -1.4211 -0.1511
    51IDQ   C2741131   5.759   3.023  19.166 -0.1560 -0.5439  0.7582
    51IDQ   C2841132   5.747   3.110  19.287 -0.4251  0.8521 -0.7155
    51IDQ   C2941133   5.862   3.212  19.302  0.4311  1.3768 -0.2711
    51IDQ   C3041134   4.883   2.815  19.536 -0.3166  0.6504 -0.7782
    51IDQ   C3141135   4.754   2.901  19.562  0.1426 -0.5448 -0.5067
    51IDQ   C3241136   4.618   2.838  19.602 -0.1041 -0.8289  0.1002
    51IDQ   C3341137   4.497   2.935  19.604 -0.2248 -0.5229  0.2644
    51IDQ   C3441138   4.396   2.955  19.491 -0.8785 -0.3129  0.3431
    51IDQ   C3541139   4.327   2.832  19.442 -0.7589  0.5044 -0.3708
    4IDB    C3641140   5.094   2.631  19.045 -1.2861 -0.3274  0.5350
    4IDB    C3741141   5.101   2.491  19.068 -1.1302 -0.3195  0.5417
    11RH    C3841142   4.810   4.181  19.081  0.0816  1.0889 -0.8815
    4IDB    C3941143   5.153   2.440  19.186 -0.1569 -0.2824  0.1482
    62IDT   C4041144   5.151   2.297  19.181  0.4396 -0.0093  0.3510
    72IDQ   C4141145   5.066   2.375  18.973  0.9041 -0.0842  0.3147
    62IDT   C4241146   5.089   2.253  19.065  0.6557  0.0275  0.2198
    72IDQ   C4341147   5.159   2.365  18.839 -0.2453  0.3887 -0.6921
    72IDQ   C4441148   4.902   2.359  18.955  0.3043  0.1576 -0.0651
    62IDT    S541149   5.192   2.161  19.291 -0.2415  0.0026  0.6241
    62IDT   C4541150   5.119   2.047  19.170 -0.1958  0.0596  0.5434
    62IDT   C4641151   5.071   2.112  19.059  0.2967  0.0665  0.3285
    82BTZ   C4741152   5.110   1.901  19.207 -0.0950  0.0531  0.0982
    82BTZ   C4841153   5.159   1.871  19.332  0.0823 -0.0395  0.0081
    82BTZ   C4941154   5.142   1.740  19.390  0.3438 -0.1437 -0.1478
    82BTZ   C5041155   5.077   1.640  19.324  0.4281 -0.1552 -0.2133
    82BTZ   C5141156   5.041   1.799  19.134 -0.0161  0.0454  0.0348
    82BTZ   C5241157   5.025   1.666  19.193  0.2500 -0.0606 -0.1235
    92RH    C5341158   5.063   1.503  19.373  0.6485 -0.3227 -0.3853
    82BTZ    N441159   4.990   1.815  19.012 -0.1708  0.1297  0.1111
    82BTZ    N541160   4.960   1.576  19.119  0.3090 -0.0614 -0.1745
    82BTZ    S641161   4.916   1.659  18.967  0.0211  0.0761 -0.0188
    92RH    C5441162   5.104   1.445  19.486  0.4414 -0.1870 -0.2384
    92RH     S741163   5.181   1.528  19.630 -0.1081  0.0319 -0.0649
    92RH    C5541164   5.093   1.300  19.512  0.6338 -0.1941 -0.1936
    92RH     O241165   5.045   1.216  19.434  1.0016 -0.3238 -0.2842
    92RH     N641166   5.144   1.266  19.639  0.3440 -0.0324 -0.0312
    92RH    C5641167   5.195   1.367  19.718 -0.0571  0.1034  0.0587
    92RH    C5741168   5.139   1.122  19.688  0.3242 -0.2749 -0.4561
    92RH    C5841169   5.050   1.096  19.805  1.1349  0.4968  0.4200
    92RH     S841170   5.262   1.353  19.872 -0.4590  0.3076  0.2537
    72IDQ   C5941171   4.808   2.459  18.894 -0.0388 -0.0247  0.7180
    72IDQ   C6041172   4.797   2.469  18.745  0.2623 -0.9616  0.6705
    72IDQ   C6141173   4.747   2.591  18.668 -0.1594  0.7925  0.0241
    72IDQ   C6241174   4.796   2.723  18.731  0.1731 -0.1578 -0.1642
    72IDQ   C6341175   4.792   2.846  18.638 -0.6843 -0.1120  0.0237
    72IDQ   C6441176   4.671   2.918  18.575  0.0572  0.0676 -0.7935
    72IDQ   C6541177   4.556   2.963  18.675  0.2299 -0.1914 -0.6979
    72IDQ   C6641178   5.177   2.475  18.740  1.0251  0.5368  0.3974
    72IDQ   C6741179   5.274   2.436  18.629 -0.2395 -0.2886  0.5138
    72IDQ   C6841180   5.359   2.537  18.563  0.3251 -0.8188  1.1085
    72IDQ   C6941181   5.434   2.495  18.434  0.3584 -0.0240  0.2178
    72IDQ   C7041182   5.345   2.517  18.310 -0.3666 -0.3555  0.0279
    72IDQ   C7141183   5.447   2.527  18.197 -0.2921 -0.2318  0.9466
    72IDQ   C7241184   5.411   2.646  18.101 -0.4292  0.4293 -0.3142
    11RH     C141185   6.554   2.662  11.408 -0.0160  0.0871  0.0591
    11RH     C241186   6.501   2.671  11.270  0.0267 -0.1339  0.0286
    11RH     N141187   6.465   2.720  11.501 -0.2244 -0.1141 -0.0148
    11RH     S141188   6.338   2.754  11.271 -0.2098 -0.5919 -0.0953
    11RH     C341189   6.347   2.774  11.454 -0.3539 -0.4693 -0.1006
    11RH     C441190   6.500   2.717  11.640  0.1377  0.1410 -0.6321
    11RH     S241191   6.224   2.847  11.543 -0.6067 -0.7656 -0.1991
    11RH     O141192   6.663   2.612  11.441  0.1121  0.4085  0.1390
    11RH     C541193   6.567   2.624  11.163  0.2123 -0.0079  0.0847
    21BTZ    C641194   6.542   2.626  11.016  0.3511  0.3034  0.1680
    21BTZ    C741195   6.425   2.677  10.967  0.3220  0.4120  0.3510
    21BTZ    C841196   6.646   2.593  10.923  0.1360  0.1037 -0.0052
    21BTZ    C941197   6.404   2.699  10.826  0.0815  0.3302  0.3731
    21BTZ   C1041198   6.501   2.668  10.733 -0.1291  0.1401  0.2120
    21BTZ   C1141199   6.626   2.614  10.780 -0.1082  0.0206  0.0174
    21BTZ    N241200   6.765   2.542  10.958  0.1408 -0.0167 -0.1907
    21BTZ    N341201   6.727   2.581  10.700 -0.2998 -0.1666 -0.1500
    21BTZ    S341202   6.857   2.519  10.807 -0.1733 -0.2460 -0.3482
    31IDT   C1241203   6.469   2.704  10.596 -0.3765 -0.3387 -0.2822
    31IDT   C1341204   6.553   2.690  10.488 -0.6588 -0.8383 -0.4413
    31IDT   C1441205   6.494   2.735  10.366 -0.7298 -0.7634 -0.3800
    31IDT   C1541206   6.366   2.784  10.379 -0.5031 -0.2076 -0.1749
    31IDT    S441207   6.309   2.776  10.549 -0.1789  0.2686 -0.0413
    4IDB    C1641208   6.326   2.847  10.257  0.6729  0.2531  0.2138
    4IDB    C1741209   6.424   2.826  10.155  0.4085  0.1214 -0.0150
    51IDQ   C1841210   6.546   2.761  10.220 -0.3792 -0.4178  0.2265
    4IDB    C1941211   6.397   2.860  10.023  0.1360  0.1302  0.0405
    51IDQ   C2041212   6.578   2.622  10.151  0.4721  0.2464 -0.1893
    51IDQ   C2141213   6.677   2.850  10.196 -0.5382 -1.0021  0.0703
    51IDQ   C2241214   6.691   2.992  10.118  0.7861 -0.0929  0.8926
    51IDQ   C2341215   6.551   2.482  10.199  0.2104 -0.3964 -0.1494
    51IDQ   C2441216   6.832   3.054  10.107  0.0154 -0.0790 -0.5254
    51IDQ   C2541217   6.824   3.213  10.107 -0.1346 -0.0852  0.6916
    51IDQ   C2641218   6.964   3.283  10.090  0.1941  0.4796 -0.3486
    51IDQ   C2741219   7.093   3.227  10.158 -0.0785  0.8432 -0.0857
    51IDQ   C2841220   7.093   3.230  10.312  0.9028  0.2876  0.5622
    51IDQ   C2941221   7.211   3.164  10.373 -1.2325  0.2001 -0.4539
    51IDQ   C3041222   6.402   2.447  10.170 -0.9402  0.3707 -0.6621
    51IDQ   C3141223   6.347   2.302  10.192 -0.4980 -0.4073 -0.3198
    51IDQ   C3241224   6.386   2.207  10.073  0.1588 -0.0943 -0.2259
    51IDQ   C3341225   6.309   2.205   9.932  0.4766  1.1577 -0.5647
    51IDQ   C3441226   6.236   2.320   9.875  0.2841  0.5998  0.7829
    51IDQ   C3541227   6.145   2.290   9.747  0.3916 -0.3779 -0.0362
    4IDB    C3641228   6.201   2.902  10.227  0.6663  0.3954  0.5012
    4IDB    C3741229   6.176   2.937  10.092  0.3859  0.4022  0.5536
    11RH    C3841230   6.423   2.596  11.719 -0.6925  0.3936 -1.0100
    4IDB    C3941231   6.272   2.916   9.993  0.1296  0.2724  0.3280
    62IDT   C4041232   6.214   2.962   9.864  0.2965  0.3644  0.0543
    72IDQ   C4141233   6.046   2.989  10.022  0.1744  0.1074  0.1940
    62IDT   C4241234   6.084   3.006   9.881  0.2249  0.1076  0.1676
    72IDQ   C4341235   5.992   3.130  10.094  1.2651 -0.1334  0.7879
    72IDQ   C4441236   5.937   2.878  10.010  0.9484 -0.7654  0.2455
    62IDT    S541237   6.266   2.971   9.692 -0.0214  0.0488 -0.0602
    62IDT   C4541238   6.101   3.036   9.650 -0.2453 -0.4374  0.0572
    62IDT   C4641239   6.020   3.047   9.760 -0.0815 -0.3458  0.1695
    82BTZ   C4741240   6.059   3.071   9.509 -0.1466  0.0790 -0.0958
    82BTZ   C4841241   6.148   3.138   9.430 -0.0266 -0.1219 -0.1335
    82BTZ   C4941242   6.123   3.160   9.289  0.1267 -0.3673 -0.2000
    82BTZ   C5041243   6.010   3.115   9.228  0.1597 -0.4113 -0.2286
    82BTZ   C5141244   5.938   3.021   9.449 -0.1179  0.0424 -0.1233
    82BTZ   C5241245   5.913   3.043   9.306  0.0379 -0.2070 -0.1910
    92RH    C5341246   5.985   3.154   9.092  0.0934  0.3146  0.1674
    82BTZ    N441247   5.844   2.954   9.515 -0.2254  0.2234 -0.0911
    82BTZ    N541248   5.799   2.994   9.258  0.0557 -0.2266 -0.2134
    82BTZ    S641249   5.716   2.915   9.396 -0.1296  0.0794 -0.1473
    92RH    C5441250   6.043   3.232   9.000  0.0240  0.3237  0.1316
    92RH     S741251   6.203   3.320   9.016 -0.0885  0.5325  0.1199
    92RH    C5541252   5.983   3.260   8.868  0.0281  0.1603  0.0951
    92RH     O241253   5.875   3.216   8.826  0.0949 -0.0014  0.0930
    92RH     N641254   6.065   3.346   8.791 -0.0546  0.2102  0.0614
    92RH    C5641255   6.183   3.389   8.846 -0.1245  0.3936  0.0668
    92RH    C5741256   6.030   3.376   8.650  0.5726  0.1036  0.4029
    92RH    C5841257   6.066   3.293   8.519 -0.2583  0.1013 -0.0551
    92RH     S841258   6.298   3.491   8.776 -0.2292  0.4887  0.0319
    72IDQ   C5941259   5.797   2.910  10.001 -0.0141 -0.1543  0.0784
    72IDQ   C6041260   5.720   2.881  10.134  0.7865 -0.5535  0.4513
    72IDQ   C6141261   5.573   2.943  10.122  0.3679 -0.1421  0.3335
    72IDQ   C6241262   5.464   2.935  10.228  0.1356  0.7459 -0.0472
    72IDQ   C6341263   5.493   3.008  10.356  0.6926  0.0324  0.4077
    72IDQ   C6441264   5.367   3.028  10.443 -0.5433 -0.3603 -0.5581
    72IDQ   C6541265   5.322   3.172  10.476 -0.0181 -0.2442 -0.4667
    72IDQ   C6641266   6.043   3.270  10.060  0.3265 -0.1343 -0.0607
    72IDQ   C6741267   5.952   3.346   9.969  0.4946 -0.1861 -0.2780
    72IDQ   C6841268   5.985   3.488   9.930 -0.4880  1.2281 -0.6081
    72IDQ   C6941269   5.919   3.575   9.823 -0.5971  0.7561  0.5097
    72IDQ   C7041270   5.880   3.514   9.684  0.2071 -0.1226 -0.4727
    72IDQ   C7141271   5.786   3.397   9.665  0.7008 -0.2209  0.0790
    72IDQ   C7241272   5.672   3.371   9.754  0.1874 -0.0485 -0.2421
    11RH     C141273   5.674   1.959  18.121 -0.0540  0.1232  0.0572
    11RH     C241274   5.809   1.986  18.066 -0.0356  0.0616  0.0710
    11RH     N141275   5.637   2.056  18.216 -0.0008  0.1160  0.0863
    11RH     S141276   5.878   2.139  18.142  0.0503 -0.0019  0.1207
    11RH     C341277   5.725   2.158  18.244  0.0579  0.0560  0.1211
    11RH     C441278   5.510   2.039  18.292 -1.0035  0.7302 -0.5649
    11RH     S241279   5.704   2.286  18.352  0.1284  0.0346  0.1593
    11RH     O141280   5.602   1.863  18.090 -0.1088  0.1754  0.0248
    11RH     C541281   5.869   1.909  17.974 -0.0770  0.0552  0.0499
    21BTZ    C641282   6.001   1.907  17.913 -0.0895  0.0921 -0.0299
    21BTZ    C741283   6.095   2.005  17.930 -0.1063  0.1071 -0.0238
    21BTZ    C841284   6.033   1.794  17.831 -0.0576  0.0854 -0.0081
    21BTZ    C941285   6.225   1.997  17.868 -0.0926  0.1163  0.0038
    21BTZ   C1041286   6.260   1.891  17.788 -0.0621  0.1104  0.0245
    21BTZ   C1141287   6.165   1.786  17.767 -0.0436  0.0948  0.0196
    21BTZ    N241288   5.950   1.692  17.807 -0.0389  0.0708 -0.0119
    21BTZ    N341289   6.188   1.678  17.692 -0.0137  0.0877  0.0381
    21BTZ    S341290   6.038   1.580  17.699 -0.0018  0.0684  0.0215
    31IDT   C1241291   6.397   1.882  17.726  0.6339  0.0937 -0.1610
    31IDT   C1341292   6.450   1.789  17.641  0.9505 -0.4893  0.6523
    31IDT   C1441293   6.592   1.800  17.629  1.0227 -0.6972  1.2317
    31IDT   C1541294   6.648   1.902  17.704  0.7621 -0.2749  0.8638
    31IDT    S441295   6.523   1.992  17.797  0.4019  0.4251 -0.2540
    4IDB    C1641296   6.793   1.903  17.699  0.1233  0.3515  0.2547
    4IDB    C1741297   6.831   1.799  17.609 -0.0975  0.5575 -0.0815
    51IDQ   C1841298   6.706   1.734  17.550  0.2728 -0.7930  0.3145
    4IDB    C1941299   6.965   1.772  17.584 -0.1525  0.3332 -0.1390
    51IDQ   C2041300   6.700   1.764  17.403 -0.5110  0.2014  0.3198
    51IDQ   C2141301   6.694   1.574  17.563  0.5987  0.1253 -0.2038
    51IDQ   C2241302   6.794   1.463  17.608 -0.1694 -0.5323 -0.0683
    51IDQ   C2341303   6.595   1.841  17.327 -0.7361  0.0449 -0.2055
    51IDQ   C2441304   6.906   1.431  17.506 -0.4404  1.4384 -0.7421
    51IDQ   C2541305   6.993   1.319  17.580  0.3398  0.7332  0.1797
    51IDQ   C2641306   7.088   1.244  17.490 -0.1511 -0.3741 -0.4082
    51IDQ   C2741307   7.196   1.150  17.561 -0.3742  0.3962 -0.6637
    51IDQ   C2841308   7.299   1.074  17.477 -0.1112 -0.5320  0.2726
    51IDQ   C2941309   7.233   0.957  17.407  0.5386 -1.0808  0.1846
    51IDQ   C3041310   6.598   1.792  17.183  0.4303 -0.8554 -0.6233
    51IDQ   C3141311   6.502   1.851  17.091  0.8111 -0.3679 -0.3187
    51IDQ   C3241312   6.494   2.000  17.041 -0.4708 -0.6688 -0.1962
    51IDQ   C3341313   6.599   2.037  16.939 -0.8453  0.5818  0.1241
    51IDQ   C3441314   6.726   2.124  16.976  0.1895 -0.1803  0.0804
    51IDQ   C3541315   6.705   2.266  17.028  0.3209 -0.5291 -0.0697
    4IDB    C3641316   6.889   1.981  17.765  0.2917 -0.0829  0.5374
    4IDB    C3741317   7.026   1.952  17.737  0.2323 -0.3072  0.4740
    11RH    C3841318   5.397   2.129  18.250  1.1318  0.2263  0.0947
    4IDB    C3941319   7.062   1.850  17.649  0.0156 -0.1013  0.1437
    62IDT   C4041320   7.207   1.851  17.635 -0.2598 -0.2609 -0.2598
    72IDQ   C4141321   7.154   2.037  17.761 -1.2330 -1.6667 -0.2466
    62IDT   C4241322   7.266   1.960  17.696 -0.4439  0.3822 -1.1868
    72IDQ   C4341323   7.187   2.083  17.911 -0.5170 -0.3173 -0.1470
    72IDQ   C4441324   7.139   2.177  17.683  1.2445 -0.2496  0.7946
    62IDT    S541325   7.329   1.741  17.561 -0.0828 -0.6153  0.5335
    62IDT   C4541326   7.459   1.854  17.619 -0.2766  0.1626 -0.4787
    62IDT   C4641327   7.409   1.962  17.687 -0.4537  0.6226 -1.3113
    82BTZ   C4741328   7.599   1.837  17.578 -0.0283  0.7630 -0.2557
    82BTZ   C4841329   7.627   1.800  17.449 -0.0866  0.5760 -0.2160
    82BTZ   C4941330   7.762   1.787  17.401 -0.1076  0.1940 -0.1721
    82BTZ   C5041331   7.870   1.809  17.483 -0.0702 -0.0003 -0.1664
    82BTZ   C5141332   7.708   1.861  17.667  0.0125  0.5716 -0.2518
    82BTZ   C5241333   7.846   1.847  17.619 -0.0088  0.1833 -0.2069
    92RH    C5341334   8.013   1.800  17.445 -0.0696 -0.3995  0.3273
    82BTZ    N441335   7.694   1.897  17.795  0.0703  0.7238 -0.2871
    82BTZ    N541336   7.942   1.872  17.709  0.0319  0.0236 -0.2060
    82BTZ    S641337   7.859   1.915  17.861  0.1006  0.3699 -0.2638
    92RH    C5441338   8.074   1.757  17.333  0.0092 -0.3728  0.3591
    92RH     S741339   7.994   1.674  17.190  0.0393  0.0587  0.0898
    92RH    C5541340   8.219   1.770  17.309  0.0867 -0.7012  0.6280
    92RH     O241341   8.301   1.822  17.386  0.0879 -1.0332  0.8507
    92RH     N641342   8.256   1.716  17.184  0.1611 -0.5915  0.6025
    92RH    C5641343   8.157   1.661  17.105  0.1528 -0.2154  0.3452
    92RH    C5741344   8.398   1.705  17.153  0.1151 -0.4763 -0.0929
    92RH    C5841345   8.480   1.814  17.069 -0.3031  0.0633 -1.4745
    92RH     S841346   8.173   1.590  16.953  0.2307 -0.0125  0.2584
    72IDQ   C5941347   7.140   2.180  17.522 -0.0865 -0.5917  0.6944
    72IDQ   C6041348   7.009   2.176  17.444 -1.1308 -0.3768 -0.7191
    72IDQ   C6141349   6.903   2.267  17.502  0.9613  0.2360 -0.8527
    72IDQ   C6241350   6.921   2.409  17.474  0.0276 -0.3739 -0.1845
    72IDQ   C6341351   6.800   2.495  17.526 -0.9382 -0.9903  1.0086
    72IDQ   C6441352   6.811   2.646  17.498  0.5079 -0.8684 -0.6620
    72IDQ   C6541353   6.701   2.727  17.558 -0.4507 -0.1853 -0.1369
    72IDQ   C6641354   7.151   1.999  18.034 -0.2347 -0.5328  0.3956
    72IDQ   C6741355   7.228   1.862  18.045 -0.9590  0.1379 -0.1177
    72IDQ   C6841356   7.380   1.856  18.042 -0.2153  0.4054  0.0024
    72IDQ   C6941357   7.436   1.720  18.026  0.7839  1.4047 -0.3383
    72IDQ   C7041358   7.580   1.719  18.051  0.1678 -0.5910 -0.4137
    72IDQ   C7141359   7.641   1.589  18.026 -0.1741  0.3981  0.4038
    72IDQ   C7241360   7.790   1.574  18.042 -0.5485 -0.8246 -0.4149
    11RH     C141361   2.703   4.841  25.945  0.2788 -0.1723 -0.3057
    11RH     C241362   2.736   4.721  25.864  0.0257 -0.2067 -0.3586
    11RH     N141363   2.593   4.911  25.892  0.2610 -0.0627 -0.1257
    11RH     S141364   2.620   4.710  25.722 -0.2189 -0.0928 -0.1698
    11RH     C341365   2.534   4.863  25.777  0.0247 -0.0051 -0.0291
    11RH     C441366   2.567   5.049  25.953  0.2507  0.1051 -0.3811
    11RH     S241367   2.402   4.927  25.694 -0.0480  0.1255  0.1850
    11RH     O141368   2.763   4.876  26.048  0.4832 -0.2304 -0.4029
    11RH     C541369   2.836   4.637  25.892 -0.0102 -0.3068 -0.5220
    21BTZ    C641370   2.891   4.521  25.829 -0.2693 -0.2164 -0.4815
    21BTZ    C741371   2.843   4.467  25.712 -0.0650 -0.4021 -0.4811
    21BTZ    C841372   3.001   4.457  25.894 -0.2202  0.0303 -0.3190
    21BTZ    C941373   2.900   4.349  25.654  0.1961 -0.3551 -0.3219
    21BTZ   C1041374   3.006   4.283  25.713  0.2526 -0.1226 -0.1628
    21BTZ   C1141375   3.059   4.336  25.835  0.0452  0.0780 -0.1564
    21BTZ    N241376   3.056   4.500  26.008 -0.4029  0.2264 -0.3023
    21BTZ    N341377   3.162   4.281  25.902  0.0758  0.3124 -0.0095
    21BTZ    S341378   3.188   4.385  26.046 -0.2401  0.4856 -0.0733
    31IDT   C1241379   3.057   4.171  25.650  0.3274  0.2678 -0.6004
    31IDT   C1341380   3.184   4.124  25.628  0.2522 -0.1332 -0.2074
    31IDT   C1441381   3.187   4.006  25.548  0.0997 -0.4283  0.2189
    31IDT   C1541382   3.062   3.961  25.509  0.0577 -0.2547  0.1534
    31IDT    S441383   2.931   4.067  25.570  0.2095  0.3013 -0.4579
    4IDB    C1641384   3.077   3.849  25.425 -0.3925 -0.7676  0.1310
    4IDB    C1741385   3.216   3.814  25.424 -0.2291 -0.1329 -0.0739
    51IDQ   C1841386   3.296   3.917  25.508 -0.3583  0.5390  1.4814
    4IDB    C1941387   3.260   3.697  25.362  0.2447  0.1601 -0.3047
    51IDQ   C2041388   3.372   3.830  25.614 -0.1146  0.0546  0.4717
    51IDQ   C2141389   3.389   4.008  25.417 -1.1708 -0.1409  0.3044
    51IDQ   C2241390   3.408   4.012  25.258  0.0292 -0.0362 -0.2013
    51IDQ   C2341391   3.331   3.820  25.754 -0.3173 -0.3616  0.2309
    51IDQ   C2441392   3.536   4.060  25.196 -0.5271  0.0123  0.1822
    51IDQ   C2541393   3.535   4.057  25.039 -0.0510 -0.5459 -0.0810
    51IDQ   C2641394   3.489   3.925  24.969  0.2173 -0.2702 -0.1585
    51IDQ   C2741395   3.607   3.838  24.934 -0.0728  0.4590  0.0534
    51IDQ   C2841396   3.682   3.868  24.807 -0.8450  0.1254 -0.2319
    51IDQ   C2941397   3.596   3.862  24.684 -0.8752 -0.0689 -0.4376
    51IDQ   C3041398   3.413   3.713  25.821 -0.4604 -0.1616 -0.3300
    51IDQ   C3141399   3.410   3.704  25.972 -0.1083 -0.5221  0.3446
    51IDQ   C3241400   3.405   3.561  26.032 -0.6532 -0.4726 -0.2736
    51IDQ   C3341401   3.404   3.573  26.183  0.3499  0.7364 -0.5667
    51IDQ   C3441402   3.272   3.614  26.249 -0.7851 -0.3061  0.8107
    51IDQ   C3541403   3.262   3.553  26.385 -1.0658 -0.9497  0.6448
    4IDB    C3641404   2.982   3.766  25.364 -0.0807 -1.1149  0.1054
    4IDB    C3741405   3.028   3.647  25.302  0.4022 -0.8078 -0.1326
    11RH    C3841406   2.467   5.037  26.064  1.0260 -1.7437  0.7250
    4IDB    C3941407   3.164   3.615  25.302  0.5565 -0.1872 -0.3308
    62IDT   C4041408   3.177   3.489  25.235 -0.2670 -0.0803  0.1536
    72IDQ   C4141409   2.954   3.543  25.218  0.6278 -0.2122  1.1397
    62IDT   C4241410   3.061   3.456  25.169 -0.2300  0.1052 -0.0062
    72IDQ   C4341411   2.889   3.600  25.079 -0.5121  0.6326  0.1216
    72IDQ   C4441412   2.821   3.487  25.285  0.4081  0.4458 -0.3653
    62IDT    S541413   3.312   3.377  25.195 -0.3153 -0.1245  0.1161
    62IDT   C4541414   3.198   3.286  25.086 -0.2812  0.1222 -0.1263
    62IDT   C4641415   3.072   3.341  25.085 -0.2379  0.2201 -0.1650
    82BTZ   C4741416   3.232   3.148  25.036  0.3464 -0.2355  0.2975
    82BTZ   C4841417   3.295   3.056  25.115  0.5640 -0.1954  0.1731
    82BTZ   C4941418   3.354   2.937  25.060  0.6967 -0.0655  0.0319
    82BTZ   C5041419   3.351   2.910  24.926  0.6114  0.0243  0.0162
    82BTZ   C5141420   3.226   3.125  24.895  0.2495 -0.1451  0.2871
    82BTZ   C5241421   3.286   3.003  24.839  0.3843 -0.0130  0.1435
    92RH    C5341422   3.413   2.788  24.864 -0.3375 -0.3130 -0.2759
    82BTZ    N441423   3.167   3.207  24.807  0.0395 -0.1726  0.4001
    82BTZ    N541424   3.276   2.988  24.706  0.2827  0.0657  0.1421
    82BTZ    S641425   3.187   3.132  24.647  0.0044 -0.0277  0.3266
    92RH    C5441426   3.492   2.691  24.911 -0.1136 -0.1518 -0.3152
    92RH     S741427   3.567   2.682  25.079 -0.1419 -0.0764 -0.2985
    92RH    C5541428   3.532   2.572  24.832  0.2022 -0.0052 -0.3791
    92RH     O241429   3.498   2.549  24.715  0.2955 -0.0136 -0.4044
    92RH     N641430   3.615   2.486  24.907  0.3909  0.1498 -0.4090
    92RH    C5641431   3.647   2.522  25.036  0.2649  0.1452 -0.3772
    92RH    C5741432   3.644   2.354  24.853 -1.0980  0.7081 -0.7138
    92RH    C5841433   3.767   2.358  24.752  0.5870  0.3176 -0.4252
    92RH     S841434   3.743   2.438  25.146  0.4387  0.3104 -0.4020
    72IDQ   C5941435   2.850   3.414  25.415  0.3709 -0.8632 -0.0567
    72IDQ   C6041436   2.725   3.390  25.501 -0.1523 -0.3059 -0.3360
    72IDQ   C6141437   2.753   3.362  25.649  1.1100  0.3118 -0.4885
    72IDQ   C6241438   2.838   3.451  25.745  0.2232 -0.7283 -0.2244
    72IDQ   C6341439   2.773   3.576  25.793  0.2745  0.9320  0.2262
    72IDQ   C6441440   2.852   3.671  25.872  0.6218 -0.7928 -0.5919
    72IDQ   C6541441   2.846   3.822  25.837 -0.9233  0.2235 -0.2193
    72IDQ   C6641442   2.927   3.738  25.029 -1.2811 -0.1336  0.8018
    72IDQ   C6741443   3.081   3.763  24.995  0.0088 -0.2531  0.4363
    72IDQ   C6841444   3.132   3.696  24.867 -0.0118 -0.0585 -0.3546
    72IDQ   C6941445   3.264   3.613  24.869  0.4392  0.4199 -0.2070
    72IDQ   C7041446   3.310   3.569  24.731 -0.1671 -0.0838  0.6461
    72IDQ   C7141447   3.409   3.450  24.723 -0.5625 -0.7217  0.7776
    72IDQ   C7241448   3.544   3.465  24.785 -0.0607 -0.2557 -0.3971
    11RH     C141449   1.607   3.601  21.225  0.0117  0.2286 -0.1025
    11RH     C241450   1.485   3.571  21.304  0.0421 -0.0402 -0.1574
    11RH     N141451   1.704   3.667  21.303 -0.0929  0.2717 -0.0079
    11RH     S141452   1.507   3.631  21.476 -0.0688 -0.2189 -0.0797
    11RH     C341453   1.676   3.693  21.435 -0.1501  0.0702  0.0200
    11RH     C441454   1.842   3.686  21.243  0.1022  0.0309  0.5047
    11RH     S241455   1.774   3.770  21.549 -0.2753  0.0708  0.1283
    11RH     O141456   1.624   3.573  21.105  0.0692  0.3984 -0.1345
    11RH     C541457   1.378   3.509  21.254  0.1372 -0.1311 -0.2481
    21BTZ    C641458   1.250   3.481  21.304 -0.2182 -0.0540  0.0678
    21BTZ    C741459   1.222   3.530  21.429 -0.1576 -0.0086  0.0639
    21BTZ    C841460   1.150   3.402  21.238 -0.2602 -0.0573  0.1349
    21BTZ    C941461   1.096   3.505  21.494 -0.1353  0.0355  0.1240
    21BTZ   C1041462   0.997   3.431  21.434 -0.1737  0.0343  0.1880
    21BTZ   C1141463   1.021   3.377  21.304 -0.2376 -0.0123  0.1955
    21BTZ    N241464   1.165   3.349  21.116 -0.3203 -0.0992  0.1464
    21BTZ    N341465   0.933   3.304  21.236 -0.2794 -0.0182  0.2556
    21BTZ    S341466   1.013   3.262  21.080 -0.3510 -0.0828  0.2365
    31IDT   C1241467   0.871   3.422  21.518 -0.1354 -0.0784  0.0954
    31IDT   C1341468   0.763   3.350  21.476 -0.1425  0.0334 -0.0811
    31IDT   C1441469   0.665   3.330  21.579 -0.2546 -0.0042 -0.1941
    31IDT   C1541470   0.699   3.388  21.700 -0.3336 -0.1446 -0.1041
    31IDT    S441471   0.858   3.472  21.693 -0.2716 -0.2409  0.1312
    4IDB    C1641472   0.596   3.367  21.802 -0.1002  0.0976  0.1515
    4IDB    C1741473   0.509   3.264  21.756  0.2285 -0.2444  0.2813
    51IDQ   C1841474   0.530   3.255  21.600  0.0583  0.0673  0.8330
    4IDB    C1941475   0.412   3.209  21.839  0.0198 -0.0356  0.1803
    51IDQ   C2041476   0.522   3.104  21.541  0.1449 -0.6320 -0.0380
    51IDQ   C2141477   0.425   3.332  21.513  0.6700 -0.5122 -0.8657
    51IDQ   C2241478   0.315   3.422  21.572  1.2563  0.0333 -0.0801
    51IDQ   C2341479   0.655   3.043  21.509 -0.3696 -0.1224  0.4929
    51IDQ   C2441480   0.198   3.328  21.614  0.0735 -0.3846  0.7004
    51IDQ   C2541481   0.097   3.380  21.708  0.2278  0.3477 -0.5099
    51IDQ   C2641482   0.028   3.278  21.797  0.3046 -0.0550 -0.3030
    51IDQ   C2741483  -0.103   3.349  21.857 -0.3733  1.0751 -0.1240
    51IDQ   C2841484  -0.186   3.229  21.902 -0.5786 -0.3268  0.7452
    51IDQ   C2941485  -0.254   3.143  21.785 -0.3666  0.1404 -0.0924
    51IDQ   C3041486   0.625   2.926  21.413  0.3708  0.0835 -0.7875
    51IDQ   C3141487   0.756   2.864  21.378 -0.3232 -0.6995  0.4261
    51IDQ   C3241488   0.733   2.748  21.278  1.3107 -0.3052  0.3878
    51IDQ   C3341489   0.869   2.687  21.245 -0.2974 -1.0366  0.0172
    51IDQ   C3441490   0.987   2.787  21.204 -0.5387  0.5762  0.2046
    51IDQ   C3541491   1.097   2.689  21.154 -0.1859  0.1638 -0.1969
    4IDB    C3641492   0.587   3.416  21.934 -0.6430  0.6537 -0.0815
    4IDB    C3741493   0.488   3.359  22.018 -0.8494  0.8600 -0.1822
    11RH    C3841494   1.946   3.582  21.270  0.0524  0.6094 -1.2864
    4IDB    C3941495   0.403   3.258  21.971 -0.5230  0.5207 -0.0526
    62IDT   C4041496   0.302   3.234  22.070  0.0062 -0.0601 -0.0380
    72IDQ   C4141497   0.453   3.386  22.163 -0.5112 -0.0368  0.3929
    62IDT   C4241498   0.335   3.298  22.187 -0.0476 -0.0076 -0.0515
    72IDQ   C4341499   0.401   3.534  22.179  0.4588 -0.5572  0.1412
    72IDQ   C4441500   0.577   3.387  22.248 -1.0472 -0.9909  0.3468
    62IDT    S541501   0.149   3.142  22.085 -0.1369  0.1605 -0.1472
    62IDT   C4541502   0.136   3.199  22.257 -0.2683  0.3198 -0.2080
    62IDT   C4641503   0.242   3.279  22.293 -0.2029  0.2072 -0.1473
    82BTZ   C4741504   0.016   3.156  22.344  0.1453 -0.5094 -0.1868
    82BTZ   C4841505  -0.104   3.196  22.291  0.2348 -0.3170 -0.2451
    82BTZ   C4941506  -0.229   3.169  22.357  0.1833  0.2106 -0.1173
    82BTZ   C5041507  -0.235   3.102  22.477  0.0424  0.5450  0.0675
    82BTZ   C5141508   0.015   3.085  22.469 -0.0032 -0.1743  0.0052
    82BTZ   C5241509  -0.112   3.058  22.536 -0.0557  0.3619  0.1349
    92RH    C5341510  -0.372   3.069  22.535  0.1855  0.6773 -0.0094
    82BTZ    N441511   0.125   3.041  22.530 -0.1007 -0.3169  0.0792
    82BTZ    N541512  -0.104   2.991  22.652 -0.1951  0.6505  0.3123
    82BTZ    S641513   0.070   2.961  22.680 -0.2674  0.2403  0.3210
    92RH    C5441514  -0.497   3.104  22.502  0.1112  0.3686 -0.0615
    92RH     S741515  -0.547   3.212  22.362 -0.0892  0.3447 -0.0093
    92RH    C5541516  -0.617   3.058  22.576  0.1829 -0.0140 -0.1750
    92RH     O241517  -0.617   2.984  22.676  0.3175 -0.0929 -0.2337
    92RH     N641518  -0.735   3.111  22.519  0.0782 -0.2867 -0.2105
    92RH    C5641519  -0.724   3.192  22.409 -0.0685 -0.1695 -0.1392
    92RH    C5741520  -0.865   3.054  22.567 -1.0023  0.5937  1.4765
    92RH    C5841521  -0.921   2.949  22.464 -0.3503 -0.2164  0.4242
    92RH     S841522  -0.849   3.266  22.322 -0.2141 -0.4355 -0.1597
    72IDQ   C5941523   0.678   3.275  22.253  0.0286 -0.5362 -0.2629
    72IDQ   C6041524   0.631   3.157  22.336  0.6295 -0.3193 -0.1754
    72IDQ   C6141525   0.723   3.046  22.352  0.5866 -0.9044  0.0674
    72IDQ   C6241526   0.660   2.935  22.427  0.6245  0.8958  0.0429
    72IDQ   C6341527   0.644   2.939  22.585 -0.6747  0.0983 -0.2311
    72IDQ   C6441528   0.558   2.833  22.652  0.3586 -0.1983  0.0332
    72IDQ   C6541529   0.554   2.819  22.804 -0.4257 -0.6139 -0.1998
    72IDQ   C6641530   0.321   3.599  22.079 -0.0225  0.7264  0.2002
    72IDQ   C6741531   0.173   3.619  22.119 -0.2903 -0.1978 -1.2449
    72IDQ   C6841532   0.076   3.666  22.008  0.0963 -0.4196 -0.1407
    72IDQ   C6941533   0.101   3.803  21.955 -0.4308  0.0895 -0.5788
    72IDQ   C7041534   0.100   3.921  22.052  0.4847  0.6882 -0.2826
    72IDQ   C7141535   0.240   3.992  22.054 -0.0502 -0.8205 -0.2669
    72IDQ   C7241536   0.252   4.133  22.129 -0.4809 -1.1555 -0.3920
    11RH     C141537   4.290   4.599  18.952 -0.1560 -0.1667  0.1941
    11RH     C241538   4.261   4.732  19.012  0.0014 -0.0644  0.0424
    11RH     N141539   4.420   4.554  18.984 -0.1653 -0.2300  0.1447
    11RH     S141540   4.408   4.789  19.106  0.1272 -0.0579 -0.1545
    11RH     C341541   4.499   4.635  19.062 -0.0343 -0.1907 -0.0277
    11RH     C441542   4.468   4.432  18.918  1.0187 -0.1472  0.4597
    11RH     S241543   4.657   4.606  19.115 -0.0145 -0.2496 -0.1202
    11RH     O141544   4.211   4.533  18.882 -0.2677 -0.1954  0.3462
    11RH     C541545   4.145   4.796  18.997  0.0411  0.0099  0.0546
    21BTZ    C641546   4.101   4.930  19.045  0.4474  0.4499 -0.1188
    21BTZ    C741547   4.171   5.011  19.130  0.3939  0.5745 -0.1922
    21BTZ    C841548   3.979   4.980  18.988  0.2508  0.2009  0.0806
    21BTZ    C941549   4.126   5.144  19.163  0.1460  0.4615 -0.0734
    21BTZ   C1041550   4.011   5.196  19.112 -0.0478  0.2242  0.1180
    21BTZ   C1141551   3.933   5.115  19.022 -0.0010  0.0862  0.2012
    21BTZ    N241552   3.901   4.911  18.904  0.2798  0.0607  0.1683
    21BTZ    N341553   3.818   5.154  18.966 -0.1745 -0.1462  0.3862
    21BTZ    S341554   3.763   5.018  18.864 -0.0197 -0.2298  0.4139
    31IDT   C1241555   3.969   5.334  19.141  0.1130  0.4329  0.0770
    31IDT   C1341556   3.972   5.396  19.263 -0.2543  0.4233  0.0939
    31IDT   C1441557   3.925   5.530  19.258 -0.5744  0.3104  0.0324
    31IDT   C1541558   3.885   5.572  19.133 -0.4532  0.2335 -0.0316
    31IDT    S441559   3.905   5.443  19.010  0.0803  0.2986 -0.0196
    4IDB    C1641560   3.847   5.711  19.132  0.4248  0.7412 -0.1256
    4IDB    C1741561   3.858   5.760  19.265  0.5596  0.7745 -0.1483
    51IDQ   C1841562   3.908   5.645  19.359 -0.0009  1.0756  0.2261
    4IDB    C1941563   3.812   5.887  19.298  0.0937  0.5784 -0.0201
    51IDQ   C2041564   4.040   5.710  19.423 -0.0324  0.5430  0.1277
    51IDQ   C2141565   3.813   5.609  19.478  0.5538  0.1522  0.3715
    51IDQ   C2241566   3.679   5.678  19.494  1.2398 -0.8558 -0.5862
    51IDQ   C2341567   4.187   5.689  19.405 -0.8872 -0.1258  0.3810
    51IDQ   C2441568   3.570   5.633  19.589  0.2833 -0.1803  0.3460
    51IDQ   C2541569   3.452   5.716  19.572  1.0452 -0.2434  0.7774
    51IDQ   C2641570   3.332   5.693  19.666 -0.0245  0.1858  0.0206
    51IDQ   C2741571   3.208   5.782  19.619 -0.2995  1.1202 -0.3194
    51IDQ   C2841572   3.079   5.707  19.666  0.5843 -0.4637  0.5367
    51IDQ   C2941573   2.944   5.753  19.606 -0.5551  0.1483  0.7806
    51IDQ   C3041574   4.281   5.781  19.498 -0.7891 -0.2858  0.2516
    51IDQ   C3141575   4.429   5.769  19.454 -0.6360 -0.3653 -0.3534
    51IDQ   C3241576   4.511   5.641  19.485  0.3611  0.1218 -0.5168
    51IDQ   C3341577   4.654   5.664  19.460 -0.6486  1.2566 -0.2049
    51IDQ   C3441578   4.740   5.532  19.483  0.1895  0.2907  0.3792
    51IDQ   C3541579   4.887   5.540  19.518  0.3028  0.4361  0.5281
    4IDB    C3641580   3.790   5.788  19.030 -0.1807  0.5101  0.0277
    4IDB    C3741581   3.744   5.918  19.065 -0.6508  0.3119  0.1569
    11RH    C3841582   4.441   4.307  19.015 -0.6211  0.3479 -0.0381
    4IDB    C3941583   3.755   5.965  19.196 -0.5117  0.3474  0.1328
    62IDT   C4041584   3.722   6.103  19.199 -0.3106 -0.2732  0.2638
    72IDQ   C4141585   3.681   6.029  18.982 -0.2069  0.1329  0.0846
    62IDT   C4241586   3.685   6.145  19.073 -1.3162 -0.5397  0.4506
    72IDQ   C4341587   3.536   6.011  18.936 -0.4356 -0.0101 -0.6812
    72IDQ   C4441588   3.777   6.084  18.867 -0.1042  0.1987  0.6664
    62IDT    S541589   3.722   6.239  19.317  0.6555 -0.0187 -0.0143
    62IDT   C4541590   3.670   6.350  19.183 -0.4026 -0.2997  0.1448
    62IDT   C4641591   3.656   6.285  19.064 -1.3697 -0.5552  0.3839
    82BTZ   C4741592   3.646   6.497  19.206  0.0273  0.0889 -0.1661
    82BTZ   C4841593   3.641   6.532  19.339  0.0451  0.1615 -0.1850
    82BTZ   C4941594   3.632   6.669  19.380  0.0421  0.1841 -0.2599
    82BTZ   C5041595   3.627   6.772  19.290  0.0212  0.1337 -0.3159
    82BTZ   C5141596   3.642   6.600  19.107  0.0051  0.0339 -0.2232
    82BTZ   C5241597   3.632   6.740  19.150  0.0020  0.0569 -0.2990
    92RH    C5341598   3.614   6.913  19.324  0.5707 -0.2642  0.1072
    82BTZ    N441599   3.645   6.579  18.976 -0.0136 -0.0389 -0.2122
    82BTZ    N541600   3.628   6.831  19.052 -0.0192  0.0025 -0.3490
    82BTZ    S641601   3.637   6.740  18.899 -0.0365 -0.0818 -0.3002
    92RH    C5441602   3.597   6.982  19.437  0.3875 -0.1181 -0.0086
    92RH     S741603   3.564   6.914  19.604 -0.0394  0.1048  0.0002
    92RH    C5541604   3.603   7.130  19.443  0.5080 -0.1152 -0.1669
    92RH     O241605   3.624   7.206  19.348  0.7868 -0.2449 -0.2108
    92RH     N641606   3.582   7.177  19.575  0.2634  0.0565 -0.2656
    92RH    C5641607   3.559   7.084  19.674 -0.0383  0.1913 -0.2060
    92RH    C5741608   3.593   7.320  19.611 -0.5165 -0.1734  0.3942
    92RH    C5841609   3.488   7.425  19.569  0.1241 -0.7836 -0.3706
    92RH     S841610   3.531   7.113  19.838 -0.3691  0.4059 -0.2971
    72IDQ   C5941611   3.793   5.993  18.751  0.0919  0.0625  1.0557
    72IDQ   C6041612   3.862   6.071  18.625 -0.1755 -0.0999 -0.6736
    72IDQ   C6141613   3.860   6.002  18.490  0.9353 -0.1840  0.7943
    72IDQ   C6241614   3.950   5.880  18.481 -1.0239 -0.4026 -0.4409
    72IDQ   C6341615   3.959   5.841  18.335 -0.9222  0.0256 -0.3426
    72IDQ   C6441616   4.034   5.702  18.298  1.2556 -0.9837  0.6622
    72IDQ   C6541617   4.045   5.673  18.145  0.4979  0.0997  0.0471
    72IDQ   C6641618   3.433   5.988  19.047 -1.1008 -0.3329 -0.3223
    72IDQ   C6741619   3.305   5.927  18.999 -0.0680 -0.1986  0.5332
    72IDQ   C6841620   3.207   5.873  19.105 -0.8732 -0.5165  0.3614
    72IDQ   C6941621   3.252   5.793  19.229 -0.0817  0.3380  0.3284
    72IDQ   C7041622   3.283   5.638  19.219 -0.9275 -0.0826  0.8181
    72IDQ   C7141623   3.421   5.611  19.151 -0.8063  0.6172 -0.0967
    72IDQ   C7241624   3.470   5.463  19.149  0.7407 -0.0203  0.3686
    11RH     C141625   4.653   3.297  13.653 -0.2028 -0.1674  0.2806
    11RH     C241626   4.706   3.217  13.766  0.0328 -0.0038  0.2875
    11RH     N141627   4.632   3.431  13.690 -0.4230 -0.1844  0.2177
    11RH     S141628   4.724   3.324  13.914 -0.0505  0.1171  0.2110
    11RH     C341629   4.661   3.469  13.820 -0.3927 -0.0545  0.1733
    11RH     C441630   4.568   3.516  13.584 -0.0363  0.7277  0.6698
    11RH     S241631   4.644   3.622  13.889 -0.6222 -0.0433  0.0963
    11RH     O141632   4.630   3.254  13.539 -0.2110 -0.2779  0.3233
    11RH     C541633   4.735   3.087  13.757  0.2674  0.0439  0.3420
    21BTZ    C641634   4.786   2.979  13.844 -0.0485  0.1138 -0.3711
    21BTZ    C741635   4.829   2.995  13.973  0.2797  0.2255 -0.4942
    21BTZ    C841636   4.766   2.845  13.794 -0.1068  0.0692 -0.2291
    21BTZ    C941637   4.855   2.883  14.059  0.5651  0.2986 -0.4833
    21BTZ   C1041638   4.838   2.754  14.016  0.5219  0.2598 -0.3497
    21BTZ   C1141639   4.793   2.731  13.882  0.1832  0.1434 -0.2179
    21BTZ    N241640   4.724   2.816  13.671 -0.4144 -0.0380 -0.1016
    21BTZ    N341641   4.772   2.610  13.829  0.1086  0.0958 -0.0815
    21BTZ    S341642   4.717   2.638  13.661 -0.3450 -0.0490  0.0412
    31IDT   C1241643   4.883   2.634  14.102 -0.1080 -0.4512 -0.2519
    31IDT   C1341644   4.861   2.501  14.079 -0.9191 -0.4582  0.4461
    31IDT   C1441645   4.910   2.417  14.183 -1.2816 -0.2295  0.8085
    31IDT   C1541646   4.970   2.485  14.287 -0.7505 -0.0473  0.3903
    31IDT    S441647   4.969   2.663  14.260  0.2590 -0.1521 -0.5032
    4IDB    C1641648   5.019   2.386  14.392  1.0349  0.0500 -0.6537
    4IDB    C1741649   4.976   2.258  14.348 -0.1023  0.2517 -0.1950
    51IDQ   C1841650   4.909   2.266  14.214 -1.2269 -0.3133  0.2543
    4IDB    C1941651   5.004   2.144  14.422 -0.6171  0.1940 -0.0754
    51IDQ   C2041652   4.989   2.165  14.115 -0.6942 -0.5391 -1.1264
    51IDQ   C2141653   4.756   2.229  14.219 -0.0043  0.3721  0.5505
    51IDQ   C2241654   4.681   2.165  14.335 -0.6290 -0.1367 -0.7773
    51IDQ   C2341655   5.058   2.189  13.980 -1.3810 -1.3786  0.1072
    51IDQ   C2441656   4.639   2.257  14.449 -0.8786 -0.6132 -0.2452
    51IDQ   C2541657   4.580   2.180  14.560  0.0675 -0.0317 -0.4786
    51IDQ   C2641658   4.582   2.266  14.682  0.2162 -0.2792  0.6385
    51IDQ   C2741659   4.473   2.191  14.780  0.5187 -0.6742  0.4313
    51IDQ   C2841660   4.494   2.187  14.929  0.2253 -1.2809  1.2055
    51IDQ   C2941661   4.390   2.108  14.995  0.4445  0.0900 -0.1364
    51IDQ   C3041662   4.972   2.223  13.865 -0.1559 -0.4746  0.7952
    51IDQ   C3141663   5.072   2.252  13.743  0.3775 -0.4727 -0.6770
    51IDQ   C3241664   4.999   2.257  13.607  0.0797 -0.7233  0.6843
    51IDQ   C3341665   4.873   2.341  13.575  0.0057 -1.1386 -0.2302
    51IDQ   C3441666   4.767   2.286  13.474 -0.3506  0.4941  0.6689
    51IDQ   C3541667   4.699   2.182  13.558  0.3887 -0.1152  1.1510
    4IDB    C3641668   5.092   2.402  14.511  1.6668 -0.2123 -0.9975
    4IDB    C3741669   5.120   2.284  14.585  1.1266 -0.2676 -0.8690
    11RH    C3841670   4.648   3.630  13.549  0.3851  0.2004  0.1971
    4IDB    C3941671   5.077   2.159  14.541  0.0149 -0.0683 -0.4193
    62IDT   C4041672   5.132   2.058  14.637  0.1744  0.0750 -0.3863
    72IDQ   C4141673   5.164   2.281  14.730  0.3862 -0.0192  0.3138
    62IDT   C4241674   5.190   2.128  14.740 -0.4345  0.1627 -0.0975
    72IDQ   C4341675   5.056   2.336  14.824  0.0636  0.2837 -0.1781
    72IDQ   C4441676   5.319   2.341  14.741  0.5196 -0.2753 -0.0651
    62IDT    S541677   5.154   1.880  14.655  0.3628  0.1083 -0.2898
    62IDT   C4541678   5.245   1.912  14.810 -0.4303  0.2458  0.1576
    62IDT   C4641679   5.254   2.046  14.838 -0.7772  0.2594  0.2108
    82BTZ   C4741680   5.309   1.793  14.878  0.0490  0.2108 -0.2186
    82BTZ   C4841681   5.280   1.668  14.830  0.1742  0.2183 -0.3152
    82BTZ   C4941682   5.327   1.548  14.896  0.1953  0.2118 -0.3417
    82BTZ   C5041683   5.402   1.554  15.010  0.0908  0.1979 -0.2712
    82BTZ   C5141684   5.388   1.804  14.997 -0.0633  0.1963 -0.1426
    82BTZ   C5241685   5.435   1.683  15.064 -0.0420  0.1896 -0.1693
    92RH    C5341686   5.433   1.433  15.088  0.2222 -0.3508  0.6257
    82BTZ    N441687   5.423   1.920  15.053 -0.1901  0.1879 -0.0455
    82BTZ    N541688   5.508   1.701  15.174 -0.1515  0.1760 -0.0942
    82BTZ    S641689   5.520   1.878  15.197 -0.2895  0.1709  0.0162
    92RH    C5441690   5.394   1.305  15.087  0.0713 -0.3043  0.3331
    92RH     S741691   5.238   1.238  15.017 -0.0332  0.0465  0.2278
    92RH    C5541692   5.475   1.194  15.145 -0.0372 -0.5387  0.0401
    92RH     O241693   5.585   1.206  15.200 -0.0024 -0.8007  0.0305
    92RH     N641694   5.409   1.070  15.130 -0.1891 -0.4281 -0.2349
    92RH    C5641695   5.287   1.067  15.067 -0.2153 -0.1336 -0.1981
    92RH    C5741696   5.472   0.943  15.167  1.4986  0.1343 -0.4099
    92RH    C5841697   5.547   0.851  15.069  0.2562  0.6912 -0.5607
    92RH     S841698   5.189   0.933  15.037 -0.3843  0.0518 -0.4854
    72IDQ   C5941699   5.342   2.493  14.718  0.3200 -0.5941 -0.0060
    72IDQ   C6041700   5.295   2.585  14.837  0.9914 -0.9254 -0.0377
    72IDQ   C6141701   5.273   2.729  14.778 -0.4102  0.4814  0.1022
    72IDQ   C6241702   5.123   2.756  14.805 -1.6020 -0.1723 -0.1972
    72IDQ   C6341703   5.039   2.873  14.745 -0.2959 -0.1831 -0.2060
    72IDQ   C6441704   5.053   3.026  14.790  0.1490  0.0787 -0.1870
    72IDQ   C6541705   4.970   3.057  14.902 -0.1193 -0.0557 -0.8912
    72IDQ   C6641706   5.046   2.264  14.962  0.8944  0.0592  0.3597
    72IDQ   C6741707   4.953   2.331  15.054 -0.5488 -0.1468 -0.5445
    72IDQ   C6841708   4.928   2.243  15.177 -0.3408 -0.4133  0.5436
    72IDQ   C6941709   4.833   2.308  15.284  0.1516 -0.3348 -0.3034
    72IDQ   C7041710   4.839   2.220  15.407  0.2864  0.9986 -0.7320
    72IDQ   C7141711   4.796   2.263  15.544 -0.0231 -0.3920  0.6226
    72IDQ   C7241712   4.652   2.273  15.573  0.4147 -0.0460  0.2061
    11RH     C141713   5.853   6.557   5.761 -0.2370 -0.0705 -0.2677
    11RH     C241714   5.721   6.602   5.811 -0.1042  0.1724 -0.1290
    11RH     N141715   5.918   6.658   5.687 -0.0314 -0.1083 -0.1424
    11RH     S141716   5.690   6.774   5.756  0.2824  0.3353  0.1572
    11RH     C341717   5.853   6.778   5.671  0.2499  0.0745  0.0798
    11RH     C441718   6.053   6.634   5.620  0.2401 -0.2390 -0.8391
    11RH     S241719   5.908   6.914   5.587  0.5341  0.0756  0.2644
    11RH     O141720   5.904   6.445   5.781 -0.4951 -0.2249 -0.4686
    11RH     C541721   5.640   6.525   5.884 -0.2517  0.2537 -0.2074
    21BTZ    C641722   5.516   6.551   5.948  0.2625  0.2412  0.3071
    21BTZ    C741723   5.446   6.669   5.955  0.0732  0.1320  0.2505
    21BTZ    C841724   5.459   6.433   6.005  0.2737  0.0920  0.0132
    21BTZ    C941725   5.317   6.676   6.018 -0.1136 -0.1276 -0.0955
    21BTZ   C1041726   5.258   6.565   6.074 -0.1108 -0.2774 -0.3842
    21BTZ   C1141727   5.327   6.440   6.069  0.0837 -0.1718 -0.3383
    21BTZ    N241728   5.518   6.313   6.004  0.4488  0.1769  0.0350
    21BTZ    N341729   5.280   6.326   6.120  0.1063 -0.2987 -0.5993
    21BTZ    S341730   5.405   6.202   6.087  0.3770 -0.0819 -0.4019
    31IDT   C1241731   5.123   6.587   6.135  0.0685  0.2435  0.1665
    31IDT   C1341732   5.044   6.502   6.208  0.4091  0.1013  0.3773
    31IDT   C1441733   4.917   6.558   6.241  0.3678 -0.1483  0.6543
    31IDT   C1541734   4.899   6.687   6.194 -0.0035 -0.1980  0.6567
    31IDT    S441735   5.042   6.747   6.104 -0.3327  0.0698  0.3053
    4IDB    C1641736   4.764   6.727   6.201  0.4756  0.1026  0.1092
    4IDB    C1741737   4.693   6.635   6.284  0.4537  0.2630  0.2717
    51IDQ   C1841738   4.786   6.517   6.316  0.2187 -0.0911 -0.4785
    4IDB    C1941739   4.560   6.656   6.317  0.3561  0.1767 -0.0553
    51IDQ   C2041740   4.789   6.509   6.472 -0.2568 -0.4566 -0.0103
    51IDQ   C2141741   4.766   6.370   6.275  0.8134  0.4201 -0.2337
    51IDQ   C2241742   4.662   6.307   6.180 -0.2147 -0.1001  0.2664
    51IDQ   C2341743   4.919   6.520   6.554  0.1447 -0.8116  0.0771
    51IDQ   C2441744   4.680   6.152   6.173 -0.0798 -0.3164 -0.7179
    51IDQ   C2541745   4.586   6.079   6.083 -0.0354  0.4502 -0.2267
    51IDQ   C2641746   4.436   6.097   6.123 -0.4601  0.2323 -0.6307
    51IDQ   C2741747   4.341   6.011   6.044 -0.1421  0.4367 -0.4488
    51IDQ   C2841748   4.196   6.052   6.079 -0.3126 -0.1824 -0.9243
    51IDQ   C2941749   4.115   5.938   6.031  0.1315 -0.4566  0.7011
    51IDQ   C3041750   4.979   6.385   6.583 -0.5708 -0.7650 -0.2836
    51IDQ   C3141751   4.907   6.270   6.643 -0.1554  0.1851 -0.7179
    51IDQ   C3241752   4.816   6.174   6.560 -0.5098  0.0723 -1.0034
    51IDQ   C3341753   4.775   6.040   6.644  0.0233  0.0877  0.3792
    51IDQ   C3441754   4.618   6.003   6.631 -0.0603 -0.4163 -0.3151
    51IDQ   C3541755   4.553   5.977   6.503 -0.2035  0.2291 -0.2735
    4IDB    C3641756   4.702   6.843   6.151  0.3995 -0.1463 -0.3842
    4IDB    C3741757   4.565   6.863   6.187  0.3003 -0.2310 -0.7131
    11RH    C3841758   6.171   6.661   5.725  0.7149 -0.4013 -0.0263
    4IDB    C3941759   4.497   6.772   6.267  0.2801 -0.0723 -0.5489
    62IDT   C4041760   4.358   6.809   6.292  0.0670 -0.5167 -0.0626
    72IDQ   C4141761   4.469   6.987   6.157  1.0662  0.6237 -0.9664
    62IDT   C4241762   4.341   6.922   6.214  0.7133 -0.6889 -0.4628
    72IDQ   C4341763   4.443   6.999   5.993 -0.8803  0.3247  0.3447
    72IDQ   C4441764   4.524   7.124   6.221  0.0697 -0.1464  0.3503
    62IDT    S541765   4.201   6.748   6.356 -0.3483  0.2903 -0.2866
    62IDT   C4541766   4.118   6.885   6.270  0.4108  0.3556 -0.9414
    62IDT   C4641767   4.206   6.965   6.201  0.9087 -0.1959 -0.9601
    82BTZ   C4741768   3.973   6.894   6.278  0.3954  0.1567  0.2279
    82BTZ   C4841769   3.906   6.832   6.380  0.2950  0.1905  0.1827
    82BTZ   C4941770   3.762   6.826   6.383  0.2936  0.0480 -0.0434
    82BTZ   C5041771   3.685   6.883   6.285  0.3924 -0.1276 -0.2242
    82BTZ   C5141772   3.897   6.955   6.173  0.5012 -0.0252  0.0441
    82BTZ   C5241773   3.751   6.950   6.176  0.4997 -0.1699 -0.1858
    92RH    C5341774   3.544   6.846   6.275 -0.1316  0.0998 -0.2029
    82BTZ    N441775   3.951   7.019   6.068  0.6042 -0.0747  0.0666
    82BTZ    N541776   3.687   7.009   6.075  0.6015 -0.3358 -0.3481
    82BTZ    S641777   3.814   7.076   5.968  0.7057 -0.3139 -0.2111
    92RH    C5441778   3.452   6.778   6.345 -0.1821  0.1800 -0.1903
    92RH     S741779   3.472   6.711   6.515 -0.2643  0.2767 -0.1427
    92RH    C5541780   3.317   6.746   6.294 -0.1786  0.2031 -0.2141
    92RH     O241781   3.273   6.777   6.182 -0.1298  0.1522 -0.2480
    92RH     N641782   3.242   6.673   6.389 -0.2389  0.2921 -0.1937
    92RH    C5641783   3.300   6.644   6.510 -0.2902  0.3431 -0.1563
    92RH    C5741784   3.110   6.634   6.353  0.3621  0.1344  0.0617
    92RH    C5841785   3.094   6.509   6.253 -0.0302  0.1196  0.1054
    92RH     S841786   3.233   6.559   6.639 -0.3664  0.4501 -0.1260
    72IDQ   C5941787   4.440   7.238   6.267  0.6925  0.1955 -0.7323
    72IDQ   C6041788   4.516   7.369   6.309  0.8247 -0.2779 -0.9273
    72IDQ   C6141789   4.580   7.452   6.196  0.2369  0.4863  0.2250
    72IDQ   C6241790   4.620   7.600   6.219  0.4966  0.5151  0.6560
    72IDQ   C6341791   4.655   7.677   6.088  0.2483 -0.4034 -0.0651
    72IDQ   C6441792   4.789   7.750   6.111 -0.2938  0.3147  0.8948
    72IDQ   C6541793   4.864   7.812   6.000  1.3509  0.1352  0.2396
    72IDQ   C6641794   4.400   7.131   5.931  0.0126 -0.2979  0.1079
    72IDQ   C6741795   4.255   7.167   5.905  0.4249  0.6276  0.3922
    72IDQ   C6841796   4.246   7.285   5.804 -0.7166 -0.2653  0.9184
    72IDQ   C6941797   4.111   7.344   5.767 -0.4924  0.4034 -0.8146
    72IDQ   C7041798   4.026   7.390   5.891  0.1011  0.2034  0.5574
    72IDQ   C7141799   4.032   7.527   5.959 -0.1166 -0.5672  0.4589
    72IDQ   C7241800   4.169   7.563   6.014  0.2217  0.3662 -0.3227
    11RH     C141801   5.476   4.306  23.555 -0.1227 -0.0740  0.2589
    11RH     C241802   5.353   4.330  23.635 -0.0055  0.0920  0.3901
    11RH     N141803   5.586   4.378  23.606 -0.0166 -0.0647  0.0230
    11RH     S141804   5.391   4.445  23.773  0.2367  0.2493  0.1958
    11RH     C341805   5.567   4.456  23.718  0.1714  0.0883 -0.0510
    11RH     C441806   5.723   4.356  23.555  0.9125 -0.3757 -0.0803
    11RH     S241807   5.680   4.550  23.799  0.3279  0.1329 -0.3204
    11RH     O141808   5.484   4.233  23.454 -0.2929 -0.2062  0.3414
    11RH     C541809   5.235   4.274  23.607 -0.0719  0.1178  0.6176
    21BTZ    C641810   5.105   4.282  23.665 -0.0212  0.0561 -0.0548
    21BTZ    C741811   5.072   4.348  23.780  0.1510  0.0263  0.0110
    21BTZ    C841812   5.001   4.218  23.590 -0.1404  0.1197  0.0567
    21BTZ    C941813   4.936   4.354  23.828  0.2142  0.0576  0.1884
    21BTZ   C1041814   4.833   4.294  23.760  0.1053  0.1184  0.2994
    21BTZ   C1141815   4.863   4.224  23.638 -0.0761  0.1514  0.2365
    21BTZ    N241816   5.020   4.152  23.476 -0.3110  0.1535  0.0072
    21BTZ    N341817   4.771   4.163  23.563 -0.1950  0.2108  0.3324
    21BTZ    S341818   4.859   4.093  23.424 -0.3984  0.2291  0.1930
    31IDT   C1241819   4.693   4.323  23.812 -0.6848 -0.0978  0.1138
    31IDT   C1341820   4.579   4.250  23.790 -0.9151  0.2302  0.2079
    31IDT   C1441821   4.463   4.311  23.846 -0.7592  0.7725 -0.0391
    31IDT   C1541822   4.487   4.429  23.912 -0.4105  0.8614 -0.3213
    31IDT    S441823   4.661   4.474  23.908 -0.2503  0.2598 -0.2972
    4IDB    C1641824   4.373   4.474  23.984 -0.6187 -0.3211  0.0152
    4IDB    C1741825   4.266   4.387  23.947 -0.9229  0.0881 -0.0787
    51IDQ   C1841826   4.311   4.290  23.835 -0.3617 -0.1753  0.3938
    4IDB    C1941827   4.139   4.401  24.004 -0.8333  0.3639  0.0563
    51IDQ   C2041828   4.261   4.141  23.864  0.1266  0.2882 -0.7534
    51IDQ   C2141829   4.254   4.333  23.689  0.0019  0.2796  1.1694
    51IDQ   C2241830   4.172   4.462  23.669 -0.2643 -0.2869  0.3686
    51IDQ   C2341831   4.361   4.033  23.915 -0.3557  0.2898  0.5108
    51IDQ   C2441832   4.142   4.499  23.523  0.2207  0.3405 -0.7647
    51IDQ   C2541833   4.024   4.597  23.501 -1.1774 -0.2694  1.1896
    51IDQ   C2641834   3.977   4.623  23.359 -0.0886  0.3916 -0.2468
    51IDQ   C2741835   3.887   4.750  23.337 -0.7404  0.9872 -0.3577
    51IDQ   C2841836   3.857   4.782  23.197 -1.0878 -0.3280  0.2504
    51IDQ   C2941837   3.784   4.913  23.187 -0.3879  0.2532 -1.1271
    51IDQ   C3041838   4.332   3.971  24.049 -0.2142  0.5090  1.1347
    51IDQ   C3141839   4.194   3.921  24.076  0.4375 -0.0273  0.2400
    51IDQ   C3241840   4.184   3.865  24.219  0.0510 -0.2583 -0.4925
    51IDQ   C3341841   4.140   3.984  24.324 -0.0500 -0.0959 -0.1495
    51IDQ   C3441842   4.094   3.943  24.460 -0.0505 -0.1396 -0.0609
    51IDQ   C3541843   3.966   3.864  24.467  0.1793  0.3355  0.2543
    4IDB    C3641844   4.354   4.576  24.079 -0.2209 -0.4580  0.2460
    4IDB    C3741845   4.224   4.589  24.136 -0.1351 -0.1720  0.3815
    11RH    C3841846   5.786   4.237  23.638  0.5473  0.0428 -0.1898
    4IDB    C3941847   4.121   4.503  24.098 -0.4358  0.2271  0.2873
    62IDT   C4041848   4.005   4.524  24.182  0.4727  0.2633  0.5706
    72IDQ   C4141849   4.170   4.689  24.231  0.2608  1.0379 -0.9934
    62IDT   C4241850   4.025   4.635  24.261  0.1739 -0.3128  1.4863
    72IDQ   C4341851   4.166   4.825  24.157  0.0575  0.5249  0.6202
    72IDQ   C4441852   4.263   4.719  24.356  1.0279  0.0946  0.9467
    62IDT    S541853   3.842   4.452  24.207  0.4625 -0.0821 -0.4029
    62IDT   C4541854   3.809   4.583  24.329  0.0337 -1.0336  0.5254
    62IDT   C4641855   3.914   4.669  24.345 -0.0747 -1.0468  1.4625
    82BTZ   C4741856   3.671   4.618  24.351 -0.5296 -0.0857 -0.1107
    82BTZ   C4841857   3.587   4.591  24.246 -0.6182 -0.0746 -0.0434
    82BTZ   C4941858   3.444   4.604  24.257 -0.6004  0.0534  0.0386
    82BTZ   C5041859   3.384   4.644  24.374 -0.4940  0.1700  0.0531
    82BTZ   C5141860   3.613   4.661  24.475 -0.4166  0.0335 -0.0982
    82BTZ   C5241861   3.468   4.674  24.487 -0.3985  0.1636 -0.0153
    92RH    C5341862   3.242   4.662  24.384  0.1805 -0.6680 -0.1995
    82BTZ    N441863   3.684   4.690  24.584 -0.3235  0.0355 -0.1593
    82BTZ    N541864   3.421   4.714  24.606 -0.2909  0.2701 -0.0095
    82BTZ    S641865   3.565   4.737  24.710 -0.2064  0.2073 -0.1111
    92RH    C5441866   3.136   4.659  24.303  0.0563 -0.4314 -0.0501
    92RH     S741867   3.133   4.601  24.128 -0.2608 -0.1616 -0.1356
    92RH    C5541868   3.000   4.703  24.343  0.1609 -0.3502  0.2170
    92RH     O241869   2.969   4.747  24.455  0.3718 -0.4882  0.3324
    92RH     N641870   2.908   4.688  24.238 -0.0105 -0.0907  0.3291
    92RH    C5641871   2.953   4.638  24.117 -0.2397  0.0458  0.1855
    92RH    C5741872   2.767   4.731  24.267 -0.1201 -0.3830 -0.2400
    92RH    C5841873   2.665   4.620  24.296  0.6283  0.1152 -0.2824
    92RH     S841874   2.863   4.611  23.977 -0.4756  0.3550  0.2732
    72IDQ   C5941875   4.256   4.637  24.483 -0.2853  0.4614  0.4316
    72IDQ   C6041876   4.377   4.543  24.503 -0.3239  0.2014 -0.2031
    72IDQ   C6141877   4.395   4.400  24.450 -0.1882 -1.0118  1.0950
    72IDQ   C6241878   4.526   4.323  24.458  0.9024 -0.4658  0.0939
    72IDQ   C6341879   4.523   4.196  24.378  0.7753 -0.0344  0.3211
    72IDQ   C6441880   4.573   4.212  24.232  0.2263  1.2648 -1.1534
    72IDQ   C6541881   4.712   4.247  24.226  0.0301 -0.7697 -0.6527
    72IDQ   C6641882   4.063   4.939  24.181  0.0236 -0.1976 -0.0621
    72IDQ   C6741883   4.135   5.083  24.204 -0.2467 -0.2934 -0.2008
    72IDQ   C6841884   4.206   5.125  24.076  0.0335  0.1747 -1.2943
    72IDQ   C6941885   4.354   5.126  24.069 -0.5226 -0.5682 -0.0234
    72IDQ   C7041886   4.417   5.246  24.135 -0.6537 -0.3437  0.6460
    72IDQ   C7141887   4.566   5.275  24.107 -0.0001 -0.0670  0.6725
    72IDQ   C7241888   4.671   5.203  24.192 -0.0871  0.1208  0.2317
    11RH     C141889   6.629   5.808  19.821 -0.1470 -0.1390  0.0744
    11RH     C241890   6.553   5.794  19.695 -0.1794 -0.0974  0.0896
    11RH     N141891   6.695   5.688  19.855  0.1816 -0.0379 -0.1883
    11RH     S141892   6.572   5.624  19.629  0.2242  0.0718 -0.2432
    11RH     C341893   6.680   5.579  19.772  0.4164  0.0795 -0.3858
    11RH     C441894   6.790   5.690  19.976 -0.8750  0.0403 -0.2712
    11RH     S241895   6.747   5.426  19.790  0.8222  0.2146 -0.7124
    11RH     O141896   6.637   5.911  19.890 -0.3752 -0.2481  0.2646
    11RH     C541897   6.482   5.894  19.640 -0.4648 -0.1748  0.3158
    21BTZ    C641898   6.372   5.893  19.536 -0.0095 -0.0139  0.2975
    21BTZ    C741899   6.321   5.776  19.486 -0.2819 -0.0254  0.6042
    21BTZ    C841900   6.318   6.017  19.489  0.0046 -0.0157  0.2756
    21BTZ    C941901   6.214   5.775  19.390 -0.5523 -0.0392  0.9027
    21BTZ   C1041902   6.158   5.891  19.343 -0.5499 -0.0414  0.8935
    21BTZ   C1141903   6.209   6.016  19.391 -0.2702 -0.0297  0.5789
    21BTZ    N241904   6.359   6.137  19.530  0.2565 -0.0052 -0.0081
    21BTZ    N341905   6.163   6.135  19.353 -0.2391 -0.0306  0.5388
    21BTZ    S341906   6.259   6.257  19.443  0.1508 -0.0132  0.1022
    31IDT   C1241907   6.059   5.888  19.233  0.2865 -0.2296  0.0772
    31IDT   C1341908   5.935   5.945  19.230  0.4628  0.1740  0.3881
    31IDT   C1441909   5.860   5.911  19.114  0.1452  0.6030  0.4616
    31IDT   C1541910   5.926   5.827  19.026 -0.2742  0.5295  0.2061
    31IDT    S441911   6.090   5.785  19.086 -0.2998 -0.0943 -0.1485
    4IDB    C1641912   5.832   5.802  18.911 -0.0618  0.2930 -0.0539
    4IDB    C1741913   5.707   5.867  18.935  0.0279  0.5519 -0.2718
    51IDQ   C1841914   5.719   5.952  19.063 -0.1172  0.5879 -0.1793
    4IDB    C1941915   5.600   5.851  18.848 -0.0709  0.2033 -0.0893
    51IDQ   C2041916   5.704   6.105  19.022 -0.8033  1.0951 -0.1218
    51IDQ   C2141917   5.610   5.926  19.179 -0.2729 -0.2260 -0.2704
    51IDQ   C2241918   5.519   5.808  19.198  0.5158  0.2315 -1.1434
    51IDQ   C2341919   5.816   6.204  19.041  0.6581  0.2271 -0.7598
    51IDQ   C2441920   5.400   5.771  19.107  0.3896 -0.1870 -0.1555
    51IDQ   C2541921   5.326   5.893  19.057  0.6924  0.4146  0.3174
    51IDQ   C2641922   5.246   5.951  19.174  0.0911  0.3941  0.1066
    51IDQ   C2741923   5.102   5.941  19.184  0.3858  0.3591 -0.5073
    51IDQ   C2841924   5.038   5.796  19.173 -1.3679 -0.3611  0.4672
    51IDQ   C2941925   4.886   5.800  19.184  0.1532  0.2918  0.1510
    51IDQ   C3041926   5.939   6.205  18.951 -0.2706 -0.9687  0.3862
    51IDQ   C3141927   5.932   6.179  18.794  0.0582  0.2456 -0.2851
    51IDQ   C3241928   6.054   6.195  18.707  0.7433 -0.4593 -0.5094
    51IDQ   C3341929   6.186   6.129  18.723 -0.6299 -0.7109  0.0680
    51IDQ   C3441930   6.207   5.986  18.772 -0.6844  0.7474 -0.4648
    51IDQ   C3541931   6.337   5.991  18.847 -0.3406 -0.2064  0.1900
    4IDB    C3641932   5.851   5.721  18.798 -0.2521 -0.3200  0.3486
    4IDB    C3741933   5.740   5.705  18.710 -0.3510 -0.6691  0.5302
    11RH    C3841934   6.939   5.723  19.952 -0.4308 -0.3777 -0.2357
    4IDB    C3941935   5.619   5.769  18.735 -0.2614 -0.4098  0.3136
    62IDT   C4041936   5.521   5.736  18.626  0.1725 -0.0755 -0.1490
    72IDQ   C4141937   5.730   5.641  18.568 -0.6527 -0.0780 -0.4953
    62IDT   C4241938   5.578   5.649  18.536  0.2841  0.0758 -0.2265
    72IDQ   C4341939   5.790   5.493  18.588  0.8112 -0.0846  0.8271
    72IDQ   C4441940   5.812   5.722  18.456  0.8268  0.8093  1.5067
    62IDT    S541941   5.352   5.778  18.583  0.1514 -0.1761 -0.1655
    62IDT   C4541942   5.367   5.670  18.437  0.3022  0.0002 -0.2817
    62IDT   C4641943   5.491   5.611  18.429  0.3575  0.1189 -0.3023
    82BTZ   C4741944   5.265   5.670  18.330  0.4753 -0.2156  0.0103
    82BTZ   C4841945   5.184   5.780  18.324  0.5225 -0.1709  0.1545
    82BTZ   C4941946   5.090   5.797  18.216  0.3519 -0.1125  0.3128
    82BTZ   C5041947   5.077   5.706  18.115  0.1345 -0.0986  0.3264
    82BTZ   C5141948   5.256   5.571  18.227  0.2499 -0.2033  0.0181
    82BTZ   C5241949   5.160   5.589  18.118  0.0767 -0.1439  0.1788
    92RH    C5341950   4.983   5.724  18.000  0.0562 -0.0691  0.7300
    82BTZ    N441951   5.330   5.459  18.223  0.1832 -0.2427 -0.1140
    82BTZ    N541952   5.157   5.492  18.025 -0.1295 -0.1355  0.1755
    82BTZ    S641953   5.280   5.372  18.075 -0.1101 -0.2050 -0.0368
    92RH    C5441954   4.885   5.811  17.972  0.1351 -0.0924  0.3681
    92RH     S741955   4.828   5.949  18.079  0.1165  0.2740 -0.1097
    92RH    C5541956   4.806   5.808  17.847  0.2530 -0.4306  0.2995
    92RH     O241957   4.821   5.727  17.754  0.2924 -0.7269  0.5627
    92RH     N641958   4.710   5.911  17.844  0.3175 -0.3775 -0.1102
    92RH    C5641959   4.702   5.996  17.952  0.2658 -0.0379 -0.3777
    92RH    C5741960   4.622   5.936  17.719  0.9611  0.9847 -0.3656
    92RH    C5841961   4.482   5.863  17.734 -0.2981 -0.5772  0.2883
    92RH     S841962   4.597   6.126  17.974  0.3232  0.0963 -0.8788
    72IDQ   C5941963   5.948   5.765  18.488 -1.3293  0.7247  0.6524
    72IDQ   C6041964   6.001   5.865  18.387  1.1309 -0.5906  0.8989
    72IDQ   C6141965   6.138   5.907  18.433 -1.0288 -0.2766 -0.0733
    72IDQ   C6241966   6.222   5.944  18.306  0.2788  0.6397 -0.0502
    72IDQ   C6341967   6.244   5.821  18.210 -0.0782  0.9381 -0.4322
    72IDQ   C6441968   6.363   5.842  18.117  0.4105 -0.0072  0.4923
    72IDQ   C6541969   6.497   5.810  18.174  0.1839 -1.3675 -0.6657
    72IDQ   C6641970   5.709   5.389  18.674 -0.3625 -0.1559  0.0842
    72IDQ   C6741971   5.751   5.243  18.662  0.4644  0.0095 -0.7668
    72IDQ   C6841972   5.884   5.194  18.638  0.2145 -0.1719 -0.2738
    72IDQ   C6941973   5.892   5.043  18.601  0.5001 -0.1866  0.0775
    72IDQ   C7041974   6.040   5.003  18.566  0.1435 -0.5280  1.0101
    72IDQ   C7141975   6.075   4.854  18.555 -0.2787  0.4071  0.9461
    72IDQ   C7241976   6.228   4.827  18.549  0.1754  1.0493 -0.1088
    11RH     C141977   7.358   5.020  22.336 -0.0609 -0.4706 -0.1574
    11RH     C241978   7.248   5.098  22.275 -0.0365 -0.3130 -0.0010
    11RH     N141979   7.479   5.094  22.338 -0.0483 -0.4953  0.0286
    11RH     S141980   7.310   5.264  22.224  0.0017 -0.2074  0.3813
    11RH     C341981   7.479   5.221  22.286 -0.0166 -0.3767  0.3152
    11RH     C441982   7.619   5.024  22.387  0.9652  0.9703  0.1112
    11RH     S241983   7.608   5.329  22.276  0.0042 -0.3763  0.5803
    11RH     O141984   7.349   4.905  22.381 -0.0893 -0.5707 -0.4196
    11RH     C541985   7.124   5.052  22.261 -0.0423 -0.2601 -0.1287
    21BTZ    C641986   7.005   5.099  22.179  0.2351 -0.4143 -0.2505
    21BTZ    C741987   6.992   5.205  22.093  0.3887 -0.3158 -0.1531
    21BTZ    C841988   6.889   5.022  22.212  0.0966 -0.1886 -0.2074
    21BTZ    C941989   6.864   5.241  22.037  0.4138  0.0072 -0.0105
    21BTZ   C1041990   6.750   5.170  22.066  0.2853  0.2311  0.0352
    21BTZ   C1141991   6.759   5.058  22.154  0.1220  0.1396 -0.0625
    21BTZ    N241992   6.890   4.916  22.294 -0.0589 -0.2559 -0.2918
    21BTZ    N341993   6.656   4.981  22.190 -0.0130  0.3361 -0.0300
    21BTZ    S341994   6.721   4.857  22.301 -0.1819  0.1050 -0.1874
    31IDT   C1241995   6.621   5.208  22.001 -0.0117 -0.0366  0.1216
    31IDT   C1341996   6.504   5.139  21.999  0.0534 -0.1433 -0.2065
    31IDT   C1441997   6.402   5.202  21.921  0.2100 -0.2308 -0.4811
    31IDT   C1541998   6.442   5.320  21.862  0.2655 -0.1913 -0.3655
    31IDT    S441999   6.613   5.361  21.902  0.1220 -0.0390  0.1052
    4IDB    C1642000   6.346   5.370  21.771  0.1706  0.6222  0.1288
    4IDB    C1742001   6.224   5.298  21.787  0.5456 -0.1124 -0.2246
    51IDQ   C1842002   6.248   5.187  21.888 -0.8776 -0.7900  0.7120
    4IDB    C1942003   6.114   5.326  21.707  0.4683 -0.4622 -0.2421
    51IDQ   C2042004   6.147   5.222  22.008 -0.7403  0.6133 -0.1688
    51IDQ   C2142005   6.227   5.043  21.838 -0.1483 -0.0353  0.3745
    51IDQ   C2242006   6.175   4.990  21.706 -0.6083 -0.3967  0.7959
    51IDQ   C2342007   6.200   5.252  22.146  0.3689  0.5346  0.0550
    51IDQ   C2442008   6.169   4.834  21.708  0.2813 -0.2306  0.2897
    51IDQ   C2542009   6.076   4.757  21.615  0.0941 -0.0310 -0.1034
    51IDQ   C2642010   6.054   4.798  21.479  0.7947  0.1531  1.5593
    51IDQ   C2742011   6.189   4.788  21.400  0.5285 -0.5943 -0.2018
    51IDQ   C2842012   6.177   4.737  21.260 -0.4213  0.0292 -0.4493
    51IDQ   C2942013   6.311   4.731  21.200  0.7251 -0.2410 -0.3595
    51IDQ   C3042014   6.239   5.124  22.223 -0.1986  0.6149  1.2460
    51IDQ   C3142015   6.304   5.157  22.349  0.1339 -0.2444 -0.3494
    51IDQ   C3242016   6.280   5.061  22.463  0.5571 -0.0454 -0.0784
    51IDQ   C3342017   6.375   5.113  22.566  1.1482 -0.4447  0.5035
    51IDQ   C3442018   6.396   5.022  22.679  0.1946  0.4368  0.2957
    51IDQ   C3542019   6.521   4.936  22.651  0.1032  0.0247 -0.4574
    4IDB    C3642020   6.359   5.471  21.674 -0.2868  1.0138  0.4697
    4IDB    C3742021   6.245   5.498  21.593 -0.3593  0.6475  0.4468
    11RH    C3842022   7.652   5.029  22.536 -0.9421  0.7296  0.3725
    4IDB    C3942023   6.126   5.426  21.611  0.0108 -0.0707  0.0988
    62IDT   C4042024   6.036   5.467  21.510 -0.0153 -0.1485  0.0510
    72IDQ   C4142025   6.230   5.598  21.483  1.1579 -0.1912  0.7603
    62IDT   C4242026   6.087   5.570  21.433  0.0665 -0.2177  0.0129
    72IDQ   C4342027   6.338   5.610  21.366 -0.4989 -0.1205 -0.2687
    72IDQ   C4442028   6.190   5.746  21.531 -0.2423 -0.3670  0.8596
    62IDT    S542029   5.876   5.412  21.451  0.0913 -0.2674 -0.1334
    62IDT   C4542030   5.886   5.538  21.320  0.2488 -0.4109 -0.2596
    62IDT   C4642031   6.002   5.610  21.326  0.2160 -0.3660 -0.1636
    82BTZ   C4742032   5.778   5.549  21.216  0.1804  0.0862  0.2458
    82BTZ   C4842033   5.695   5.440  21.198  0.2493  0.0110  0.3810
    82BTZ   C4942034   5.587   5.442  21.103  0.2056 -0.1531  0.4268
    82BTZ   C5042035   5.561   5.553  21.026  0.0932 -0.2416  0.3367
    82BTZ   C5142036   5.754   5.666  21.138  0.0621 -0.0015  0.1478
    82BTZ   C5242037   5.644   5.668  21.041  0.0178 -0.1683  0.1945
    92RH    C5342038   5.464   5.543  20.909  0.2445  0.1683 -0.1238
    82BTZ    N442039   5.827   5.778  21.146 -0.0132  0.0587  0.0143
    82BTZ    N542040   5.629   5.782  20.972 -0.0932 -0.2422  0.0978
    82BTZ    S642041   5.757   5.893  21.029 -0.1471 -0.0988 -0.0600
    92RH    C5442042   5.399   5.444  20.847  0.2246  0.1560 -0.0844
    92RH     S742043   5.422   5.264  20.873  0.0448  0.1644  0.1317
    92RH    C5542044   5.296   5.467  20.743  0.3504  0.1334 -0.2151
    92RH     O242045   5.258   5.578  20.702  0.4860  0.1229 -0.3734
    92RH     N642046   5.244   5.345  20.693  0.2971  0.1244 -0.1376
    92RH    C5642047   5.294   5.228  20.745  0.1442  0.1371  0.0396
    92RH    C5742048   5.122   5.336  20.586 -0.4134 -0.3945 -0.3609
    92RH    C5842049   4.977   5.364  20.628  1.1120  0.3871  0.6143
    92RH     S842050   5.249   5.070  20.704  0.0525  0.1304  0.1626
    72IDQ   C5942051   6.288   5.854  21.585 -0.7142  0.2656  0.3788
    72IDQ   C6042052   6.424   5.815  21.624 -0.8622  1.1813 -0.0439
    72IDQ   C6142053   6.516   5.941  21.624  0.4471  0.9279 -0.9980
    72IDQ   C6242054   6.655   5.928  21.688  0.6302  0.3682 -0.5135
    72IDQ   C6342055   6.726   6.066  21.711 -0.3919  0.0505  0.0965
    72IDQ   C6442056   6.646   6.151  21.809 -0.2047  0.4616 -0.6065
    72IDQ   C6542057   6.732   6.257  21.880  0.8104 -0.1508 -0.0524
    72IDQ   C6642058   6.336   5.523  21.242 -0.5345 -0.6594 -0.2050
    72IDQ   C6742059   6.395   5.590  21.121  0.4250  0.6723  0.1765
    72IDQ   C6842060   6.321   5.634  20.992 -0.0393  0.4568  0.2381
    72IDQ   C6942061   6.220   5.743  20.991 -0.2911 -0.1917 -0.0929
    72IDQ   C7042062   6.267   5.882  21.011 -1.3829  0.2001 -0.5420
    72IDQ   C7142063   6.180   6.000  20.993 -0.3257  0.2725  0.7260
    72IDQ   C7242064   6.251   6.137  21.001  0.5169  0.0800  0.3560
    11RH     C142065   0.695   6.224  21.422 -0.0404  0.0540  0.6833
    11RH     C242066   0.559   6.200  21.368  0.0764 -0.0215  0.4196
    11RH     N142067   0.764   6.103  21.444  0.1183  0.1030  0.4643
    11RH     S142068   0.531   6.019  21.350  0.3871 -0.0230 -0.0973
    11RH     C342069   0.700   5.985  21.415  0.3478  0.0761  0.0577
    11RH     C442070   0.904   6.107  21.498  1.2511  0.0063  0.1162
    11RH     S242071   0.760   5.828  21.433  0.5700  0.1225 -0.2689
    11RH     O142072   0.744   6.336  21.445 -0.2504  0.0733  1.0495
    11RH     C542073   0.472   6.297  21.338 -0.0346 -0.0782  0.5520
    21BTZ    C642074   0.345   6.297  21.262 -0.0117 -0.0685  0.2377
    21BTZ    C742075   0.294   6.183  21.206  0.1078 -0.0021 -0.0081
    21BTZ    C842076   0.275   6.421  21.243  0.0826 -0.0283  0.1512
    21BTZ    C942077   0.173   6.184  21.129  0.3246  0.1060 -0.3490
    21BTZ   C1042078   0.102   6.299  21.107  0.4215  0.1478 -0.4440
    21BTZ   C1142079   0.151   6.422  21.164  0.3030  0.0817 -0.1955
    21BTZ    N242080   0.314   6.538  21.292 -0.0176 -0.0849  0.3686
    21BTZ    N342081   0.092   6.540  21.149  0.3799  0.1132 -0.2570
    21BTZ    S342082   0.193   6.658  21.238  0.1695  0.0015  0.1332
    31IDT   C1242083  -0.023   6.287  21.021  0.3337 -0.2128 -0.9681
    31IDT   C1342084  -0.070   6.376  20.929  0.3409 -0.7550 -1.5106
    31IDT   C1442085  -0.180   6.325  20.853  0.0401 -1.0461 -0.8931
    31IDT   C1542086  -0.217   6.196  20.887 -0.1981 -0.7284  0.1222
    31IDT    S442087  -0.115   6.130  21.019 -0.0584 -0.0300  0.3768
    4IDB    C1642088  -0.326   6.156  20.802  0.6183 -0.2800 -0.5872
    4IDB    C1742089  -0.348   6.250  20.697  0.0851 -0.0387 -0.2680
    51IDQ   C1842090  -0.258   6.376  20.736 -0.1362 -0.4478 -0.5423
    4IDB    C1942091  -0.440   6.224  20.596 -0.4045  0.1790  0.1111
    51IDQ   C2042092  -0.165   6.412  20.606  0.1214 -0.1937  0.1614
    51IDQ   C2142093  -0.351   6.497  20.770 -0.8693  0.4233 -0.4704
    51IDQ   C2242094  -0.494   6.488  20.794 -0.2214  0.6878  0.9212
    51IDQ   C2342095  -0.015   6.430  20.598 -0.9647  0.1491 -0.1216
    51IDQ   C2442096  -0.562   6.381  20.894 -0.8054 -0.5578 -0.1056
    51IDQ   C2542097  -0.514   6.395  21.034 -0.3432 -0.0339 -0.4185
    51IDQ   C2642098  -0.584   6.319  21.141 -0.4420  0.8698  0.3942
    51IDQ   C2742099  -0.743   6.316  21.139 -0.5833 -0.4556  0.8735
    51IDQ   C2842100  -0.810   6.266  21.266  0.0889  0.0490 -0.2162
    51IDQ   C2942101  -0.751   6.315  21.399 -0.1419  0.1219 -0.3058
    51IDQ   C3042102   0.038   6.470  20.462  0.2737 -0.2515 -0.4540
    51IDQ   C3142103   0.180   6.507  20.474 -0.1633  0.3060  0.2865
    51IDQ   C3242104   0.239   6.558  20.345 -0.2165  0.5891  0.3634
    51IDQ   C3342105   0.239   6.486  20.210 -0.1460 -0.1643 -0.0635
    51IDQ   C3442106   0.293   6.335  20.214 -0.0808  0.7132  0.4794
    51IDQ   C3542107   0.252   6.259  20.089 -0.1986 -0.4155 -0.2322
    4IDB    C3642108  -0.396   6.034  20.807  0.6648 -0.3049 -0.5307
    4IDB    C3742109  -0.489   6.009  20.702  0.1600 -0.0803 -0.1416
    11RH    C3842110   1.001   6.133  21.394 -0.1545 -0.3000  0.3329
    4IDB    C3942111  -0.510   6.102  20.600 -0.3579  0.1542  0.1678
    62IDT   C4042112  -0.612   6.055  20.511  0.3427  0.1643 -0.2318
    72IDQ   C4142113  -0.567   5.880  20.675  0.5247  0.4041  0.1778
    62IDT   C4242114  -0.653   5.929  20.550  0.8028  0.0528 -0.0949
    72IDQ   C4342115  -0.679   5.842  20.788  0.3180 -0.8134 -0.0171
    72IDQ   C4442116  -0.469   5.761  20.655 -0.3287  0.5795  0.2045
    62IDT    S542117  -0.695   6.110  20.362 -0.3728 -0.0105  0.0954
    62IDT   C4542118  -0.786   5.952  20.359  0.0063 -0.2361  0.4161
    62IDT   C4642119  -0.751   5.871  20.464  0.6135 -0.1738  0.2723
    82BTZ   C4742120  -0.885   5.924  20.252  0.0672 -0.2534  0.2333
    82BTZ   C4842121  -0.941   6.033  20.189  0.4520 -0.0629  0.2117
    82BTZ   C4942122  -1.036   6.017  20.082  0.6630  0.2590 -0.0257
    82BTZ   C5042123  -1.075   5.894  20.037  0.4893  0.3903 -0.2417
    82BTZ   C5142124  -0.922   5.793  20.209 -0.1277 -0.1271  0.0124
    82BTZ   C5242125  -1.019   5.777  20.100  0.0870  0.2003 -0.2289
    92RH    C5342126  -1.175   5.878  19.920 -0.2079  0.2059  0.2681
    82BTZ    N442127  -0.875   5.680  20.262 -0.5012 -0.2892  0.0095
    82BTZ    N542128  -1.049   5.652  20.065 -0.1142  0.3012 -0.4263
    82BTZ    S642129  -0.953   5.546  20.173 -0.5964 -0.0247 -0.3090
    92RH    C5442130  -1.248   5.961  19.845 -0.2997 -0.0094  0.1187
    92RH     S742131  -1.255   6.144  19.857 -0.3225  0.0242 -0.3652
    92RH    C5542132  -1.339   5.915  19.737 -0.4003 -0.3184  0.3314
    92RH     O242133  -1.357   5.796  19.703 -0.4114 -0.4132  0.6657
    92RH     N642134  -1.403   6.023  19.674 -0.4845 -0.4984  0.1045
    92RH    C5642135  -1.376   6.151  19.718 -0.4637 -0.3713 -0.2637
    92RH    C5742136  -1.503   5.997  19.569 -0.3081  0.9281  0.9510
    92RH    C5842137  -1.642   5.963  19.613 -0.0063 -0.4717 -0.3941
    92RH     S842138  -1.439   6.296  19.661 -0.5496 -0.5357 -0.5913
    72IDQ   C5942139  -0.330   5.787  20.590 -0.1510 -0.0251 -0.0685
    72IDQ   C6042140  -0.214   5.743  20.683 -0.1172 -0.6279  0.5401
    72IDQ   C6142141  -0.074   5.798  20.641 -0.0855  0.1280 -0.0104
    72IDQ   C6242142  -0.003   5.828  20.762 -0.9599 -0.2710 -1.7867
    72IDQ   C6342143   0.116   5.930  20.755 -0.3272  0.0701 -0.9427
    72IDQ   C6442144   0.091   6.075  20.723  0.1918 -0.0999 -0.5946
    72IDQ   C6542145   0.211   6.154  20.761  0.4230 -0.0481  0.6207
    72IDQ   C6642146  -0.726   5.919  20.913  1.2496 -0.1190 -0.2628
    72IDQ   C6742147  -0.781   6.066  20.884  0.0410 -0.6673 -0.4381
    72IDQ   C6842148  -0.880   6.094  20.771 -0.8159 -0.4222 -0.0570
    72IDQ   C6942149  -0.922   6.240  20.750  0.2404  0.2443  0.3319
    72IDQ   C7042150  -0.985   6.279  20.620  0.0112  0.5693  0.1914
    72IDQ   C7142151  -1.116   6.339  20.647  1.5001  0.2642  0.4348
    72IDQ   C7242152  -1.188   6.410  20.530  0.0102 -0.0988 -0.4036
    11RH     C142153   0.878   3.107  19.816 -0.0175 -0.2710 -0.1221
    11RH     C242154   0.954   3.127  19.942 -0.1073 -0.2530 -0.0710
    11RH     N142155   0.964   3.111  19.704  0.0829 -0.4288 -0.0523
    11RH     S142156   1.132   3.149  19.905 -0.0539 -0.4446  0.0653
    11RH     C342157   1.098   3.131  19.725  0.0845 -0.5393  0.0486
    11RH     C442158   0.900   3.091  19.570  0.1657 -0.0331 -0.6611
    11RH     S242159   1.220   3.140  19.609  0.1926 -0.7336  0.1469
    11RH     O142160   0.756   3.089  19.807 -0.0270 -0.1633 -0.2151
    11RH     C542161   0.896   3.127  20.063 -0.2107 -0.1156 -0.1206
    21BTZ    C642162   0.962   3.141  20.192 -0.0197 -0.2365 -0.1618
    21BTZ    C742163   1.098   3.149  20.206 -0.0250 -0.2468 -0.1040
    21BTZ    C842164   0.880   3.160  20.307 -0.0714 -0.1540 -0.2117
    21BTZ    C942165   1.160   3.176  20.333 -0.0811 -0.1771 -0.0911
    21BTZ   C1042166   1.085   3.195  20.447 -0.1317 -0.0971 -0.1370
    21BTZ   C1142167   0.942   3.187  20.437 -0.1284 -0.0831 -0.1988
    21BTZ    N242168   0.746   3.154  20.306 -0.0719 -0.1359 -0.2704
    21BTZ    N342169   0.859   3.203  20.540 -0.1746 -0.0081 -0.2475
    21BTZ    S342170   0.694   3.184  20.475 -0.1466 -0.0254 -0.3133
    31IDT   C1242171   1.167   3.208  20.569  0.6700  0.2196  0.6115
    31IDT   C1342172   1.281   3.281  20.591  1.2023 -0.5903  0.6299
    31IDT   C1442173   1.345   3.249  20.714  1.0979 -1.2277  0.5250
    31IDT   C1542174   1.280   3.152  20.788  0.4869 -0.9089  0.4259
    31IDT    S442175   1.132   3.092  20.705 -0.0082  0.2340  0.4590
    4IDB    C1642176   1.356   3.136  20.913  0.5357  0.1304 -0.3511
    4IDB    C1742177   1.474   3.217  20.910  0.4924  0.2082 -0.0429
    51IDQ   C1842178   1.472   3.299  20.787  0.3290 -0.4309  0.1968
    4IDB    C1942179   1.559   3.225  21.020  0.4576 -0.1185  0.0066
    51IDQ   C2042180   1.458   3.444  20.838  0.2334 -0.4098 -0.8140
    51IDQ   C2142181   1.588   3.292  20.681  0.0859  0.3454  0.3729
    51IDQ   C2242182   1.703   3.192  20.693 -0.5102 -0.0990  0.1631
    51IDQ   C2342183   1.342   3.532  20.813  0.6443 -0.5115 -0.5019
    51IDQ   C2442184   1.833   3.244  20.615 -0.3091 -1.1004  0.3249
    51IDQ   C2542185   1.963   3.166  20.604 -0.6079 -0.3106  0.4400
    51IDQ   C2642186   2.011   3.118  20.731 -0.9078  0.7812 -1.5101
    51IDQ   C2742187   2.132   3.020  20.719  1.1899 -0.1839  0.3368
    51IDQ   C2842188   2.253   3.059  20.649 -0.1628 -0.2310  0.3805
    51IDQ   C2942189   2.369   2.965  20.654 -0.2412  0.0163  1.1402
    51IDQ   C3042190   1.374   3.657  20.900 -0.1968  0.5038  0.6187
    51IDQ   C3142191   1.267   3.751  20.943 -0.3012  0.5195 -0.9343
    51IDQ   C3242192   1.136   3.707  20.996  0.2223 -0.5465 -0.4327
    51IDQ   C3342193   1.045   3.809  21.064  0.6716 -0.1882  0.3750
    51IDQ   C3442194   1.079   3.805  21.212 -0.2286 -0.9126 -0.0253
    51IDQ   C3542195   1.016   3.928  21.279 -0.6964  1.1300  0.0641
    4IDB    C3642196   1.323   3.061  21.027  0.5446 -0.2773 -0.6123
    4IDB    C3742197   1.411   3.070  21.138  0.5087 -0.6071 -0.5565
    11RH    C3842198   0.905   2.943  19.524  1.1591 -0.4113 -0.9536
    4IDB    C3942199   1.526   3.150  21.133  0.4665 -0.5261 -0.2543
    62IDT   C4042200   1.604   3.122  21.254 -0.4975  0.3537  0.1960
    72IDQ   C4142201   1.401   2.997  21.273 -1.3307  0.1803 -0.0724
    62IDT   C4242202   1.540   3.034  21.339 -0.1832  0.2071  0.2828
    72IDQ   C4342203   1.387   2.838  21.252 -0.8135 -0.0486  0.2374
    72IDQ   C4442204   1.283   3.056  21.356 -0.2361 -0.1551  0.1314
    62IDT    S542205   1.769   3.163  21.311 -0.3580  0.4074 -0.2418
    62IDT   C4542206   1.742   3.054  21.454  0.1421  0.2199 -0.2866
    62IDT   C4642207   1.618   2.996  21.452  0.1788  0.1313  0.0110
    82BTZ   C4742208   1.846   3.061  21.557 -0.1616 -0.0253 -0.4623
    82BTZ   C4842209   1.889   2.948  21.621 -0.0218 -0.0594 -0.6118
    82BTZ   C4942210   1.972   2.954  21.739  0.2001 -0.1199 -0.7648
    82BTZ   C5042211   2.013   3.074  21.791  0.2818 -0.1462 -0.7680
    82BTZ   C5142212   1.887   3.188  21.608 -0.0836 -0.0508 -0.4597
    82BTZ   C5242213   1.971   3.195  21.727  0.1418 -0.1124 -0.6146
    92RH    C5342214   2.080   3.092  21.914  0.2146  0.0236 -0.4175
    82BTZ    N442215   1.852   3.305  21.553 -0.2042 -0.0221 -0.3219
    82BTZ    N542216   2.005   3.318  21.768  0.2025 -0.1330 -0.6027
    82BTZ    S642217   1.928   3.432  21.654 -0.0308 -0.0735 -0.3866
    92RH    C5442218   2.130   3.023  22.017  0.0769  0.0241 -0.3500
    92RH     S742219   2.093   2.849  22.061 -0.2233  0.1197 -0.2160
    92RH    C5542220   2.226   3.080  22.115  0.1498 -0.0558 -0.3743
    92RH     O242221   2.271   3.196  22.113  0.3430 -0.1311 -0.4592
    92RH     N642222   2.262   2.985  22.213 -0.0299 -0.0363 -0.2898
    92RH    C5642223   2.206   2.859  22.206 -0.2379  0.0496 -0.1998
    92RH    C5742224   2.357   3.033  22.323 -0.0154  0.4308 -0.6433
    92RH    C5842225   2.501   2.994  22.279 -0.0280 -0.8177  0.5583
    92RH     S842226   2.232   2.729  22.310 -0.4780  0.0899 -0.0882
    72IDQ   C5942227   1.268   3.039  21.504  0.5369  1.2357  0.4830
    72IDQ   C6042228   1.140   3.047  21.579  0.1428 -0.3814 -0.1165
    72IDQ   C6142229   1.149   3.039  21.729 -0.7785 -0.4758  0.4209
    72IDQ   C6242230   1.249   3.147  21.780  0.4783 -1.0704  0.3603
    72IDQ   C6342231   1.228   3.303  21.759 -0.4198  0.0451 -0.2085
    72IDQ   C6442232   1.332   3.394  21.823 -0.9945  0.3884  1.1205
    72IDQ   C6542233   1.479   3.375  21.776 -0.6997 -0.8971 -0.5196
    72IDQ   C6642234   1.510   2.740  21.225 -0.1096 -1.1215  0.2452
    72IDQ   C6742235   1.562   2.745  21.076  0.6317  0.5097 -2.1498
    72IDQ   C6842236   1.674   2.652  21.042  0.3767 -1.4958  1.2772
    72IDQ   C6942237   1.758   2.696  20.922  0.2470 -1.3344  0.8681
    72IDQ   C7042238   1.860   2.602  20.865 -0.4735  0.0369 -0.4123
    72IDQ   C7142239   1.943   2.656  20.750 -0.3238  0.7759 -0.5190
    72IDQ   C7242240   2.043   2.582  20.660  0.7934 -0.4987 -0.5525
    11RH     C142241   6.504   4.297  10.459 -0.3246 -0.0757 -0.2766
    11RH     C242242   6.404   4.381  10.390 -0.1798  0.1745 -0.1831
    11RH     N142243   6.626   4.292  10.388 -0.3994 -0.3737 -0.3866
    11RH     S142244   6.476   4.449  10.235 -0.1518  0.0014 -0.2459
    11RH     C342245   6.635   4.362  10.270 -0.3325 -0.3928 -0.3927
    11RH     C442246   6.725   4.191  10.437  0.7841 -0.3813  0.1834
    11RH     S242247   6.768   4.372  10.167 -0.3978 -0.7169 -0.5121
    11RH     O142248   6.486   4.237  10.566 -0.3762 -0.0354 -0.2627
    11RH     C542249   6.280   4.403  10.436 -0.0872  0.4777 -0.0714
    21BTZ    C642250   6.169   4.494  10.401  0.0924 -0.1034 -0.1802
    21BTZ    C742251   6.183   4.587  10.301  0.0906 -0.0805 -0.1588
    21BTZ    C842252   6.050   4.496  10.481  0.1107 -0.0975 -0.1528
    21BTZ    C942253   6.080   4.686  10.275  0.1066 -0.0510 -0.1104
    21BTZ   C1042254   5.965   4.691  10.349  0.1244 -0.0442 -0.0830
    21BTZ   C1142255   5.946   4.595  10.454  0.1271 -0.0675 -0.1032
    21BTZ    N242256   6.026   4.410  10.580  0.1142 -0.1177 -0.1693
    21BTZ    N342257   5.838   4.590  10.533  0.1435 -0.0635 -0.0803
    21BTZ    S342258   5.865   4.455  10.646  0.1389 -0.0991 -0.1215
    31IDT   C1242259   5.868   4.794  10.302 -0.0868 -0.1257 -0.2020
    31IDT   C1342260   5.736   4.810  10.335 -0.0622  0.0533 -0.1917
    31IDT   C1442261   5.677   4.923  10.271  0.1484  0.2751 -0.0029
    31IDT   C1542262   5.762   4.993  10.188  0.2854  0.2667  0.1318
    31IDT    S442263   5.927   4.921  10.186  0.1573 -0.0253  0.0291
    4IDB    C1642264   5.694   5.076  10.107 -0.6358 -0.1424  0.4268
    4IDB    C1742265   5.555   5.070  10.139 -0.6424  0.2218  0.4745
    51IDQ   C1842266   5.545   4.998  10.269 -0.0323  0.2121 -0.7409
    4IDB    C1942267   5.462   5.141  10.065 -0.5018  0.3245  0.3937
    51IDQ   C2042268   5.516   5.107  10.393  0.4997  1.2579  0.1885
    51IDQ   C2142269   5.421   4.893  10.288 -0.3837 -0.8742 -0.4954
    51IDQ   C2242270   5.293   4.886  10.192 -0.1195  0.0745 -0.1083
    51IDQ   C2342271   5.595   5.126  10.521  0.9421 -0.2769  0.0700
    51IDQ   C2442272   5.162   4.838  10.270 -0.7322  0.0466  0.0445
    51IDQ   C2542273   5.044   4.888  10.183 -0.2229 -0.9827 -0.1663
    51IDQ   C2642274   4.916   4.829  10.239  1.0949  0.4907 -0.5129
    51IDQ   C2742275   4.815   4.875  10.131  0.7236 -0.2990  1.2840
    51IDQ   C2842276   4.679   4.824  10.162 -0.6430 -0.7294 -0.1345
    51IDQ   C2942277   4.568   4.880  10.069 -0.7453 -1.4590 -0.6720
    51IDQ   C3042278   5.735   5.189  10.498 -0.1763  0.2128  0.5796
    51IDQ   C3142279   5.761   5.313  10.405 -0.1977 -0.0432  0.0255
    51IDQ   C3242280   5.910   5.344  10.399  0.8669  0.7375  0.4976
    51IDQ   C3342281   6.008   5.246  10.327 -0.6506 -0.0795 -0.3235
    51IDQ   C3442282   6.157   5.270  10.358  0.4818 -0.0781  0.2507
    51IDQ   C3542283   6.259   5.153  10.355 -0.9116  0.4923 -0.1600
    4IDB    C3642284   5.740   5.153   9.999 -0.4878 -0.4076  0.2971
    4IDB    C3742285   5.643   5.225   9.924 -0.3455 -0.2979  0.2162
    11RH    C3842286   6.816   4.219  10.549 -0.7244  0.3426  0.2869
    4IDB    C3942287   5.508   5.218   9.957 -0.3539  0.0592  0.2645
    62IDT   C4042288   5.429   5.285   9.852 -0.1988  0.1110 -0.3948
    72IDQ   C4142289   5.657   5.313   9.790 -0.2997  0.0253  0.1081
    62IDT   C4242290   5.508   5.334   9.750 -0.4842  0.0886 -0.6282
    72IDQ   C4342291   5.732   5.218   9.674  1.0329 -0.5342  0.6744
    72IDQ   C4442292   5.752   5.439   9.799  0.6281  0.6581 -0.4127
    62IDT    S542293   5.259   5.339   9.837 -0.1865  0.3323  0.2253
    62IDT   C4542294   5.305   5.430   9.687 -0.5873  0.3852  0.1325
    62IDT   C4642295   5.438   5.416   9.656 -0.7043  0.2435 -0.3302
    82BTZ   C4742296   5.197   5.489   9.607  0.2614 -0.1944 -0.0637
    82BTZ   C4842297   5.074   5.484   9.667  0.3275 -0.1040  0.0806
    82BTZ   C4942298   4.966   5.570   9.624  0.3518  0.0036  0.2334
    82BTZ   C5042299   4.981   5.660   9.522  0.3101  0.0206  0.2422
    82BTZ   C5142300   5.218   5.581   9.500  0.2159 -0.1808 -0.0608
    82BTZ   C5242301   5.108   5.668   9.457  0.2407 -0.0714  0.0947
    92RH    C5342302   4.866   5.743   9.477  0.0203 -0.4063 -0.3866
    82BTZ    N442303   5.333   5.595   9.434  0.1506 -0.2624 -0.1929
    82BTZ    N542304   5.135   5.752   9.356  0.1951 -0.0651  0.0873
    82BTZ    S642305   5.306   5.722   9.311  0.1172 -0.2019 -0.1231
    92RH    C5442306   4.741   5.758   9.523  0.1022 -0.2476 -0.2124
    92RH     S742307   4.656   5.652   9.646  0.3725  0.2634  0.4304
    92RH    C5542308   4.651   5.867   9.479 -0.0186 -0.4711 -0.5260
    92RH     O242309   4.678   5.955   9.397 -0.2059 -0.8240 -0.9778
    92RH     N642310   4.525   5.858   9.544  0.1068 -0.2309 -0.2462
    92RH    C5642311   4.504   5.756   9.634  0.3130  0.1575  0.2534
    92RH    C5742312   4.414   5.950   9.491 -0.7260 -0.2476  0.2998
    92RH    C5842313   4.360   5.919   9.348 -0.4085 -0.1840 -0.1379
    92RH     S842314   4.365   5.724   9.723  0.4941  0.5029  0.6673
    72IDQ   C5942315   5.708   5.546   9.900 -1.5429 -0.4663  0.2437
    72IDQ   C6042316   5.820   5.642   9.931 -1.5508  0.7370 -0.5495
    72IDQ   C6142317   5.925   5.588  10.030  0.5564 -0.5714  0.2818
    72IDQ   C6242318   6.063   5.652  10.027  0.6540 -0.2618  0.3078
    72IDQ   C6342319   6.164   5.584  10.123  0.1953 -0.5651 -0.3244
    72IDQ   C6442320   6.283   5.682  10.147  1.1318 -0.0166  0.3742
    72IDQ   C6542321   6.395   5.667  10.042  0.5461  0.5301  0.6383
    72IDQ   C6642322   5.752   5.281   9.532  0.6186 -0.2789 -0.6266
    72IDQ   C6742323   5.877   5.225   9.458 -0.1594 -0.9911  0.2487
    72IDQ   C6842324   5.903   5.283   9.318  0.0456  0.0640  0.4934
    72IDQ   C6942325   6.032   5.222   9.247  0.0498  0.6501  0.6507
    72IDQ   C7042326   6.044   5.249   9.099 -0.4908 -1.3671  0.1042
    72IDQ   C7142327   5.985   5.377   9.025  0.0677  0.5189 -1.4019
    72IDQ   C7242328   6.096   5.473   8.999  0.0484  0.6926  0.1653
    11RH     C142329   0.786   5.591  27.073  0.1766 -0.0886  0.2341
    11RH     C242330   0.640   5.572  27.060  0.1487  0.0688  0.3142
    11RH     N142331   0.854   5.549  26.956  0.0617 -0.0984  0.1699
    11RH     S142332   0.601   5.500  26.896 -0.0269  0.1936  0.3009
    11RH     C342333   0.780   5.498  26.852 -0.0549  0.0318  0.1893
    11RH     C442334   0.999   5.540  26.938 -0.2217  0.0237 -1.5645
    11RH     S242335   0.836   5.442  26.703 -0.2046  0.0508  0.1249
    11RH     O142336   0.845   5.637  27.172  0.2860 -0.1997  0.2222
    11RH     C542337   0.553   5.603  27.156  0.2405  0.1090  0.3841
    21BTZ    C642338   0.407   5.596  27.161 -0.3937  0.0460 -0.1976
    21BTZ    C742339   0.329   5.573  27.050 -0.5009 -0.1494 -0.0834
    21BTZ    C842340   0.343   5.626  27.285 -0.2847 -0.0405 -0.1197
    21BTZ    C942341   0.186   5.579  27.056 -0.5063 -0.4376  0.1116
    21BTZ   C1042342   0.119   5.607  27.173 -0.4045 -0.5299  0.1921
    21BTZ   C1142343   0.196   5.632  27.291 -0.2902 -0.3334  0.0787
    21BTZ    N242344   0.407   5.650  27.399 -0.1750  0.1304 -0.2170
    21BTZ    N342345   0.143   5.660  27.410 -0.1849 -0.3980  0.1407
    21BTZ    S342346   0.281   5.681  27.522 -0.0719 -0.0803 -0.0552
    31IDT   C1242347  -0.019   5.623  27.164 -0.2411 -0.5438  0.0442
    31IDT   C1342348  -0.093   5.710  27.240 -0.1661 -0.4873  0.0525
    31IDT   C1442349  -0.230   5.716  27.200 -0.1099 -0.1864 -0.1030
    31IDT   C1542350  -0.262   5.633  27.094 -0.1420 -0.0118 -0.2315
    31IDT    S442351  -0.119   5.540  27.036 -0.2464 -0.2168 -0.1637
    4IDB    C1642352  -0.395   5.659  27.049 -0.4821  0.3973  0.0884
    4IDB    C1742353  -0.449   5.770  27.121 -0.4215  0.4668  0.0257
    51IDQ   C1842354  -0.356   5.796  27.247 -0.3053 -0.6592  0.0741
    4IDB    C1942355  -0.571   5.826  27.085 -0.3069  0.6273 -0.1165
    51IDQ   C2042356  -0.354   5.954  27.233 -0.4728 -1.0026 -0.4940
    51IDQ   C2142357  -0.407   5.751  27.390 -0.4266 -0.2968  0.3261
    51IDQ   C2242358  -0.537   5.668  27.417 -0.5973  0.0076  0.1811
    51IDQ   C2342359  -0.247   6.044  27.156  0.4216  0.1960 -0.1352
    51IDQ   C2442360  -0.547   5.530  27.351 -0.3142  0.2250 -0.8319
    51IDQ   C2542361  -0.446   5.419  27.368  0.3754 -1.5427  0.3888
    51IDQ   C2642362  -0.473   5.292  27.292  0.6473  0.0765 -0.2392
    51IDQ   C2742363  -0.432   5.276  27.146  0.1855 -0.1454 -0.4580
    51IDQ   C2842364  -0.287   5.245  27.120 -0.2641 -0.3754 -0.3765
    51IDQ   C2942365  -0.270   5.157  27.006 -0.7009 -0.2858  0.6774
    51IDQ   C3042366  -0.268   6.185  27.178  0.5863 -0.6506 -0.2787
    51IDQ   C3142367  -0.401   6.230  27.113 -0.8543  0.4141  0.3844
    51IDQ   C3242368  -0.444   6.380  27.138 -0.5896  1.0550 -0.6828
    51IDQ   C3342369  -0.586   6.411  27.121  0.7058  0.7601 -0.3329
    51IDQ   C3442370  -0.666   6.333  27.223  0.2757 -0.8725 -0.0849
    51IDQ   C3542371  -0.806   6.311  27.192  0.2769 -0.8065 -0.2386
    4IDB    C3642372  -0.463   5.603  26.941 -0.4281  0.4885  0.0072
    4IDB    C3742373  -0.588   5.661  26.905 -0.3111  0.6524 -0.1383
    11RH    C3842374   1.062   5.657  26.869 -0.4847 -0.0468 -0.6123
    4IDB    C3942375  -0.639   5.770  26.976 -0.2531  0.7186 -0.1973
    62IDT   C4042376  -0.765   5.801  26.921 -0.3506 -0.4131  0.1019
    72IDQ   C4142377  -0.692   5.604  26.814  0.0279  0.8437  1.5857
    62IDT   C4242378  -0.791   5.720  26.813 -0.6195 -0.5758  0.2861
    72IDQ   C4342379  -0.777   5.492  26.876  0.8016  0.4170  0.0154
    72IDQ   C4442380  -0.639   5.546  26.671 -0.9919  0.3706  0.0009
    62IDT    S542381  -0.888   5.931  26.940 -0.0728 -0.1273 -0.0320
    62IDT   C4542382  -0.973   5.865  26.793 -0.3479 -0.2488  0.1796
    62IDT   C4642383  -0.909   5.756  26.740 -0.6183 -0.4833  0.3304
    82BTZ   C4742384  -1.109   5.917  26.754 -0.0304  0.2219 -0.2137
    82BTZ   C4842385  -1.172   5.984  26.856  0.0376  0.4121 -0.2937
    82BTZ   C4942386  -1.307   6.033  26.844  0.0030  0.3233 -0.2699
    82BTZ   C5042387  -1.379   6.015  26.729 -0.0996  0.0444 -0.1654
    82BTZ   C5142388  -1.181   5.897  26.631 -0.1384 -0.0726 -0.1030
    82BTZ   C5242389  -1.318   5.947  26.619 -0.1737 -0.1630 -0.0782
    92RH    C5342390  -1.522   6.051  26.714  0.2154 -0.0437 -0.0333
    82BTZ    N442391  -1.131   5.834  26.525 -0.2120 -0.2780 -0.0172
    82BTZ    N542392  -1.378   5.924  26.502 -0.2755 -0.4408  0.0272
    82BTZ    S642393  -1.260   5.836  26.401 -0.3318 -0.6021  0.1005
    92RH    C5442394  -1.607   6.111  26.797  0.1070 -0.1351 -0.0768
    92RH     S742395  -1.588   6.130  26.979 -0.0792 -0.2454 -0.0456
    92RH    C5542396  -1.734   6.174  26.754  0.1227 -0.1608 -0.1607
    92RH     O242397  -1.776   6.179  26.637  0.2352 -0.1026 -0.1993
    92RH     N642398  -1.804   6.230  26.863 -0.0087 -0.2624 -0.1918
    92RH    C5642399  -1.749   6.220  26.989 -0.1276 -0.3208 -0.1450
    92RH    C5742400  -1.945   6.265  26.849 -0.1893  0.5548  0.0399
    92RH    C5842401  -1.971   6.410  26.786  0.8009  0.8403 -0.2433
    92RH     S842402  -1.811   6.277  27.134 -0.2953 -0.4427 -0.1674
    72IDQ   C5942403  -0.562   5.635  26.580  0.0461 -0.4560 -0.4314
    72IDQ   C6042404  -0.480   5.554  26.473 -0.7665  0.4749  0.2385
    72IDQ   C6142405  -0.359   5.629  26.414 -0.2172 -0.4607  0.1284
    72IDQ   C6242406  -0.406   5.756  26.341  0.5546  0.4002 -0.2531
    72IDQ   C6342407  -0.315   5.880  26.326 -0.4768  0.5155  0.1556
    72IDQ   C6442408  -0.361   5.983  26.225  0.7048 -0.3249  0.4986
    72IDQ   C6542409  -0.433   6.113  26.271  0.4958  0.6108  1.1456
    72IDQ   C6642410  -0.709   5.357  26.910  0.5327  1.0780 -0.2783
    72IDQ   C6742411  -0.816   5.262  26.965  0.7020 -0.0472 -0.5225
    72IDQ   C6842412  -0.751   5.131  26.983 -0.5532  1.0120  0.3604
    72IDQ   C6942413  -0.798   5.030  27.089 -0.3606 -0.5503  0.2375
    72IDQ   C7042414  -0.694   4.923  27.101 -0.8294 -0.0844  0.0224
    72IDQ   C7142415  -0.566   4.955  27.176  0.1057  0.4818  0.1974
    72IDQ   C7242416  -0.452   4.857  27.140  0.6254 -0.2622 -0.8938
    11RH     C142417   2.368   0.316  19.102 -0.2357  0.3284  0.1354
    11RH     C242418   2.342   0.328  19.247 -0.5936  0.4381  0.0648
    11RH     N142419   2.355   0.183  19.057 -0.1697  0.3018  0.1955
    11RH     S142420   2.302   0.162  19.316 -0.8200  0.4990  0.0829
    11RH     C342421   2.322   0.086  19.149 -0.4309  0.3766  0.1826
    11RH     C442422   2.344   0.154  18.914  1.2795 -0.8670  0.1666
    11RH     S242423   2.301  -0.079  19.122 -0.4193  0.3650  0.2441
    11RH     O142424   2.397   0.410  19.026 -0.0164  0.2662  0.1411
    11RH     C542425   2.347   0.443  19.315 -0.7219  0.4829 -0.0010
    21BTZ    C642426   2.317   0.489  19.449  0.6775 -0.3200  0.0971
    21BTZ    C742427   2.238   0.418  19.537  0.6782 -0.3673  0.0596
    21BTZ    C842428   2.376   0.612  19.494  0.3709 -0.1513  0.0439
    21BTZ    C942429   2.214   0.464  19.671  0.3797 -0.2521 -0.0319
    21BTZ   C1042430   2.268   0.581  19.718  0.0811 -0.0898 -0.0857
    21BTZ   C1142431   2.351   0.658  19.631  0.0675 -0.0342 -0.0491
    21BTZ    N242432   2.454   0.689  19.419  0.3388 -0.0904  0.0734
    21BTZ    N342433   2.409   0.773  19.665 -0.2084  0.1208 -0.0944
    21BTZ    S342434   2.500   0.828  19.521 -0.0896  0.1236 -0.0185
    31IDT   C1242435   2.230   0.618  19.863  0.0816 -0.4474  0.1226
    31IDT   C1342436   2.241   0.743  19.920  0.2555 -0.4379  0.0691
    31IDT   C1442437   2.180   0.750  20.049 -0.0061 -0.2130 -0.0668
    31IDT   C1542438   2.122   0.632  20.091 -0.3802 -0.0500 -0.1168
    31IDT    S442439   2.140   0.501  19.970 -0.4309 -0.1698  0.0044
    4IDB    C1642440   2.079   0.636  20.228 -0.5482 -0.1597  0.0951
    4IDB    C1742441   2.122   0.759  20.285  0.4678 -0.4425 -0.0148
    51IDQ   C1842442   2.174   0.854  20.168 -0.6625 -0.2563 -1.7062
    4IDB    C1942443   2.116   0.781  20.422  0.6713 -0.2817 -0.0300
    51IDQ   C2042444   2.059   0.960  20.173  1.0584  0.2249 -0.2053
    51IDQ   C2142445   2.315   0.932  20.171  0.6553 -0.2224 -0.0130
    51IDQ   C2242446   2.410   0.912  20.281  0.5263  0.3158  0.3457
    51IDQ   C2342447   1.953   0.985  20.064 -0.0691  0.2169  0.4304
    51IDQ   C2442448   2.379   0.982  20.417  0.5898  0.0963 -0.4229
    51IDQ   C2542449   2.478   0.937  20.528 -0.1512  0.2587  0.7107
    51IDQ   C2642450   2.478   1.000  20.659  1.4289  0.1262 -0.2100
    51IDQ   C2742451   2.585   0.952  20.755 -0.3213  0.4424 -0.3197
    51IDQ   C2842452   2.592   0.793  20.768  0.4528 -0.2804 -1.0553
    51IDQ   C2942453   2.696   0.724  20.853 -0.9063  0.4893 -0.4690
    51IDQ   C3042454   1.803   1.014  20.097 -0.2965  0.4162  0.3034
    51IDQ   C3142455   1.748   1.074  19.969 -1.1940  0.0417  0.1332
    51IDQ   C3242456   1.595   1.059  19.945 -0.1147 -0.6578 -0.7109
    51IDQ   C3342457   1.531   1.144  19.826 -1.0371  0.3484 -0.1153
    51IDQ   C3442458   1.559   1.289  19.852 -0.0931  0.2841 -0.5424
    51IDQ   C3542459   1.581   1.372  19.729  0.0469  0.3021 -0.3557
    4IDB    C3642460   2.029   0.532  20.309 -1.3712  0.2884  0.1912
    4IDB    C3742461   2.024   0.555  20.449 -1.1486  0.4469  0.1740
    11RH    C3842462   2.207   0.155  18.856  0.6890  0.3020  0.2776
    4IDB    C3942463   2.066   0.677  20.503 -0.1517  0.1664  0.0659
    62IDT   C4042464   2.033   0.686  20.643  0.4267 -0.1851  0.0018
    72IDQ   C4142465   1.999   0.459  20.570 -0.2328  0.7802 -0.3106
    62IDT   C4242466   1.999   0.559  20.684  0.7741 -0.1654  0.3543
    72IDQ   C4342467   2.121   0.353  20.593 -0.8337  0.2954 -0.1492
    72IDQ   C4442468   1.868   0.378  20.557  0.2008  0.9504 -0.3234
    62IDT    S542469   2.028   0.804  20.778  0.2995  0.1406 -0.2829
    62IDT   C4542470   1.979   0.669  20.889  0.7444  0.2935  0.1078
    62IDT   C4642471   1.969   0.549  20.824  0.9542  0.1052  0.4139
    82BTZ   C4742472   1.964   0.695  21.029 -0.0187  0.0383  0.1886
    82BTZ   C4842473   2.061   0.779  21.077 -0.1616  0.2106  0.1760
    82BTZ   C4942474   2.044   0.853  21.200 -0.3768  0.3691  0.0515
    82BTZ   C5042475   1.929   0.842  21.274 -0.4488  0.3551 -0.0604
    82BTZ   C5142476   1.843   0.680  21.103 -0.0865  0.0165  0.0744
    82BTZ   C5242477   1.825   0.755  21.228 -0.3052  0.1777 -0.0520
    92RH    C5342478   1.904   0.910  21.397 -0.5626  0.1395  0.2000
    82BTZ    N442479   1.742   0.601  21.067  0.0378 -0.1441  0.0739
    82BTZ    N542480   1.709   0.736  21.292 -0.3566  0.1465 -0.1540
    82BTZ    S642481   1.616   0.619  21.194 -0.1228 -0.0951 -0.0912
    92RH    C5442482   1.978   0.989  21.475 -0.3994  0.1431  0.0420
    92RH     S742483   2.151   1.042  21.444 -0.4299  0.0647 -0.2731
    92RH    C5542484   1.930   1.046  21.603 -0.1609  0.2137  0.1011
    92RH     O242485   1.817   1.029  21.652 -0.0852  0.2766  0.2995
    92RH     N642486   2.030   1.125  21.665 -0.0254  0.2010 -0.0994
    92RH    C5642487   2.152   1.138  21.602 -0.1261  0.1289 -0.3114
    92RH    C5742488   1.996   1.205  21.791  0.9214 -0.0205  0.0921
    92RH    C5842489   2.006   1.104  21.904 -0.4532  0.2022  0.0329
    92RH     S842490   2.286   1.225  21.654 -0.0036  0.0990 -0.5736
    72IDQ   C5942491   1.848   0.224  20.565 -0.7806  0.4285 -0.3890
    72IDQ   C6042492   1.910   0.155  20.451 -0.6916 -0.5913  0.6971
    72IDQ   C6142493   1.865   0.015  20.418 -0.2457 -1.2081 -0.1381
    72IDQ   C6242494   1.993  -0.072  20.390  1.1406 -0.1204  0.3573
    72IDQ   C6342495   2.082  -0.049  20.271  0.4689 -0.2578  0.8617
    72IDQ   C6442496   2.039  -0.063  20.120  0.2085 -0.4943 -0.5948
    72IDQ   C6542497   1.994  -0.204  20.091 -0.1527  0.5893 -0.8542
    72IDQ   C6642498   2.243   0.386  20.685  0.4366  0.4762 -0.3032
    72IDQ   C6742499   2.377   0.425  20.627  0.3876  0.0662  0.4487
    72IDQ   C6842500   2.388   0.516  20.502  0.0142 -1.0071  0.3451
    72IDQ   C6942501   2.408   0.433  20.378  0.5522 -0.3690 -0.9832
    72IDQ   C7042502   2.437   0.520  20.250  0.1737 -0.2313 -0.5075
    72IDQ   C7142503   2.470   0.448  20.123  0.6879  0.5162 -0.2442
    72IDQ   C7242504   2.564   0.522  20.034 -0.3830  0.8546  0.2441
    11RH     C142505   5.836   3.173  22.328 -0.0956  0.4562 -0.0339
    11RH     C242506   5.691   3.161  22.298 -0.1003  0.2427  0.0672
    11RH     N142507   5.863   3.141  22.463  0.0573  0.3988 -0.0781
    11RH     S142508   5.601   3.110  22.450  0.0966 -0.0196  0.0977
    11RH     C342509   5.758   3.106  22.545  0.1757  0.1654 -0.0243
    11RH     C442510   5.998   3.163  22.518  0.1169  0.0376 -0.1589
    11RH     S242511   5.764   3.065  22.708  0.3666  0.0509 -0.0601
    11RH     O142512   5.924   3.205  22.247 -0.2096  0.6614 -0.0753
    11RH     C542513   5.638   3.185  22.178 -0.2310  0.2482  0.1256
    21BTZ    C642514   5.506   3.210  22.125 -0.0233 -0.4177 -0.2367
    21BTZ    C742515   5.399   3.213  22.212  0.0377 -0.3703 -0.1631
    21BTZ    C842516   5.481   3.224  21.985 -0.1030 -0.2761 -0.2093
    21BTZ    C942517   5.264   3.229  22.164  0.0230 -0.1825 -0.0591
    21BTZ   C1042518   5.235   3.243  22.031 -0.0521 -0.0425 -0.0286
    21BTZ   C1142519   5.343   3.240  21.937 -0.1179 -0.0852 -0.1035
    21BTZ    N242520   5.576   3.223  21.891 -0.1670 -0.3051 -0.2737
    21BTZ    N342521   5.328   3.252  21.805 -0.1937  0.0392 -0.0839
    21BTZ    S342522   5.493   3.243  21.734 -0.2505 -0.0851 -0.2014
    31IDT   C1242523   5.092   3.265  22.000  0.0969  1.2076  0.9181
    31IDT   C1342524   5.043   3.317  21.883  0.2178  1.9022  1.1649
    31IDT   C1442525   4.906   3.283  21.860  0.3461  1.7155  0.6475
    31IDT   C1542526   4.850   3.206  21.959  0.3235  0.8795  0.0037
    31IDT    S442527   4.967   3.169  22.090  0.1367  0.2580  0.0031
    4IDB    C1642528   4.712   3.177  21.933 -0.3631  0.4455  0.7432
    4IDB    C1742529   4.675   3.244  21.812 -0.3458  0.3109  0.6628
    51IDQ   C1842530   4.805   3.301  21.748  0.5389  0.1500 -0.1680
    4IDB    C1942531   4.547   3.229  21.759 -0.1530 -0.2330  0.3342
    51IDQ   C2042532   4.833   3.235  21.605 -0.1050 -0.9687 -0.7983
    51IDQ   C2142533   4.806   3.459  21.734 -0.5024 -0.5336  0.3524
    51IDQ   C2242534   4.691   3.562  21.744 -0.3521 -0.2752  0.0785
    51IDQ   C2342535   4.952   3.143  21.573  0.8183 -0.2861 -0.0454
    51IDQ   C2442536   4.711   3.678  21.842  0.7380  0.4662  0.4986
    51IDQ   C2542537   4.695   3.650  21.989 -0.4111 -0.1251  0.0933
    51IDQ   C2642538   4.551   3.623  22.017  0.4172  0.0588 -1.6541
    51IDQ   C2742539   4.462   3.760  22.045  0.0813  0.8325 -0.8664
    51IDQ   C2842540   4.323   3.750  22.113  0.4435 -1.2576 -0.3317
    51IDQ   C2942541   4.320   3.758  22.272  0.5508 -0.5095  0.6639
    51IDQ   C3042542   5.086   3.203  21.535  0.2417  0.7162 -0.4036
    51IDQ   C3142543   5.189   3.092  21.504 -0.0474 -1.2046 -0.9731
    51IDQ   C3242544   5.146   3.008  21.382  0.5016  0.4660  0.4941
    51IDQ   C3342545   5.169   3.075  21.250 -0.1430 -0.1014  0.4966
    51IDQ   C3442546   5.062   3.066  21.144  0.9379 -0.1081  0.6831
    51IDQ   C3542547   5.118   3.052  20.999 -0.0568 -0.3007 -0.4269
    4IDB    C3642548   4.621   3.095  22.002 -0.1861  0.0341  0.4930
    4IDB    C3742549   4.491   3.082  21.946  0.0099 -0.5193  0.1578
    11RH    C3842550   6.087   3.031  22.507  0.0759 -0.1186  0.3605
    4IDB    C3942551   4.456   3.147  21.828  0.0240 -0.6444  0.0835
    62IDT   C4042552   4.312   3.127  21.803  0.0092  0.1096  0.2264
    72IDQ   C4142553   4.368   3.015  22.008  0.0215 -0.8620  0.6539
    62IDT   C4242554   4.255   3.060  21.909 -0.0894 -0.3507 -0.1073
    72IDQ   C4342555   4.341   3.055  22.159 -0.5474 -0.5861  0.0820
    72IDQ   C4442556   4.371   2.864  21.977 -0.5063 -0.2564 -1.1280
    62IDT    S542557   4.188   3.182  21.685  0.1419  0.3676  0.2064
    62IDT   C4542558   4.060   3.108  21.791  0.0525 -0.1878 -0.2751
    62IDT   C4642559   4.113   3.049  21.903 -0.0650 -0.5195 -0.3915
    82BTZ   C4742560   3.917   3.112  21.746 -0.1489 -0.1412 -0.2334
    82BTZ   C4842561   3.893   3.143  21.615 -0.0698 -0.1793 -0.2565
    82BTZ   C4942562   3.760   3.173  21.567 -0.0153 -0.0199 -0.3095
    82BTZ   C5042563   3.652   3.172  21.650 -0.0398  0.1772 -0.3392
    82BTZ   C5142564   3.807   3.110  21.838 -0.1775  0.0628 -0.2623
    82BTZ   C5242565   3.672   3.141  21.789 -0.1220  0.2247 -0.3161
    92RH    C5342566   3.520   3.221  21.608  0.0767  0.1681 -0.2633
    82BTZ    N442567   3.817   3.082  21.968 -0.2533  0.1186 -0.2437
    82BTZ    N542568   3.574   3.137  21.880 -0.1532  0.4107 -0.3409
    82BTZ    S642569   3.652   3.093  22.035 -0.2567  0.3862 -0.2958
    92RH    C5442570   3.478   3.267  21.490 -0.0302  0.1502 -0.2322
    92RH     S742571   3.579   3.291  21.339 -0.1564  0.1731 -0.3142
    92RH    C5542572   3.337   3.305  21.462 -0.0632  0.1075 -0.1235
    92RH     O242573   3.244   3.300  21.544  0.0025  0.0837 -0.0496
    92RH     N642574   3.321   3.350  21.329 -0.1814  0.0966 -0.1130
    92RH    C5642575   3.431   3.352  21.247 -0.2468  0.1252 -0.1998
    92RH    C5742576   3.189   3.398  21.279 -0.0933 -0.2230 -0.2916
    92RH    C5842577   3.115   3.295  21.203 -0.3922  0.3224 -0.7690
    92RH     S842578   3.438   3.400  21.086 -0.3884  0.1199 -0.2089
    72IDQ   C5942579   4.434   2.768  22.085  0.7839  0.0480 -0.1476
    72IDQ   C6042580   4.365   2.627  22.073 -0.5099  0.2955 -0.5547
    72IDQ   C6142581   4.394   2.526  22.187  0.2934 -0.8198  0.4369
    72IDQ   C6242582   4.528   2.458  22.168 -0.0352 -0.1537 -0.8016
    72IDQ   C6342583   4.562   2.348  22.273 -0.4983 -0.2165 -0.4746
    72IDQ   C6442584   4.601   2.376  22.415 -0.2810  0.8234  0.1340
    72IDQ   C6542585   4.634   2.257  22.507  0.2788 -0.7376 -0.0676
    72IDQ   C6642586   4.331   3.212  22.174 -0.6292  0.1839  0.2670
    72IDQ   C6742587   4.372   3.233  22.319 -0.5552  0.4665  0.3334
    72IDQ   C6842588   4.435   3.365  22.346  0.1579 -1.1139  0.4067
    72IDQ   C6942589   4.475   3.369  22.489 -1.0195 -0.3267 -0.2933
    72IDQ   C7042590   4.506   3.523  22.531 -0.1432  0.0775  0.0042
    72IDQ   C7142591   4.580   3.536  22.669  0.1873  0.3330  1.0723
    72IDQ   C7242592   4.713   3.477  22.680  0.4506  0.3143 -0.0916
    11RH     C142593   6.542   2.871   6.789 -0.0341 -0.2286  0.0007
    11RH     C242594   6.549   2.902   6.645  0.1066 -0.1919  0.0155
    11RH     N142595   6.579   2.737   6.815 -0.1910 -0.2744 -0.0122
    11RH     S142596   6.604   2.754   6.552  0.0235 -0.2200  0.0114
    11RH     C342597   6.614   2.657   6.709 -0.1931 -0.2788 -0.0095
    11RH     C442598   6.579   2.689   6.964  0.2489 -0.6848  1.3378
    11RH     S242599   6.662   2.496   6.712 -0.3618 -0.3289 -0.0228
    11RH     O142600   6.508   2.950   6.879 -0.0197 -0.2211 -0.0006
    11RH     C542601   6.519   3.022   6.594  0.2681 -0.1456  0.0293
    21BTZ    C642602   6.512   3.072   6.465  0.0888 -0.0096  0.4889
    21BTZ    C742603   6.525   2.996   6.351  0.2835 -0.0333  0.5267
    21BTZ    C842604   6.482   3.211   6.452  0.2358  0.0141  0.4052
    21BTZ    C942605   6.510   3.054   6.220  0.6303 -0.0349  0.4846
    21BTZ   C1042606   6.482   3.187   6.202  0.7817 -0.0128  0.4047
    21BTZ   C1142607   6.467   3.270   6.318  0.5882  0.0125  0.3624
    21BTZ    N242608   6.467   3.295   6.555  0.0720  0.0383  0.3618
    21BTZ    N342609   6.440   3.400   6.314  0.7076  0.0353  0.2844
    21BTZ    S342610   6.432   3.455   6.484  0.3674  0.0605  0.2622
    31IDT   C1242611   6.513   3.241   6.070 -0.2118 -0.0047  0.3334
    31IDT   C1342612   6.487   3.369   6.027 -0.6728 -0.1546  0.1444
    31IDT   C1442613   6.536   3.394   5.895 -0.5407 -0.1031  0.2022
    31IDT   C1542614   6.598   3.286   5.836  0.0203  0.0860  0.4351
    31IDT    S442615   6.600   3.143   5.944  0.4288  0.2147  0.6008
    4IDB    C1642616   6.647   3.325   5.711 -0.1270 -0.0143  0.0773
    4IDB    C1742617   6.618   3.461   5.680  0.3586  0.1165  0.1819
    51IDQ   C1842618   6.553   3.526   5.807  0.8938  1.3684  0.2418
    4IDB    C1942619   6.660   3.516   5.559  0.3176 -0.0202  0.1046
    51IDQ   C2042620   6.633   3.655   5.866 -0.2223  1.0683  0.4443
    51IDQ   C2142621   6.399   3.576   5.777 -0.8681  0.0039  0.5514
    51IDQ   C2242622   6.343   3.573   5.632  0.0805 -0.1187  0.9402
    51IDQ   C2342623   6.682   3.655   6.005 -0.6000  0.1499 -0.7708
    51IDQ   C2442624   6.191   3.539   5.614  0.5698 -0.0713 -0.4109
    51IDQ   C2542625   6.118   3.613   5.497  0.8646  0.8489  0.0748
    51IDQ   C2642626   6.120   3.536   5.367  0.6105 -0.2512  0.0740
    51IDQ   C2742627   6.177   3.607   5.236 -0.4489 -1.2083 -0.0838
    51IDQ   C2842628   6.334   3.617   5.218 -0.3648  0.9421 -0.2785
    51IDQ   C2942629   6.409   3.483   5.202  0.1135  0.3502 -0.4332
    51IDQ   C3042630   6.747   3.779   6.071 -0.6929  1.0596  1.2950
    51IDQ   C3142631   6.854   3.860   5.982  1.1696  0.6008 -0.0709
    51IDQ   C3242632   6.776   3.989   5.931  1.2438  0.5709 -0.3295
    51IDQ   C3342633   6.800   4.137   5.973  0.8072  0.3697  0.8391
    51IDQ   C3442634   6.923   4.209   5.950 -0.4411 -0.8025 -0.0614
    51IDQ   C3542635   7.045   4.140   5.992 -1.2008  0.3397  0.2249
    4IDB    C3642636   6.718   3.243   5.622 -0.6598 -0.2844 -0.1065
    4IDB    C3742637   6.760   3.301   5.500 -0.6936 -0.4208 -0.1833
    11RH    C3842638   6.690   2.742   7.052  0.5053  0.7768 -0.2968
    4IDB    C3942639   6.731   3.434   5.470 -0.2151 -0.2902 -0.0794
    62IDT   C4042640   6.786   3.477   5.356 -0.1400 -0.6424 -0.3369
    72IDQ   C4142641   6.845   3.249   5.375 -0.1948  0.0579  0.5243
    62IDT   C4242642   6.854   3.377   5.290 -0.0941 -0.2559 -0.8881
    72IDQ   C4342643   6.775   3.129   5.288  0.3814 -0.9785  0.3353
    72IDQ   C4442644   6.981   3.193   5.427  0.6433  0.7952 -0.6310
    62IDT    S542645   6.798   3.635   5.270 -0.3285 -0.1906  0.4437
    62IDT   C4542646   6.899   3.552   5.143 -0.3356  0.5323 -0.0400
    62IDT   C4642647   6.917   3.419   5.169 -0.2046  0.4087 -0.7211
    82BTZ   C4742648   6.938   3.626   5.027 -0.3421 -0.4363 -0.1396
    82BTZ   C4842649   6.872   3.746   5.015 -0.4251 -0.4724 -0.0514
    82BTZ   C4942650   6.881   3.825   4.895 -0.3494 -0.3009  0.0663
    82BTZ   C5042651   6.955   3.784   4.787 -0.1908 -0.0936  0.0955
    82BTZ   C5142652   7.016   3.579   4.917 -0.1757 -0.2220 -0.1132
    82BTZ   C5242653   7.025   3.660   4.795 -0.0988 -0.0477  0.0063
    92RH    C5342654   6.947   3.849   4.653 -0.1717  0.1760  0.2525
    82BTZ    N442655   7.085   3.464   4.917 -0.0824 -0.1669 -0.1918
    82BTZ    N542656   7.101   3.609   4.696  0.0563  0.1475  0.0241
    82BTZ    S642657   7.165   3.454   4.757  0.1118  0.1162 -0.1142
    92RH    C5442658   6.866   3.944   4.606 -0.1748  0.0925  0.0861
    92RH     S742659   6.722   4.018   4.693 -0.4407 -0.0657 -0.2131
    92RH    C5542660   6.881   4.006   4.472  0.0449  0.1168  0.1208
    92RH     O242661   6.968   3.977   4.388  0.2536  0.2153  0.3040
    92RH     N642662   6.781   4.103   4.449 -0.0113  0.0127 -0.0837
    92RH    C5642663   6.689   4.127   4.548 -0.2489 -0.0920 -0.2779
    92RH    C5742664   6.764   4.158   4.312 -0.6380  0.4274 -0.3288
    92RH    C5842665   6.637   4.144   4.235  0.2249 -0.1452 -0.3098
    92RH     S842666   6.561   4.238   4.546 -0.3629 -0.2275 -0.5411
    72IDQ   C5942667   7.095   3.279   5.468  1.0969 -0.6689 -0.3164
    72IDQ   C6042668   7.188   3.174   5.496 -0.2543 -0.5103 -1.1211
    72IDQ   C6142669   7.326   3.210   5.565  0.5164  0.5895  0.6287
    72IDQ   C6242670   7.423   3.104   5.610  0.6471  0.2054 -0.0493
    72IDQ   C6342671   7.470   2.995   5.521 -0.1019  0.6129  1.8680
    72IDQ   C6442672   7.571   2.907   5.571  0.6933 -0.0359 -0.1782
    72IDQ   C6542673   7.542   2.774   5.514  0.4303 -0.9557 -0.6057
    72IDQ   C6642674   6.631   3.139   5.238  1.0539 -0.3322 -0.3311
    72IDQ   C6742675   6.578   3.141   5.086 -0.9661  0.9650 -0.1304
    72IDQ   C6842676   6.605   3.013   5.014 -0.2592 -0.2377  0.3734
    72IDQ   C6942677   6.691   3.039   4.890  1.0337 -0.1326 -0.2034
    72IDQ   C7042678   6.798   2.941   4.881 -0.1005 -0.2302 -0.6967
    72IDQ   C7142679   6.927   2.978   4.816 -0.1210 -0.2102 -1.1156
    72IDQ   C7242680   7.007   3.098   4.859  0.4421  0.1031  0.6688
    11RH     C142681   7.298   6.590  12.340 -0.1421  0.0342 -0.0129
    11RH     C242682   7.378   6.497  12.257 -0.0889 -0.0077  0.0844
    11RH     N142683   7.188   6.641  12.269 -0.1154 -0.0270 -0.0983
    11RH     S142684   7.303   6.482  12.090 -0.0074 -0.1246  0.0572
    11RH     C342685   7.169   6.600  12.139 -0.0473 -0.1127 -0.0811
    11RH     C442686   7.098   6.742  12.337  0.3012 -0.2642 -0.3337
    11RH     S242687   7.046   6.645  12.032 -0.0033 -0.1978 -0.1688
    11RH     O142688   7.323   6.621  12.458 -0.2027  0.1127 -0.0207
    11RH     C542689   7.488   6.435  12.300 -0.1007  0.0359  0.1764
    21BTZ    C642690   7.591   6.352  12.235  0.3513  0.5323 -0.1807
    21BTZ    C742691   7.589   6.326  12.101  0.5214  0.7966 -0.2356
    21BTZ    C842692   7.704   6.307  12.312  0.1431  0.1738 -0.0827
    21BTZ    C942693   7.696   6.255  12.035  0.4958  0.7223 -0.1974
    21BTZ   C1042694   7.806   6.210  12.105  0.3001  0.3840 -0.1045
    21BTZ   C1142695   7.813   6.235  12.246  0.1170  0.0982 -0.0436
    21BTZ    N242696   7.717   6.326  12.444 -0.0346 -0.1060 -0.0219
    21BTZ    N342697   7.914   6.196  12.324 -0.0816 -0.2421  0.0482
    21BTZ    S342698   7.873   6.251  12.489 -0.2473 -0.4857  0.0899
    31IDT   C1242699   7.911   6.146  12.025  0.9054 -0.0149  0.5459
    31IDT   C1342700   8.008   6.061  12.074  1.3766  0.3393  0.2456
    31IDT   C1442701   8.107   6.028  11.977  0.9600  0.3732 -0.1988
    31IDT   C1542702   8.087   6.087  11.854  0.1706  0.0459 -0.2405
    31IDT    S442703   7.940   6.190  11.851 -0.1092 -0.3341  0.2852
    4IDB    C1642704   8.184   6.032  11.766  0.3392  0.2678  0.3305
    4IDB    C1742705   8.268   5.934  11.829  0.2103 -0.1125 -0.0820
    51IDQ   C1842706   8.230   5.946  11.980 -0.0965  0.2891 -0.4702
    4IDB    C1942707   8.366   5.867  11.756 -0.1429 -0.2308 -0.4611
    51IDQ   C2042708   8.220   5.801  12.055  0.2639 -0.0275  1.1887
    51IDQ   C2142709   8.339   6.037  12.060  0.2334  0.7070 -0.1411
    51IDQ   C2242710   8.481   6.073  12.016 -0.6226 -0.1230  0.7080
    51IDQ   C2342711   8.084   5.752  12.110  0.5401 -0.2323 -0.1973
    51IDQ   C2442712   8.595   5.969  11.983 -0.1513  0.6344  0.1407
    51IDQ   C2542713   8.712   6.031  11.927  0.1679  0.6005 -0.3448
    51IDQ   C2642714   8.814   5.942  11.860  0.5060 -0.1357  0.7162
    51IDQ   C2742715   8.941   5.997  11.788 -0.7085  1.2781 -0.5451
    51IDQ   C2842716   8.976   6.142  11.787  0.9703  0.4338  0.4304
    51IDQ   C2942717   8.893   6.223  11.690  0.9755 -0.8180  0.5606
    51IDQ   C3042718   8.091   5.618  12.172  0.1781 -0.0010 -0.1335
    51IDQ   C3142719   8.192   5.609  12.298  0.0963  0.1324 -0.4536
    51IDQ   C3242720   8.217   5.460  12.345 -0.0228  0.6025 -0.2102
    51IDQ   C3342721   8.307   5.389  12.244 -0.0835 -0.1577 -0.0418
    51IDQ   C3442722   8.251   5.325  12.115 -0.4767 -0.2667 -0.2359
    51IDQ   C3542723   8.136   5.225  12.127  0.5094  0.6562 -0.3499
    4IDB    C3642724   8.199   6.064  11.630  0.1139  0.5338  0.3662
    4IDB    C3742725   8.300   5.994  11.558 -0.2463  0.4081 -0.0248
    11RH    C3842726   6.992   6.677  12.441 -0.5816 -0.0422 -0.0144
    4IDB    C3942727   8.381   5.899  11.620 -0.3683  0.0354 -0.4255
    62IDT   C4042728   8.494   5.864  11.531  0.2270  0.1554  0.8359
    72IDQ   C4142729   8.344   6.009  11.412 -0.3029  0.9902 -0.0145
    62IDT   C4242730   8.462   5.900  11.402 -0.3292  0.5391  1.0726
    72IDQ   C4342731   8.384   6.153  11.383  0.4028 -0.3712  0.4213
    72IDQ   C4442732   8.225   5.946  11.325 -0.2252  0.3133 -0.2460
    62IDT    S542733   8.643   5.765  11.538  0.2044  0.0356 -0.1092
    62IDT   C4542734   8.656   5.778  11.357 -0.5947  0.5349 -0.1359
    62IDT   C4642735   8.553   5.852  11.303 -0.7945  0.7539  0.5231
    82BTZ   C4742736   8.772   5.704  11.298 -0.3837 -0.2180 -0.1611
    82BTZ   C4842737   8.846   5.619  11.376 -0.3704 -0.1663 -0.1180
    82BTZ   C4942738   8.975   5.570  11.334 -0.2759 -0.0130 -0.0067
    82BTZ   C5042739   9.031   5.607  11.214 -0.1948  0.0884  0.0610
    82BTZ   C5142740   8.826   5.745  11.171 -0.3011 -0.1161 -0.0937
    82BTZ   C5242741   8.957   5.695  11.129 -0.2050  0.0398  0.0196
    92RH    C5342742   9.161   5.553  11.177 -0.2936 -0.1220  0.0024
    82BTZ    N442743   8.764   5.827  11.086 -0.3049 -0.1532 -0.1268
    82BTZ    N542744   9.001   5.738  11.010 -0.1315  0.1279  0.0772
    82BTZ    S642745   8.873   5.845  10.946 -0.1832  0.0129 -0.0124
    92RH    C5442746   9.241   5.467  11.240 -0.1681 -0.0182 -0.0145
    92RH     S742747   9.219   5.397  11.408 -0.2611 -0.3601 -0.1656
    92RH    C5542748   9.365   5.412  11.179  0.0736  0.4044  0.0904
    92RH     O242749   9.409   5.439  11.066  0.1865  0.7069  0.2046
    92RH     N642750   9.431   5.323  11.267  0.1637  0.4258  0.0458
    92RH    C5642751   9.374   5.300  11.391  0.0239  0.0719 -0.0827
    92RH    C5742752   9.568   5.284  11.248 -0.0722  0.4336 -0.4906
    92RH    C5842753   9.583   5.187  11.128 -0.3440 -0.1187  0.0315
    92RH     S842754   9.432   5.199  11.513  0.0889  0.0147 -0.1602
    72IDQ   C5942755   8.110   6.037  11.290 -0.3806 -0.0365  0.6774
    72IDQ   C6042756   8.043   5.975  11.171 -0.3738  0.6189  0.2130
    72IDQ   C6142757   8.102   6.013  11.032  0.9472 -0.3276  0.3324
    72IDQ   C6242758   8.088   6.163  10.967  0.6212  0.4713 -0.6840
    72IDQ   C6342759   7.957   6.232  10.992 -0.8132 -0.1871  0.3727
    72IDQ   C6442760   7.932   6.351  10.903  0.6933 -0.8706 -0.5451
    72IDQ   C6542761   7.798   6.424  10.934 -0.0118 -0.1433  0.6038
    72IDQ   C6642762   8.451   6.184  11.254  0.1651  0.8479  1.0263
    72IDQ   C6742763   8.371   6.282  11.170 -0.7519  0.4935 -0.8611
    72IDQ   C6842764   8.405   6.313  11.028 -0.0630 -1.1122  0.1106
    72IDQ   C6942765   8.556   6.341  10.994  0.5250  0.1402 -0.0846
    72IDQ   C7042766   8.593   6.380  10.855  0.0554  0.5490  0.5459
    72IDQ   C7142767   8.605   6.267  10.750 -0.1540 -0.0017 -0.6284
    72IDQ   C7242768   8.719   6.163  10.759  0.2266  0.2867  0.4676
    11RH     C142769   2.346   7.052  12.667  0.3269 -0.2007  0.0165
    11RH     C242770   2.203   7.054  12.628  0.4242 -0.0695 -0.3364
    11RH     N142771   2.372   7.144  12.771  0.1308 -0.3234  0.1772
    11RH     S142772   2.112   7.178  12.729  0.2516 -0.1154 -0.4329
    11RH     C342773   2.268   7.220  12.819  0.0592 -0.3061 -0.0029
    11RH     C442774   2.516   7.174  12.816  0.1548  0.8416 -0.1492
    11RH     S242775   2.273   7.337  12.941 -0.1674 -0.4336  0.1290
    11RH     O142776   2.433   6.979  12.617  0.4042 -0.2059  0.1583
    11RH     C542777   2.151   6.976  12.532  0.6103  0.0610 -0.5438
    21BTZ    C642778   2.011   6.960  12.479  0.3163  0.3650 -0.1098
    21BTZ    C742779   1.907   7.037  12.523  0.3188  0.2685  0.0665
    21BTZ    C842780   1.987   6.866  12.373  0.2154  0.3176 -0.0453
    21BTZ    C942781   1.775   7.026  12.466  0.2230  0.1217  0.3130
    21BTZ   C1042782   1.747   6.938  12.365  0.1248  0.0716  0.3829
    21BTZ   C1142783   1.853   6.855  12.315  0.1181  0.1683  0.2050
    21BTZ    N242784   2.080   6.786  12.321  0.2028  0.4015 -0.2003
    21BTZ    N342785   1.838   6.766  12.217  0.0271  0.1322  0.2515
    21BTZ    S342786   1.999   6.690  12.194  0.0629  0.2907 -0.0293
    31IDT   C1242787   1.601   6.914  12.330  0.1305  0.7593 -0.3612
    31IDT   C1342788   1.547   6.848  12.223  0.2267  0.2317 -0.0904
    31IDT   C1442789   1.404   6.856  12.220  0.1775 -0.4599  0.1752
    31IDT   C1542790   1.349   6.927  12.324  0.0437 -0.4639  0.1081
    31IDT    S442791   1.475   6.992  12.435 -0.0310  0.4156 -0.3001
    4IDB    C1642792   1.205   6.934  12.302  0.2600 -0.3328 -0.2859
    4IDB    C1742793   1.164   6.871  12.181  0.0315 -0.0111 -0.3788
    51IDQ   C1842794   1.298   6.804  12.119 -0.1544 -0.2830  0.5730
    4IDB    C1942795   1.031   6.873  12.140 -0.0755 -0.0542 -0.0323
    51IDQ   C2042796   1.262   6.649  12.123 -0.2069  0.8875  0.4029
    51IDQ   C2142797   1.332   6.855  11.969  0.2831  0.1636 -0.4963
    51IDQ   C2242798   1.242   6.954  11.903  0.7228  0.6371  0.2635
    51IDQ   C2342799   1.350   6.538  12.198  0.5238  0.4008 -0.6176
    51IDQ   C2442800   1.250   6.968  11.750  0.4130 -0.3619 -0.0310
    51IDQ   C2542801   1.167   7.096  11.711 -0.0489  0.6846  0.1580
    51IDQ   C2642802   1.005   7.084  11.727  0.5815  0.2261 -0.3100
    51IDQ   C2742803   0.918   7.023  11.611 -0.0832 -0.0705  0.0512
    51IDQ   C2842804   0.763   6.986  11.629  0.1294  0.5318 -0.0530
    51IDQ   C2942805   0.693   6.948  11.492 -0.2828  0.0196  0.0183
    51IDQ   C3042806   1.488   6.517  12.159 -0.0530 -0.8837 -1.0912
    51IDQ   C3142807   1.557   6.442  12.270 -0.5496 -0.6094 -0.0667
    51IDQ   C3242808   1.698   6.397  12.231 -0.7767  0.6675  0.1254
    51IDQ   C3342809   1.700   6.276  12.134 -0.1877 -0.1245 -0.7760
    51IDQ   C3442810   1.649   6.133  12.175 -0.3614 -0.1783 -1.0777
    51IDQ   C3542811   1.693   6.078  12.319 -0.0515  0.0858 -0.5604
    4IDB    C3642812   1.112   7.000  12.384  0.3836 -0.7017  0.1562
    4IDB    C3742813   0.977   7.001  12.342  0.2715 -0.7402  0.5059
    11RH    C3842814   2.564   7.115  12.953 -0.6586 -0.1361 -0.1206
    4IDB    C3942815   0.938   6.939  12.223  0.0481 -0.4231  0.4094
    62IDT   C4042816   0.801   6.973  12.198  0.8805 -1.0700 -0.7862
    72IDQ   C4142817   0.859   7.088  12.399  0.7996  0.2198 -0.2300
    62IDT   C4242818   0.747   7.055  12.296  1.5613 -1.3216 -0.1886
    72IDQ   C4342819   0.879   7.241  12.409 -0.8358 -0.2848 -0.8601
    72IDQ   C4442820   0.764   7.013  12.506 -1.6863  0.2438 -0.2181
    62IDT    S542821   0.689   6.954  12.059  0.1190 -0.2665 -0.3088
    62IDT   C4542822   0.570   7.062  12.144  0.7941 -0.3153  0.7239
    62IDT   C4642823   0.617   7.105  12.266  1.5133 -0.8953  0.6657
    82BTZ   C4742824   0.441   7.124  12.080 -0.3763 -0.1048  0.2946
    82BTZ   C4842825   0.341   7.172  12.160 -0.4079 -0.0538  0.2255
    82BTZ   C4942826   0.220   7.229  12.106 -0.3015  0.0924  0.1411
    82BTZ   C5042827   0.200   7.238  11.971 -0.1637  0.1871  0.1262
    82BTZ   C5142828   0.424   7.132  11.938 -0.2335 -0.0099  0.2825
    82BTZ   C5242829   0.301   7.189  11.882 -0.1253  0.1386  0.1969
    92RH    C5342830   0.082   7.299  11.909  0.5683  0.0126  0.2693
    82BTZ    N442831   0.514   7.089  11.849 -0.1898 -0.0471  0.3452
    82BTZ    N542832   0.293   7.193  11.749  0.0053  0.2208  0.1907
    82BTZ    S642833   0.445   7.121  11.687 -0.0046  0.1093  0.2960
    92RH    C5442834  -0.029   7.356  11.958  0.4040 -0.0902  0.0162
    92RH     S742835  -0.079   7.369  12.134 -0.1013 -0.2967 -0.1056
    92RH    C5542836  -0.133   7.419  11.872  0.6149 -0.0501 -0.2115
    92RH     O242837  -0.129   7.426  11.748  0.9614  0.0805 -0.1957
    92RH     N642838  -0.239   7.471  11.949  0.3709 -0.1805 -0.4558
    92RH    C5642839  -0.233   7.457  12.086 -0.0095 -0.3202 -0.4511
    92RH    C5742840  -0.354   7.536  11.876  0.2644 -0.3901 -0.2803
    92RH    C5842841  -0.465   7.437  11.837 -0.7477  0.7890 -0.2357
    92RH     S842842  -0.346   7.510  12.200 -0.3575 -0.4917 -0.7122
    72IDQ   C5942843   0.810   6.886  12.575 -0.2043  0.9247  0.4162
    72IDQ   C6042844   0.732   6.855  12.707 -0.0842 -0.5414  0.0024
    72IDQ   C6142845   0.758   6.719  12.783  0.4417 -0.7202 -0.4341
    72IDQ   C6242846   0.711   6.596  12.717 -0.2062 -0.0866  0.3331
    72IDQ   C6342847   0.563   6.590  12.702  0.2751 -0.5627 -0.6218
    72IDQ   C6442848   0.495   6.545  12.834 -0.8927  0.6046  0.1729
    72IDQ   C6542849   0.350   6.604  12.812  0.0518  0.1964 -0.8460
    72IDQ   C6642850   0.866   7.307  12.547  0.5362 -0.1135 -0.1905
    72IDQ   C6742851   0.890   7.459  12.568 -0.4493 -0.8559 -0.0132
    72IDQ   C6842852   0.820   7.551  12.468 -0.3141 -0.0835  0.6045
    72IDQ   C6942853   0.849   7.697  12.494 -0.2261 -0.7577 -0.0653
    72IDQ   C7042854   0.953   7.767  12.395 -0.3904 -0.2563 -0.4842
    72IDQ   C7142855   0.901   7.840  12.265 -0.0780 -0.2704 -1.2610
    72IDQ   C7242856   0.813   7.773  12.172 -0.5704  0.1415 -0.0710
    11RH     C142857   3.186   3.033  20.557  0.1726 -0.3299  0.0072
    11RH     C242858   3.208   3.066  20.414 -0.0204 -0.1613  0.0157
    11RH     N142859   3.265   3.113  20.642  0.3507 -0.4880 -0.0077
    11RH     S142860   3.332   3.201  20.401  0.0449 -0.2217  0.0041
    11RH     C342861   3.348   3.207  20.584  0.3239 -0.4667 -0.0119
    11RH     C442862   3.268   3.090  20.785 -1.0377 -0.3248 -0.4723
    11RH     S242863   3.451   3.315  20.663  0.5089 -0.6316 -0.0281
    11RH     O142864   3.108   2.945  20.599  0.1813 -0.3355  0.0114
    11RH     C542865   3.146   3.005  20.313 -0.2105  0.0070  0.0297
    21BTZ    C642866   3.167   3.013  20.167 -0.0626  0.2422 -0.3151
    21BTZ    C742867   3.258   3.095  20.105 -0.2826  0.4115 -0.4187
    21BTZ    C842868   3.085   2.928  20.085  0.0017  0.0920 -0.2236
    21BTZ    C942869   3.273   3.098  19.962 -0.4493  0.4414 -0.4373
    21BTZ   C1042870   3.198   3.018  19.880 -0.3957  0.3021 -0.3517
    21BTZ   C1142871   3.101   2.930  19.939 -0.1676  0.1224 -0.2422
    21BTZ    N242872   2.993   2.844  20.133  0.2105 -0.0789 -0.1187
    21BTZ    N342873   3.022   2.848  19.870 -0.0950 -0.0241 -0.1526
    21BTZ    S342874   2.921   2.762  19.991  0.1991 -0.2110 -0.0380
    31IDT   C1242875   3.238   3.001  19.735 -0.2712 -0.6801 -0.1041
    31IDT   C1342876   3.149   3.005  19.631 -0.1735 -0.9560 -0.2012
    31IDT   C1442877   3.211   2.999  19.503  0.0013 -0.6011 -0.1373
    31IDT   C1542878   3.349   2.989  19.508  0.0378 -0.0535  0.0099
    31IDT    S442879   3.410   2.988  19.677 -0.1479  0.0560  0.0787
    4IDB    C1642880   3.402   2.980  19.376 -0.2535 -0.0478 -0.1121
    4IDB    C1742881   3.300   2.995  19.278 -0.0369 -0.3971 -0.3972
    51IDQ   C1842882   3.160   2.994  19.360 -1.0909  1.1972  0.8793
    4IDB    C1942883   3.332   3.006  19.143  0.3033 -0.2910 -0.3105
    51IDQ   C2042884   3.085   3.121  19.298 -1.6982  0.7360  1.0478
    51IDQ   C2142885   3.077   2.867  19.329 -0.1668  0.0732 -0.2929
    51IDQ   C2242886   3.109   2.739  19.256 -0.3773 -0.0938  0.6768
    51IDQ   C2342887   3.085   3.242  19.376  1.0879  0.0076  0.1296
    51IDQ   C2442888   2.987   2.657  19.211 -0.7739 -1.0972  0.0820
    51IDQ   C2542889   3.023   2.507  19.196  0.4138 -0.1039  0.2014
    51IDQ   C2642890   2.908   2.437  19.123  0.4863 -0.4396  0.4187
    51IDQ   C2742891   2.948   2.295  19.079 -0.6258  0.2637 -0.9405
    51IDQ   C2842892   2.854   2.247  18.975 -0.7630 -0.1915  0.4301
    51IDQ   C2942893   2.892   2.111  18.905 -0.6889 -0.0503 -0.3303
    51IDQ   C3042894   3.213   3.323  19.401 -0.1550 -0.7738 -0.2398
    51IDQ   C3142895   3.319   3.375  19.294  1.4493 -0.3757 -0.4275
    51IDQ   C3242896   3.258   3.466  19.193  0.2105  0.5905 -0.5065
    51IDQ   C3342897   3.358   3.535  19.118 -0.2848  0.0194 -0.7302
    51IDQ   C3442898   3.306   3.630  19.018 -1.0438  0.3346  0.5449
    51IDQ   C3542899   3.271   3.753  19.083  0.7941  0.2641 -0.1484
    4IDB    C3642900   3.538   2.975  19.340 -0.1301  0.4126  0.2642
    4IDB    C3742901   3.568   2.986  19.202  0.2183  0.5145  0.3481
    11RH    C3842902   3.158   3.166  20.866 -0.1749 -0.2189 -0.1624
    4IDB    C3942903   3.467   3.001  19.107  0.4268  0.1693  0.0659
    62IDT   C4042904   3.528   3.017  18.974 -0.3817  0.1539  0.2999
    72IDQ   C4142905   3.703   2.967  19.131 -0.7608 -0.3666  0.2956
    62IDT   C4242906   3.664   2.999  18.989 -0.4092 -0.0769  0.2675
    72IDQ   C4342907   3.772   2.829  19.145 -0.2875 -0.3915 -0.3687
    72IDQ   C4442908   3.818   3.078  19.177 -0.9296  0.5535 -0.4786
    62IDT    S542909   3.483   3.051  18.803 -0.4319 -0.3679  0.2050
    62IDT   C4542910   3.659   3.038  18.759 -0.4903 -0.8963  0.1221
    62IDT   C4642911   3.738   3.010  18.867 -0.4707 -0.6709  0.1669
    82BTZ   C4742912   3.704   3.054  18.621  0.2201  0.2785  0.4787
    82BTZ   C4842913   3.603   3.092  18.537  0.1786  0.1791  0.4835
    82BTZ   C4942914   3.622   3.103  18.395  0.0722 -0.1162  0.4463
    82BTZ   C5042915   3.743   3.075  18.336  0.0076 -0.3115  0.4034
    82BTZ   C5142916   3.833   3.024  18.564  0.1554  0.0824  0.4354
    82BTZ   C5242917   3.852   3.035  18.419  0.0474 -0.2177  0.3967
    92RH    C5342918   3.782   3.086  18.197  0.2355  0.0017 -0.1796
    82BTZ    N442919   3.939   2.986  18.635  0.1870  0.1538  0.4277
    82BTZ    N542920   3.974   3.005  18.374 -0.0079 -0.3875  0.3581
    82BTZ    S642921   4.072   2.961  18.518  0.0775 -0.1664  0.3688
    92RH    C5442922   3.710   3.112  18.087  0.1557  0.0374 -0.1192
    92RH     S742923   3.529   3.144  18.080  0.1266 -0.0927  0.0073
    92RH    C5542924   3.767   3.118  17.951  0.0764  0.1934 -0.1450
    92RH     O242925   3.887   3.101  17.922  0.0743  0.3074 -0.2255
    92RH     N642926   3.669   3.148  17.854  0.0013  0.1982 -0.0671
    92RH    C5642927   3.539   3.165  17.897  0.0109  0.0652  0.0181
    92RH    C5742928   3.708   3.150  17.716 -0.5914 -0.5862  0.9316
    92RH    C5842929   3.741   3.287  17.665 -0.2032  0.2919 -0.4223
    92RH     S842930   3.403   3.200  17.803 -0.0674  0.0402  0.1221
    72IDQ   C5942931   3.795   3.223  19.205  0.0148  0.2357 -0.3769
    72IDQ   C6042932   3.914   3.306  19.258 -0.4629 -0.2956  0.2634
    72IDQ   C6142933   3.943   3.287  19.404 -0.8330 -0.8580 -0.5502
    72IDQ   C6242934   4.091   3.289  19.450 -1.0607 -0.1898  0.0735
    72IDQ   C6342935   4.143   3.221  19.581  0.3287 -0.6475  0.5070
    72IDQ   C6442936   4.044   3.171  19.685  0.6294 -0.7168 -1.0293
    72IDQ   C6542937   3.967   3.035  19.666  0.1324  0.1959 -0.3454
    72IDQ   C6642938   3.905   2.772  19.081  0.8951 -0.2475 -0.0981
    72IDQ   C6742939   3.935   2.630  19.119 -0.0463  0.8076 -0.2147
    72IDQ   C6842940   4.078   2.584  19.095 -0.8838 -0.9308 -0.1899
    72IDQ   C6942941   4.111   2.442  19.121  0.3985 -0.8928 -0.7549
    72IDQ   C7042942   4.075   2.386  19.269  1.0222 -0.4316  0.4018
    72IDQ   C7142943   3.957   2.289  19.257  0.1910 -0.1647 -0.0558
    72IDQ   C7242944   3.836   2.330  19.337 -0.4982  1.0535  0.2295
    11RH     C142945   1.069   6.516  19.300  0.0916  0.2350 -0.0315
    11RH     C242946   1.077   6.663  19.315 -0.0014  0.2438 -0.0682
    11RH     N142947   0.976   6.479  19.201  0.0574  0.1493  0.0321
    11RH     S142948   0.962   6.744  19.197 -0.1279  0.1387 -0.0167
    11RH     C342949   0.909   6.579  19.134 -0.0518  0.0882  0.0515
    11RH     C442950   0.960   6.331  19.179  1.0168 -0.1186  0.2081
    11RH     S242951   0.794   6.561  19.012 -0.1133 -0.0176  0.1235
    11RH     O142952   1.135   6.433  19.366  0.1882  0.2944 -0.0525
    11RH     C542953   1.157   6.725  19.402  0.0089  0.3185 -0.1297
    21BTZ    C642954   1.186   6.870  19.414  0.2620 -0.3924 -0.2002
    21BTZ    C742955   1.157   6.971  19.325 -0.0899 -0.3759 -0.0691
    21BTZ    C842956   1.251   6.904  19.537  0.0363 -0.3057 -0.1025
    21BTZ    C942957   1.191   7.108  19.353 -0.6774 -0.2741  0.1616
    21BTZ   C1042958   1.253   7.145  19.469 -0.9119 -0.1891  0.2613
    21BTZ   C1142959   1.285   7.044  19.565 -0.5607 -0.2022  0.1316
    21BTZ    N242960   1.285   6.815  19.631  0.3366 -0.3120 -0.2131
    21BTZ    N342961   1.346   7.067  19.682 -0.7403 -0.1253  0.2098
    21BTZ    S342962   1.362   6.908  19.763 -0.1411 -0.1831 -0.0178
    31IDT   C1242963   1.281   7.289  19.495 -0.5914 -0.3675 -0.3815
    31IDT   C1342964   1.380   7.346  19.571 -0.3316 -1.0581 -0.1826
    31IDT   C1442965   1.387   7.488  19.555  0.2776 -1.0239  0.3185
    31IDT   C1542966   1.295   7.540  19.466  0.4858 -0.3088  0.5045
    31IDT    S442967   1.190   7.412  19.396 -0.0787  0.3832  0.0550
    4IDB    C1642968   1.320   7.680  19.454  0.4922 -0.1297  0.2332
    4IDB    C1742969   1.432   7.721  19.533  0.8302  0.1776 -0.3939
    51IDQ   C1842970   1.482   7.598  19.609  0.1814  0.2958 -0.3422
    4IDB    C1942971   1.473   7.854  19.534  0.1409  0.4003 -0.2281
    51IDQ   C2042972   1.625   7.586  19.571  0.0151  0.3255 -0.2584
    51IDQ   C2142973   1.470   7.607  19.772  0.3093 -1.1772  1.2587
    51IDQ   C2242974   1.416   7.732  19.848 -0.2705 -0.1697  0.4627
    51IDQ   C2342975   1.677   7.483  19.474 -0.9149 -0.1055  0.3504
    51IDQ   C2442976   1.269   7.767  19.842  0.7453 -0.1260  0.9491
    51IDQ   C2542977   1.179   7.649  19.874  0.9297 -0.6876 -0.0992
    51IDQ   C2642978   1.028   7.689  19.887  0.3696  0.2345 -0.0565
    51IDQ   C2742979   0.957   7.731  19.755 -0.7333  0.0435 -0.0705
    51IDQ   C2842980   0.809   7.743  19.746  0.6482  0.0235  0.4531
    51IDQ   C2942981   0.745   7.776  19.608  0.3340  0.1207 -0.0068
    51IDQ   C3042982   1.679   7.518  19.324 -0.3172 -0.5909  0.0086
    51IDQ   C3142983   1.748   7.422  19.222 -0.0449 -0.2746 -0.1076
    51IDQ   C3242984   1.669   7.291  19.192  0.4728  0.5752 -0.1154
    51IDQ   C3342985   1.667   7.179  19.293  0.6780  0.7828  0.8066
    51IDQ   C3442986   1.601   7.054  19.238  0.2312 -0.2591  0.4324
    51IDQ   C3542987   1.557   6.962  19.349  0.0798 -0.0092  0.0794
    4IDB    C3642988   1.248   7.772  19.376 -0.5440 -0.2164  1.0338
    4IDB    C3742989   1.292   7.907  19.379 -1.2374  0.0143  1.1907
    11RH    C3842990   1.041   6.250  19.079 -1.0790  0.3847 -1.1101
    4IDB    C3942991   1.402   7.946  19.456 -0.8953  0.3136  0.5715
    62IDT   C4042992   1.431   8.089  19.438  0.2315 -0.4223 -0.1798
    72IDQ   C4142993   1.234   8.029  19.307 -0.4870  0.4722  0.7440
    62IDT   C4242994   1.335   8.137  19.351 -0.1889 -0.4791  0.2446
    72IDQ   C4342995   1.084   8.055  19.350 -0.6694 -0.1338 -0.7266
    72IDQ   C4442996   1.238   8.027  19.154 -0.5110 -0.1804  0.3459
    62IDT    S542997   1.559   8.210  19.471  0.2298 -0.2923 -0.6321
    62IDT   C4542998   1.472   8.326  19.361 -0.3684 -0.3232 -0.2021
    62IDT   C4642999   1.358   8.271  19.308 -0.5287 -0.4232  0.2322
    82BTZ   C4743000   1.542   8.453  19.335  0.3384  0.0483  0.5416
    82BTZ   C4843001   1.599   8.515  19.444  0.3138  0.1706  0.4859
    82BTZ   C4943002   1.680   8.633  19.430  0.1932  0.2412  0.3867
    82BTZ   C5043003   1.703   8.691  19.307  0.0973  0.1893  0.3442
    82BTZ   C5143004   1.563   8.509  19.205  0.2410 -0.0102  0.5007
    82BTZ   C5243005   1.645   8.630  19.191  0.1185  0.0615  0.3996
    92RH    C5343006   1.802   8.793  19.294  0.2712 -0.0349 -0.0930
    82BTZ    N443007   1.513   8.459  19.092  0.2536 -0.1287  0.5474
    82BTZ    N543008   1.661   8.677  19.067  0.0325  0.0007  0.3662
    82BTZ    S643009   1.570   8.566  18.960  0.1063 -0.1541  0.4638
    92RH    C5443010   1.884   8.860  19.376  0.3244 -0.0195 -0.1588
    92RH     S743011   1.892   8.848  19.558  0.5915 -0.1424 -0.1781
    92RH    C5543012   1.983   8.959  19.328  0.1691  0.1040 -0.2284
    92RH     O243013   2.003   8.991  19.210 -0.0247  0.2059 -0.2337
    92RH     N643014   2.056   9.016  19.436  0.2688  0.0929 -0.2891
    92RH    C5643015   2.026   8.974  19.563  0.4851 -0.0246 -0.2766
    92RH    C5743016   2.183   9.085  19.414 -0.5831  0.1829 -0.0644
    92RH    C5843017   2.173   9.233  19.445  0.0255 -0.1557 -0.6774
    92RH     S843018   2.097   9.025  19.708  0.6412 -0.0633 -0.3390
    72IDQ   C5943019   1.364   8.059  19.070 -0.0704 -0.2497 -0.7209
    72IDQ   C6043020   1.349   8.070  18.919 -0.4351  0.1278  0.2838
    72IDQ   C6143021   1.446   7.977  18.848 -1.1008 -0.1254  0.7535
    72IDQ   C6243022   1.595   8.029  18.854  0.2274 -0.9636 -0.3418
    72IDQ   C6343023   1.700   7.934  18.796  0.6926 -0.0532  0.0842
    72IDQ   C6443024   1.708   7.796  18.862  0.3881 -0.0880  0.2297
    72IDQ   C6543025   1.846   7.747  18.828  0.3798 -0.5280 -0.0804
    72IDQ   C6643026   1.015   8.188  19.337  0.3749 -0.5991 -0.0572
    72IDQ   C6743027   0.867   8.195  19.390 -0.1260 -0.9974 -0.2523
    72IDQ   C6843028   0.854   8.222  19.544  0.7361 -1.2496  0.1853
    72IDQ   C6943029   0.903   8.359  19.582  0.8760 -1.1569  0.5291
    72IDQ   C7043030   0.960   8.354  19.724  0.1715 -0.0713  0.4454
    72IDQ   C7143031   1.121   8.332  19.731  0.1959  0.1985 -0.6474
    72IDQ   C7243032   1.202   8.379  19.856 -0.0643 -0.8062  0.7995
    11RH     C143033   1.190   4.241  17.731  0.0232  0.3978 -0.2580
    11RH     C243034   1.122   4.118  17.683  0.0592  0.2775 -0.0043
    11RH     N143035   1.231   4.323  17.624  0.0521  0.1606 -0.4276
    11RH     S143036   1.118   4.118  17.499  0.1288 -0.1398 -0.0078
    11RH     C343037   1.206   4.280  17.495  0.1069 -0.1349 -0.3428
    11RH     C443038   1.295   4.452  17.643 -0.4810 -0.9452  0.3749
    11RH     S243039   1.244   4.358  17.351  0.1503 -0.4565 -0.5064
    11RH     O143040   1.208   4.271  17.850 -0.0261  0.6709 -0.3181
    11RH     C543041   1.073   4.024  17.764  0.0420  0.4544  0.1908
    21BTZ    C643042   0.994   3.901  17.750 -0.4698 -0.3062  0.1764
    21BTZ    C743043   0.934   3.857  17.635 -0.3473 -0.4185  0.1564
    21BTZ    C843044   0.981   3.823  17.869 -0.4521 -0.2764  0.1984
    21BTZ    C943045   0.860   3.733  17.631 -0.2023 -0.5068  0.1564
    21BTZ   C1043046   0.845   3.655  17.743 -0.1799 -0.4825  0.1774
    21BTZ   C1143047   0.905   3.697  17.866 -0.3047 -0.3662  0.1984
    21BTZ    N243048   1.034   3.856  17.987 -0.5629 -0.1701  0.2193
    21BTZ    N343049   0.897   3.629  17.980 -0.2970 -0.3318  0.2193
    21BTZ    S343050   0.988   3.725  18.101 -0.4818 -0.1805  0.2402
    31IDT   C1243051   0.769   3.529  17.726  0.2528  0.1039 -0.0348
    31IDT   C1343052   0.736   3.437  17.822  0.6496  0.1704  0.1688
    31IDT   C1443053   0.670   3.323  17.769  0.3959  0.1482  0.5255
    31IDT   C1543054   0.652   3.326  17.632 -0.1945  0.0648  0.5960
    31IDT    S443055   0.718   3.477  17.559 -0.4776  0.0076  0.2125
    4IDB    C1643056   0.576   3.218  17.586  0.4990 -0.0579  0.1088
    4IDB    C1743057   0.577   3.120  17.691  0.3767 -0.1310  0.0424
    51IDQ   C1843058   0.630   3.184  17.817  0.8339  0.6050  0.5595
    4IDB    C1943059   0.526   2.993  17.670  0.2521 -0.0653 -0.0562
    51IDQ   C2043060   0.512   3.166  17.929 -0.3081 -0.3613  0.4033
    51IDQ   C2143061   0.759   3.114  17.882 -0.0059  0.5266 -0.3352
    51IDQ   C2243062   0.821   2.983  17.819  0.0953 -0.9595 -0.2468
    51IDQ   C2343063   0.449   3.285  17.977  0.8430 -0.4604  0.7524
    51IDQ   C2443064   0.754   2.842  17.847 -0.0461  0.4016 -0.7872
    51IDQ   C2543065   0.805   2.798  17.991 -0.2834 -0.1516 -0.1495
    51IDQ   C2643066   0.760   2.666  18.045  0.1106 -0.3367  0.4763
    51IDQ   C2743067   0.820   2.597  18.170  0.1287  0.4480 -0.5211
    51IDQ   C2843068   0.742   2.486  18.224 -0.0436 -0.1557 -0.2237
    51IDQ   C2943069   0.756   2.449  18.368  0.3429 -0.0344  0.2683
    51IDQ   C3043070   0.523   3.350  18.093  0.5443  0.4996  0.2533
    51IDQ   C3143071   0.473   3.480  18.136 -0.2392  0.4155  0.0046
    51IDQ   C3243072   0.529   3.538  18.263  0.0616 -0.4455 -0.5032
    51IDQ   C3343073   0.486   3.684  18.299  0.2183 -0.0185 -0.4468
    51IDQ   C3443074   0.569   3.736  18.411  0.4888  0.7384 -0.2360
    51IDQ   C3543075   0.556   3.884  18.392 -0.1287 -0.4884 -0.4445
    4IDB    C3643076   0.523   3.188  17.460  0.4972  0.0822  0.0763
    4IDB    C3743077   0.471   3.057  17.441  0.3689  0.1476 -0.0243
    11RH    C3843078   1.193   4.559  17.682 -0.1828  0.1228  0.1489
    4IDB    C3943079   0.473   2.963  17.544  0.2503  0.0747 -0.0885
    62IDT   C4043080   0.420   2.836  17.492  0.2201 -0.2023 -0.3642
    72IDQ   C4143081   0.406   2.992  17.313  0.1173  0.4084 -0.1242
    62IDT   C4243082   0.387   2.850  17.359  1.0556 -0.5873 -0.6294
    72IDQ   C4343083   0.501   3.002  17.179  0.0486  1.2233  0.2014
    72IDQ   C4443084   0.258   3.028  17.284  0.4177 -0.2089  0.8886
    62IDT    S543085   0.396   2.667  17.549 -0.4915  0.0420  0.0932
    62IDT   C4543086   0.340   2.623  17.382  0.4228 -0.4115 -0.1092
    62IDT   C4643087   0.341   2.730  17.297  1.1714 -0.7061 -0.4854
    82BTZ   C4743088   0.269   2.499  17.355 -0.3500 -0.1669 -0.3192
    82BTZ   C4843089   0.167   2.489  17.263 -0.2847 -0.4639 -0.3600
    82BTZ   C4943090   0.102   2.363  17.236 -0.0327 -0.6197 -0.2499
    82BTZ   C5043091   0.138   2.248  17.301  0.1535 -0.4781 -0.0992
    82BTZ   C5143092   0.310   2.381  17.425 -0.1616 -0.0087 -0.1626
    82BTZ   C5243093   0.244   2.253  17.397  0.0945 -0.1670 -0.0510
    92RH    C5343094   0.088   2.119  17.258 -0.2670  0.4851  0.6770
    82BTZ    N443095   0.408   2.379  17.516 -0.2023  0.2806 -0.1097
    82BTZ    N543096   0.288   2.148  17.467  0.2596 -0.0049  0.0925
    82BTZ    S643097   0.419   2.209  17.572  0.0912  0.3646  0.0904
    92RH    C5443098   0.009   2.075  17.159 -0.1039  0.3583  0.6018
    92RH     S743099  -0.043   2.169  17.011  0.4103  0.0601  0.2247
    92RH    C5543100  -0.049   1.938  17.155 -0.3240  0.4440  0.8235
    92RH     O243101  -0.033   1.850  17.241 -0.6782  0.6392  1.0977
    92RH     N643102  -0.128   1.919  17.039 -0.0796  0.2742  0.6828
    92RH    C5643103  -0.140   2.024  16.950  0.3097  0.0630  0.3757
    92RH    C5743104  -0.211   1.800  17.034 -0.8325  0.2045  0.5189
    92RH    C5843105  -0.190   1.690  16.925 -0.0119 -0.0832  0.7569
    92RH     S843106  -0.227   2.027  16.806  0.6604 -0.1670  0.1554
    72IDQ   C5943107   0.192   3.167  17.325 -0.9531  0.4021  0.8436
    72IDQ   C6043108   0.235   3.289  17.249  0.0359 -0.5054 -0.3046
    72IDQ   C6143109   0.194   3.432  17.315  0.2367 -0.5476  1.7997
    72IDQ   C6243110   0.224   3.567  17.235  0.1240  0.3068 -0.8245
    72IDQ   C6343111   0.332   3.565  17.120  0.3652  0.7613  0.3870
    72IDQ   C6443112   0.378   3.706  17.077  0.1985 -0.2824 -0.9754
    72IDQ   C6543113   0.515   3.684  17.007 -1.3965 -0.3808 -0.2099
    72IDQ   C6643114   0.559   3.133  17.137 -0.2847 -0.3712  0.2257
    72IDQ   C6743115   0.649   3.125  17.015 -0.5667  0.6298  0.3428
    72IDQ   C6843116   0.665   3.257  16.946 -0.5673  0.4797  0.3652
    72IDQ   C6943117   0.542   3.290  16.861 -0.1405  0.4765 -0.0794
    72IDQ   C7043118   0.549   3.219  16.717 -0.0303  0.2945  0.0211
    72IDQ   C7143119   0.434   3.246  16.631 -0.3135 -0.4460  0.7444
    72IDQ   C7243120   0.470   3.204  16.491  0.1692  0.1004 -1.0861
    11RH     C143121   6.798   5.715  21.394 -0.2524  0.0037  0.1287
    11RH     C243122   6.807   5.588  21.469  0.0781  0.0026  0.0892
    11RH     N143123   6.908   5.799  21.420 -0.3395  0.1742 -0.0421
    11RH     S143124   6.961   5.587  21.570  0.2529  0.2257 -0.1709
    11RH     C343125   7.005   5.754  21.507 -0.1192  0.3098 -0.2146
    11RH     C443126   6.913   5.927  21.351  0.5899  0.6221  0.6074
    11RH     S243127   7.146   5.834  21.556 -0.1626  0.5236 -0.4382
    11RH     O143128   6.706   5.747  21.316 -0.4350 -0.1265  0.2913
    11RH     C543129   6.715   5.491  21.462  0.2187 -0.1424  0.2269
    21BTZ    C643130   6.718   5.359  21.520  0.0937 -0.0739 -0.1093
    21BTZ    C743131   6.815   5.311  21.604 -0.0141 -0.0036  0.0558
    21BTZ    C843132   6.608   5.273  21.485  0.0610 -0.0516 -0.0606
    21BTZ    C943133   6.809   5.177  21.658 -0.1583  0.0917  0.2756
    21BTZ   C1043134   6.706   5.092  21.629 -0.1944  0.1164  0.3303
    21BTZ   C1143135   6.602   5.138  21.541 -0.0855  0.0453  0.1631
    21BTZ    N243136   6.508   5.309  21.405  0.1568 -0.1141 -0.2079
    21BTZ    N343137   6.497   5.064  21.504 -0.1076  0.0606  0.1955
    21BTZ    S343138   6.399   5.167  21.396  0.0616 -0.0502 -0.0633
    31IDT   C1243139   6.708   4.960  21.699 -0.2858 -0.3227 -0.1740
    31IDT   C1343140   6.604   4.871  21.709 -0.2669 -0.3111  0.1326
    31IDT   C1443141   6.627   4.770  21.808 -0.3188  0.1270  0.5970
    31IDT   C1543142   6.748   4.783  21.874 -0.3773  0.4517  0.6498
    31IDT    S443143   6.843   4.923  21.815 -0.3714  0.2254  0.1082
    4IDB    C1643144   6.773   4.664  21.953 -0.7784  0.1122 -0.9073
    4IDB    C1743145   6.654   4.585  21.952 -0.6754 -0.0709 -0.2213
    51IDQ   C1843146   6.548   4.651  21.864 -0.8599  0.0910 -0.3923
    4IDB    C1943147   6.647   4.465  22.021 -0.1881  0.0484  0.0457
    51IDQ   C2043148   6.497   4.537  21.774  0.2222  0.5606 -0.3058
    51IDQ   C2143149   6.416   4.699  21.947 -0.4101 -1.2904  0.1358
    51IDQ   C2243150   6.416   4.708  22.104  0.4158  0.2928  0.4254
    51IDQ   C2343151   6.505   4.525  21.624 -0.4486 -0.8945 -0.2655
    51IDQ   C2443152   6.289   4.639  22.155 -0.0273 -0.0980  0.3534
    51IDQ   C2543153   6.281   4.642  22.298  0.8221  0.5276 -0.3221
    51IDQ   C2643154   6.175   4.559  22.377 -0.1246 -0.5321 -0.3953
    51IDQ   C2743155   6.099   4.653  22.473 -0.0088  0.2633 -0.2870
    51IDQ   C2843156   6.006   4.582  22.565 -0.5731  0.2784 -0.5141
    51IDQ   C2943157   5.932   4.660  22.660  0.5999 -0.6295 -0.2921
    51IDQ   C3043158   6.435   4.402  21.572 -0.3583 -0.1969  0.5963
    51IDQ   C3143159   6.288   4.411  21.526 -0.6470 -0.6564  0.0488
    51IDQ   C3243160   6.243   4.289  21.453 -0.0479  0.4638  0.6143
    51IDQ   C3343161   6.319   4.213  21.334 -0.7590 -0.5360 -0.1554
    51IDQ   C3443162   6.247   4.096  21.282 -0.1491  0.5062 -0.3591
    51IDQ   C3543163   6.287   3.965  21.356  0.3016 -0.5946  0.8402
    4IDB    C3643164   6.887   4.622  22.025 -0.3920  0.4174 -1.3328
    4IDB    C3743165   6.878   4.499  22.094  0.1037  0.5354 -1.0509
    11RH    C3843166   6.995   5.918  21.229  0.8404  0.4147  0.7859
    4IDB    C3943167   6.761   4.423  22.092  0.1985  0.3538 -0.3799
    62IDT   C4043168   6.779   4.311  22.187 -0.6754  0.4087 -0.0708
    72IDQ   C4143169   6.985   4.429  22.185  0.5021  0.8261 -0.6229
    62IDT   C4243170   6.909   4.308  22.233 -0.6772  1.1663  0.0010
    72IDQ   C4343171   7.047   4.508  22.304 -0.7123  0.2220  0.2919
    72IDQ   C4443172   7.096   4.368  22.099 -0.2267  0.5139  0.6140
    62IDT    S543173   6.679   4.180  22.258  0.0635 -0.2305 -0.1853
    62IDT   C4543174   6.825   4.126  22.352  0.3447  0.6007 -0.1275
    62IDT   C4643175   6.935   4.204  22.327 -0.1005  1.2760 -0.0315
    82BTZ   C4743176   6.814   4.000  22.438  0.2505  0.0280 -0.1210
    82BTZ   C4843177   6.689   3.944  22.449  0.1727  0.1696 -0.2675
    82BTZ   C4943178   6.666   3.828  22.531 -0.0648  0.2207 -0.2623
    82BTZ   C5043179   6.767   3.767  22.601 -0.2242  0.1301 -0.1083
    82BTZ   C5143180   6.923   3.940  22.509  0.0904 -0.0710  0.0429
    82BTZ   C5243181   6.899   3.822  22.592 -0.1510 -0.0190  0.0496
    92RH    C5343182   6.752   3.633  22.677  0.0895  0.0919 -0.2938
    82BTZ    N443183   7.049   3.986  22.506  0.1456 -0.2112  0.1955
    82BTZ    N543184   7.006   3.772  22.656 -0.2899 -0.1175  0.2065
    82BTZ    S643185   7.144   3.876  22.611 -0.1143 -0.2844  0.3564
    92RH    C5443186   6.643   3.560  22.701  0.0393  0.1611 -0.3099
    92RH     S743187   6.477   3.584  22.628  0.0193  0.3808 -0.1955
    92RH    C5543188   6.640   3.444  22.794 -0.0088  0.0668 -0.4282
    92RH     O243189   6.737   3.402  22.860 -0.0087 -0.0846 -0.5231
    92RH     N643190   6.512   3.386  22.800 -0.0562  0.1709 -0.4192
    92RH    C5643191   6.412   3.440  22.723 -0.0520  0.3373 -0.3090
    92RH    C5743192   6.507   3.252  22.865  0.3092 -0.2227  0.1367
    92RH    C5843193   6.524   3.237  23.016 -0.2583  0.1755  0.2970
    92RH     S843194   6.251   3.389  22.712 -0.1018  0.4869 -0.2742
    72IDQ   C5943195   7.222   4.451  22.062  1.1098  0.1799 -0.7177
    72IDQ   C6043196   7.334   4.366  22.002  0.3232 -0.7041  0.8344
    72IDQ   C6143197   7.468   4.428  21.984  0.0949 -0.2723 -0.9036
    72IDQ   C6243198   7.534   4.454  22.112  0.3742  0.2158 -0.0154
    72IDQ   C6343199   7.663   4.524  22.086 -0.9287  0.2392 -0.8192
    72IDQ   C6443200   7.741   4.555  22.219 -1.6364 -0.3910  0.0778
    72IDQ   C6543201   7.696   4.686  22.264  0.6412  0.1617  0.6619
    72IDQ   C6643202   6.963   4.585  22.404  0.1959  0.2885  1.5236
    72IDQ   C6743203   7.011   4.631  22.536 -0.0640 -0.3326 -1.1545
    72IDQ   C6843204   7.125   4.730  22.524  0.6454  0.3096  0.2699
    72IDQ   C6943205   7.223   4.735  22.633 -0.4860 -0.5539 -0.3879
    72IDQ   C7043206   7.183   4.800  22.773 -1.2821 -0.8221  0.5946
    72IDQ   C7143207   7.184   4.957  22.783 -0.1520  1.3145 -0.5383
    72IDQ   C7243208   7.250   5.013  22.907 -0.0458 -0.2838  0.3701
    11RH     C143209   1.558   2.582  18.163 -0.0275  0.5449 -0.1993
    11RH     C243210   1.450   2.532  18.250  0.1925  0.1227 -0.1636
    11RH     N143211   1.595   2.714  18.197 -0.4872  0.6702 -0.1749
    11RH     S143212   1.403   2.661  18.372 -0.2194 -0.0820 -0.0996
    11RH     C343213   1.529   2.776  18.301 -0.6623  0.4000 -0.1235
    11RH     C443214   1.692   2.787  18.101  0.7541 -0.6922  0.1256
    11RH     S243215   1.554   2.931  18.361 -1.1951  0.4733 -0.0849
    11RH     O143216   1.612   2.518  18.071  0.1598  0.7671 -0.2451
    11RH     C543217   1.396   2.410  18.239  0.6270 -0.0690 -0.1769
    21BTZ    C643218   1.284   2.338  18.296  0.2162 -0.0982  0.1470
    21BTZ    C743219   1.199   2.387  18.392  0.2518 -0.1162  0.1874
    21BTZ    C843220   1.255   2.210  18.238  0.1198 -0.0275  0.0372
    21BTZ    C943221   1.083   2.314  18.436  0.1948 -0.0662  0.1216
    21BTZ   C1043222   1.052   2.191  18.384  0.1025  0.0019  0.0162
    21BTZ   C1143223   1.137   2.135  18.283  0.0620  0.0234 -0.0296
    21BTZ    N243224   1.329   2.151  18.144  0.0773 -0.0035 -0.0114
    21BTZ    N343225   1.117   2.016  18.225 -0.0271  0.0883 -0.1316
    21BTZ    S343226   1.251   1.995  18.108 -0.0411  0.0869 -0.1476
    31IDT   C1243227   0.921   2.130  18.423  0.3208 -0.2817  0.3101
    31IDT   C1343228   0.850   2.024  18.372  0.9238 -1.0017  0.9274
    31IDT   C1443229   0.726   2.003  18.440  1.0109 -1.2783  1.0047
    31IDT   C1543230   0.701   2.093  18.542  0.4763 -0.7721  0.4476
    31IDT    S443231   0.835   2.212  18.560 -0.1851  0.1019 -0.2232
    4IDB    C1643232   0.571   2.057  18.607  0.1957 -0.4199  0.4934
    4IDB    C1743233   0.504   1.950  18.540 -0.1182  0.0301  0.0715
    51IDQ   C1843234   0.595   1.914  18.413  0.5342  0.4665  0.6216
    4IDB    C1943235   0.381   1.903  18.585 -0.1210  0.0265  0.0601
    51IDQ   C2043236   0.616   1.761  18.449  0.1551  0.8200 -0.1320
    51IDQ   C2143237   0.535   1.930  18.265 -0.0400  0.8523 -0.8989
    51IDQ   C2243238   0.401   2.017  18.224 -0.6118  1.5967 -0.8792
    51IDQ   C2343239   0.747   1.691  18.498  0.1582  0.0470  0.0463
    51IDQ   C2443240   0.425   2.162  18.280  0.9309 -0.2783  1.0644
    51IDQ   C2543241   0.292   2.201  18.359 -0.3654 -0.0961  0.4604
    51IDQ   C2643242   0.279   2.357  18.383  1.0689 -0.4899  0.1778
    51IDQ   C2743243   0.401   2.422  18.448  0.4581 -0.3543 -0.1784
    51IDQ   C2843244   0.432   2.565  18.478  0.2264  0.6024 -0.1384
    51IDQ   C2943245   0.432   2.656  18.354 -0.0083  0.3605 -0.0091
    51IDQ   C3043246   0.794   1.734  18.636 -0.7209  1.3927  0.2390
    51IDQ   C3143247   0.714   1.683  18.754 -1.0678  0.3944  1.0025
    51IDQ   C3243248   0.796   1.697  18.874  0.3844 -0.9861  1.1521
    51IDQ   C3343249   0.716   1.625  18.984  0.4208 -0.0962  0.5204
    51IDQ   C3443250   0.600   1.691  19.053  0.6591  0.3077  0.0246
    51IDQ   C3543251   0.550   1.624  19.185 -0.7217  0.6797 -0.5220
    4IDB    C3643252   0.514   2.118  18.720  0.5107 -0.8789  0.9098
    4IDB    C3743253   0.388   2.069  18.764  0.5029 -0.8754  0.8912
    11RH    C3843254   1.845   2.758  18.149 -0.1500 -0.4101  0.0980
    4IDB    C3943255   0.325   1.964  18.698  0.1940 -0.4326  0.4760
    62IDT   C4043256   0.194   1.937  18.753  0.4863 -0.2331  0.6070
    72IDQ   C4143257   0.291   2.131  18.867 -0.2821 -0.2781  0.7495
    62IDT   C4243258   0.173   2.038  18.846  0.5840 -0.6728  1.1191
    72IDQ   C4343259   0.245   2.281  18.818 -0.7312 -0.7320 -0.7146
    72IDQ   C4443260   0.363   2.142  19.011 -0.7868  0.4206  0.3306
    62IDT    S543261   0.045   1.840  18.725  0.3296  0.1913 -0.0614
    62IDT   C4543262  -0.042   1.946  18.845  0.4082 -0.2708  0.4109
    62IDT   C4643263   0.040   2.043  18.897  0.5400 -0.6948  1.0090
    82BTZ   C4743264  -0.193   1.934  18.870 -0.7195  0.0172 -0.3619
    82BTZ   C4843265  -0.259   1.819  18.833 -0.9506  0.1082 -0.2332
    82BTZ   C4943266  -0.399   1.799  18.863 -0.9013  0.2685  0.1140
    82BTZ   C5043267  -0.473   1.894  18.929 -0.6212  0.3376  0.3316
    82BTZ   C5143268  -0.266   2.036  18.939 -0.4219  0.0842 -0.1431
    82BTZ   C5243269  -0.408   2.016  18.969 -0.3719  0.2472  0.2098
    92RH    C5343270  -0.607   1.888  18.952  0.0631  0.1304 -0.1769
    82BTZ    N443271  -0.213   2.152  18.979 -0.1788  0.0075 -0.2394
    82BTZ    N543272  -0.469   2.116  19.034 -0.0887  0.3014  0.3972
    82BTZ    S643273  -0.345   2.242  19.059  0.1307  0.1432  0.1251
    92RH    C5443274  -0.700   1.795  18.932  0.1966 -0.0340 -0.0429
    92RH     S743275  -0.684   1.641  18.834  0.4941 -0.2755  0.3763
    92RH    C5543276  -0.837   1.802  18.990  0.1203 -0.0450 -0.2213
    92RH     O243277  -0.880   1.894  19.062 -0.0721  0.0936 -0.5093
    92RH     N643278  -0.915   1.691  18.953  0.2957 -0.2360 -0.0202
    92RH    C5643279  -0.858   1.594  18.873  0.5034 -0.3794  0.2966
    92RH    C5743280  -1.052   1.673  19.000  0.2079  0.2790  0.0247
    92RH    C5843281  -1.069   1.631  19.146  0.9072 -0.4955  0.9233
    92RH     S843282  -0.929   1.453  18.815  0.7389 -0.6168  0.5836
    72IDQ   C5943283   0.276   2.126  19.137 -0.2720 -0.6091  0.4389
    72IDQ   C6043284   0.351   2.139  19.267 -0.5595 -0.8082  0.5464
    72IDQ   C6143285   0.289   2.111  19.402  0.5459  0.8609 -0.8317
    72IDQ   C6243286   0.370   2.126  19.530 -0.1204  0.0353  0.8876
    72IDQ   C6343287   0.352   2.247  19.615  0.9067 -0.3331  0.0194
    72IDQ   C6443288   0.232   2.274  19.713 -0.4496 -0.3068  0.0947
    72IDQ   C6543289   0.227   2.171  19.821 -0.0915  0.8801 -1.1128
    72IDQ   C6643290   0.250   2.410  18.907  0.2683 -0.7981  0.1981
    72IDQ   C6743291   0.312   2.552  18.875  0.7996 -0.0675 -0.8112
    72IDQ   C6843292   0.375   2.620  18.999  0.6738  0.9671  0.1516
    72IDQ   C6943293   0.375   2.774  18.996  0.8197 -0.5106  0.0343
    72IDQ   C7043294   0.264   2.854  18.919 -0.6417 -0.0533  0.3798
    72IDQ   C7143295   0.297   2.997  18.893  0.2793  0.6482  0.1086
    72IDQ   C7243296   0.193   3.066  18.818 -0.0276  0.7314  0.5179
    11RH     C143297   1.061   0.044  11.832  0.1424 -0.3843  0.2794
    11RH     C243298   1.094   0.031  11.975  0.1286 -0.2140  0.2985
    11RH     N143299   0.921   0.047  11.811  0.1446 -0.1397  0.2888
    11RH     S143300   0.940   0.023  12.075  0.1194  0.2566  0.3282
    11RH     C343301   0.839   0.037  11.921  0.1343  0.2055  0.3133
    11RH     C443302   0.867   0.059  11.668  0.4151  0.1010  0.0433
    11RH     S243303   0.670   0.038  11.924  0.1343  0.5462  0.3290
    11RH     O143304   1.143   0.052  11.739  0.1511 -0.7008  0.2575
    11RH     C543305   1.220   0.026  12.022  0.1239 -0.3871  0.2948
    21BTZ    C643306   1.279   0.023  12.158  0.0511  0.2259  0.0320
    21BTZ    C743307   1.202   0.034  12.271 -0.0389  0.2422 -0.0308
    21BTZ    C843308   1.418  -0.010  12.173  0.0225  0.1526  0.1435
    21BTZ    C943309   1.257   0.015  12.403 -0.1606  0.1876  0.0124
    21BTZ   C1043310   1.389  -0.016  12.422 -0.1921  0.1168  0.1186
    21BTZ   C1143311   1.474  -0.029  12.307 -0.1012  0.0972  0.1874
    21BTZ    N243312   1.503  -0.024  12.071  0.1022  0.1303  0.2127
    21BTZ    N343313   1.604  -0.059  12.313 -0.1209  0.0302  0.2923
    21BTZ    S343314   1.661  -0.064  12.143  0.0208  0.0354  0.3400
    31IDT   C1243315   1.434  -0.016  12.564 -0.0240 -0.7373  0.1183
    31IDT   C1343316   1.561  -0.030  12.613 -0.1174 -1.2264  0.2291
    31IDT   C1443317   1.565  -0.030  12.756 -0.2178 -0.9857  0.2329
    31IDT   C1543318   1.441  -0.016  12.816 -0.2016 -0.3128  0.1255
    31IDT    S443319   1.309  -0.002  12.695 -0.0566  0.0714  0.0100
    4IDB    C1643320   1.452  -0.028  12.957 -0.2353  0.1012  0.4509
    4IDB    C1743321   1.589  -0.051  12.991 -0.0524  0.4501 -0.0367
    51IDQ   C1843322   1.674  -0.050  12.862  0.2283  0.2297  0.6653
    4IDB    C1943323   1.629  -0.068  13.123  0.4310  0.3159 -0.1937
    51IDQ   C2043324   1.777   0.063  12.880  0.5321 -0.8623 -0.0780
    51IDQ   C2143325   1.767  -0.173  12.841  0.8442 -0.5833  1.0029
    51IDQ   C2243326   1.748  -0.303  12.920 -0.4023  0.0109 -0.1498
    51IDQ   C2343327   1.756   0.197  12.809 -0.0599  0.3491  0.3977
    51IDQ   C2443328   1.617  -0.382  12.910 -0.3793  0.0815 -0.1154
    51IDQ   C2543329   1.585  -0.473  13.030 -0.2242 -0.3601  0.7073
    51IDQ   C2643330   1.598  -0.628  13.019  1.4970 -0.7934 -0.4219
    51IDQ   C2743331   1.536  -0.689  13.149  1.1907  1.4288 -1.0088
    51IDQ   C2843332   1.500  -0.851  13.158  0.1640 -0.7469  0.4904
    51IDQ   C2943333   1.365  -0.873  13.102  0.4179 -0.4535  0.2952
    51IDQ   C3043334   1.873   0.267  12.841 -0.1727  0.1735 -0.0522
    51IDQ   C3143335   1.858   0.419  12.824 -0.1348  0.6005 -0.4257
    51IDQ   C3243336   1.975   0.515  12.875  0.0652  0.2118  0.1268
    51IDQ   C3343337   2.000   0.481  13.027 -0.2193  0.7321 -0.2804
    51IDQ   C3443338   2.109   0.568  13.106  0.1939  0.0132  0.6678
    51IDQ   C3543339   2.253   0.533  13.069  0.4629  0.7190 -0.9025
    4IDB    C3643340   1.353  -0.023  13.056  0.0666 -0.3870  0.7865
    4IDB    C3743341   1.395  -0.041  13.191  0.5596 -0.5176  0.6192
    11RH    C3843342   0.825   0.208  11.643 -0.0135 -0.0145 -0.6704
    4IDB    C3943343   1.530  -0.063  13.222  0.7329 -0.1723  0.1415
    62IDT   C4043344   1.542  -0.085  13.364  0.5719  0.7090  0.2985
    72IDQ   C4143345   1.311  -0.019  13.321  0.1161  0.0561  0.3808
    62IDT   C4243346   1.424  -0.053  13.427  0.6675  1.0091  0.3326
    72IDQ   C4343347   1.169  -0.101  13.331  1.3650 -0.4095 -0.3751
    72IDQ   C4443348   1.298   0.130  13.358 -0.2808 -0.9748  0.5642
    62IDT    S543349   1.661  -0.158  13.478  0.2866  0.0524  0.1810
    62IDT   C4543350   1.537  -0.142  13.610  0.3128  0.2268  0.1845
    62IDT   C4643351   1.421  -0.085  13.566  0.5212  0.7371  0.2682
    82BTZ   C4743352   1.566  -0.179  13.753 -0.1922  0.1666 -0.0145
    82BTZ   C4843353   1.697  -0.193  13.791 -0.1499  0.0259 -0.2115
    82BTZ   C4943354   1.733  -0.225  13.926  0.0171 -0.1001 -0.2861
    82BTZ   C5043355   1.639  -0.243  14.024  0.1414 -0.0852 -0.1633
    82BTZ   C5143356   1.463  -0.197  13.852 -0.0664  0.1879  0.1202
    82BTZ   C5243357   1.501  -0.229  13.990  0.1033  0.0600  0.0446
    92RH    C5343358   1.668  -0.302  14.157  0.1035  0.3490  0.1268
    82BTZ    N443359   1.332  -0.185  13.828 -0.0924  0.3195  0.3150
    82BTZ    N543360   1.400  -0.244  14.076  0.2136  0.0887  0.1786
    82BTZ    S643361   1.250  -0.217  13.983  0.1031  0.2846  0.4127
    92RH    C5443362   1.781  -0.340  14.215  0.1131  0.3363  0.0997
    92RH     S743363   1.946  -0.354  14.136  0.0490  0.1073  0.0048
    92RH    C5543364   1.791  -0.380  14.358  0.1795  0.5122  0.1438
    92RH     O243365   1.697  -0.381  14.439  0.2332  0.6889  0.2103
    92RH     N643366   1.923  -0.416  14.393  0.1750  0.4552  0.1011
    92RH    C5643367   2.020  -0.411  14.295  0.1131  0.2551  0.0279
    92RH    C5743368   1.949  -0.465  14.527  0.0515 -0.6311 -0.7886
    92RH    C5843369   1.965  -0.609  14.555  0.2934 -0.3001  0.3334
    92RH     S843370   2.184  -0.449  14.310  0.0942  0.1487 -0.0343
    72IDQ   C5943371   1.182   0.232  13.324 -0.6110 -0.3921  0.5726
    72IDQ   C6043372   1.194   0.373  13.377  0.6818 -0.0714 -0.4047
    72IDQ   C6143373   1.207   0.406  13.529 -0.6701 -0.3297 -0.9465
    72IDQ   C6243374   1.095   0.354  13.624 -0.7970  0.0088 -0.2184
    72IDQ   C6343375   0.953   0.376  13.590  0.6730  0.0608 -0.2117
    72IDQ   C6443376   0.869   0.308  13.702 -0.3727  0.5918 -0.0960
    72IDQ   C6543377   0.716   0.299  13.688 -0.6451  0.4989  0.0849
    72IDQ   C6643378   1.155  -0.241  13.271  0.5733 -1.1910  0.3121
    72IDQ   C6743379   1.039  -0.313  13.329 -0.2443 -0.4831 -0.5138
    72IDQ   C6843380   1.058  -0.457  13.304 -0.8086  0.7322  0.6758
    72IDQ   C6943381   1.175  -0.539  13.354 -0.9843  0.2500  0.5034
    72IDQ   C7043382   1.231  -0.521  13.491 -0.4421  0.5565  0.4739
    72IDQ   C7143383   1.180  -0.603  13.610 -0.1348 -0.2316  0.5442
    72IDQ   C7243384   1.030  -0.593  13.655 -0.6162  0.3686  0.4084
    11RH     C143385   6.442   4.347  23.032 -0.0352 -0.4537  0.1526
    11RH     C243386   6.563   4.279  23.085  0.0896 -0.1925  0.2079
    11RH     N143387   6.476   4.462  22.958 -0.2517 -0.3331  0.2372
    11RH     S143388   6.713   4.370  23.032 -0.0860  0.1943  0.3691
    11RH     C343389   6.609   4.494  22.944 -0.3157 -0.0075  0.3548
    11RH     C443390   6.372   4.549  22.885  0.2298  0.0860 -0.5311
    11RH     S243391   6.676   4.625  22.860 -0.5625  0.1956  0.4721
    11RH     O143392   6.325   4.311  23.051  0.0372 -0.7430  0.0448
    11RH     C543393   6.559   4.168  23.159  0.2987 -0.2420  0.1472
    21BTZ    C643394   6.666   4.094  23.230  0.0121 -0.3470 -0.3806
    21BTZ    C743395   6.800   4.124  23.228  0.0014 -0.3090 -0.5331
    21BTZ    C843396   6.621   3.986  23.314  0.1041 -0.1998 -0.1407
    21BTZ    C943397   6.895   4.051  23.308  0.0803 -0.1254 -0.4587
    21BTZ   C1043398   6.857   3.948  23.390  0.1696  0.0197 -0.2304
    21BTZ   C1143399   6.718   3.912  23.395  0.1842 -0.0132 -0.0644
    21BTZ    N243400   6.494   3.947  23.325  0.1233 -0.2196  0.0248
    21BTZ    N343401   6.669   3.814  23.471  0.2679  0.1168  0.1621
    21BTZ    S343402   6.493   3.811  23.441  0.2472  0.0039  0.2905
    31IDT   C1243403   6.960   3.860  23.442 -0.3879 -0.0003 -0.1426
    31IDT   C1343404   7.062   3.905  23.521 -0.2595  0.0250 -0.3200
    31IDT   C1443405   7.150   3.800  23.563 -0.1441  0.0511 -0.4954
    31IDT   C1543406   7.116   3.675  23.516 -0.1838  0.0458 -0.4527
    31IDT    S443407   6.968   3.680  23.414 -0.3720  0.0071 -0.1852
    4IDB    C1643408   7.214   3.572  23.562 -0.0821 -0.1253  0.3747
    4IDB    C1743409   7.308   3.636  23.649  0.0536 -0.1060  0.2155
    51IDQ   C1843410   7.278   3.786  23.649  0.0062  0.0994 -0.2452
    4IDB    C1943411   7.404   3.561  23.717  0.1882 -0.0857  0.0488
    51IDQ   C2043412   7.276   3.833  23.801  0.2632 -0.2895 -0.7566
    51IDQ   C2143413   7.399   3.870  23.594 -0.6810 -0.4088 -0.3557
    51IDQ   C2243414   7.521   3.839  23.500  0.1280  0.4773 -0.4536
    51IDQ   C2343415   7.168   3.921  23.850 -0.8006 -0.3238 -0.2245
    51IDQ   C2443416   7.481   3.759  23.375 -0.6032 -0.8603 -0.4806
    51IDQ   C2543417   7.566   3.806  23.260 -0.6061  0.0036 -0.2903
    51IDQ   C2643418   7.495   3.770  23.132 -0.3939 -0.0044 -1.2279
    51IDQ   C2743419   7.539   3.849  23.017  0.3698 -1.0185 -0.2585
    51IDQ   C2843420   7.504   3.792  22.882  0.9488 -0.0748  0.5402
    51IDQ   C2943421   7.579   3.845  22.759 -0.5770 -0.8763  0.2010
    51IDQ   C3043422   7.151   4.057  23.784 -0.6186  0.9505  0.3315
    51IDQ   C3143423   7.032   4.111  23.848  0.0648  0.3183 -0.6602
    51IDQ   C3243424   6.977   4.241  23.803 -0.7362 -1.8032 -0.2130
    51IDQ   C3343425   6.903   4.254  23.683  0.5490  0.0123  0.7568
    51IDQ   C3443426   6.936   4.373  23.606 -0.6080  0.2532  0.6448
    51IDQ   C3543427   6.868   4.379  23.476  0.1631  1.2810  0.0652
    4IDB    C3643428   7.216   3.434  23.542 -0.0839 -0.1243  0.3672
    4IDB    C3743429   7.314   3.359  23.612  0.0547 -0.1034  0.1955
    11RH    C3843430   6.317   4.508  22.753  0.0879  1.0881 -0.2782
    4IDB    C3943431   7.405   3.422  23.697  0.1864 -0.0846  0.0413
    62IDT   C4043432   7.514   3.331  23.743  0.0861  0.3471  0.1541
    72IDQ   C4143433   7.365   3.214  23.596 -0.4293 -0.6202  0.9130
    62IDT   C4243434   7.499   3.215  23.670 -0.0005  0.6275 -0.2804
    72IDQ   C4343435   7.400   3.163  23.458 -0.7607  0.9013  0.5312
    72IDQ   C4443436   7.278   3.100  23.657  0.5424  1.5615 -0.7548
    62IDT    S543437   7.670   3.334  23.833 -0.0483 -0.2363  0.4163
    62IDT   C4543438   7.708   3.170  23.763 -0.2230 -0.0619 -0.0997
    62IDT   C4643439   7.608   3.124  23.681 -0.1754  0.3967 -0.4239
    82BTZ   C4743440   7.844   3.117  23.787  0.0429  0.2008 -0.5065
    82BTZ   C4843441   7.939   3.204  23.835  0.1498  0.1765 -0.6742
    82BTZ   C4943442   8.075   3.163  23.858  0.1078  0.0622 -0.6289
    82BTZ   C5043443   8.117   3.035  23.833 -0.0410 -0.0276 -0.4165
    82BTZ   C5143444   7.883   2.982  23.760 -0.1145  0.1098 -0.2818
    82BTZ   C5243445   8.021   2.940  23.784 -0.1572 -0.0064 -0.2360
    92RH    C5343446   8.261   2.989  23.861 -0.2151  0.1334  0.1450
    82BTZ    N443447   7.800   2.888  23.714 -0.2290  0.1228 -0.1054
    82BTZ    N543448   8.050   2.813  23.756 -0.3059 -0.0869 -0.0224
    82BTZ    S643449   7.897   2.739  23.698 -0.3997 -0.0159  0.1319
    92RH    C5443450   8.374   3.047  23.901 -0.1433  0.0281  0.0958
    92RH     S743451   8.394   3.220  23.960  0.0210 -0.0253  0.1996
    92RH    C5543452   8.506   2.978  23.905 -0.1878 -0.0640 -0.0548
    92RH     O243453   8.526   2.860  23.871 -0.2946 -0.0553 -0.1521
    92RH     N643454   8.608   3.063  23.951 -0.0925 -0.1661 -0.0766
    92RH    C5643455   8.575   3.193  23.986  0.0229 -0.1670  0.0386
    92RH    C5743456   8.745   3.003  23.953 -0.0654 -0.0548  0.2016
    92RH    C5843457   8.803   2.940  24.083  0.3579 -1.1742  0.1990
    92RH     S843458   8.677   3.313  24.043  0.1513 -0.2766  0.0415
    72IDQ   C5943459   7.123   3.123  23.670 -0.5900  0.6252 -0.3089
    72IDQ   C6043460   7.060   2.988  23.707 -0.0370 -0.3096  0.6754
    72IDQ   C6143461   6.909   3.001  23.715 -0.1838 -0.3534 -0.5915
    72IDQ   C6243462   6.801   2.885  23.688 -0.9308  0.6326 -0.2585
    72IDQ   C6343463   6.663   2.904  23.718  0.5538 -0.2422 -0.4034
    72IDQ   C6443464   6.602   3.014  23.619  0.0829 -0.3192 -0.1884
    72IDQ   C6543465   6.461   2.992  23.608  0.7931  0.1156  0.7452
    72IDQ   C6643466   7.460   3.244  23.347 -0.0591 -0.5565  1.3513
    72IDQ   C6743467   7.578   3.349  23.350  0.3428  0.6024 -0.8850
    72IDQ   C6843468   7.575   3.433  23.222 -0.1360 -1.1239 -0.0444
    72IDQ   C6943469   7.593   3.382  23.073 -1.1776  0.0198 -0.7890
    72IDQ   C7043470   7.737   3.345  23.032 -0.0359 -1.0172 -0.1102
    72IDQ   C7143471   7.734   3.253  22.914 -0.1154 -0.5665  0.4061
    72IDQ   C7243472   7.867   3.169  22.903 -0.1742  0.9081 -0.1445
    11RH     C143473   4.186   2.949   8.110 -0.0722  0.0336 -0.1056
    11RH     C243474   4.120   2.889   8.228  0.0861  0.0742  0.0031
    11RH     N143475   4.279   2.860   8.052 -0.1833 -0.0037 -0.2269
    11RH     S143476   4.186   2.719   8.256  0.0787  0.0609 -0.0618
    11RH     C343477   4.296   2.736   8.109 -0.1334  0.0022 -0.2294
    11RH     C443478   4.361   2.922   7.935 -0.7752  0.3100 -0.3726
    11RH     S243479   4.400   2.613   8.059 -0.2410 -0.0364 -0.3603
    11RH     O143480   4.164   3.063   8.065 -0.1062  0.0315 -0.0942
    11RH     C543481   4.028   2.952   8.302  0.2124  0.1141  0.1280
    21BTZ    C643482   3.927   2.895   8.393 -0.2814  0.2831 -0.0122
    21BTZ    C743483   3.913   2.761   8.418 -0.2819  0.2544 -0.1636
    21BTZ    C843484   3.845   2.987   8.465 -0.3130  0.1993  0.0598
    21BTZ    C943485   3.817   2.712   8.514 -0.3131  0.1428 -0.2513
    21BTZ   C1043486   3.736   2.796   8.585 -0.3438  0.0601 -0.1876
    21BTZ   C1143487   3.748   2.937   8.562 -0.3447  0.0859 -0.0293
    21BTZ    N243488   3.849   3.120   8.449 -0.3157  0.2171  0.2062
    21BTZ    N343489   3.674   3.030   8.625 -0.3730  0.0125  0.0453
    21BTZ    S343490   3.727   3.188   8.561 -0.3600  0.0869  0.2372
    31IDT   C1243491   3.641   2.738   8.678  0.5333  0.3123  0.0494
    31IDT   C1343492   3.679   2.675   8.794  0.5208 -0.0052 -0.1149
    31IDT   C1443493   3.569   2.646   8.880  0.4632 -0.6140 -0.3841
    31IDT   C1543494   3.446   2.686   8.830  0.4316 -0.7643 -0.4270
    31IDT    S443495   3.461   2.764   8.669  0.4726 -0.1408 -0.1266
    4IDB    C1643496   3.337   2.630   8.910 -0.1075 -0.0009 -0.4964
    4IDB    C1743497   3.396   2.569   9.025 -0.0331 -0.1019 -0.5872
    51IDQ   C1843498   3.556   2.592   9.022  0.8496  0.8287  0.8816
    4IDB    C1943499   3.317   2.521   9.129  0.0396 -0.0819 -0.5228
    51IDQ   C2043500   3.576   2.692   9.143 -0.9313  0.0031  0.0280
    51IDQ   C2143501   3.638   2.453   9.046 -0.2166  0.1286  0.2989
    51IDQ   C2243502   3.573   2.312   9.049  0.6576 -0.4641  0.1771
    51IDQ   C2343503   3.613   2.834   9.109  0.4212 -0.2736 -0.2341
    51IDQ   C2443504   3.650   2.192   8.984 -0.3132 -0.5256 -0.7249
    51IDQ   C2543505   3.691   2.180   8.841  0.0131 -0.0651  0.6951
    51IDQ   C2643506   3.569   2.196   8.733 -0.1125 -1.1268 -0.0908
    51IDQ   C2743507   3.592   2.319   8.652 -0.0019  0.3282  0.4616
    51IDQ   C2843508   3.470   2.361   8.584 -0.6453  0.1778 -1.1405
    51IDQ   C2943509   3.470   2.485   8.501 -0.1928  0.5729  0.1631
    51IDQ   C3043510   3.627   2.919   9.227  0.4160  0.3240 -0.5590
    51IDQ   C3143511   3.737   3.016   9.189  0.4225 -1.2754 -1.2292
    51IDQ   C3243512   3.809   3.095   9.296  0.8137 -0.2908  0.1667
    51IDQ   C3343513   3.940   3.148   9.248  0.3267  0.0812  0.9829
    51IDQ   C3443514   4.025   3.193   9.363 -0.7845  0.1454 -0.2722
    51IDQ   C3543515   3.987   3.319   9.441 -0.8831  0.0310  0.0688
    4IDB    C3643516   3.198   2.643   8.899 -0.1095  0.1211 -0.3393
    4IDB    C3743517   3.119   2.594   9.006 -0.0345  0.1398 -0.2754
    11RH    C3843518   4.302   2.887   7.803  0.0154  0.2220 -0.3404
    4IDB    C3943519   3.178   2.535   9.118  0.0378  0.0401 -0.3656
    62IDT   C4043520   3.088   2.498   9.218  0.1506 -0.5499 -0.2586
    72IDQ   C4143521   2.972   2.603   9.035  0.4423  0.0413 -0.1319
    62IDT   C4243522   2.962   2.510   9.163  0.2355 -1.1139 -0.5984
    72IDQ   C4343523   2.890   2.529   8.921  0.2555  0.3275  0.4404
    72IDQ   C4443524   2.927   2.751   9.040  0.0557 -0.0097 -0.5286
    62IDT    S543525   3.086   2.404   9.371  0.1073 -0.2055 -0.0452
    62IDT   C4543526   2.906   2.385   9.352  0.2113 -0.8748 -0.4466
    62IDT   C4643527   2.859   2.446   9.239  0.2700 -1.2983 -0.7055
    82BTZ   C4743528   2.824   2.312   9.449 -0.0540  0.1546  0.1021
    82BTZ   C4843529   2.892   2.241   9.545 -0.0196  0.0203 -0.0219
    82BTZ   C4943530   2.823   2.168   9.648  0.0138 -0.2498 -0.1884
    82BTZ   C5043531   2.686   2.166   9.656  0.0126 -0.3853 -0.2310
    82BTZ   C5143532   2.681   2.313   9.453 -0.0567  0.0213  0.0641
    82BTZ   C5243533   2.610   2.239   9.558 -0.0228 -0.2533 -0.1051
    92RH    C5343534   2.616   2.112   9.777 -0.0412  0.4318 -0.0654
    82BTZ    N443535   2.604   2.379   9.366 -0.0886  0.1310  0.1740
    82BTZ    N543536   2.477   2.245   9.556 -0.0275 -0.3643 -0.1314
    82BTZ    S643537   2.435   2.348   9.416 -0.0764 -0.1174  0.0636
    92RH    C5443538   2.670   2.057   9.886 -0.1938  0.2807 -0.0663
    92RH     S743539   2.844   2.005   9.909 -0.2787  0.0300  0.0228
    92RH    C5543540   2.593   2.028  10.009 -0.3213  0.2945 -0.1421
    92RH     O243541   2.472   2.051  10.026 -0.3026  0.4445 -0.2124
    92RH     N643542   2.674   1.970  10.109 -0.4708  0.1132 -0.1250
    92RH    C5643543   2.807   1.948  10.080 -0.4787 -0.0443 -0.0446
    92RH    C5743544   2.628   1.947  10.245 -0.4014  0.4468 -0.4599
    92RH    C5843545   2.650   2.063  10.336 -0.7557  0.3060  0.0399
    92RH     S843546   2.925   1.880  10.180 -0.6407 -0.2746 -0.0076
    72IDQ   C5943547   2.993   2.851   9.138  0.3785  0.6495  0.4200
    72IDQ   C6043548   2.927   2.870   9.279  0.2393 -0.0098  0.1424
    72IDQ   C6143549   2.990   2.972   9.371 -0.4684  0.0186 -1.0206
    72IDQ   C6243550   2.949   3.115   9.351 -0.4136 -0.5530  0.7456
    72IDQ   C6343551   2.951   3.195   9.484  0.0343  0.6347  0.5825
    72IDQ   C6443552   2.917   3.339   9.500 -0.1977  0.5927  0.6409
    72IDQ   C6543553   2.990   3.440   9.401  0.5397 -0.5481 -0.1265
    72IDQ   C6643554   2.873   2.591   8.779  0.2233  0.3887 -0.8521
    72IDQ   C6743555   2.823   2.488   8.677  0.6533  0.1879  0.2930
    72IDQ   C6843556   2.911   2.384   8.613 -0.0336  0.1161  0.8412
    72IDQ   C6943557   2.934   2.266   8.708 -0.9233  0.2231  0.2751
    72IDQ   C7043558   2.958   2.125   8.653 -1.4284 -0.4337  0.9007
    72IDQ   C7143559   2.944   2.023   8.766  0.2983 -0.3585  0.8755
    72IDQ   C7243560   3.038   2.021   8.872 -1.0805 -0.2944 -0.1226
    11RH     C143561   7.121   2.690  22.305  0.2877 -0.0637  0.0334
    11RH     C243562   6.975   2.696  22.275  0.3326  0.1531 -0.1507
    11RH     N143563   7.153   2.575  22.379  0.0107 -0.0771  0.1371
    11RH     S143564   6.891   2.550  22.348  0.0079  0.3253 -0.1759
    11RH     C343565   7.052   2.488  22.413 -0.1719  0.1026  0.0582
    11RH     C443566   7.296   2.544  22.406  0.5756  0.3646 -0.0267
    11RH     S243567   7.065   2.345  22.501 -0.5102  0.1289  0.1516
    11RH     O143568   7.205   2.774  22.269  0.4665 -0.2170  0.0925
    11RH     C543569   6.918   2.795  22.206  0.5767  0.2083 -0.2762
    21BTZ    C643570   6.777   2.817  22.159  0.0154  0.5710  0.2766
    21BTZ    C743571   6.676   2.728  22.179  0.1222  0.4631  0.3390
    21BTZ    C843572   6.748   2.940  22.091 -0.1040  0.4288  0.0668
    21BTZ    C943573   6.541   2.755  22.134  0.1172  0.2116  0.1988
    21BTZ   C1043574   6.509   2.871  22.069  0.0053  0.0686 -0.0025
    21BTZ   C1143575   6.612   2.967  22.046 -0.1092  0.1732 -0.0753
    21BTZ    N243576   6.839   3.035  22.065 -0.2145  0.5134 -0.0119
    21BTZ    N343577   6.592   3.084  21.983 -0.2238  0.0524 -0.2680
    21BTZ    S343578   6.752   3.166  21.980 -0.3321  0.2647 -0.2766
    31IDT   C1243579   6.363   2.904  22.046 -0.3366  0.0930  0.1685
    31IDT   C1343580   6.303   2.977  21.947 -0.1851 -0.4537 -0.3390
    31IDT   C1443581   6.160   2.969  21.951 -0.1850 -0.6574 -0.6919
    31IDT   C1543582   6.111   2.890  22.052 -0.3356 -0.2685 -0.4556
    31IDT    S443583   6.243   2.819  22.152 -0.4908  0.3919  0.2379
    4IDB    C1643584   5.968   2.881  22.049  0.1592 -0.1878  0.1765
    4IDB    C1743585   5.922   2.954  21.935  0.3701 -0.2109  0.0753
    51IDQ   C1843586   6.041   3.026  21.870 -0.2075 -0.2798  1.1657
    4IDB    C1943587   5.787   2.956  21.901  0.3619  0.2010  0.1226
    51IDQ   C2043588   6.046   2.973  21.717  0.5370 -0.3287  0.2279
    51IDQ   C2143589   6.044   3.180  21.864  1.1154 -0.5567 -0.6403
    51IDQ   C2243590   5.921   3.265  21.905  0.2809 -0.3435  0.2032
    51IDQ   C2343591   6.173   2.896  21.669 -0.2535 -0.0013 -1.1745
    51IDQ   C2443592   5.949   3.414  21.889 -0.0189 -0.3137 -0.1513
    51IDQ   C2543593   5.826   3.501  21.872  0.1573 -0.1062 -0.3448
    51IDQ   C2643594   5.867   3.634  21.947  0.2144  0.5799  1.1342
    51IDQ   C2743595   5.769   3.748  21.906  0.0785 -0.8811 -0.0913
    51IDQ   C2843596   5.653   3.731  22.006 -1.1102 -0.3243  1.0065
    51IDQ   C2943597   5.544   3.841  22.003  0.6625  0.3732  0.1544
    51IDQ   C3043598   6.127   2.800  21.568 -0.7047 -0.2943  0.0377
    51IDQ   C3143599   6.227   2.761  21.461 -0.3726 -1.0925  0.7946
    51IDQ   C3243600   6.298   2.631  21.488  0.4061  0.3330 -1.3538
    51IDQ   C3343601   6.333   2.591  21.636  0.6590 -0.5571 -0.2505
    51IDQ   C3443602   6.416   2.471  21.634 -0.0402 -0.0660  0.1486
    51IDQ   C3543603   6.500   2.477  21.759 -0.0059 -0.1807 -0.1067
    4IDB    C3643604   5.878   2.810  22.130 -0.0627  0.2507  0.3247
    4IDB    C3743605   5.741   2.813  22.094 -0.0677  0.6680  0.3705
    11RH    C3843606   7.370   2.447  22.307  0.1128 -0.1057  0.5733
    4IDB    C3943607   5.698   2.884  21.982  0.1402  0.6395  0.2706
    62IDT   C4043608   5.554   2.875  21.966 -0.2463  0.3735 -0.3115
    72IDQ   C4143609   5.615   2.747  22.157  0.6696  0.7121  0.2777
    62IDT   C4243610   5.500   2.800  22.068  0.0780 -0.3558 -0.6661
    72IDQ   C4343611   5.619   2.792  22.315 -0.3782  0.6567 -0.5686
    72IDQ   C4443612   5.610   2.587  22.121 -0.6378 -0.9033 -1.0784
    62IDT    S543613   5.433   2.915  21.840 -0.4025  0.3832 -0.1591
    62IDT   C4543614   5.309   2.823  21.936 -0.0018 -0.6497 -0.6045
    62IDT   C4643615   5.361   2.770  22.051  0.2166 -0.9352 -0.8326
    82BTZ   C4743616   5.167   2.818  21.891 -0.3936 -0.1380 -0.2746
    82BTZ   C4843617   5.143   2.850  21.760 -0.5926 -0.2662 -0.2704
    82BTZ   C4943618   5.012   2.834  21.700 -0.6963 -0.2766 -0.0429
    82BTZ   C5043619   4.906   2.785  21.772 -0.6009 -0.1589  0.1811
    82BTZ   C5143620   5.058   2.767  21.970 -0.2871 -0.0117 -0.0448
    82BTZ   C5243621   4.926   2.750  21.910 -0.3924 -0.0223  0.1869
    92RH    C5343622   4.773   2.773  21.715  0.4072  0.0199  0.1295
    82BTZ    N443623   5.069   2.732  22.099 -0.0930  0.1191 -0.0243
    82BTZ    N543624   4.830   2.702  21.990 -0.2831  0.1000  0.3929
    82BTZ    S643625   4.907   2.676  22.149 -0.0358  0.2369  0.2973
    92RH    C5443626   4.705   2.808  21.605  0.3605 -0.0759  0.1278
    92RH     S743627   4.777   2.862  21.445  0.2895 -0.0715  0.0982
    92RH    C5543628   4.557   2.807  21.596  0.3594 -0.2043  0.1512
    92RH     O243629   4.479   2.775  21.687  0.4008 -0.2380  0.1750
    92RH     N643630   4.513   2.848  21.468  0.3047 -0.2864  0.1441
    92RH    C5643631   4.608   2.881  21.374  0.2617 -0.2394  0.1183
    92RH    C5743632   4.380   2.863  21.434  0.5200 -0.0279  0.4060
    92RH    C5843633   4.303   2.741  21.375 -0.1881 -0.5923 -0.3258
    92RH     S843634   4.582   2.932  21.215  0.1934 -0.3170  0.1044
    72IDQ   C5943635   5.729   2.500  22.164  0.3357  0.4635 -0.0746
    72IDQ   C6043636   5.708   2.370  22.091  0.4688  0.1793 -0.7105
    72IDQ   C6143637   5.777   2.353  21.961  0.4709  0.9953  0.3757
    72IDQ   C6243638   5.738   2.449  21.847 -0.7560 -0.1855  0.1452
    72IDQ   C6343639   5.770   2.403  21.707  0.7817 -0.6277 -0.2444
    72IDQ   C6443640   5.756   2.514  21.597  0.6282 -0.8381  0.1072
    72IDQ   C6543641   5.752   2.487  21.449  0.7070 -0.1389 -0.6067
    72IDQ   C6643642   5.539   2.712  22.420 -0.5654 -0.1131  0.2485
    72IDQ   C6743643   5.575   2.725  22.564 -0.2392 -0.3719  0.2297
    72IDQ   C6843644   5.496   2.636  22.665 -0.8798 -0.5422 -0.4087
    72IDQ   C6943645   5.497   2.684  22.807 -0.5784 -0.6443 -0.2258
    72IDQ   C7043646   5.612   2.636  22.902  0.2512 -0.4272 -1.1446
    72IDQ   C7143647   5.580   2.500  22.955 -0.9060  1.5924  1.0846
    72IDQ   C7243648   5.673   2.429  23.054  0.1545 -0.0441 -0.6746
    11RH     C143649   7.019   1.803  23.034  0.2172  0.0827  0.3214
    11RH     C243650   7.093   1.781  22.907 -0.0064  0.1109  0.1855
    11RH     N143651   6.932   1.695  23.062  0.3109  0.0493  0.4817
    11RH     S143652   7.044   1.620  22.833 -0.0791  0.0915  0.2764
    11RH     C343653   6.928   1.589  22.974  0.1894  0.0471  0.4902
    11RH     C443654   6.828   1.712  23.165 -0.5918 -1.2528 -0.6716
    11RH     S243655   6.834   1.450  22.984  0.2624  0.0107  0.6638
    11RH     O143656   7.030   1.902  23.107  0.3140  0.0873  0.3018
    11RH     C543657   7.181   1.868  22.857 -0.1312  0.1450  0.0220
    21BTZ    C643658   7.242   1.889  22.721  0.1458 -0.6192  0.3022
    21BTZ    C743659   7.196   1.812  22.617  0.1825 -0.7963  0.4144
    21BTZ    C843660   7.350   1.980  22.697 -0.0154 -0.4744  0.1264
    21BTZ    C943661   7.253   1.822  22.485  0.0638 -0.8400  0.3600
    21BTZ   C1043662   7.356   1.908  22.457 -0.0915 -0.7064  0.1936
    21BTZ   C1143663   7.408   1.990  22.562 -0.1361 -0.5188  0.0710
    21BTZ    N243664   7.403   2.059  22.790 -0.0656 -0.2967  0.0048
    21BTZ    N343665   7.508   2.078  22.548 -0.2834 -0.3768 -0.0949
    21BTZ    S343666   7.532   2.152  22.708 -0.2741 -0.1760 -0.1898
    31IDT   C1243667   7.406   1.917  22.320 -0.1652  0.1099 -0.1099
    31IDT   C1343668   7.450   2.026  22.249 -0.2345  0.0778 -0.2036
    31IDT   C1443669   7.456   2.002  22.109 -0.0013 -0.1131 -0.1616
    31IDT   C1543670   7.418   1.876  22.071  0.2467 -0.2275 -0.0357
    31IDT    S443671   7.369   1.775  22.212  0.2038 -0.1012  0.0403
    4IDB    C1643672   7.428   1.862  21.929 -0.4709  0.1724 -0.1499
    4IDB    C1743673   7.474   1.985  21.874 -0.3352  0.1727 -0.0348
    51IDQ   C1843674   7.497   2.085  21.988 -0.5855  0.3051 -0.0812
    4IDB    C1943675   7.501   1.997  21.738 -0.2148  0.2386 -0.0054
    51IDQ   C2043676   7.654   2.107  21.971  0.8708 -1.1352 -0.3959
    51IDQ   C2143677   7.433   2.233  21.992  0.1381  0.0977  0.7951
    51IDQ   C2243678   7.346   2.302  21.881  0.3831  0.6125  0.1742
    51IDQ   C2343679   7.748   2.113  22.099 -0.5341  1.3912  0.0830
    51IDQ   C2443680   7.213   2.228  21.852 -0.1987 -0.0263 -0.1460
    51IDQ   C2543681   7.142   2.267  21.726  0.4082  0.4098 -0.5654
    51IDQ   C2643682   6.993   2.236  21.716  0.0598 -0.7577  0.5602
    51IDQ   C2743683   6.937   2.298  21.580  0.2332  0.6318 -0.3299
    51IDQ   C2843684   6.964   2.444  21.536  0.5237  0.1033  0.1818
    51IDQ   C2943685   6.910   2.471  21.396  0.1779 -0.0855 -0.4228
    51IDQ   C3043686   7.879   2.173  22.079  0.6851 -0.3835 -0.3957
    51IDQ   C3143687   7.981   2.176  22.194 -0.3484 -0.1125 -0.5113
    51IDQ   C3243688   7.948   2.224  22.331 -0.7437 -0.3463 -0.4971
    51IDQ   C3343689   7.893   2.359  22.343  0.7192 -0.3607  0.3284
    51IDQ   C3443690   7.909   2.433  22.481  0.2170  0.7057 -0.4142
    51IDQ   C3543691   7.771   2.436  22.558 -0.8402 -0.5503 -0.8495
    4IDB    C3643692   7.407   1.749  21.848 -0.4869  0.2384 -0.2370
    4IDB    C3743693   7.434   1.763  21.709 -0.3627  0.3052 -0.2060
    11RH    C3843694   6.863   1.665  23.309  0.1921  0.4836  0.1068
    4IDB    C3943695   7.480   1.884  21.657 -0.2308  0.3046 -0.0929
    62IDT   C4043696   7.511   1.865  21.517 -0.8847  0.6157  0.1123
    72IDQ   C4143697   7.398   1.671  21.597  1.3968 -0.4958  1.0630
    62IDT   C4243698   7.459   1.743  21.476 -0.7676  0.5051  0.2909
    72IDQ   C4343699   7.247   1.677  21.580  0.5418  0.2787 -0.0312
    72IDQ   C4443700   7.471   1.534  21.610 -0.8267  0.8668 -0.4148
    62IDT    S543701   7.564   1.965  21.377 -0.3489  0.1763 -0.0094
    62IDT   C4543702   7.510   1.831  21.266  0.0232 -0.1497  0.1973
    62IDT   C4643703   7.458   1.724  21.335 -0.2542  0.0722  0.3395
    82BTZ   C4743704   7.494   1.863  21.117 -0.0711 -0.1175 -0.1065
    82BTZ   C4843705   7.393   1.800  21.049 -0.1651 -0.0489 -0.0286
    82BTZ   C4943706   7.363   1.830  20.911 -0.3227  0.0524  0.0272
    82BTZ   C5043707   7.435   1.923  20.841 -0.3860  0.0850  0.0045
    82BTZ   C5143708   7.572   1.961  21.047 -0.1321 -0.0871 -0.1321
    82BTZ   C5243709   7.542   1.991  20.907 -0.2922  0.0159 -0.0758
    92RH    C5343710   7.405   1.969  20.705 -0.2459  0.0575 -0.0401
    82BTZ    N443711   7.674   2.028  21.102 -0.0519 -0.1470 -0.2060
    82BTZ    N543712   7.620   2.084  20.849 -0.3408  0.0387 -0.1044
    82BTZ    S643713   7.737   2.136  20.974 -0.1805 -0.0729 -0.2071
    92RH    C5443714   7.306   1.931  20.623 -0.2472  0.0869 -0.0520
    92RH     S743715   7.208   1.776  20.634 -0.2075  0.0553 -0.1413
    92RH    C5543716   7.259   2.012  20.508 -0.2826  0.1519  0.0081
    92RH     O243717   7.305   2.122  20.474 -0.3145  0.1860  0.0749
    92RH     N643718   7.154   1.948  20.439 -0.2761  0.1710 -0.0211
    92RH    C5643719   7.110   1.826  20.485 -0.2395  0.1294 -0.0963
    92RH    C5743720   7.092   2.023  20.324 -0.2314  0.0354  0.4829
    92RH    C5843721   7.157   2.000  20.185  0.3321  0.6267 -0.1175
    92RH     S843722   6.987   1.730  20.422 -0.2240  0.1405 -0.1431
    72IDQ   C5943723   7.432   1.396  21.554  0.6152 -0.4788 -0.4460
    72IDQ   C6043724   7.463   1.292  21.664  0.6212  0.1379 -0.9240
    72IDQ   C6143725   7.392   1.291  21.806  0.2577 -0.2417 -0.4028
    72IDQ   C6243726   7.242   1.285  21.809 -0.6843  0.0914  0.1240
    72IDQ   C6343727   7.192   1.169  21.879  0.4082  0.9926 -0.0107
    72IDQ   C6443728   7.043   1.154  21.827 -0.0435 -0.8728  0.0730
    72IDQ   C6543729   7.005   1.076  21.699  0.1934  0.4715 -0.0577
    72IDQ   C6643730   7.158   1.585  21.663 -0.2621  1.0583 -0.5290
    72IDQ   C6743731   7.014   1.627  21.663  0.4856 -0.6787 -0.8118
    72IDQ   C6843732   6.910   1.527  21.721 -0.1866 -0.1905 -0.1682
    72IDQ   C6943733   6.858   1.406  21.631 -0.1268 -0.0555  0.1901
    72IDQ   C7043734   6.743   1.344  21.707  0.5049 -0.3876  0.4219
    72IDQ   C7143735   6.652   1.243  21.621 -0.6717 -0.3318  0.4459
    72IDQ   C7243736   6.535   1.192  21.703 -0.2600  0.4682 -0.5360
    11RH     C143737   3.353   2.516   1.912 -0.0113  0.0674 -0.1036
    11RH     C243738   3.421   2.410   1.834  0.2382  0.3108 -0.2195
    11RH     N143739   3.213   2.496   1.916  0.0432 -0.3101 -0.0544
    11RH     S143740   3.297   2.290   1.771  0.5281  0.0276 -0.2562
    11RH     C343741   3.161   2.386   1.850  0.3058 -0.3986 -0.1167
    11RH     C443742   3.120   2.598   1.964 -0.4111  0.0148 -0.1914
    11RH     S243743   2.999   2.339   1.839  0.4238 -0.8236 -0.0780
    11RH     O143744   3.408   2.612   1.968 -0.2415  0.1737 -0.0541
    11RH     C543745   3.553   2.406   1.815  0.2424  0.6802 -0.2846
    21BTZ    C643746   3.651   2.312   1.737  0.2399 -0.0043 -0.6478
    21BTZ    C743747   3.603   2.209   1.660  0.1761  0.0182 -0.6385
    21BTZ    C843748   3.791   2.343   1.731  0.2809 -0.1730 -0.5547
    21BTZ    C943749   3.690   2.132   1.574  0.1497 -0.1230 -0.5380
    21BTZ   C1043750   3.824   2.157   1.566  0.1869 -0.2864 -0.4470
    21BTZ   C1143751   3.879   2.264   1.645  0.2539 -0.3165 -0.4525
    21BTZ    N243752   3.849   2.440   1.802  0.3437 -0.2111 -0.5536
    21BTZ    N343753   4.008   2.299   1.645  0.2952 -0.4699 -0.3694
    21BTZ    S343754   4.022   2.436   1.759  0.3716 -0.4366 -0.4192
    31IDT   C1243755   3.912   2.072   1.481  0.2501 -0.0044 -0.0048
    31IDT   C1343756   4.043   2.084   1.441  0.1634  0.2549 -0.2205
    31IDT   C1443757   4.080   1.986   1.344  0.2131  0.2925 -0.2393
    31IDT   C1543758   3.978   1.899   1.309  0.3379  0.0627 -0.0387
    31IDT    S443759   3.826   1.935   1.397  0.4025 -0.2217  0.1919
    4IDB    C1643760   4.030   1.811   1.211  0.3067 -0.1570  0.7540
    4IDB    C1743761   4.168   1.841   1.185  0.0314  0.5133 -0.0558
    51IDQ   C1843762   4.208   1.964   1.265  0.4021  0.5284 -0.7649
    4IDB    C1943763   4.240   1.768   1.091  0.0350  0.3181  0.0952
    51IDQ   C2043764   4.332   1.890   1.345  0.9223 -0.7039  0.8005
    51IDQ   C2143765   4.241   2.101   1.201 -0.4811  0.0180  0.7854
    51IDQ   C2243766   4.225   2.124   1.048 -0.3573 -0.4144  0.4547
    51IDQ   C2343767   4.335   1.878   1.492 -0.1028 -0.0521 -0.4019
    51IDQ   C2443768   4.199   2.275   1.012  0.3351  1.3956  0.2919
    51IDQ   C2543769   4.063   2.339   1.032 -0.2742  0.6035  0.3178
    51IDQ   C2643770   4.051   2.404   1.176  0.0499  0.7543 -0.3402
    51IDQ   C2743771   3.930   2.480   1.204 -0.3866  0.3076 -0.2091
    51IDQ   C2843772   3.931   2.526   1.353 -0.0822  0.3211 -0.3450
    51IDQ   C2943773   3.841   2.638   1.385 -0.2725 -0.4948 -0.5230
    51IDQ   C3043774   4.475   1.824   1.510 -0.2229 -0.9147  0.1768
    51IDQ   C3143775   4.490   1.814   1.657  0.4348  0.0628 -0.9643
    51IDQ   C3243776   4.611   1.747   1.705 -0.5462  0.0626 -0.4697
    51IDQ   C3343777   4.693   1.802   1.828 -0.2800 -0.0293 -0.2875
    51IDQ   C3443778   4.812   1.899   1.790  0.7818 -0.3993 -0.5705
    51IDQ   C3543779   4.868   1.957   1.925 -0.1243  0.3851  0.2827
    4IDB    C3643780   3.964   1.709   1.141  0.5885 -1.0318  1.7256
    4IDB    C3743781   4.039   1.636   1.045  0.5876 -1.2191  1.8658
    11RH    C3843782   3.097   2.602   2.114 -0.1207 -0.8615  0.8089
    4IDB    C3943783   4.174   1.666   1.022  0.3168 -0.5568  1.0668
    62IDT   C4043784   4.224   1.578   0.922 -0.2123  0.5489  0.3095
    72IDQ   C4143785   3.993   1.532   0.947  1.1776  0.1167  0.3495
    62IDT   C4243786   4.123   1.494   0.880 -0.3922  0.4297  0.9527
    72IDQ   C4343787   3.880   1.579   0.834 -0.4943  0.3757 -1.3559
    72IDQ   C4443788   3.965   1.389   1.012 -0.0181 -0.9225 -0.6319
    62IDT    S543789   4.379   1.546   0.836 -0.4715  0.0609  0.0191
    62IDT   C4543790   4.294   1.415   0.742 -0.8268 -0.2959  0.8218
    62IDT   C4643791   4.162   1.402   0.778 -0.7397 -0.0480  1.2433
    82BTZ   C4743792   4.377   1.324   0.668  0.3087 -0.0854 -0.2291
    82BTZ   C4843793   4.506   1.310   0.711  0.3597 -0.0352 -0.3681
    82BTZ   C4943794   4.595   1.211   0.654  0.2843 -0.1189 -0.3394
    82BTZ   C5043795   4.553   1.126   0.556  0.1577 -0.2526 -0.1718
    82BTZ   C5143796   4.329   1.236   0.565  0.1767 -0.2248 -0.0510
    82BTZ   C5243797   4.419   1.136   0.508  0.1000 -0.3099 -0.0218
    92RH    C5343798   4.643   1.023   0.515  0.0879  0.2526  0.3974
    82BTZ    N443799   4.205   1.240   0.515  0.1159 -0.2852  0.0951
    82BTZ    N543800   4.367   1.058   0.412 -0.0223 -0.4387  0.1477
    82BTZ    S643801   4.198   1.112   0.391 -0.0450 -0.4571  0.2800
    92RH    C5443802   4.767   0.985   0.545  0.0669  0.1429  0.3475
    92RH     S743803   4.872   1.050   0.681  0.1189 -0.0652  0.4066
    92RH    C5543804   4.842   0.882   0.469 -0.0044  0.1749  0.2326
    92RH     O243805   4.799   0.819   0.371 -0.0522  0.3044  0.1701
    92RH     N643806   4.971   0.862   0.523 -0.0122  0.0381  0.2011
    92RH    C5643807   5.009   0.937   0.632  0.0441 -0.0998  0.2767
    92RH    C5743808   5.071   0.783   0.449  0.0429  0.3102 -0.1154
    92RH    C5843809   5.087   0.643   0.508 -0.5643  0.4237  0.0183
    92RH     S843810   5.156   0.932   0.714  0.0485 -0.2779  0.2600
    72IDQ   C5943811   3.832   1.317   0.994 -0.1996 -0.5038 -0.4041
    72IDQ   C6043812   3.779   1.211   1.095 -0.2630 -0.4951 -0.7907
    72IDQ   C6143813   3.860   1.087   1.115 -0.4295  0.6008  0.0285
    72IDQ   C6243814   3.835   1.003   1.236 -0.2164  0.0874 -1.4380
    72IDQ   C6343815   3.682   0.973   1.268 -0.3636 -0.2184 -0.1908
    72IDQ   C6443816   3.680   0.894   1.403 -0.3655 -0.1909 -0.0920
    72IDQ   C6543817   3.558   0.807   1.412  0.0752 -0.4448  1.1319
    72IDQ   C6643818   3.818   1.499   0.715 -1.0542  0.0699 -0.8125
    72IDQ   C6743819   3.697   1.552   0.656  0.6764 -0.7648  0.2182
    72IDQ   C6843820   3.563   1.539   0.720 -0.4017  0.1307 -0.9978
    72IDQ   C6943821   3.446   1.527   0.635  0.0957 -0.4578  0.5005
    72IDQ   C7043822   3.394   1.391   0.581 -0.1620  0.3727 -0.6105
    72IDQ   C7143823   3.241   1.401   0.613 -0.5867  0.2501 -0.0982
    72IDQ   C7243824   3.157   1.277   0.628  0.3342 -0.3026  1.4407
    11RH     C143825   7.014   2.068  18.557 -0.4880  0.1310 -0.1802
    11RH     C243826   6.955   1.942  18.506 -0.1746 -0.1301  0.0863
    11RH     N143827   7.149   2.081  18.518 -0.5233  0.3930 -0.2189
    11RH     S143828   7.080   1.849  18.410  0.0531 -0.0141  0.2686
    11RH     C343829   7.205   1.981  18.442 -0.2764  0.3737 -0.0157
    11RH     C443830   7.222   2.204  18.554  0.2037  0.7677 -0.3723
    11RH     S243831   7.363   1.972  18.382 -0.2583  0.6504 -0.0114
    11RH     O143832   6.955   2.153  18.626 -0.6974  0.1266 -0.3519
    11RH     C543833   6.828   1.905  18.529 -0.0815 -0.4052  0.1730
    21BTZ    C643834   6.746   1.791  18.493  0.1432  0.2075  0.0192
    21BTZ    C743835   6.799   1.680  18.433  0.1487  0.2246 -0.0076
    21BTZ    C843836   6.606   1.792  18.524  0.1520  0.1749  0.0606
    21BTZ    C943837   6.718   1.565  18.400  0.1630  0.2106  0.0057
    21BTZ   C1043838   6.583   1.562  18.427  0.1717  0.1795  0.0454
    21BTZ   C1143839   6.523   1.676  18.491  0.1665  0.1607  0.0744
    21BTZ    N243840   6.543   1.894  18.583  0.1481  0.1559  0.0892
    21BTZ    N343841   6.394   1.684  18.523  0.1743  0.1302  0.1135
    21BTZ    S343842   6.372   1.844  18.599  0.1628  0.1182  0.1355
    31IDT   C1243843   6.508   1.440  18.391 -0.0192  0.0627 -0.1333
    31IDT   C1343844   6.383   1.412  18.439 -0.2689  0.3225 -0.6146
    31IDT   C1443845   6.339   1.280  18.406 -0.3660  0.3707 -0.6785
    31IDT   C1543846   6.430   1.207  18.333 -0.1915  0.1485 -0.2482
    31IDT    S443847   6.580   1.300  18.299  0.1121 -0.1415  0.2762
    4IDB    C1643848   6.367   1.078  18.298 -0.5175  0.7161  0.3531
    4IDB    C1743849   6.233   1.074  18.346 -0.7886  0.4704 -0.4086
    51IDQ   C1843850   6.219   1.187  18.446  0.9985 -0.7416  0.6194
    4IDB    C1943851   6.149   0.967  18.315 -0.4293  0.3253 -0.8989
    51IDQ   C2043852   6.078   1.263  18.412 -0.4581  0.7743 -0.1718
    51IDQ   C2143853   6.224   1.158  18.600 -0.3997  0.6642  0.2346
    51IDQ   C2243854   6.273   1.015  18.644 -0.6403 -0.8023  0.1310
    51IDQ   C2343855   6.055   1.386  18.330  0.3705 -0.0793  0.0652
    51IDQ   C2443856   6.290   0.989  18.793  0.5366 -1.5243  0.5944
    51IDQ   C2543857   6.429   1.017  18.856 -0.0386  0.4422  0.4767
    51IDQ   C2643858   6.562   0.990  18.800  0.6385 -0.3559 -0.1002
    51IDQ   C2743859   6.676   1.014  18.901 -0.1757 -0.0822 -0.1019
    51IDQ   C2843860   6.728   1.155  18.930 -0.6085 -0.4166  0.4654
    51IDQ   C2943861   6.766   1.237  18.800 -1.0310 -0.4097 -0.1757
    51IDQ   C3043862   5.914   1.443  18.327  0.2368 -1.1421  0.8831
    51IDQ   C3143863   5.915   1.581  18.260  0.4390 -0.2606  0.8275
    51IDQ   C3243864   5.933   1.697  18.358 -0.5435  0.2025  0.0755
    51IDQ   C3343865   6.054   1.782  18.308  0.7894 -0.5291 -0.1236
    51IDQ   C3443866   6.083   1.904  18.387  0.8640 -0.8823  0.1747
    51IDQ   C3543867   6.177   2.002  18.325 -0.5524  0.0056  0.1617
    4IDB    C3643868   6.420   0.975  18.219  0.1185  0.8186  0.6294
    4IDB    C3743869   6.333   0.866  18.189  0.4784  0.6676  0.1187
    11RH    C3843870   7.221   2.327  18.478  0.3339 -0.3959  0.5095
    4IDB    C3943871   6.202   0.863  18.236  0.2067  0.4278 -0.6228
    62IDT   C4043872   6.130   0.738  18.205  0.0545 -0.1730  0.2274
    72IDQ   C4143873   6.357   0.727  18.124  0.2212  0.2001  0.0078
    62IDT   C4243874   6.213   0.665  18.123 -0.0212 -0.3121  0.2747
    72IDQ   C4343875   6.460   0.652  18.217 -0.8362 -0.2953  0.0488
    72IDQ   C4443876   6.431   0.749  17.990 -0.9452  0.2009  0.3168
    62IDT    S543877   5.974   0.654  18.234 -0.0090 -0.0199  0.3299
    62IDT   C4543878   6.032   0.518  18.129 -0.1408 -0.1588  0.4358
    62IDT   C4643879   6.158   0.540  18.080 -0.1315 -0.3043  0.3924
    82BTZ   C4743880   5.938   0.413  18.094 -0.0437 -0.3324 -0.0460
    82BTZ   C4843881   5.806   0.432  18.128 -0.0904 -0.3538 -0.2160
    82BTZ   C4943882   5.705   0.335  18.094 -0.0312 -0.3701 -0.3467
    82BTZ   C5043883   5.735   0.219  18.027  0.0744 -0.3651 -0.3081
    82BTZ   C5143884   5.974   0.294  18.024  0.0666 -0.3264  0.0005
    82BTZ   C5243885   5.871   0.195  17.989  0.1267 -0.3430 -0.1326
    92RH    C5343886   5.618   0.136  17.980 -0.2827  0.1279 -0.5625
    82BTZ    N443887   6.099   0.265  17.986  0.1208 -0.3061  0.1616
    82BTZ    N543888   5.913   0.087  17.924  0.2292 -0.3361 -0.0792
    82BTZ    S643889   6.090   0.106  17.903  0.2539 -0.3075  0.1489
    92RH    C5443890   5.485   0.146  17.985 -0.2823 -0.0184 -0.2370
    92RH     S743891   5.387   0.277  18.069 -0.2271 -0.2399  0.1795
    92RH    C5543892   5.393   0.048  17.922 -0.3282 -0.0226 -0.1640
    92RH     O243893   5.427  -0.052  17.858 -0.3716  0.1059 -0.3905
    92RH     N643894   5.258   0.083  17.943 -0.3169 -0.1939  0.2014
    92RH    C5643895   5.230   0.197  18.016 -0.2674 -0.3274  0.4296
    92RH    C5743896   5.156  -0.005  17.894  1.9034 -0.2600 -0.3313
    92RH    C5843897   5.152  -0.127  17.995  0.3020 -0.1405  0.1326
    92RH     S843898   5.079   0.260  18.056 -0.2441 -0.5415  0.8740
    72IDQ   C5943899   6.395   0.684  17.860 -1.0642 -0.2687 -0.5291
    72IDQ   C6043900   6.436   0.538  17.846  1.0814 -0.1428 -0.3075
    72IDQ   C6143901   6.374   0.490  17.711 -0.3537  0.5101 -0.9248
    72IDQ   C6243902   6.234   0.534  17.652  0.2680  0.4375  0.4195
    72IDQ   C6343903   6.241   0.580  17.499 -0.6835 -0.9315  0.5076
    72IDQ   C6443904   6.119   0.635  17.427 -0.3597 -0.2832 -0.0860
    72IDQ   C6543905   6.034   0.531  17.369  0.2657  0.1337 -0.0800
    72IDQ   C6643906   6.426   0.543  18.299 -0.0691  0.6923 -0.2903
    72IDQ   C6743907   6.373   0.578  18.439  0.0941 -0.7558  0.8128
    72IDQ   C6843908   6.379   0.458  18.532  0.4925 -0.3726 -0.1469
    72IDQ   C6943909   6.499   0.423  18.619  0.2412  0.3100 -0.2205
    72IDQ   C7043910   6.474   0.329  18.745  0.7819  0.1625  0.8561
    72IDQ   C7143911   6.591   0.339  18.836  0.4125  0.2469  0.0467
    72IDQ   C7243912   6.587   0.247  18.955  0.3236  0.3252  0.6840
    11RH     C143913   2.840   7.197  25.755 -0.4305 -0.3498 -0.5784
    11RH     C243914   2.873   7.230  25.615 -0.4266  0.0498 -0.4849
    11RH     N143915   2.714   7.248  25.792 -0.2873 -0.1674 -0.3365
    11RH     S143916   2.736   7.327  25.540 -0.2349  0.6396 -0.0869
    11RH     C343917   2.642   7.319  25.698 -0.1693  0.3297 -0.0615
    11RH     C443918   2.666   7.218  25.937 -0.9723 -1.0985 -0.8348
    11RH     S243919   2.490   7.390  25.717  0.0111  0.6381  0.2589
    11RH     O143920   2.912   7.132  25.833 -0.5435 -0.7918 -0.8335
    11RH     C543921   2.987   7.193  25.555 -0.5473 -0.0240 -0.6710
    21BTZ    C643922   3.060   7.224  25.428 -0.2698  0.4365  0.2851
    21BTZ    C743923   3.014   7.309  25.331 -0.0451  0.6286  0.3428
    21BTZ    C843924   3.185   7.157  25.407 -0.3610  0.2555  0.3166
    21BTZ    C943925   3.087   7.332  25.209  0.1005  0.6527  0.4344
    21BTZ   C1043926   3.207   7.270  25.184  0.0211  0.4843  0.4677
    21BTZ   C1143927   3.260   7.181  25.283 -0.2130  0.2799  0.4096
    21BTZ    N243928   3.241   7.072  25.494 -0.5769  0.0603  0.2661
    21BTZ    N343929   3.375   7.115  25.270 -0.3101  0.1044  0.4339
    21BTZ    S343930   3.394   7.018  25.419 -0.6008 -0.1038  0.3373
    31IDT   C1243931   3.252   7.281  25.046  0.2108 -0.0622 -0.1700
    31IDT   C1343932   3.355   7.211  24.990  0.4919  0.5788 -0.4849
    31IDT   C1443933   3.344   7.200  24.848  0.4712  1.0502 -0.5221
    31IDT   C1543934   3.233   7.262  24.795  0.1748  0.7726 -0.2369
    31IDT    S443935   3.133   7.340  24.922 -0.1035 -0.1159  0.1050
    4IDB    C1643936   3.225   7.237  24.652 -0.7102 -0.5454 -0.0233
    4IDB    C1743937   3.338   7.159  24.613 -0.6657 -0.5342  0.0820
    51IDQ   C1843938   3.433   7.137  24.738  1.0636  0.0194 -0.5018
    4IDB    C1943939   3.360   7.127  24.479 -0.3201 -0.1875  0.0509
    51IDQ   C2043940   3.429   6.981  24.761 -0.1519  0.4407  0.0093
    51IDQ   C2143941   3.593   7.179  24.732  0.7344 -0.5861 -0.3051
    51IDQ   C2243942   3.645   7.270  24.628 -0.1762 -0.3189 -0.2069
    51IDQ   C2343943   3.357   6.889  24.869 -0.5227 -0.1795  0.8051
    51IDQ   C2443944   3.588   7.411  24.640 -0.5877 -0.0651 -0.5781
    51IDQ   C2543945   3.663   7.529  24.564 -0.3201  0.4229 -0.3120
    51IDQ   C2643946   3.750   7.499  24.443 -0.2500 -0.3709 -0.5614
    51IDQ   C2743947   3.650   7.471  24.329  0.2420  0.2061  0.2585
    51IDQ   C2843948   3.736   7.454  24.197  0.2099 -1.1675 -0.3928
    51IDQ   C2943949   3.669   7.363  24.099  0.8757  0.9136  0.1827
    51IDQ   C3043950   3.396   6.745  24.864 -0.0147 -0.2689 -0.6494
    51IDQ   C3143951   3.371   6.656  24.998 -0.0119  0.0508 -0.2472
    51IDQ   C3243952   3.432   6.682  25.134  0.2010  0.1395  0.0055
    51IDQ   C3343953   3.584   6.646  25.161 -0.5750 -0.6273  0.4983
    51IDQ   C3443954   3.644   6.512  25.120 -0.5362 -0.2427 -0.5866
    51IDQ   C3543955   3.785   6.479  25.143 -0.5585 -0.4919  1.0405
    4IDB    C3643956   3.132   7.282  24.557 -0.4071 -0.2074 -0.1626
    4IDB    C3743957   3.155   7.248  24.421 -0.0560  0.1442 -0.1926
    11RH    C3843958   2.591   7.093  25.970 -0.0981  0.1212 -0.8247
    4IDB    C3943959   3.267   7.173  24.384 -0.0169  0.1504 -0.0880
    62IDT   C4043960   3.270   7.151  24.236 -0.2577 -1.1291 -0.1370
    72IDQ   C4143961   3.075   7.272  24.299 -0.2605 -1.8261  1.9143
    62IDT   C4243962   3.162   7.217  24.182 -0.6665 -1.9339 -0.3200
    72IDQ   C4343963   3.033   7.420  24.287 -0.1080 -0.3799  0.1350
    72IDQ   C4443964   2.943   7.187  24.305 -0.2192 -0.1432  0.7454
    62IDT    S543965   3.393   7.109  24.111  0.5270  0.2147  0.1400
    62IDT   C4543966   3.285   7.186  23.986  0.2474 -0.4132 -0.0137
    62IDT   C4643967   3.170   7.237  24.041 -0.3816 -1.5304 -0.2508
    82BTZ   C4743968   3.315   7.173  23.846  0.3980  0.5097  0.3198
    82BTZ   C4843969   3.397   7.071  23.803  0.4423  0.5007  0.4239
    82BTZ   C4943970   3.433   7.057  23.664  0.3332  0.2900  0.4163
    82BTZ   C5043971   3.388   7.144  23.568  0.1802  0.0889  0.3048
    82BTZ   C5143972   3.265   7.266  23.750  0.2390  0.3036  0.2003
    82BTZ   C5243973   3.302   7.252  23.609  0.1283  0.0898  0.1922
    92RH    C5343974   3.426   7.147  23.426 -0.1502  0.3959 -0.2575
    82BTZ    N443975   3.185   7.369  23.779  0.1820  0.2909  0.0920
    82BTZ    N543976   3.251   7.343  23.525 -0.0178 -0.0950  0.0777
    82BTZ    S643977   3.153   7.453  23.625 -0.0198 -0.0011 -0.0265
    92RH    C5443978   3.506   7.069  23.352 -0.2331  0.2292 -0.1740
    92RH     S743979   3.590   6.915  23.406 -0.2512  0.2977  0.0510
    92RH    C5543980   3.541   7.098  23.211 -0.3259 -0.0458 -0.2537
    92RH     O243981   3.500   7.195  23.145 -0.3380 -0.1527 -0.4053
    92RH     N643982   3.628   7.000  23.158 -0.4014 -0.1769 -0.1358
    92RH    C5643983   3.667   6.896  23.240 -0.3805 -0.0403  0.0291
    92RH    C5743984   3.676   7.002  23.012 -0.4787 -0.5921  0.5322
    92RH    C5843985   3.588   6.926  22.910 -0.1486  0.7093 -0.8789
    92RH     S843986   3.769   6.767  23.202 -0.4567 -0.1498  0.1926
    72IDQ   C5943987   2.836   7.222  24.414  0.0448 -0.1047  0.2448
    72IDQ   C6043988   2.716   7.131  24.411 -0.8811  0.3594  0.9400
    72IDQ   C6143989   2.591   7.180  24.483  0.5454 -0.0512 -1.1113
    72IDQ   C6243990   2.524   7.306  24.443  0.0959 -0.7191  0.9150
    72IDQ   C6343991   2.423   7.299  24.325  0.6301  0.9620 -0.6919
    72IDQ   C6443992   2.473   7.258  24.187  0.6883 -0.2433  0.2950
    72IDQ   C6543993   2.349   7.265  24.089  0.1523  0.0543  1.2609
    72IDQ   C6643994   3.087   7.517  24.188  0.4472 -0.2953  0.8704
    72IDQ   C6743995   3.017   7.652  24.202 -0.1049 -0.8930 -0.4459
    72IDQ   C6843996   3.073   7.762  24.108 -0.0886  1.9695  0.1552
    72IDQ   C6943997   2.980   7.880  24.106 -0.6242  0.1616  0.7671
    72IDQ   C7043998   3.013   8.002  24.022 -0.0002  0.2861  0.6679
    72IDQ   C7143999   3.058   7.988  23.875 -0.2750 -0.0327 -0.4763
    72IDQ   C7244000   3.098   8.107  23.798  0.4682 -0.4032  0.1330
    11RH     C144001   0.607   1.257  28.093  0.0450  0.2452 -0.2036
    11RH     C244002   0.584   1.286  27.949 -0.0123  0.2172 -0.1998
    11RH     N144003   0.738   1.292  28.132  0.0740  0.2138 -0.2724
    11RH     S144004   0.737   1.357  27.875 -0.0243  0.1513 -0.2873
    11RH     C344005   0.823   1.344  28.038  0.0470  0.1640 -0.3242
    11RH     C444006   0.773   1.249  28.269 -0.4226  0.3936 -0.6246
    11RH     S244007   0.983   1.393  28.058  0.0720  0.1191 -0.4101
    11RH     O144008   0.523   1.209  28.171  0.0659  0.2905 -0.1531
    11RH     C544009   0.468   1.263  27.887 -0.0486  0.2381 -0.1404
    21BTZ    C644010   0.421   1.306  27.753  0.4705 -0.0772 -0.1473
    21BTZ    C744011   0.490   1.395  27.675  0.4331  0.0014 -0.0901
    21BTZ    C844012   0.309   1.237  27.697  0.3759  0.0618 -0.1264
    21BTZ    C944013   0.451   1.422  27.539  0.3016  0.2191 -0.0105
    21BTZ   C1044014   0.343   1.359  27.481  0.2079  0.3578  0.0123
    21BTZ   C1144015   0.269   1.265  27.559  0.2423  0.2831 -0.0458
    21BTZ    N244016   0.234   1.148  27.763  0.4006  0.0038 -0.1769
    21BTZ    N344017   0.163   1.197  27.513  0.1597  0.4029 -0.0315
    21BTZ    S344018   0.108   1.094  27.649  0.2510  0.2344 -0.1218
    31IDT   C1244019   0.312   1.402  27.348  0.0417  0.2891 -0.3161
    31IDT   C1344020   0.193   1.392  27.282 -0.0697  0.5958 -0.1650
    31IDT   C1444021   0.193   1.459  27.155 -0.1638  0.8706 -0.0210
    31IDT   C1544022   0.313   1.521  27.125 -0.1249  0.7755 -0.0601
    31IDT    S444023   0.435   1.498  27.254  0.0354  0.3265 -0.2858
    4IDB    C1644024   0.301   1.582  26.996 -0.2189  0.0302 -0.0827
    4IDB    C1744025   0.170   1.565  26.941 -0.1236 -0.0239 -0.2952
    51IDQ   C1844026   0.092   1.479  27.041  0.7284  0.5862 -0.2700
    4IDB    C1944027   0.138   1.616  26.815  0.0706 -0.0736 -0.3650
    51IDQ   C2044028  -0.040   1.553  27.075  0.8920 -0.1496 -0.1805
    51IDQ   C2144029   0.051   1.346  26.981 -0.7094  0.0181  0.0430
    51IDQ   C2244030   0.056   1.295  26.832 -0.1876 -0.7531 -0.2048
    51IDQ   C2344031  -0.064   1.627  27.207  0.0515 -1.0002  0.3418
    51IDQ   C2444032   0.081   1.148  26.844 -0.6872  0.5726  0.0436
    51IDQ   C2544033   0.122   1.057  26.732  0.5747  0.4026  0.0237
    51IDQ   C2644034   0.247   1.098  26.654 -0.0537 -0.6042 -0.3501
    51IDQ   C2744035   0.281   1.010  26.525  0.0848 -0.9319 -0.8325
    51IDQ   C2844036   0.164   0.978  26.441  0.2083 -0.0957  0.6097
    51IDQ   C2944037   0.203   0.904  26.315  0.3644 -1.5047  0.0740
    51IDQ   C3044038  -0.209   1.656  27.242 -0.0137 -0.8209 -0.7329
    51IDQ   C3144039  -0.230   1.726  27.377  0.6168  0.3709 -0.8157
    51IDQ   C3244040  -0.378   1.763  27.385 -1.0013  0.1389  0.5800
    51IDQ   C3344041  -0.408   1.808  27.528 -0.1958  0.1894  0.2489
    51IDQ   C3444042  -0.535   1.892  27.530 -0.9738  0.3164  0.5996
    51IDQ   C3544043  -0.575   1.922  27.671 -1.0782 -0.1407 -0.1924
    4IDB    C3644044   0.401   1.650  26.925 -0.1197  0.0348  0.0610
    4IDB    C3744045   0.367   1.701  26.797  0.0787 -0.0164 -0.0129
    11RH    C3844046   0.778   1.359  28.377  0.1842  0.8794  0.3237
    4IDB    C3944047   0.238   1.684  26.745  0.1698 -0.0689 -0.2205
    62IDT   C4044048   0.238   1.723  26.610 -0.1678  0.4408  0.1094
    72IDQ   C4144049   0.457   1.774  26.696  1.1019 -0.6020 -0.6045
    62IDT   C4244050   0.355   1.792  26.584 -0.5099  1.2969  0.7286
    72IDQ   C4344051   0.579   1.682  26.663  0.5820 -1.1092  0.4727
    72IDQ   C4444052   0.495   1.906  26.756 -0.9786 -0.0669 -0.3551
    62IDT    S544053   0.129   1.719  26.467  0.7336 -0.6605 -0.5824
    62IDT   C4544054   0.253   1.815  26.375  0.5936  0.1334  0.0317
    62IDT   C4644055   0.364   1.844  26.451 -0.0800  1.1244  0.6852
    82BTZ   C4744056   0.224   1.860  26.238 -0.2293 -0.3620 -0.1121
    82BTZ   C4844057   0.094   1.847  26.196 -0.2437 -0.3631 -0.0663
    82BTZ   C4944058   0.056   1.872  26.060 -0.3384 -0.0909  0.0095
    82BTZ   C5044059   0.147   1.911  25.965 -0.4185  0.1819  0.0405
    82BTZ   C5144060   0.323   1.900  26.142 -0.3110 -0.0820 -0.0820
    82BTZ   C5244061   0.284   1.925  26.003 -0.4072  0.1947 -0.0048
    92RH    C5344062   0.119   1.935  25.819 -0.0929  0.0278  0.0349
    82BTZ    N444063   0.453   1.915  26.171 -0.3061 -0.0523 -0.1202
    82BTZ    N544064   0.382   1.962  25.920 -0.4797  0.4468  0.0191
    82BTZ    S644065   0.532   1.965  26.018 -0.4269  0.3389 -0.0571
    92RH    C5444066   0.012   1.930  25.738 -0.0714 -0.0431  0.0110
    92RH     S744067  -0.161   1.897  25.788 -0.0907  0.0411 -0.0005
    92RH    C5544068   0.019   1.952  25.592 -0.0272 -0.2064 -0.0119
    92RH     O244069   0.122   1.976  25.527 -0.0051 -0.2952 -0.0110
    92RH     N644070  -0.108   1.941  25.532 -0.0125 -0.2510 -0.0352
    92RH    C5644071  -0.217   1.913  25.613 -0.0395 -0.1434 -0.0339
    92RH    C5744072  -0.130   2.009  25.404  0.1782 -0.6588  0.2620
    92RH    C5844073  -0.131   1.931  25.270  0.1331 -1.2483 -0.3224
    92RH     S844074  -0.378   1.896  25.567 -0.0297 -0.1669 -0.0596
    72IDQ   C5944075   0.400   2.004  26.811  0.6538 -0.5594  1.0798
    72IDQ   C6044076   0.295   2.089  26.727  0.8151  0.3483  0.1086
    72IDQ   C6144077   0.346   2.179  26.618 -0.3936  0.2117 -0.7187
    72IDQ   C6244078   0.237   2.241  26.534  0.2640  0.1542 -0.5091
    72IDQ   C6344079   0.160   2.160  26.437  0.5579  0.5534 -0.1369
    72IDQ   C6444080   0.051   2.235  26.352 -0.5908  0.4148  0.3685
    72IDQ   C6544081   0.093   2.241  26.201  0.2213  0.3795 -0.3255
    72IDQ   C6644082   0.564   1.537  26.611 -0.0531  0.3442  0.3117
    72IDQ   C6744083   0.698   1.457  26.601 -0.6732  0.2840  0.2235
    72IDQ   C6844084   0.714   1.374  26.476  0.2702  0.7453  0.7856
    72IDQ   C6944085   0.847   1.311  26.450  0.4765 -0.2923 -0.9117
    72IDQ   C7044086   0.843   1.229  26.330  0.3852 -0.2047  0.1255
    72IDQ   C7144087   0.983   1.180  26.292 -0.4381 -0.9697 -0.0933
    72IDQ   C7244088   1.012   1.114  26.163  0.2865  1.3068 -0.2040
    11RH     C144089   2.715   1.449  20.227  0.0865  0.0665 -0.6104
    11RH     C244090   2.717   1.307  20.183  0.0646  0.0094 -0.4287
    11RH     N144091   2.692   1.459  20.366  0.0238  0.2504 -0.6343
    11RH     S144092   2.689   1.197  20.327 -0.0373  0.2014 -0.3026
    11RH     C344093   2.675   1.343  20.439 -0.0460  0.3476 -0.4954
    11RH     C444094   2.684   1.591  20.429  0.5955 -0.3713  0.2554
    11RH     S244095   2.646   1.329  20.604 -0.1291  0.5670 -0.4897
    11RH     O144096   2.731   1.547  20.153  0.1515 -0.0319 -0.7286
    11RH     C544097   2.738   1.269  20.056  0.1135 -0.1581 -0.3718
    21BTZ    C644098   2.767   1.141  19.986 -0.6619 -0.0894  0.1445
    21BTZ    C744099   2.793   1.029  20.060 -0.4288 -0.0970  0.0544
    21BTZ    C844100   2.749   1.128  19.844 -0.4528  0.0098  0.1082
    21BTZ    C944101   2.802   0.899  19.999  0.0183 -0.0083 -0.0749
    21BTZ   C1044102   2.786   0.881  19.864  0.2317  0.0879 -0.1144
    21BTZ   C1144103   2.759   0.996  19.782  0.0016  0.1000 -0.0229
    21BTZ    N244104   2.724   1.230  19.762 -0.6455  0.0271  0.1874
    21BTZ    N344105   2.741   0.991  19.650  0.1742  0.1897 -0.0496
    21BTZ    S344106   2.711   1.160  19.598 -0.2459  0.1622  0.0956
    31IDT   C1244107   2.819   0.750  19.812  0.5480  0.2724  0.2478
    31IDT   C1344108   2.799   0.689  19.691  1.3415  0.9366 -0.2446
    31IDT   C1444109   2.857   0.558  19.685  1.2194  0.8936 -0.5088
    31IDT   C1544110   2.922   0.520  19.800  0.3342  0.1981 -0.2205
    31IDT    S444111   2.914   0.647  19.927 -0.4203 -0.4625  0.4142
    4IDB    C1644112   2.954   0.378  19.792 -0.3706 -0.3440  0.0728
    4IDB    C1744113   2.903   0.324  19.670 -0.3426 -0.2971  0.0410
    51IDQ   C1844114   2.832   0.436  19.591 -1.2368  0.0622 -0.0575
    4IDB    C1944115   2.930   0.193  19.633 -0.2833 -0.2642 -0.0331
    51IDQ   C2044116   2.914   0.444  19.459 -0.6759  0.5966 -0.2305
    51IDQ   C2144117   2.682   0.412  19.559 -0.0365  1.0412 -0.4312
    51IDQ   C2244118   2.618   0.270  19.596  0.7705 -0.0963  0.6475
    51IDQ   C2344119   2.947   0.575  19.381  0.7597  0.6846  0.6676
    51IDQ   C2444120   2.563   0.273  19.744 -0.6673  0.0174  1.0019
    51IDQ   C2544121   2.525   0.133  19.792  1.2716  0.5535  0.0748
    51IDQ   C2644122   2.427   0.142  19.908  0.0854  0.2315  0.0666
    51IDQ   C2744123   2.395   0.009  19.981 -0.0535  0.4672  0.0407
    51IDQ   C2844124   2.522  -0.055  20.059  1.1185  0.7923  0.7599
    51IDQ   C2944125   2.500  -0.126  20.201  0.3192 -0.3739  0.6162
    51IDQ   C3044126   2.831   0.604  19.276 -0.7642  0.5958 -0.3342
    51IDQ   C3144127   2.859   0.739  19.226  0.1301 -0.4175 -0.4475
    51IDQ   C3244128   2.744   0.783  19.134 -0.4907 -0.4480  0.3830
    51IDQ   C3344129   2.794   0.922  19.097  0.1700  0.5762  0.1861
    51IDQ   C3444130   2.711   1.014  18.993  0.3820  0.1292  0.2877
    51IDQ   C3544131   2.644   0.943  18.878 -0.0645  0.0635  0.0790
    4IDB    C3644132   3.033   0.300  19.878 -0.3393 -0.3583  0.0315
    4IDB    C3744133   3.060   0.166  19.838 -0.2787 -0.3243 -0.0439
    11RH    C3844134   2.808   1.625  20.512  0.5959 -0.5993  0.7346
    4IDB    C3944135   3.009   0.115  19.719 -0.2519 -0.2786 -0.0749
    62IDT   C4044136   3.057  -0.023  19.702  0.0626 -0.0741  0.4801
    72IDQ   C4144137   3.142   0.052  19.909  0.1023  0.6729 -1.1272
    62IDT   C4244138   3.141  -0.059  19.805 -0.0095 -0.1256  0.5212
    72IDQ   C4344139   3.065   0.005  20.037  0.0589 -0.1975  0.0682
    72IDQ   C4444140   3.286   0.099  19.929 -0.7232 -0.0737  0.4563
    62IDT    S544141   3.043  -0.153  19.579  0.3365  0.0798  0.2839
    62IDT   C4544142   3.156  -0.254  19.678  0.3390  0.0655  0.2670
    62IDT   C4644143   3.197  -0.190  19.792  0.1465 -0.0470  0.4005
    82BTZ   C4744144   3.194  -0.386  19.629  0.3165 -0.1670  0.0854
    82BTZ   C4844145   3.198  -0.494  19.713  0.3265 -0.2389 -0.0067
    82BTZ   C4944146   3.228  -0.627  19.666  0.2511 -0.2103 -0.1345
    82BTZ   C5044147   3.254  -0.651  19.533  0.1658 -0.1097 -0.1700
    82BTZ   C5144148   3.220  -0.407  19.490  0.2287 -0.0607  0.0529
    82BTZ   C5244149   3.250  -0.542  19.441  0.1521 -0.0316 -0.0768
    92RH    C5344150   3.266  -0.786  19.476 -0.1711 -0.0576  0.2140
    82BTZ    N444151   3.218  -0.310  19.398  0.2106  0.0163  0.1340
    82BTZ    N544152   3.274  -0.553  19.310  0.0724  0.0687 -0.1001
    82BTZ    S644153   3.257  -0.389  19.242  0.0924  0.1317  0.0467
    92RH    C5444154   3.234  -0.908  19.518 -0.1175 -0.1032  0.1245
    92RH     S744155   3.167  -0.953  19.683  0.1206 -0.2821  0.1746
    92RH    C5544156   3.249  -1.030  19.436 -0.2481 -0.0123 -0.0348
    92RH     O244157   3.293  -1.034  19.319 -0.4190  0.1143 -0.1025
    92RH     N644158   3.208  -1.146  19.506 -0.1538 -0.0877 -0.1030
    92RH    C5644159   3.161  -1.131  19.635  0.0362 -0.2279 -0.0172
    92RH    C5744160   3.213  -1.280  19.448 -0.3253 -0.6258  0.0255
    92RH    C5844161   3.089  -1.312  19.360  0.3793  0.4448  0.0462
    92RH     S844162   3.106  -1.251  19.739  0.1803 -0.3407 -0.0701
    72IDQ   C5944163   3.384   0.011  19.999  0.3041  0.8266  0.0235
    72IDQ   C6044164   3.523   0.065  19.985  0.5610 -0.0777 -0.8300
    72IDQ   C6144165   3.564   0.199  20.056  1.0757  1.4359 -0.0968
    72IDQ   C6244166   3.597   0.170  20.198  0.2324  0.2063  1.1565
    72IDQ   C6344167   3.672   0.281  20.252 -0.2774 -0.9011 -0.9029
    72IDQ   C6444168   3.736   0.272  20.393 -0.3300 -0.4709 -1.1151
    72IDQ   C6544169   3.712   0.417  20.457  0.7823  0.1949  0.6772
    72IDQ   C6644170   3.085   0.068  20.177  0.6067  0.6427  0.6369
    72IDQ   C6744171   3.071   0.213  20.219  0.0374  0.0588  0.5265
    72IDQ   C6844172   2.935   0.297  20.212  0.1607  0.2307 -0.6251
    72IDQ   C6944173   2.959   0.444  20.272 -0.0267 -0.2408  0.1204
    72IDQ   C7044174   2.846   0.532  20.273 -0.5139 -0.4228 -1.2352
    72IDQ   C7144175   2.886   0.670  20.319  0.2374 -1.4732 -0.9088
    72IDQ   C7244176   2.766   0.766  20.336  0.8198  0.2946 -0.1335
    11RH     C144177   7.328   5.257  17.867  0.1599 -0.2702 -0.6294
    11RH     C244178   7.433   5.342  17.930 -0.0747 -0.2725 -0.2265
    11RH     N144179   7.344   5.121  17.903 -0.0784 -0.2468 -0.4346
    11RH     S144180   7.544   5.238  18.032 -0.5931 -0.2435  0.3819
    11RH     C344181   7.448   5.087  17.987 -0.4749 -0.2298  0.0749
    11RH     C444182   7.248   5.022  17.848  0.4305  1.2429  0.0151
    11RH     S244183   7.488   4.934  18.045 -0.8203 -0.2010  0.3986
    11RH     O144184   7.238   5.297  17.792  0.5199 -0.2863 -1.0829
    11RH     C544185   7.441   5.474  17.912  0.0799 -0.2927 -0.3098
    21BTZ    C644186   7.532   5.582  17.965  0.2487  0.1010  0.1458
    21BTZ    C744187   7.644   5.565  18.042  0.3332  0.3164  0.0739
    21BTZ    C844188   7.486   5.715  17.939  0.0445  0.0176  0.0768
    21BTZ    C944189   7.715   5.677  18.098  0.2221  0.4597 -0.0691
    21BTZ   C1044190   7.674   5.806  18.077  0.0267  0.3876 -0.1405
    21BTZ   C1144191   7.558   5.829  17.996 -0.0684  0.1633 -0.0687
    21BTZ    N244192   7.378   5.745  17.866 -0.0541 -0.1888  0.1354
    21BTZ    N344193   7.509   5.950  17.969 -0.2577  0.0741 -0.1273
    21BTZ    S344194   7.365   5.923  17.866 -0.3006 -0.2059  0.0049
    31IDT   C1244195   7.751   5.908  18.154  0.4148 -1.1171  0.0284
    31IDT   C1344196   7.743   6.042  18.126 -0.2391 -1.2486 -0.4630
    31IDT   C1444197   7.833   6.121  18.205 -0.4455 -0.5438 -0.9146
    31IDT   C1544198   7.909   6.048  18.293  0.0484  0.1279 -0.7699
    31IDT    S444199   7.873   5.872  18.284  0.8203 -0.0818 -0.0446
    4IDB    C1644200   8.010   6.137  18.360  0.5165  0.2832 -0.6523
    4IDB    C1744201   8.001   6.266  18.301  0.2603  0.4177 -0.3266
    51IDQ   C1844202   7.880   6.266  18.203 -0.3790  0.2676  0.1714
    4IDB    C1944203   8.082   6.371  18.345 -0.2497  0.5895  0.2335
    51IDQ   C2044204   7.775   6.383  18.223  0.4814 -0.3469 -0.9152
    51IDQ   C2144205   7.932   6.280  18.051  0.1353 -0.5259 -0.6559
    51IDQ   C2244206   8.075   6.268  18.007  0.7391 -0.5922  1.3383
    51IDQ   C2344207   7.619   6.366  18.266  0.0452 -0.1784 -0.2889
    51IDQ   C2444208   8.095   6.310  17.856  0.3180 -0.4430 -0.7254
    51IDQ   C2544209   8.253   6.323  17.838 -0.6179 -0.4985 -0.2546
    51IDQ   C2644210   8.285   6.311  17.687  0.2765  0.0286 -0.2769
    51IDQ   C2744211   8.432   6.311  17.642  0.2836 -0.3537 -0.1393
    51IDQ   C2844212   8.497   6.452  17.654  0.9516 -0.3519 -0.1535
    51IDQ   C2944213   8.629   6.456  17.572 -0.4406  0.1211 -0.4333
    51IDQ   C3044214   7.544   6.489  18.324 -0.2263 -0.0550 -0.4457
    51IDQ   C3144215   7.546   6.622  18.268  0.6096  0.4514 -0.3280
    51IDQ   C3244216   7.467   6.738  18.323 -0.1735 -0.0168 -0.2809
    51IDQ   C3344217   7.533   6.874  18.279 -0.5693  0.1248 -0.0652
    51IDQ   C3444218   7.417   6.952  18.249  0.1592 -0.9212  0.2010
    51IDQ   C3544219   7.450   7.096  18.278 -0.8635  0.1464 -0.8248
    4IDB    C3644220   8.101   6.111  18.464  0.2621  0.3201 -0.4187
    4IDB    C3744221   8.182   6.218  18.508 -0.2591  0.4964  0.1540
    11RH    C3844222   7.126   4.997  17.949 -0.5410 -0.2121  0.3479
    4IDB    C3944223   8.172   6.345  18.449 -0.5041  0.6265  0.4664
    62IDT   C4044224   8.260   6.435  18.514  0.0750  0.0506  0.6649
    72IDQ   C4144225   8.283   6.221  18.623 -0.0522  0.1073  0.4854
    62IDT   C4244226   8.328   6.369  18.614  0.3681  0.3723  0.6809
    72IDQ   C4344227   8.407   6.112  18.627  0.8021 -0.2451  0.0785
    72IDQ   C4444228   8.198   6.175  18.756  0.0769 -0.8528 -0.0267
    62IDT    S544229   8.299   6.610  18.510 -0.0551  0.0704  0.0887
    62IDT   C4544230   8.411   6.584  18.651  0.3116  0.5354 -0.1108
    62IDT   C4644231   8.414   6.453  18.692  0.5023  0.6471  0.2418
    82BTZ   C4744232   8.473   6.694  18.721 -0.1201 -0.0711  0.0228
    82BTZ   C4844233   8.440   6.818  18.673 -0.1917 -0.0814  0.0458
    82BTZ   C4944234   8.478   6.939  18.742 -0.2147 -0.0702  0.0391
    82BTZ   C5044235   8.549   6.936  18.859 -0.1661 -0.0486  0.0092
    82BTZ   C5144236   8.548   6.685  18.843 -0.0671 -0.0484 -0.0076
    82BTZ   C5244237   8.587   6.808  18.913 -0.0905 -0.0370 -0.0148
    92RH    C5344238   8.585   7.052  18.932 -0.1957 -0.0464 -0.1570
    82BTZ    N444239   8.586   6.571  18.899  0.0041 -0.0365 -0.0319
    82BTZ    N544240   8.656   6.792  19.026 -0.0381 -0.0159 -0.0439
    82BTZ    S644241   8.675   6.615  19.048  0.0452 -0.0096 -0.0648
    92RH    C5444242   8.576   7.186  18.927 -0.1354 -0.0395 -0.0715
    92RH     S744243   8.482   7.285  18.805 -0.1196  0.0800  0.0133
    92RH    C5544244   8.644   7.276  19.023 -0.0700 -0.1307 -0.0319
    92RH     O244245   8.716   7.239  19.118 -0.0633 -0.2228 -0.0725
    92RH     N644246   8.618   7.411  18.995 -0.0144 -0.1005  0.0587
    92RH    C5644247   8.537   7.441  18.887 -0.0274  0.0035  0.0968
    92RH    C5744248   8.641   7.510  19.101 -1.0196  0.0102  0.3314
    92RH    C5844249   8.759   7.603  19.064  0.0134  0.1842 -0.4816
    92RH     S844250   8.490   7.593  18.833  0.0293  0.0596  0.2031
    72IDQ   C5944251   8.097   6.275  18.832  0.1883  0.3383 -0.8496
    72IDQ   C6044252   8.033   6.210  18.957  0.5382 -0.6015  0.0455
    72IDQ   C6144253   7.925   6.295  19.022 -0.3633  0.8771  0.7959
    72IDQ   C6244254   7.884   6.228  19.150 -0.2433 -0.5903 -0.6345
    72IDQ   C6344255   7.756   6.309  19.196  0.5837  0.3996 -0.2179
    72IDQ   C6444256   7.628   6.247  19.147  0.1075  0.9799 -0.0029
    72IDQ   C6544257   7.497   6.326  19.156 -0.3549 -0.7879 -0.3736
    72IDQ   C6644258   8.549   6.150  18.647 -0.5411  0.0992 -0.0203
    72IDQ   C6744259   8.660   6.046  18.666  0.4712  0.0040 -0.7181
    72IDQ   C6844260   8.780   6.119  18.739 -0.1827 -0.0934  0.2604
    72IDQ   C6944261   8.753   6.204  18.862  1.8173  0.9352 -1.2468
    72IDQ   C7044262   8.880   6.239  18.930 -0.3945 -0.0556 -0.2570
    72IDQ   C7144263   8.899   6.332  19.062 -0.2440 -0.3085  0.4430
    72IDQ   C7244264   8.835   6.281  19.187  1.2143 -0.3693  0.2474
    11RH     C144265   1.316   1.036  25.657 -0.1350 -0.5871  0.2251
    11RH     C244266   1.315   0.948  25.537  0.3180 -0.5012  0.1531
    11RH     N144267   1.440   1.103  25.670 -0.4435 -0.0343  0.3340
    11RH     S144268   1.476   0.960  25.450  0.3088  0.3008  0.2346
    11RH     C344269   1.537   1.081  25.575 -0.2930  0.4839  0.3595
    11RH     C444270   1.476   1.184  25.787 -1.3982  0.3039  0.8459
    11RH     S244271   1.691   1.148  25.568 -0.5899  1.1944  0.4821
    11RH     O144272   1.223   1.050  25.737 -0.2397 -1.0768  0.1950
    11RH     C544273   1.210   0.873  25.502  0.6714 -0.9528  0.0458
    21BTZ    C644274   1.178   0.782  25.391 -0.0901 -0.2411 -0.2500
    21BTZ    C744275   1.264   0.750  25.290 -0.0125 -0.2472 -0.1831
    21BTZ    C844276   1.050   0.719  25.396 -0.0813 -0.2643 -0.3262
    21BTZ    C944277   1.228   0.654  25.188  0.0769 -0.2762 -0.1874
    21BTZ   C1044278   1.107   0.591  25.188  0.0886 -0.2990 -0.2585
    21BTZ   C1144279   1.013   0.621  25.292  0.0096 -0.2937 -0.3309
    21BTZ    N244280   0.958   0.742  25.490 -0.1517 -0.2610 -0.3958
    21BTZ    N344281   0.892   0.566  25.303  0.0122 -0.3142 -0.4039
    21BTZ    S344282   0.818   0.638  25.449 -0.1038 -0.2962 -0.4711
    31IDT   C1244283   1.098   0.477  25.096  0.3449 -0.4869  0.4384
    31IDT   C1344284   0.994   0.388  25.084  0.5589 -0.7710  0.6528
    31IDT   C1444285   1.011   0.297  24.976  0.3921 -0.4511  0.3510
    31IDT   C1544286   1.128   0.315  24.905  0.0506  0.0776 -0.0946
    31IDT    S444287   1.226   0.450  24.970 -0.0874  0.2127 -0.1668
    4IDB    C1644288   1.136   0.239  24.788  0.0139 -0.0239 -0.1095
    4IDB    C1744289   1.014   0.166  24.773 -0.0149 -0.0586  0.2742
    51IDQ   C1844290   0.922   0.193  24.892 -0.3084  0.5379  0.4220
    4IDB    C1944291   0.992   0.086  24.661 -0.3302 -0.0900  0.3567
    51IDQ   C2044292   0.783   0.235  24.822 -0.3427 -0.3517 -0.5154
    51IDQ   C2144293   0.903   0.071  24.985  0.2088 -0.1464 -0.0192
    51IDQ   C2244294   0.946  -0.070  24.954 -0.2536 -0.2990  0.3075
    51IDQ   C2344295   0.745   0.380  24.849  0.2264  0.5284  0.0444
    51IDQ   C2444296   1.088  -0.129  24.944  1.0234 -0.5533 -0.9142
    51IDQ   C2544297   1.168  -0.091  25.065 -0.6749  0.3528  0.8582
    51IDQ   C2644298   1.313  -0.141  25.093  1.0341  0.7498 -0.7321
    51IDQ   C2744299   1.378  -0.067  25.210  0.1322 -0.2982  0.0972
    51IDQ   C2844300   1.532  -0.089  25.222  0.2538  0.5910  1.2955
    51IDQ   C2944301   1.615  -0.010  25.308  0.5419  0.1227 -0.2414
    51IDQ   C3044302   0.646   0.405  24.745 -0.1250 -0.2663  0.3949
    51IDQ   C3144303   0.585   0.529  24.773 -0.2611 -0.0452 -0.2464
    51IDQ   C3244304   0.456   0.553  24.692 -0.3769  0.8817  0.5661
    51IDQ   C3344305   0.344   0.612  24.771  0.0855 -0.7429  0.3189
    51IDQ   C3444306   0.207   0.624  24.705  0.3850 -0.3074  0.6440
    51IDQ   C3544307   0.090   0.690  24.785 -0.3694 -0.0112 -0.0529
    4IDB    C3644308   1.237   0.232  24.691 -0.2743 -0.0205 -0.4148
    4IDB    C3744309   1.213   0.149  24.577 -0.5945 -0.0530 -0.3242
    11RH    C3844310   1.464   1.340  25.770 -1.2399 -0.4922 -0.3890
    4IDB    C3944311   1.093   0.079  24.564 -0.6185 -0.0867  0.0522
    62IDT   C4044312   1.105  -0.008  24.447  0.2328 -0.4018  0.2439
    72IDQ   C4144313   1.308   0.117  24.455  1.5938 -1.0221  0.0647
    62IDT   C4244314   1.210   0.031  24.367 -0.0458 -0.3569 -0.1040
    72IDQ   C4344315   1.423   0.024  24.494 -1.1745 -0.0875 -0.0250
    72IDQ   C4444316   1.343   0.257  24.385 -0.4579  0.3780  0.4067
    62IDT    S544317   0.996  -0.123  24.364 -0.1043 -0.2948  0.5326
    62IDT   C4544318   1.103  -0.112  24.217 -0.6298 -0.1898  0.1495
    62IDT   C4644319   1.209  -0.027  24.237 -0.5339 -0.2370 -0.1574
    82BTZ   C4744320   1.075  -0.193  24.106  0.1388  0.1359 -0.4813
    82BTZ   C4844321   1.185  -0.233  24.034  0.0641  0.0063 -0.5245
    82BTZ   C4944322   1.175  -0.326  23.924 -0.0519 -0.1956 -0.3462
    82BTZ   C5044323   1.054  -0.378  23.885 -0.0929 -0.2678 -0.1243
    82BTZ   C5144324   0.947  -0.245  24.069  0.0999  0.0672 -0.2518
    82BTZ   C5244325   0.936  -0.339  23.957 -0.0180 -0.1379 -0.0706
    92RH    C5344326   1.059  -0.497  23.797  0.4044  0.2226  0.2267
    82BTZ    N444327   0.832  -0.214  24.131  0.1646  0.1792 -0.1884
    82BTZ    N544328   0.813  -0.383  23.929 -0.0480 -0.1910  0.1392
    82BTZ    S644329   0.704  -0.305  24.046  0.0756  0.0238  0.1129
    92RH    C5444330   1.156  -0.575  23.749  0.2694  0.1980 -0.0072
    92RH     S744331   1.337  -0.541  23.750  0.2793  0.1831 -0.5010
    92RH    C5544332   1.131  -0.706  23.684  0.0850  0.1787  0.1035
    92RH     O244333   1.019  -0.758  23.668  0.0345  0.1830  0.4187
    92RH     N644334   1.251  -0.768  23.643 -0.0301  0.1544 -0.1978
    92RH    C5644335   1.370  -0.702  23.666  0.0394  0.1520 -0.5374
    92RH    C5744336   1.249  -0.899  23.574 -0.1577  0.8778 -0.4708
    92RH    C5844337   1.235  -1.015  23.676  0.0571 -0.3848  1.0977
    92RH     S844338   1.525  -0.752  23.626 -0.0683  0.1254 -0.9384
    72IDQ   C5944339   1.415   0.264  24.246  1.5882 -0.7928 -0.2299
    72IDQ   C6044340   1.525   0.363  24.222 -0.5801  0.5570 -0.4768
    72IDQ   C6144341   1.522   0.502  24.270 -0.7490 -0.9653  1.0466
    72IDQ   C6244342   1.635   0.590  24.223 -0.1295  0.1889  0.1126
    72IDQ   C6344343   1.774   0.561  24.274  0.1579 -0.2284 -0.1973
    72IDQ   C6444344   1.797   0.492  24.407 -0.8582 -0.0798 -0.3293
    72IDQ   C6544345   1.773   0.552  24.541 -0.6632  0.4999 -0.8270
    72IDQ   C6644346   1.559   0.079  24.533  0.3251  0.2623  0.0120
    72IDQ   C6744347   1.568   0.097  24.674 -0.5979 -0.8382  0.7243
    72IDQ   C6844348   1.700   0.161  24.705 -0.1630  0.1153  0.2147
    72IDQ   C6944349   1.727   0.191  24.847 -0.3416  0.6354 -0.5381
    72IDQ   C7044350   1.781   0.317  24.905 -0.8919 -0.5682 -0.1468
    72IDQ   C7144351   1.718   0.456  24.875 -1.7147  0.4193  0.0377
    72IDQ   C7244352   1.580   0.480  24.929 -0.1198  0.6548 -0.3140
    11RH     C144353   3.730   1.357   0.248 -0.1292 -0.0843 -0.3283
    11RH     C244354   3.721   1.351   0.100 -0.2451 -0.2868 -0.3141
    11RH     N144355   3.664   1.247   0.308 -0.1582  0.0445 -0.1232
    11RH     S144356   3.626   1.202   0.050 -0.3845 -0.2948 -0.0320
    11RH     C344357   3.603   1.155   0.226 -0.2831 -0.0301  0.0535
    11RH     C444358   3.674   1.235   0.452  1.2582  0.1798 -0.7033
    11RH     S244359   3.519   1.016   0.272 -0.3424  0.0911  0.3136
    11RH     O144360   3.788   1.445   0.313 -0.0196 -0.0304 -0.4966
    11RH     C544361   3.775   1.443   0.019 -0.2439 -0.4371 -0.4852
    21BTZ    C644362   3.779   1.458  -0.130  0.0539  0.3924  0.0302
    21BTZ    C744363   3.733   1.369  -0.224  0.1336  0.2713  0.1040
    21BTZ    C844364   3.819   1.589  -0.172  0.1338  0.3231 -0.1116
    21BTZ    C944365   3.724   1.405  -0.363  0.2948  0.0772  0.0424
    21BTZ   C1044366   3.761   1.529  -0.408  0.3760  0.0046 -0.0926
    21BTZ   C1144367   3.810   1.625  -0.313  0.2976  0.1259 -0.1740
    21BTZ    N244368   3.865   1.683  -0.089  0.0687  0.4273 -0.1941
    21BTZ    N344369   3.849   1.749  -0.345  0.3642  0.0716 -0.3061
    21BTZ    S344370   3.900   1.826  -0.191  0.2171  0.2745 -0.3581
    31IDT   C1244371   3.760   1.551  -0.558  0.6138 -0.0344  0.3341
    31IDT   C1344372   3.723   1.660  -0.632  0.8244  0.1768  0.5364
    31IDT   C1444373   3.722   1.634  -0.773  0.3952  0.3189  0.5074
    31IDT   C1544374   3.759   1.506  -0.807 -0.1441  0.2172  0.2839
    31IDT    S444375   3.798   1.406  -0.662 -0.1504 -0.0690  0.0906
    4IDB    C1644376   3.753   1.485  -0.944  0.0892 -0.3829  0.0551
    4IDB    C1744377   3.724   1.606  -1.014  0.0740 -0.4014  0.0286
    51IDQ   C1844378   3.702   1.723  -0.902 -0.1264  0.0369  0.1692
    4IDB    C1944379   3.714   1.607  -1.153  0.2197 -0.4039  0.0186
    51IDQ   C2044380   3.811   1.831  -0.941 -0.8433  0.1010 -0.3468
    51IDQ   C2144381   3.564   1.807  -0.903  0.9340  1.0992  0.2115
    51IDQ   C2244382   3.476   1.779  -1.024 -0.0501 -0.0418 -0.7224
    51IDQ   C2344383   3.925   1.850  -0.838 -0.9190 -0.5138  0.4622
    51IDQ   C2444384   3.347   1.724  -0.996  0.5095 -0.3228 -0.4028
    51IDQ   C2544385   3.246   1.717  -1.103  0.1771  1.3198  0.9422
    51IDQ   C2644386   3.290   1.611  -1.214 -0.0495  0.2135 -0.4100
    51IDQ   C2744387   3.225   1.643  -1.350  0.7253  0.4474 -0.1099
    51IDQ   C2844388   3.315   1.713  -1.436  0.2284  0.3632 -0.7018
    51IDQ   C2944389   3.374   1.642  -1.558  0.5013  1.0252  0.1110
    51IDQ   C3044390   4.017   1.971  -0.853 -0.7285 -0.1370  0.0928
    51IDQ   C3144391   3.957   2.110  -0.874  0.1645 -0.5927 -0.5850
    51IDQ   C3244392   3.908   2.191  -0.753  0.0068 -0.3634  0.2257
    51IDQ   C3344393   3.851   2.316  -0.793 -0.4745  0.4765 -0.4940
    51IDQ   C3444394   3.800   2.415  -0.686  0.0943 -0.1920  0.4442
    51IDQ   C3544395   3.748   2.539  -0.733  0.5640 -0.7680 -0.1892
    4IDB    C3644396   3.771   1.364  -1.013  0.2514 -0.3668  0.0701
    4IDB    C3744397   3.760   1.367  -1.155  0.3989 -0.3697  0.0591
    11RH    C3844398   3.814   1.180   0.500 -0.0458 -0.7449  0.3833
    4IDB    C3944399   3.732   1.487  -1.222  0.3819 -0.3878  0.0332
    62IDT   C4044400   3.747   1.481  -1.359  0.1736  0.0459  0.2755
    72IDQ   C4144401   3.779   1.260  -1.261 -0.2403 -0.1441  0.9184
    62IDT   C4244402   3.770   1.348  -1.392 -0.1935 -0.0533  0.4158
    72IDQ   C4344403   3.667   1.149  -1.280 -0.8122  0.3936  0.5533
    72IDQ   C4444404   3.919   1.186  -1.254  0.0521 -0.4155 -0.1001
    62IDT    S544405   3.725   1.583  -1.506  0.0853 -0.1153  0.1766
    62IDT   C4544406   3.748   1.434  -1.608 -0.4703 -0.3182  0.3371
    62IDT   C4644407   3.770   1.322  -1.532 -0.5580 -0.2592  0.4511
    82BTZ   C4744408   3.770   1.450  -1.756 -0.0993  0.1078 -0.4176
    82BTZ   C4844409   3.692   1.540  -1.823  0.0105  0.2103 -0.4096
    82BTZ   C4944410   3.717   1.574  -1.961  0.2097  0.3882 -0.3309
    82BTZ   C5044411   3.820   1.518  -2.032  0.2989  0.4633 -0.2605
    82BTZ   C5144412   3.880   1.389  -1.826 -0.0126  0.1805 -0.3457
    82BTZ   C5244413   3.905   1.424  -1.966  0.1899  0.3613 -0.2661
    92RH    C5344414   3.829   1.537  -2.177  0.0027  0.1334 -0.2477
    82BTZ    N444415   3.963   1.300  -1.772 -0.1045  0.0937 -0.3457
    82BTZ    N544416   4.009   1.362  -2.024  0.2606  0.4198 -0.2017
    82BTZ    S644417   4.080   1.256  -1.900  0.0673  0.2426 -0.2418
    92RH    C5444418   3.753   1.589  -2.274 -0.0473  0.2053 -0.1698
    92RH     S744419   3.599   1.687  -2.251 -0.1015  0.0870 -0.0216
    92RH    C5544420   3.783   1.575  -2.418 -0.0669  0.3986 -0.1931
    92RH     O244421   3.880   1.514  -2.466 -0.0399  0.5147 -0.2856
    92RH     N644422   3.686   1.640  -2.497 -0.1211  0.4373 -0.0950
    92RH    C5644423   3.582   1.704  -2.434 -0.1473  0.2986  0.0033
    92RH    C5744424   3.694   1.634  -2.643 -0.9224  0.2912 -0.2085
    92RH    C5844425   3.610   1.518  -2.704  0.2360 -0.6882  0.3298
    92RH     S844426   3.454   1.789  -2.505 -0.2115  0.3087  0.1302
    72IDQ   C5944427   4.049   1.251  -1.284 -0.5568  0.1086  0.6986
    72IDQ   C6044428   4.175   1.156  -1.312  1.0409 -0.0694 -0.0476
    72IDQ   C6144429   4.268   1.134  -1.191 -0.3165 -0.1432 -0.8206
    72IDQ   C6244430   4.415   1.167  -1.210  0.3596 -1.1844  1.1808
    72IDQ   C6344431   4.512   1.122  -1.100  0.5075  0.4615  0.1529
    72IDQ   C6444432   4.660   1.141  -1.110 -0.4374 -0.1124 -0.2558
    72IDQ   C6544433   4.740   1.098  -1.227  0.5815 -0.3421 -0.3806
    72IDQ   C6644434   3.640   1.040  -1.179  1.0687  0.1368 -0.5718
    72IDQ   C6744435   3.662   1.052  -1.028  1.0207 -0.6266  1.1882
    72IDQ   C6844436   3.642   0.931  -0.947 -0.1225  0.9751 -0.2306
    72IDQ   C6944437   3.740   0.806  -0.962  0.1671  0.1985  1.1087
    72IDQ   C7044438   3.685   0.709  -0.867 -0.4710 -0.0587 -0.1325
    72IDQ   C7144439   3.733   0.566  -0.880 -1.1609 -1.2810  1.5751
    72IDQ   C7244440   3.653   0.476  -0.791 -0.5226 -0.2243 -0.3519
    11RH     C144441   4.227   4.324  22.685 -0.2497 -0.1900 -0.0472
    11RH     C244442   4.220   4.177  22.696 -0.0281 -0.2038 -0.0715
    11RH     N144443   4.312   4.380  22.784 -0.1060 -0.1056 -0.2159
    11RH     S144444   4.325   4.120  22.836  0.3545 -0.1044 -0.3156
    11RH     C344445   4.373   4.294  22.872  0.2033 -0.0496 -0.3734
    11RH     C444446   4.325   4.526  22.805  0.3004  0.4908  0.3002
    11RH     S244447   4.478   4.334  22.998  0.4275  0.0540 -0.5903
    11RH     O144448   4.168   4.394  22.601 -0.5271 -0.2450  0.1016
    11RH     C544449   4.146   4.100  22.615 -0.1052 -0.2784  0.0679
    21BTZ    C644450   4.120   3.955  22.600 -0.1289  0.1681 -0.1974
    21BTZ    C744451   4.177   3.871  22.691 -0.0308  0.2844 -0.1512
    21BTZ    C844452   4.031   3.900  22.502 -0.0571  0.0097 -0.1740
    21BTZ    C944453   4.150   3.730  22.692  0.1417  0.2513 -0.0806
    21BTZ   C1044454   4.066   3.672  22.600  0.2156  0.1019 -0.0559
    21BTZ   C1144455   4.003   3.756  22.502  0.1180 -0.0240 -0.1025
    21BTZ    N244456   3.969   3.972  22.408 -0.1400 -0.1134 -0.2136
    21BTZ    N344457   3.919   3.712  22.408  0.1761 -0.1743 -0.0844
    21BTZ    S344458   3.871   3.855  22.313  0.0056 -0.2813 -0.1593
    31IDT   C1244459   4.050   3.515  22.598 -0.1678 -0.5324 -0.1799
    31IDT   C1344460   3.969   3.441  22.515 -0.2282 -0.8132  0.1235
    31IDT   C1444461   4.002   3.302  22.515 -0.1920 -0.8056  0.5260
    31IDT   C1544462   4.107   3.269  22.598 -0.1043 -0.5198  0.5314
    31IDT    S444463   4.173   3.413  22.683 -0.0601 -0.2354  0.0229
    4IDB    C1644464   4.131   3.125  22.576  0.2108 -0.1810 -0.3001
    4IDB    C1744465   4.029   3.074  22.490  0.4592  0.0433 -0.7348
    51IDQ   C1844466   3.939   3.182  22.441  0.4716 -0.5202 -0.0847
    4IDB    C1944467   4.024   2.938  22.459  0.4020  0.0847 -0.9092
    51IDQ   C2044468   3.934   3.183  22.282 -0.4701 -0.2409 -0.4759
    51IDQ   C2144469   3.788   3.171  22.487  0.3525  1.3280  0.2984
    51IDQ   C2244470   3.740   3.061  22.586  0.0227 -0.8102  0.8997
    51IDQ   C2344471   3.979   3.315  22.208 -0.1535 -0.4263  0.7349
    51IDQ   C2444472   3.587   3.043  22.616 -1.2167 -0.4766  0.6442
    51IDQ   C2544473   3.496   3.002  22.498  0.0193  1.1903  0.2361
    51IDQ   C2644474   3.470   3.109  22.382 -1.2727 -0.6051 -0.8847
    51IDQ   C2744475   3.402   3.236  22.444 -0.2407 -0.0688  0.0094
    51IDQ   C2844476   3.393   3.352  22.351  0.1165  0.3239 -0.3580
    51IDQ   C2944477   3.507   3.402  22.261  0.1841  1.1049 -0.5266
    51IDQ   C3044478   3.868   3.414  22.178 -0.0775  0.3483 -0.7743
    51IDQ   C3144479   3.913   3.555  22.125 -0.3105  0.5542  0.5099
    51IDQ   C3244480   3.907   3.559  21.968  0.6561  0.1736  0.2338
    51IDQ   C3344481   3.771   3.523  21.898  0.8250  0.4471 -0.0717
    51IDQ   C3444482   3.655   3.634  21.902  0.4039  0.7782 -0.3888
    51IDQ   C3544483   3.542   3.586  21.814  1.0760  0.0937 -1.0356
    4IDB    C3644484   4.228   3.041  22.632 -0.0980 -0.3662 -0.0353
    4IDB    C3744485   4.221   2.903  22.599 -0.1521 -0.3206 -0.2189
    11RH    C3844486   4.222   4.560  22.901  0.3789 -0.6703  0.0414
    4IDB    C3944487   4.121   2.854  22.515  0.0932 -0.1004 -0.6439
    62IDT   C4044488   4.143   2.713  22.508  0.5440 -0.4787  0.8063
    72IDQ   C4144489   4.302   2.784  22.659 -1.5571 -0.9712 -0.1532
    62IDT   C4244490   4.239   2.668  22.596  0.4534 -0.9089  0.6890
    72IDQ   C4344491   4.295   2.756  22.810  0.5854 -0.5801 -0.4183
    72IDQ   C4444492   4.456   2.811  22.633  0.3720  0.0632  0.0845
    62IDT    S544493   4.057   2.577  22.427  0.4834 -0.0899  0.2073
    62IDT   C4544494   4.161   2.461  22.521  0.3314 -0.5519 -0.1888
    62IDT   C4644495   4.250   2.525  22.603  0.3331 -0.9509  0.1268
    82BTZ   C4744496   4.167   2.325  22.480  0.2031  0.4156  0.0335
    82BTZ   C4844497   4.104   2.285  22.366  0.3973  0.5965 -0.1383
    82BTZ   C4944498   4.094   2.145  22.330  0.5394  0.6585 -0.4234
    82BTZ   C5044499   4.147   2.047  22.408  0.4870  0.5396 -0.5352
    82BTZ   C5144500   4.224   2.226  22.566  0.1408  0.2859 -0.0744
    82BTZ   C5244501   4.214   2.084  22.530  0.2853  0.3489 -0.3638
    92RH    C5344502   4.133   1.905  22.383 -0.5738  0.6469  0.0176
    82BTZ    N444503   4.288   2.253  22.681 -0.0443  0.1063  0.0725
    82BTZ    N544504   4.270   1.997  22.615  0.2162  0.2200 -0.4497
    82BTZ    S644505   4.339   2.095  22.748 -0.0417  0.0082 -0.1576
    92RH    C5444506   4.063   1.842  22.289 -0.2364  0.2912 -0.0038
    92RH     S744507   3.950   1.919  22.166 -0.1479 -0.2139 -0.4091
    92RH    C5544508   4.065   1.695  22.269  0.1296  0.2521  0.3099
    92RH     O244509   4.132   1.614  22.335  0.1667  0.5379  0.6232
    92RH     N644510   3.981   1.655  22.162  0.4402 -0.1579  0.2105
    92RH    C5644511   3.911   1.753  22.094  0.3680 -0.4521 -0.1440
    92RH    C5744512   3.958   1.506  22.144  0.0743  0.3702 -0.2536
    92RH    C5844513   4.043   1.434  22.037 -0.3736  0.0818  0.5081
    92RH     S844514   3.805   1.733  21.965  0.6849 -0.9587 -0.3314
    72IDQ   C5944515   4.517   2.802  22.489  0.7749 -0.1000  1.5941
    72IDQ   C6044516   4.658   2.756  22.487 -0.9460  0.1833 -0.0475
    72IDQ   C6144517   4.775   2.851  22.427  0.3747  0.0997  0.5005
    72IDQ   C6244518   4.775   2.984  22.491 -0.5496 -1.5051 -0.3508
    72IDQ   C6344519   4.890   3.064  22.439  1.0057  0.2602 -0.0655
    72IDQ   C6444520   4.917   3.185  22.526  0.5810  0.6210 -0.6489
    72IDQ   C6544521   5.033   3.276  22.476 -0.2989 -0.0145 -0.7993
    72IDQ   C6644522   4.166   2.806  22.891 -0.1924 -0.0741  0.2371
    72IDQ   C6744523   4.028   2.748  22.856 -0.4598  0.1142 -0.3031
    72IDQ   C6844524   3.924   2.770  22.959  0.8313 -0.4917  0.3682
    72IDQ   C6944525   3.883   2.912  23.000 -0.6693 -0.8692 -0.4156
    72IDQ   C7044526   3.747   2.892  23.052  0.0953  0.7237  0.0791
    72IDQ   C7144527   3.654   3.005  23.020 -0.2689  0.2732  0.3638
    72IDQ   C7244528   3.518   2.976  23.087  0.6864 -0.9046 -0.0021
    11RH     C144529   4.951   4.922  19.693  0.1109 -0.3792 -0.5260
    11RH     C244530   4.970   4.835  19.811 -0.0743 -0.1981 -0.3614
    11RH     N144531   4.915   4.847  19.578  0.1225 -0.5358 -0.4274
    11RH     S144532   4.938   4.660  19.765 -0.2208 -0.2458 -0.0876
    11RH     C344533   4.902   4.710  19.591 -0.0306 -0.5026 -0.2041
    11RH     C444534   4.904   4.912  19.437  0.3859 -0.8982  0.0967
    11RH     S244535   4.860   4.599  19.471 -0.0529 -0.6632 -0.0472
    11RH     O144536   4.964   5.045  19.691  0.2414 -0.3954 -0.7257
    11RH     C544537   5.004   4.880  19.932 -0.1214 -0.0284 -0.4118
    21BTZ    C644538   5.018   4.816  20.060 -0.2905  0.0625 -0.0114
    21BTZ    C744539   5.018   4.682  20.087  0.0069  0.0761  0.0544
    21BTZ    C844540   5.026   4.909  20.169 -0.1829  0.1296 -0.0763
    21BTZ    C944541   5.027   4.632  20.223  0.4224  0.1556  0.0596
    21BTZ   C1044542   5.035   4.717  20.330  0.5396  0.2214 -0.0006
    21BTZ   C1144543   5.035   4.859  20.306  0.2394  0.2104 -0.0710
    21BTZ    N244544   5.026   5.042  20.154 -0.4452  0.1241 -0.1435
    21BTZ    N344545   5.042   4.951  20.402  0.3164  0.2698 -0.1340
    21BTZ    S344546   5.038   5.110  20.319 -0.1574  0.2239 -0.2040
    31IDT   C1244547   5.035   4.654  20.465  0.3052  0.4896  0.2485
    31IDT   C1344548   5.034   4.702  20.593  0.5401  0.0356  0.4220
    31IDT   C1444549   5.049   4.598  20.691  0.3575 -0.3558  0.0415
    31IDT   C1544550   5.062   4.472  20.637 -0.0173 -0.2032 -0.4230
    31IDT    S444551   5.056   4.474  20.458 -0.1690  0.4541 -0.4146
    4IDB    C1644552   5.078   4.375  20.747  0.3465  0.0560 -0.1199
    4IDB    C1744553   5.067   4.439  20.875 -0.0613  0.1839 -0.2179
    51IDQ   C1844554   5.044   4.593  20.849 -0.5445  0.9747 -0.3237
    4IDB    C1944555   5.074   4.365  20.992 -0.2339  0.3291 -0.1144
    51IDQ   C2044556   4.901   4.627  20.910  0.7625 -0.6733  0.4932
    51IDQ   C2144557   5.154   4.693  20.907  0.3167 -0.0027  0.2806
    51IDQ   C2244558   5.270   4.640  20.983  0.0016 -0.8445 -0.1841
    51IDQ   C2344559   4.788   4.698  20.830 -0.1952  0.7192  0.4988
    51IDQ   C2444560   5.378   4.568  20.900  1.2481 -0.0045  0.5876
    51IDQ   C2544561   5.465   4.469  20.970 -0.1962  0.1199  0.1418
    51IDQ   C2644562   5.513   4.477  21.120  0.5999  0.5221 -0.0847
    51IDQ   C2744563   5.599   4.593  21.165  1.3875  0.7004  0.1401
    51IDQ   C2844564   5.566   4.642  21.311 -0.0911  0.9450  0.2866
    51IDQ   C2944565   5.676   4.720  21.366  0.2081  0.0680 -0.0899
    51IDQ   C3044566   4.674   4.592  20.820 -0.0790  1.5152 -0.6159
    51IDQ   C3144567   4.524   4.632  20.792  0.1373 -0.0769 -0.3331
    51IDQ   C3244568   4.456   4.677  20.915 -0.5076  0.3600 -0.3124
    51IDQ   C3344569   4.307   4.718  20.897 -0.3882  0.2918  0.0502
    51IDQ   C3444570   4.233   4.690  21.027  0.6265 -1.1278 -0.7060
    51IDQ   C3544571   4.253   4.814  21.109 -0.3710  0.8154 -1.1154
    4IDB    C3644572   5.098   4.237  20.736  0.5853  0.0726  0.0825
    4IDB    C3744573   5.105   4.163  20.857  0.4036  0.2216  0.1860
    11RH    C3844574   4.772   4.992  19.422 -0.5755 -0.6254  0.2066
    4IDB    C3944575   5.094   4.226  20.981  0.0050  0.3456  0.0889
    62IDT   C4044576   5.105   4.124  21.094 -0.0326 -0.9628 -0.1217
    72IDQ   C4144577   5.121   4.006  20.881 -0.3004 -0.2789  0.5836
    62IDT   C4244578   5.125   4.000  21.037 -0.1888 -1.1574  0.2408
    72IDQ   C4344579   5.247   3.943  20.813 -0.3248  0.0442 -0.4042
    72IDQ   C4444580   4.998   3.921  20.824  1.1617 -0.3008  0.6764
    62IDT    S544581   5.110   4.117  21.274  0.2510 -0.3922 -0.1019
    62IDT   C4544582   5.140   3.938  21.262  0.1379 -0.4499  0.4199
    62IDT   C4644583   5.145   3.894  21.132 -0.0925 -0.8678  0.5479
    82BTZ   C4744584   5.145   3.859  21.384  0.1907  0.3470 -0.0360
    82BTZ   C4844585   5.080   3.913  21.492  0.1645  0.2028  0.0215
    82BTZ   C4944586   5.101   3.863  21.625 -0.1434 -0.2143 -0.0844
    82BTZ   C5044587   5.185   3.759  21.651 -0.4244 -0.4863 -0.2481
    82BTZ   C5144588   5.235   3.749  21.406 -0.0968  0.0739 -0.2065
    82BTZ   C5244589   5.255   3.699  21.542 -0.4097 -0.3500 -0.3138
    92RH    C5344590   5.202   3.704  21.786  0.5436  0.0456  0.0917
    82BTZ    N444591   5.304   3.688  21.309 -0.1023  0.1785 -0.2770
    82BTZ    N544592   5.341   3.596  21.554 -0.6666 -0.5860 -0.4706
    82BTZ    S644593   5.400   3.560  21.389 -0.5162 -0.2699 -0.4884
    92RH    C5444594   5.140   3.724  21.903  0.3766 -0.0818  0.0248
    92RH     S744595   5.010   3.848  21.939  0.4883  0.0330  0.0344
    92RH    C5544596   5.169   3.644  22.025  0.0650 -0.3445 -0.0701
    92RH     O244597   5.252   3.552  22.033 -0.0761 -0.4754 -0.0978
    92RH     N644598   5.089   3.686  22.133 -0.0576 -0.4320 -0.1254
    92RH    C5644599   4.999   3.789  22.113  0.1179 -0.2716 -0.0873
    92RH    C5744600   5.108   3.627  22.270  0.0064  0.9163  0.2944
    92RH    C5844601   5.217   3.665  22.368  0.1582  0.3679  0.2183
    92RH     S844602   4.893   3.857  22.225  0.0262 -0.3291 -0.1383
    72IDQ   C5944603   4.923   3.934  20.693 -0.0671 -1.1705  0.6444
    72IDQ   C6044604   4.996   3.909  20.569  0.8305 -0.8525  0.1942
    72IDQ   C6144605   4.916   3.933  20.445 -0.1031  0.5839 -0.0902
    72IDQ   C6244606   5.005   3.882  20.320 -0.1240  0.0022  0.1003
    72IDQ   C6344607   4.956   3.912  20.183 -0.3068 -0.6721  0.0742
    72IDQ   C6444608   5.043   3.842  20.089 -0.5357 -0.1334  0.5926
    72IDQ   C6544609   4.992   3.825  19.951 -0.5430  0.2089  0.4224
    72IDQ   C6644610   5.394   3.996  20.850 -0.2970 -0.7164 -0.0525
    72IDQ   C6744611   5.502   3.952  20.752 -0.5701 -0.2123 -0.5283
    72IDQ   C6844612   5.533   3.814  20.789 -0.5970  0.1707  0.9367
    72IDQ   C6944613   5.670   3.786  20.719  0.4455  0.6112 -0.3534
    72IDQ   C7044614   5.714   3.639  20.732 -0.1826 -0.0675 -0.5246
    72IDQ   C7144615   5.847   3.589  20.684 -0.9772 -0.2982 -1.2409
    72IDQ   C7244616   5.892   3.586  20.534  0.5679  0.5676 -0.7514
    11RH     C144617   3.885   6.957  25.913 -0.1448 -0.2940  0.2680
    11RH     C244618   3.835   7.078  25.845 -0.2416 -0.3686  0.2055
    11RH     N144619   4.024   6.942  25.896 -0.0966 -0.0733  0.4609
    11RH     S144620   3.974   7.165  25.763 -0.2629 -0.1435  0.4050
    11RH     C344621   4.092   7.036  25.823 -0.1429  0.0381  0.5608
    11RH     C444622   4.084   6.809  25.912 -0.5703 -0.0260  0.4463
    11RH     S244623   4.257   7.042  25.788 -0.1019  0.3000  0.7911
    11RH     O144624   3.816   6.877  25.978 -0.1088 -0.4075  0.1664
    11RH     C544625   3.707   7.116  25.845 -0.3020 -0.5708  0.0295
    21BTZ    C644626   3.641   7.231  25.780 -0.0863 -0.3488 -0.0879
    21BTZ    C744627   3.703   7.328  25.706 -0.0285 -0.3209 -0.0033
    21BTZ    C844628   3.498   7.230  25.786 -0.0845 -0.2198 -0.0229
    21BTZ    C944629   3.628   7.428  25.634  0.0335 -0.1657  0.1488
    21BTZ   C1044630   3.491   7.431  25.637  0.0377 -0.0389  0.2156
    21BTZ   C1144631   3.421   7.332  25.714 -0.0215 -0.0621  0.1311
    21BTZ    N244632   3.426   7.141  25.855 -0.1374 -0.2323 -0.0939
    21BTZ    N344633   3.288   7.325  25.724 -0.0238  0.0520  0.1841
    21BTZ    S344634   3.254   7.184  25.829 -0.1083 -0.0390  0.0358
    31IDT   C1244635   3.425   7.548  25.572 -0.1608  0.1818  0.3068
    31IDT   C1344636   3.479   7.674  25.564 -0.2940  0.2341  0.2246
    31IDT   C1444637   3.402   7.762  25.482 -0.4086  0.1105  0.1988
    31IDT   C1544638   3.289   7.705  25.428 -0.3636 -0.0364  0.2600
    31IDT    S444639   3.271   7.533  25.476 -0.1709 -0.0296  0.3570
    4IDB    C1644640   3.228   7.792  25.336 -0.3788  0.3177 -0.0521
    4IDB    C1744641   3.303   7.913  25.332 -0.3276  0.2856 -0.0668
    51IDQ   C1844642   3.415   7.903  25.432  0.1859 -0.5513 -0.4202
    4IDB    C1944643   3.276   8.010  25.235  0.1201  0.0203 -0.4653
    51IDQ   C2044644   3.546   7.928  25.332  0.6135 -0.5579 -1.1244
    51IDQ   C2144645   3.424   8.016  25.533  0.7799  0.9303  0.2801
    51IDQ   C2244646   3.315   8.131  25.539  0.3685  0.2370  0.1996
    51IDQ   C2344647   3.668   7.831  25.326  1.3349 -0.8098 -0.4598
    51IDQ   C2444648   3.183   8.071  25.597  0.0056 -0.9388  0.5622
    51IDQ   C2544649   3.074   8.188  25.593 -0.1626  0.3424  0.2872
    51IDQ   C2644650   2.936   8.154  25.635  0.8693 -0.3593 -1.3141
    51IDQ   C2744651   2.850   8.284  25.662  0.0660  0.0955  0.4657
    51IDQ   C2844652   2.729   8.263  25.757 -0.2079 -0.1089  0.6752
    51IDQ   C2944653   2.605   8.350  25.739 -0.2388 -0.1381 -0.7433
    51IDQ   C3044654   3.787   7.881  25.247  0.1910  0.3659 -0.5904
    51IDQ   C3144655   3.846   8.006  25.301  0.2918  0.2647  0.2408
    51IDQ   C3244656   3.991   7.998  25.327  0.5854  0.0331 -0.4216
    51IDQ   C3344657   4.072   7.876  25.353  0.4285  0.4782  0.4964
    51IDQ   C3444658   4.210   7.926  25.410 -0.3181 -0.1253 -0.5816
    51IDQ   C3544659   4.221   7.966  25.559 -0.1965 -0.5120  0.0084
    4IDB    C3644660   3.126   7.766  25.244  0.0203  0.0830 -0.4382
    4IDB    C3744661   3.100   7.866  25.146  0.4749 -0.1864 -0.8426
    11RH    C3844662   4.136   6.782  26.048 -0.2905  0.3747 -0.2610
    4IDB    C3944663   3.174   7.984  25.143  0.5192 -0.2144 -0.8504
    62IDT   C4044664   3.122   8.074  25.039  0.3860  0.1643 -0.4917
    72IDQ   C4144665   2.997   7.874  25.033  0.4161 -0.8962 -0.5043
    62IDT   C4244666   3.000   8.026  24.995  0.3124  0.1111 -0.2303
    72IDQ   C4344667   2.849   7.861  25.102 -0.4283 -0.9097  0.0813
    72IDQ   C4444668   3.026   7.754  24.931 -1.3015 -1.4069  0.9296
    62IDT    S544669   3.164   8.231  24.960  0.0843  0.2510 -0.4807
    62IDT   C4544670   3.007   8.221  24.868 -0.1362  0.2087 -0.1052
    62IDT   C4644671   2.935   8.109  24.899  0.0171  0.1362 -0.0110
    82BTZ   C4744672   2.992   8.318  24.760 -0.1401 -0.2293 -0.4326
    82BTZ   C4844673   3.108   8.348  24.692 -0.1714 -0.1017 -0.4292
    82BTZ   C4944674   3.109   8.442  24.583 -0.2264  0.0890 -0.2670
    82BTZ   C5044675   2.995   8.506  24.542 -0.2499  0.1519 -0.1075
    82BTZ   C5144676   2.870   8.382  24.720 -0.1630 -0.1703 -0.2694
    82BTZ   C5244677   2.872   8.478  24.609 -0.2189  0.0235 -0.1044
    92RH    C5344678   2.988   8.611  24.437  0.0350  0.2704  0.3703
    82BTZ    N444679   2.752   8.360  24.777 -0.1366 -0.2815 -0.2556
    82BTZ    N544680   2.755   8.533  24.577 -0.2374  0.0682  0.0420
    82BTZ    S644681   2.635   8.464  24.691 -0.1831 -0.1402 -0.0262
    92RH    C5444682   3.070   8.691  24.368  0.0511  0.1189  0.2108
    92RH     S744683   3.253   8.691  24.373  0.0542  0.0077  0.1132
    92RH    C5544684   3.022   8.795  24.274  0.0696  0.0147  0.0854
    92RH     O244685   2.904   8.821  24.248  0.0724  0.0544  0.1116
    92RH     N644686   3.130   8.865  24.216  0.0844 -0.1392 -0.0727
    92RH    C5644687   3.258   8.829  24.251  0.0798 -0.1711 -0.0882
    92RH    C5744688   3.103   8.974  24.115  0.4714 -0.4515 -0.2562
    92RH    C5844689   3.104   8.915  23.966  0.4884 -0.7312 -0.3454
    92RH     S844690   3.403   8.896  24.197  0.0944 -0.3433 -0.2613
    72IDQ   C5944691   3.097   7.795  24.789 -0.4527  0.9798 -1.0195
    72IDQ   C6044692   3.133   7.662  24.713 -0.1905 -0.9700  0.1943
    72IDQ   C6144693   3.183   7.678  24.568  1.2100  0.6837 -0.2255
    72IDQ   C6244694   3.317   7.727  24.546  0.0348 -0.7061  0.2741
    72IDQ   C6344695   3.327   7.768  24.403 -0.3255 -0.0338 -0.0520
    72IDQ   C6444696   3.454   7.833  24.338 -0.7548  0.7450 -1.1778
    72IDQ   C6544697   3.455   7.848  24.187 -1.1951 -0.6802  0.0243
    72IDQ   C6644698   2.761   7.737  25.085 -0.5715  0.7346 -0.2707
    72IDQ   C6744699   2.684   7.719  24.948 -0.0976  0.4703 -0.2572
    72IDQ   C6844700   2.608   7.594  24.909  0.3614 -0.3878  0.0516
    72IDQ   C6944701   2.482   7.553  24.985  0.0336  0.1816 -0.3004
    72IDQ   C7044702   2.379   7.650  25.036  1.1516  0.3469 -0.3147
    72IDQ   C7144703   2.240   7.600  25.078 -0.8457  0.1934 -0.1231
    72IDQ   C7244704   2.140   7.714  25.080  0.3239  0.6099  0.1446
    11RH     C144705   2.869   1.425  19.026 -0.3341  0.1487 -0.0606
    11RH     C244706   2.851   1.483  18.891 -0.1609  0.2148 -0.0567
    11RH     N144707   2.899   1.524  19.122 -0.4287  0.0988  0.0211
    11RH     S144708   2.874   1.665  18.898 -0.1338  0.2071  0.0554
    11RH     C344709   2.907   1.655  19.079 -0.3526  0.1170  0.0906
    11RH     C444710   2.920   1.484  19.263  0.3417  0.1218 -2.2118
    11RH     S244711   2.940   1.792  19.172 -0.4369  0.0676  0.1936
    11RH     O144712   2.860   1.304  19.055 -0.3920  0.1371 -0.1264
    11RH     C544713   2.822   1.410  18.783 -0.0455  0.2704 -0.1254
    21BTZ    C644714   2.783   1.447  18.644  0.2175  0.1009 -0.1062
    21BTZ    C744715   2.777   1.572  18.588  0.3449  0.1056 -0.1082
    21BTZ    C844716   2.741   1.334  18.567  0.0343  0.1501 -0.0801
    21BTZ    C944717   2.731   1.591  18.452  0.2991  0.1586 -0.0849
    21BTZ   C1044718   2.690   1.486  18.374  0.1259  0.2067 -0.0592
    21BTZ   C1144719   2.694   1.354  18.429 -0.0123  0.2039 -0.0563
    21BTZ    N244720   2.741   1.208  18.611 -0.1017  0.1508 -0.0758
    21BTZ    N344721   2.657   1.244  18.363 -0.1857  0.2478 -0.0334
    21BTZ    S344722   2.681   1.108  18.476 -0.2991  0.2217 -0.0406
    31IDT   C1244723   2.620   1.524  18.248 -0.6143 -0.3167  0.1895
    31IDT   C1344724   2.525   1.453  18.180 -0.7334 -0.0999  0.1273
    31IDT   C1444725   2.481   1.519  18.061 -0.3575 -0.0901 -0.0105
    31IDT   C1544726   2.542   1.640  18.038  0.0498 -0.2989 -0.0533
    31IDT    S444727   2.661   1.681  18.166 -0.0117 -0.5261  0.0771
    4IDB    C1644728   2.481   1.699  17.916  0.2796  0.0434 -0.1909
    4IDB    C1744729   2.395   1.602  17.856 -0.1965  0.1890  0.2408
    51IDQ   C1844730   2.400   1.477  17.939  0.7957  0.6420 -0.4321
    4IDB    C1944731   2.320   1.634  17.743 -0.4844  0.2264  0.4413
    51IDQ   C2044732   2.235   1.451  17.951  0.6330  0.2519  0.3723
    51IDQ   C2144733   2.467   1.341  17.876 -0.2609 -0.8051  0.3532
    51IDQ   C2244734   2.549   1.359  17.745  0.0418 -0.2979 -0.9296
    51IDQ   C2344735   2.153   1.497  18.072 -0.9950  0.0488 -0.0881
    51IDQ   C2444736   2.624   1.229  17.718  0.2199 -0.7507 -1.0786
    51IDQ   C2544737   2.730   1.244  17.619 -0.7584  0.2330  0.8033
    51IDQ   C2644738   2.762   1.120  17.538 -0.5391  0.8272  0.5502
    51IDQ   C2744739   2.905   1.068  17.525 -0.7199 -0.0590  1.2659
    51IDQ   C2844740   3.008   1.172  17.484 -0.3463 -0.9711 -0.0528
    51IDQ   C2944741   3.010   1.220  17.331 -0.3747  0.1858  0.5817
    51IDQ   C3044742   2.005   1.454  18.068 -0.3160 -0.0488  0.2301
    51IDQ   C3144743   1.913   1.538  18.151  0.2133 -0.5935  0.2548
    51IDQ   C3244744   1.766   1.499  18.178  0.7158 -0.3760  0.8462
    51IDQ   C3344745   1.671   1.486  18.066  0.7517 -0.1858  1.6812
    51IDQ   C3444746   1.536   1.453  18.121  0.9556 -0.6931 -0.2362
    51IDQ   C3544747   1.455   1.570  18.167 -0.2860 -0.7930  0.4542
    4IDB    C3644748   2.493   1.829  17.864  0.4712 -0.0662 -0.4263
    4IDB    C3744749   2.415   1.859  17.748  0.1716 -0.0259 -0.2155
    11RH    C3844750   2.804   1.479  19.365  0.0576 -0.3007 -0.0621
    4IDB    C3944751   2.331   1.763  17.691 -0.2929  0.1168  0.2064
    62IDT   C4044752   2.249   1.822  17.583  0.9876  0.4782 -0.4757
    72IDQ   C4144753   2.413   1.982  17.657  0.2233 -0.2925 -0.0363
    62IDT   C4244754   2.289   1.954  17.571  0.9648  0.4547 -0.8187
    72IDQ   C4344755   2.550   2.010  17.582 -0.4157 -0.2324 -0.2344
    72IDQ   C4444756   2.352   2.112  17.724  0.4831  0.6643 -0.1737
    62IDT    S544757   2.126   1.778  17.460  0.4883  0.3263  0.0700
    62IDT   C4544758   2.136   1.947  17.395  0.2642  0.2345 -0.2078
    62IDT   C4644759   2.225   2.025  17.464  0.5559  0.3170 -0.6671
    82BTZ   C4744760   2.068   1.990  17.270  0.0025  0.7624  0.7010
    82BTZ   C4844761   1.953   1.923  17.237 -0.0009  0.6433  0.9565
    82BTZ   C4944762   1.880   1.951  17.116  0.0040  0.1820  0.8430
    82BTZ   C5044763   1.923   2.046  17.027  0.0121 -0.1596  0.4754
    82BTZ   C5144764   2.116   2.091  17.180  0.0110  0.4169  0.3123
    82BTZ   C5244765   2.042   2.119  17.056  0.0159 -0.0520  0.1974
    92RH    C5344766   1.845   2.089  16.912 -0.1047 -0.0866  0.2926
    82BTZ    N444767   2.227   2.163  17.200  0.0148  0.4910  0.0381
    82BTZ    N544768   2.093   2.214  16.978  0.0237 -0.3548 -0.1688
    82BTZ    S644769   2.241   2.273  17.060  0.0252 -0.0470 -0.3875
    92RH    C5444770   1.720   2.063  16.872 -0.1079 -0.1153  0.3209
    92RH     S744771   1.605   1.940  16.944 -0.1817  0.0943  0.5656
    92RH    C5544772   1.654   2.134  16.760 -0.0499 -0.3291  0.1512
    92RH     O244773   1.706   2.223  16.690  0.0072 -0.5035 -0.0324
    92RH     N644774   1.523   2.087  16.740 -0.0675 -0.3120  0.2255
    92RH    C5644775   1.475   1.987  16.822 -0.1324 -0.1106  0.4325
    92RH    C5744776   1.435   2.158  16.640  0.0112 -0.4841 -0.7653
    92RH    C5844777   1.427   2.106  16.503 -0.1974 -0.0503  0.5591
    92RH     S844778   1.323   1.914  16.819 -0.1660 -0.0466  0.5579
    72IDQ   C5944779   2.451   2.184  17.827 -0.0163  0.7896 -0.2707
    72IDQ   C6044780   2.410   2.318  17.863  0.2537  0.0756  0.6029
    72IDQ   C6144781   2.530   2.407  17.880 -0.0103 -0.5465  0.8836
    72IDQ   C6244782   2.512   2.534  17.964 -0.1699  0.0054 -0.0605
    72IDQ   C6344783   2.638   2.581  18.046  0.5199  0.3323 -0.4145
    72IDQ   C6444784   2.734   2.481  18.121 -0.3979  0.1413  1.2089
    72IDQ   C6544785   2.888   2.536  18.153  1.3034 -0.2782 -1.1373
    72IDQ   C6644786   2.584   2.099  17.453 -0.3489 -0.0187  1.1239
    72IDQ   C6744787   2.740   2.098  17.405 -0.0242 -0.3265 -0.4908
    72IDQ   C6844788   2.861   2.120  17.501  0.9301 -1.0879 -0.1672
    72IDQ   C6944789   2.832   2.235  17.604 -0.0941  0.0336  0.3369
    72IDQ   C7044790   2.935   2.256  17.721  0.8584  1.2573 -0.8499
    72IDQ   C7144791   2.942   2.141  17.837  0.5043 -1.2105  1.2698
    72IDQ   C7244792   3.036   2.145  17.952 -0.0522 -0.0073  0.2142
    11RH     C144793   4.489   1.495  23.019 -0.1678  0.1449  0.2933
    11RH     C244794   4.438   1.564  22.898  0.1720 -0.1363 -0.0191
    11RH     N144795   4.390   1.415  23.079 -0.3130  0.2124  0.1424
    11RH     S144796   4.262   1.520  22.872  0.2782 -0.2938 -0.4890
    11RH     C344797   4.265   1.412  23.022 -0.1312  0.0195 -0.2513
    11RH     C444798   4.428   1.340  23.197  0.4356 -0.8071  0.3614
    11RH     S244799   4.129   1.326  23.073 -0.2459  0.0481 -0.5021
    11RH     O144800   4.605   1.503  23.063 -0.3124  0.3054  0.6428
    11RH     C544801   4.512   1.646  22.823  0.3639 -0.2503  0.0462
    21BTZ    C644802   4.507   1.702  22.687  0.0945  0.3941  0.0288
    21BTZ    C744803   4.414   1.669  22.593  0.0573  0.3375  0.0858
    21BTZ    C844804   4.613   1.792  22.651  0.1372  0.2935 -0.0944
    21BTZ    C944805   4.419   1.721  22.459  0.0604  0.1803  0.0238
    21BTZ   C1044806   4.519   1.807  22.419  0.1005  0.0799 -0.0943
    21BTZ   C1144807   4.619   1.845  22.514  0.1404  0.1337 -0.1574
    21BTZ    N244808   4.710   1.831  22.734  0.1756  0.3351 -0.1593
    21BTZ    N344809   4.720   1.928  22.488  0.1813  0.0469 -0.2723
    21BTZ    S344810   4.815   1.941  22.639  0.2183  0.1683 -0.3057
    31IDT   C1244811   4.515   1.844  22.276  0.2706 -0.1978  0.2625
    31IDT   C1344812   4.556   1.957  22.208  0.3510 -0.1855  0.3300
    31IDT   C1444813   4.540   1.945  22.067  0.3963 -0.1104  0.3181
    31IDT   C1544814   4.488   1.824  22.026  0.3511 -0.0651  0.2419
    31IDT    S444815   4.454   1.714  22.165  0.2466 -0.1144  0.1783
    4IDB    C1644816   4.473   1.820  21.876 -0.1118 -0.3696 -0.5227
    4IDB    C1744817   4.540   1.934  21.821 -0.4835  0.0193 -0.1893
    51IDQ   C1844818   4.568   2.029  21.941 -1.5070 -0.4239  0.4015
    4IDB    C1944819   4.552   1.950  21.684 -0.2363  0.2870 -0.1385
    51IDQ   C2044820   4.725   2.083  21.927 -0.0428  0.8382 -0.1100
    51IDQ   C2144821   4.481   2.159  21.942  0.4252  0.5946  0.2625
    51IDQ   C2244822   4.361   2.178  21.853 -0.4614  0.2092  0.0573
    51IDQ   C2344823   4.833   2.029  22.033  0.2727  0.2663 -0.3461
    51IDQ   C2444824   4.249   2.217  21.946 -0.0466 -0.1334  0.0083
    51IDQ   C2544825   4.114   2.272  21.902  0.3002  0.3981  0.7070
    51IDQ   C2644826   4.064   2.398  21.978 -0.5108  0.5167 -0.3010
    51IDQ   C2744827   4.050   2.514  21.887 -0.1604  0.0715 -0.1015
    51IDQ   C2844828   3.955   2.603  21.970  1.0118  0.5059  0.8716
    51IDQ   C2944829   3.928   2.739  21.904 -0.4172  0.1662 -1.0705
    51IDQ   C3044830   4.889   2.161  22.080  0.6457  0.3548 -0.0373
    51IDQ   C3144831   4.909   2.181  22.231  0.1374  0.3748  0.5669
    51IDQ   C3244832   4.957   2.320  22.278  0.1534 -0.2728  0.1868
    51IDQ   C3344833   5.070   2.392  22.200  1.3718 -0.5270  0.9967
    51IDQ   C3444834   5.198   2.355  22.270 -0.3068  0.4901  0.5146
    51IDQ   C3544835   5.254   2.460  22.365 -0.4412 -0.2181 -0.2027
    4IDB    C3644836   4.417   1.722  21.793  0.5133 -0.4937 -0.8097
    4IDB    C3744837   4.430   1.740  21.653  0.7581 -0.2162 -0.7524
    11RH    C3844838   4.463   1.195  23.169  0.1671 -0.4397  0.2744
    4IDB    C3944839   4.496   1.851  21.601  0.3889  0.1629 -0.4251
    62IDT   C4044840   4.486   1.853  21.455 -0.2243  0.3782  0.3512
    72IDQ   C4144841   4.373   1.662  21.531  0.6511  0.4333  0.0066
    62IDT   C4244842   4.408   1.747  21.414 -0.8343  0.7538  0.5088
    72IDQ   C4344843   4.211   1.634  21.544 -0.4156  1.0762 -0.4502
    72IDQ   C4444844   4.435   1.518  21.541 -0.3637 -0.2119 -0.2067
    62IDT    S544845   4.527   1.962  21.318  0.4256 -0.0659  0.1839
    62IDT   C4544846   4.432   1.853  21.208 -0.1919  0.2974  0.3446
    62IDT   C4644847   4.378   1.746  21.275 -0.8172  0.7086  0.5059
    82BTZ   C4744848   4.456   1.865  21.061  0.0470  0.2145  0.0565
    82BTZ   C4844849   4.565   1.937  21.019 -0.0257  0.2767 -0.0281
    82BTZ   C4944850   4.598   1.950  20.879 -0.0767  0.2009 -0.0477
    82BTZ   C5044851   4.522   1.892  20.781 -0.0546  0.0629  0.0174
    82BTZ   C5144852   4.373   1.802  20.962  0.0730  0.0701  0.1264
    82BTZ   C5244853   4.407   1.815  20.820  0.0212 -0.0070  0.1068
    92RH    C5344854   4.545   1.896  20.645  0.0353  0.2062  0.3226
    82BTZ    N444855   4.265   1.730  20.990  0.1425 -0.0021  0.2112
    82BTZ    N544856   4.326   1.754  20.734  0.0491 -0.1411  0.1760
    82BTZ    S644857   4.200   1.674  20.833  0.1448 -0.1752  0.2705
    92RH    C5444858   4.618   1.967  20.558  0.0024  0.0903  0.1974
    92RH     S744859   4.715   2.119  20.595 -0.0989  0.2223 -0.0732
    92RH    C5544860   4.632   1.933  20.415  0.0446 -0.1719  0.2627
    92RH     O244861   4.578   1.836  20.358  0.1140 -0.3127  0.4377
    92RH     N644862   4.714   2.025  20.347 -0.0045 -0.2461  0.1004
    92RH    C5644863   4.769   2.129  20.419 -0.0807 -0.0753 -0.0873
    92RH    C5744864   4.729   2.018  20.196 -0.0326 -0.0487 -0.2048
    92RH    C5844865   4.830   1.932  20.133 -0.4848 -0.8664  0.9171
    92RH     S844866   4.870   2.252  20.363 -0.1503 -0.1162 -0.3037
    72IDQ   C5944867   4.417   1.445  21.406  0.4390  0.7762 -0.4629
    72IDQ   C6044868   4.490   1.304  21.428 -0.0519  0.6756  0.4480
    72IDQ   C6144869   4.463   1.216  21.310 -0.6027 -0.6401 -0.1646
    72IDQ   C6244870   4.488   1.061  21.335  0.0666  0.1038 -0.0187
    72IDQ   C6344871   4.392   1.022  21.447  0.2926 -0.1022 -0.1860
    72IDQ   C6444872   4.434   0.897  21.523 -0.0749  0.1123 -0.2577
    72IDQ   C6544873   4.370   0.882  21.658 -1.0002  0.6933  0.1193
    72IDQ   C6644874   4.114   1.751  21.555 -0.6847  0.4980  0.3056
    72IDQ   C6744875   3.963   1.724  21.555 -0.4471 -0.1417  0.1167
    72IDQ   C6844876   3.880   1.628  21.639 -0.4873 -0.2447 -0.2634
    72IDQ   C6944877   3.731   1.649  21.626 -0.3827 -0.5597 -0.1717
    72IDQ   C7044878   3.653   1.524  21.663  0.2999 -0.3836  0.6444
    72IDQ   C7144879   3.665   1.410  21.554  1.0955 -0.4658  0.3925
    72IDQ   C7244880   3.620   1.277  21.599  0.1389  0.0986  0.5493
    11RH     C144881   3.391   6.972  21.228  0.2374  0.0049  0.0529
    11RH     C244882   3.448   7.051  21.340  0.0836  0.0005  0.1349
    11RH     N144883   3.369   6.838  21.265  0.4787 -0.0722 -0.0829
    11RH     S144884   3.471   6.943  21.486  0.2663 -0.1048  0.0309
    11RH     C344885   3.403   6.799  21.393  0.5369 -0.1380 -0.1173
    11RH     C444886   3.286   6.743  21.174 -0.8148 -0.3283 -0.8968
    11RH     S244887   3.388   6.646  21.463  0.8089 -0.2358 -0.2699
    11RH     O144888   3.363   7.016  21.115  0.1680  0.0677  0.0930
    11RH     C544889   3.478   7.181  21.330 -0.1522  0.0649  0.2667
    21BTZ    C644890   3.539   7.271  21.427 -0.2285  0.0021 -0.2739
    21BTZ    C744891   3.566   7.234  21.556 -0.0279 -0.3159 -0.4044
    21BTZ    C844892   3.578   7.402  21.384 -0.2574  0.0945 -0.0257
    21BTZ    C944893   3.632   7.323  21.648  0.1534 -0.5577 -0.2990
    21BTZ   C1044894   3.671   7.449  21.611  0.1338 -0.4812 -0.0628
    21BTZ   C1144895   3.645   7.492  21.477 -0.0731 -0.1513  0.0815
    21BTZ    N244896   3.557   7.449  21.260 -0.4448  0.3965  0.1197
    21BTZ    N344897   3.679   7.613  21.429 -0.1124 -0.0470  0.3128
    21BTZ    S344898   3.624   7.615  21.259 -0.3925  0.3788  0.4060
    31IDT   C1244899   3.738   7.530  21.718  0.0755  0.5332  0.2841
    31IDT   C1344900   3.776   7.660  21.701 -0.0086  0.6003  0.5856
    31IDT   C1444901   3.810   7.725  21.823 -0.1696  0.3768  0.7510
    31IDT   C1544902   3.799   7.645  21.935 -0.2094  0.1385  0.5775
    31IDT    S444903   3.743   7.479  21.893 -0.0445  0.1790  0.1865
    4IDB    C1644904   3.843   7.709  22.042 -0.6918 -0.3247  0.2311
    4IDB    C1744905   3.888   7.842  22.015 -0.8559 -0.3171 -0.0019
    51IDQ   C1844906   3.865   7.866  21.864 -0.4212 -0.0448 -0.0628
    4IDB    C1944907   3.945   7.920  22.114 -0.6927 -0.1723 -0.2085
    51IDQ   C2044908   3.776   7.993  21.863 -0.9823  0.0287 -0.0291
    51IDQ   C2144909   3.990   7.897  21.770  0.9163  0.0429  0.3198
    51IDQ   C2244910   4.127   7.898  21.823 -1.0345 -0.3223  0.0776
    51IDQ   C2344911   3.641   7.986  21.794 -0.6779  0.7738 -0.5690
    51IDQ   C2444912   4.253   7.941  21.738  0.5255  0.6790 -1.0050
    51IDQ   C2544913   4.371   7.925  21.823 -0.2480 -0.3095  0.4186
    51IDQ   C2644914   4.508   7.944  21.746  0.8385 -0.1182 -0.5427
    51IDQ   C2744915   4.633   7.967  21.848  0.8796  0.6128  0.1762
    51IDQ   C2844916   4.640   8.088  21.943 -0.1504  0.2151  0.7689
    51IDQ   C2944917   4.743   8.082  22.053 -0.0303 -0.5507 -0.0841
    51IDQ   C3044918   3.558   8.104  21.828 -0.1218  0.5081  0.8163
    51IDQ   C3144919   3.433   8.120  21.741  0.3391  0.6323  0.5156
    51IDQ   C3244920   3.406   8.272  21.707  0.2455 -0.0953 -0.8973
    51IDQ   C3344921   3.298   8.305  21.594 -0.1830 -0.0393  0.3579
    51IDQ   C3444922   3.167   8.237  21.597  0.1750  0.1278  0.2185
    51IDQ   C3544923   3.087   8.264  21.722 -0.8384  0.0822  0.0438
    4IDB    C3644924   3.857   7.653  22.170 -0.3613 -0.1864  0.2575
    4IDB    C3744925   3.917   7.734  22.271 -0.1984 -0.0394  0.0443
    11RH    C3844926   3.136   6.784  21.176 -0.2358  0.8747  0.0658
    4IDB    C3944927   3.959   7.864  22.242 -0.3621 -0.0340 -0.1819
    62IDT   C4044928   4.010   7.930  22.358 -0.0587  0.0169  0.4672
    72IDQ   C4144929   3.929   7.708  22.421 -1.5937 -0.1135 -0.6459
    62IDT   C4244930   4.010   7.839  22.461 -0.3871  0.1527  0.5884
    72IDQ   C4344931   4.025   7.588  22.456 -0.0022 -0.7912 -1.0397
    72IDQ   C4444932   3.797   7.702  22.504  0.1960  0.0675 -0.5555
    62IDT    S544933   4.101   8.080  22.399  0.0212 -0.0314  0.4672
    62IDT   C4544934   4.136   8.008  22.563 -0.4145  0.1431  0.6386
    62IDT   C4644935   4.081   7.883  22.577 -0.5888  0.2242  0.6852
    82BTZ   C4744936   4.244   8.074  22.648  0.2383 -0.5382 -0.0552
    82BTZ   C4844937   4.266   8.206  22.620  0.1715 -0.5665 -0.2437
    82BTZ   C4944938   4.372   8.281  22.683  0.2087 -0.4534 -0.4373
    82BTZ   C5044939   4.456   8.223  22.774  0.3123 -0.3122 -0.4416
    82BTZ   C5144940   4.329   8.009  22.743  0.3475 -0.3920 -0.0525
    82BTZ   C5244941   4.437   8.084  22.807  0.3853 -0.2771 -0.2494
    92RH    C5344942   4.571   8.286  22.840 -0.1436  0.0284 -0.1038
    82BTZ    N444943   4.318   7.881  22.778  0.4200 -0.3510  0.1206
    82BTZ    N544944   4.513   8.017  22.894  0.4880 -0.1438 -0.2341
    82BTZ    S644945   4.447   7.850  22.898  0.5420 -0.1598  0.0370
    92RH    C5444946   4.631   8.405  22.826 -0.2009  0.0626 -0.0629
    92RH     S744947   4.591   8.534  22.702 -0.0740 -0.0322 -0.2030
    92RH    C5544948   4.743   8.450  22.912 -0.3824  0.1871  0.1101
    92RH     O244949   4.794   8.386  23.005 -0.5008  0.2728  0.2346
    92RH     N644950   4.788   8.579  22.875 -0.4067  0.1978  0.1187
    92RH    C5644951   4.725   8.642  22.770 -0.2669  0.0972 -0.0272
    92RH    C5744952   4.895   8.655  22.960  0.5896 -0.0147 -0.0369
    92RH    C5844953   5.031   8.660  22.895 -1.0044 -0.0242  0.5260
    92RH     S844954   4.758   8.795  22.706 -0.2611  0.0859 -0.0515
    72IDQ   C5944955   3.792   7.660  22.659  0.3698 -0.2014  0.1231
    72IDQ   C6044956   3.658   7.634  22.722 -0.5528  0.6336 -0.9163
    72IDQ   C6144957   3.536   7.717  22.690  0.2308 -0.3410 -0.2025
    72IDQ   C6244958   3.541   7.863  22.730 -0.1568 -0.3089  0.4413
    72IDQ   C6344959   3.445   7.976  22.686  0.5097 -0.8637  0.0796
    72IDQ   C6444960   3.451   8.130  22.734  1.1732  0.3014  0.7019
    72IDQ   C6544961   3.388   8.139  22.866 -0.3826 -0.5197  0.0191
    72IDQ   C6644962   4.011   7.447  22.429  1.5240  0.1957  0.1888
    72IDQ   C6744963   3.905   7.362  22.509  0.3063  0.2377  0.3035
    72IDQ   C6844964   3.892   7.222  22.453 -0.8721  0.2652 -0.1723
    72IDQ   C6944965   3.794   7.126  22.526  0.0445  1.0899 -0.4695
    72IDQ   C7044966   3.647   7.125  22.472  0.1353  0.0678 -0.0549
    72IDQ   C7144967   3.540   7.209  22.543  0.5046  1.1028 -0.2826
    72IDQ   C7244968   3.402   7.159  22.495  0.5690 -0.1697  0.0392
    11RH     C144969   4.067   3.358  20.698  0.2296  0.0694  0.0181
    11RH     C244970   4.209   3.321  20.676  0.2637  0.0775  0.2270
    11RH     N144971   3.988   3.246  20.731  0.1987  0.0754 -0.0342
    11RH     S144972   4.230   3.140  20.702  0.2532  0.0924  0.3417
    11RH     C344973   4.050   3.123  20.739  0.2041  0.0873  0.1082
    11RH     C444974   3.843   3.261  20.755  0.6553 -0.2960 -1.2124
    11RH     S244975   3.980   2.975  20.777  0.1721  0.0963  0.0849
    11RH     O144976   4.020   3.473  20.688  0.2275  0.0587 -0.1001
    11RH     C544977   4.304   3.409  20.643  0.2969  0.0741  0.3124
    21BTZ    C644978   4.448   3.405  20.630 -0.5322  0.1113 -0.5058
    21BTZ    C744979   4.519   3.290  20.652 -0.7081  0.0713 -0.1287
    21BTZ    C844980   4.518   3.522  20.585 -0.2745 -0.0111 -0.4249
    21BTZ    C944981   4.661   3.283  20.630 -0.6403 -0.0897  0.3443
    21BTZ   C1044982   4.733   3.392  20.587 -0.3967 -0.2106  0.4387
    21BTZ   C1144983   4.663   3.515  20.563 -0.2056 -0.1748  0.0558
    21BTZ    N244984   4.460   3.640  20.560 -0.0862  0.0129 -0.7639
    21BTZ    N344985   4.721   3.627  20.520  0.0380 -0.2824  0.1030
    21BTZ    S344986   4.591   3.749  20.506  0.1928 -0.1766 -0.4761
    31IDT   C1244987   4.878   3.378  20.581 -0.0489 -0.2798  0.0014
    31IDT   C1344988   4.971   3.478  20.594 -0.2053 -0.0784 -0.3958
    31IDT   C1444989   5.105   3.428  20.607 -0.0823  0.1970 -0.5798
    31IDT   C1544990   5.114   3.290  20.604  0.1683  0.2075 -0.3245
    31IDT    S444991   4.953   3.212  20.585  0.2686 -0.1339  0.1727
    4IDB    C1644992   5.246   3.248  20.614 -0.0637 -0.2298 -0.2012
    4IDB    C1744993   5.333   3.361  20.628 -0.1469 -0.1702 -0.1602
    51IDQ   C1844994   5.246   3.491  20.628  1.2179  0.9753 -0.3906
    4IDB    C1944995   5.470   3.344  20.641 -0.1425 -0.0762 -0.0900
    51IDQ   C2044996   5.272   3.573  20.761 -0.0118 -0.5850 -0.2796
    51IDQ   C2144997   5.261   3.597  20.514  0.1377  1.1732  0.3973
    51IDQ   C2244998   5.331   3.554  20.383 -0.4043  0.6220  1.1054
    51IDQ   C2344999   5.169   3.612  20.870 -0.4497  0.2991 -0.1219
    51IDQ   C2445000   5.270   3.451  20.285 -0.6045  0.4310  0.7952
    51IDQ   C2545001   5.153   3.501  20.202  1.1259  0.1995 -0.1621
    51IDQ   C2645002   5.091   3.400  20.103 -0.2504  1.3304  0.4945
    51IDQ   C2745003   4.956   3.455  20.038 -0.8838  0.2043  0.7456
    51IDQ   C2845004   4.852   3.528  20.112  1.2626 -0.2088 -0.8848
    51IDQ   C2945005   4.729   3.431  20.125  0.0803 -0.0848 -0.9347
    51IDQ   C3045006   5.092   3.512  20.944 -0.0423 -0.7241 -0.6353
    51IDQ   C3145007   4.992   3.599  21.023  0.0041  0.1215 -0.1303
    51IDQ   C3245008   4.927   3.538  21.147  0.7219 -0.8930 -0.4569
    51IDQ   C3345009   4.874   3.398  21.135 -0.7945  1.2303  0.6004
    51IDQ   C3445010   4.740   3.388  21.057 -0.2474  1.1219 -0.7141
    51IDQ   C3545011   4.715   3.235  21.036 -0.3701 -0.6366 -0.8615
    4IDB    C3645012   5.296   3.117  20.615  0.0253 -0.1954 -0.1717
    4IDB    C3745013   5.437   3.102  20.629  0.0286 -0.0992 -0.0997
    11RH    C3845014   3.800   3.262  20.904  0.7917 -0.0679 -0.2830
    4IDB    C3945015   5.520   3.213  20.642 -0.0533 -0.0418 -0.0609
    62IDT   C4045016   5.656   3.165  20.654  0.4154 -0.5629 -0.2217
    72IDQ   C4145017   5.517   2.971  20.649 -0.5431 -0.0175  0.6820
    62IDT   C4245018   5.663   3.029  20.676  0.8892 -0.4999  0.0415
    72IDQ   C4345019   5.525   2.896  20.510  0.8985  0.9868  1.2012
    72IDQ   C4445020   5.448   2.872  20.747 -0.3259 -0.2030  0.5914
    62IDT    S545021   5.814   3.246  20.680  0.1446  0.0381 -0.3982
    62IDT   C4545022   5.885   3.084  20.722  0.7137  0.3583 -0.0914
    62IDT   C4645023   5.792   2.983  20.714  1.0586  0.0208  0.1149
    82BTZ   C4745024   6.034   3.069  20.755  0.2559  0.3758  0.3261
    82BTZ   C4845025   6.104   3.185  20.732  0.3846  0.2674  0.1678
    82BTZ   C4945026   6.247   3.191  20.748  0.4315  0.0475 -0.1473
    82BTZ   C5045027   6.320   3.082  20.787  0.3498 -0.0634 -0.3039
    82BTZ   C5145028   6.106   2.952  20.796  0.1667  0.2665  0.1726
    82BTZ   C5245029   6.252   2.959  20.812  0.2143  0.0430 -0.1478
    92RH    C5345030   6.467   3.079  20.808  0.0378 -0.3243  0.2894
    82BTZ    N445031   6.049   2.834  20.821  0.0391  0.3550  0.3028
    82BTZ    N545032   6.312   2.846  20.850  0.1252 -0.0482 -0.2751
    82BTZ    S645033   6.182   2.724  20.867 -0.0267  0.1521  0.0154
    92RH    C5445034   6.560   3.174  20.793  0.0114 -0.2910  0.3352
    92RH     S745035   6.534   3.345  20.730  0.0266 -0.3870  0.0632
    92RH    C5545036   6.704   3.154  20.825 -0.0358 -0.1667  0.6251
    92RH     O245037   6.754   3.050  20.870 -0.0563 -0.0804  0.8550
    92RH     N645038   6.779   3.271  20.800 -0.0557 -0.1570  0.6109
    92RH    C5645039   6.713   3.382  20.751 -0.0303 -0.2584  0.3457
    92RH    C5745040   6.928   3.276  20.839  0.1448 -0.1352 -0.8459
    92RH    C5845041   6.969   3.328  20.973  0.1069 -0.6759  0.0710
    92RH     S845042   6.779   3.532  20.712 -0.0460 -0.2710  0.2699
    72IDQ   C5945043   5.530   2.812  20.865  0.4691 -0.0822 -0.3468
    72IDQ   C6045044   5.542   2.912  20.978  0.1080  0.3400 -1.3807
    72IDQ   C6145045   5.640   2.848  21.094  1.4017  0.4647  0.2079
    72IDQ   C6245046   5.656   2.928  21.233  0.9087 -0.0607  0.6931
    72IDQ   C6345047   5.526   2.916  21.316  0.2986  1.3428 -0.7242
    72IDQ   C6445048   5.551   2.963  21.461 -0.9094  0.2236  0.4491
    72IDQ   C6545049   5.663   2.895  21.535  0.4516 -0.1084 -1.7545
    72IDQ   C6645050   5.641   2.912  20.417 -1.1376 -0.2728 -0.1606
    72IDQ   C6745051   5.637   2.833  20.294  0.6456  0.5817  0.3463
    72IDQ   C6845052   5.775   2.828  20.223  0.7955  0.0925  0.0412
    72IDQ   C6945053   5.889   2.744  20.290  0.9318 -0.9350 -0.9800
    72IDQ   C7045054   6.025   2.778  20.251  0.0608  0.1577  0.9035
    72IDQ   C7145055   6.146   2.716  20.317  0.0110  0.2149 -0.1742
    72IDQ   C7245056   6.276   2.729  20.243  0.3405 -0.2803 -1.1745
    11RH     C145057   7.389   2.898  27.029 -0.1698  0.1048  0.5970
    11RH     C245058   7.488   2.964  26.940 -0.2310 -0.1833  0.3119
    11RH     N145059   7.324   2.992  27.112 -0.1194  0.3799  0.3303
    11RH     S145060   7.489   3.145  26.972 -0.2183 -0.0735 -0.2899
    11RH     C345061   7.359   3.125  27.101 -0.1328  0.3476 -0.1345
    11RH     C445062   7.230   2.943  27.221 -0.6795 -0.1675  0.7209
    11RH     S245063   7.297   3.256  27.187 -0.0819  0.6354 -0.5264
    11RH     O145064   7.364   2.777  27.032 -0.1622  0.1105  1.0185
    11RH     C545065   7.563   2.898  26.852 -0.2861 -0.4750  0.4807
    21BTZ    C645066   7.679   2.921  26.758 -0.1229 -0.1046  0.2954
    21BTZ    C745067   7.752   3.037  26.750 -0.1798 -0.0610  0.4139
    21BTZ    C845068   7.705   2.817  26.663 -0.0372 -0.0141  0.2193
    21BTZ    C945069   7.854   3.056  26.650 -0.1555  0.0730  0.4644
    21BTZ   C1045070   7.882   2.959  26.557 -0.0743  0.1631  0.3951
    21BTZ   C1145071   7.809   2.836  26.560 -0.0124  0.1221  0.2704
    21BTZ    N245072   7.641   2.700  26.660  0.0239 -0.0449  0.1025
    21BTZ    N345073   7.827   2.735  26.475  0.0685  0.2008  0.1936
    21BTZ    S345074   7.711   2.608  26.523  0.1176  0.1020  0.0512
    31IDT   C1245075   7.989   2.995  26.460  0.0803  0.4585  0.1597
    31IDT   C1345076   8.070   2.914  26.387  0.0469  0.3016  0.2952
    31IDT   C1445077   8.157   2.986  26.300 -0.2972  0.1078 -0.2222
    31IDT   C1545078   8.143   3.123  26.307 -0.5279  0.1157 -0.7533
    31IDT    S445079   8.017   3.171  26.425 -0.3254  0.3716 -0.6392
    4IDB    C1645080   8.240   3.182  26.220 -0.1415 -0.4711 -0.4930
    4IDB    C1745081   8.328   3.082  26.170  0.1826 -0.3721 -0.1369
    51IDQ   C1845082   8.273   2.945  26.211  0.8000  0.2229  0.9715
    4IDB    C1945083   8.442   3.116  26.099  0.2028 -0.2496 -0.0450
    51IDQ   C2045084   8.217   2.867  26.088  0.2027  0.2143  0.0709
    51IDQ   C2145085   8.360   2.844  26.303 -0.0584 -0.2012  1.1681
    51IDQ   C2245086   8.498   2.889  26.359 -0.2347  0.4855  0.0057
    51IDQ   C2345087   8.061   2.842  26.072  0.3347  0.7084  0.4087
    51IDQ   C2445088   8.565   2.787  26.449 -0.2159  0.6918 -0.1365
    51IDQ   C2545089   8.678   2.829  26.547  0.2223  0.0088  0.2403
    51IDQ   C2645090   8.728   2.726  26.643 -0.4241  0.8533 -0.3584
    51IDQ   C2745091   8.804   2.790  26.757 -0.5003  1.5015 -0.0049
    51IDQ   C2845092   8.866   2.702  26.859 -0.9304  1.1035  0.5721
    51IDQ   C2945093   8.945   2.767  26.970 -1.1402  0.1974 -0.1448
    51IDQ   C3045094   8.005   2.751  25.952 -0.4294  0.4926 -0.7806
    51IDQ   C3145095   8.077   2.759  25.819  0.0235  0.2125 -0.7225
    51IDQ   C3245096   8.063   2.622  25.752  0.6330 -0.4090  0.3781
    51IDQ   C3345097   8.151   2.646  25.631 -0.5840  0.3220  0.3659
    51IDQ   C3445098   8.179   2.542  25.520 -0.1262 -0.4394 -0.5135
    51IDQ   C3545099   8.129   2.581  25.381  0.1457 -0.2623  0.4253
    4IDB    C3645100   8.267   3.319  26.200 -0.4490 -0.4481 -0.7625
    4IDB    C3745101   8.385   3.351  26.127 -0.4233 -0.3225 -0.6642
    11RH    C3845102   7.082   2.962  27.196  0.4495 -0.2379  0.1377
    4IDB    C3945103   8.469   3.252  26.079 -0.1047 -0.2266 -0.3139
    62IDT   C4045104   8.583   3.314  26.011  0.3474 -0.3579 -0.0618
    72IDQ   C4145105   8.441   3.488  26.087 -0.2481 -0.7021 -0.8146
    62IDT   C4245106   8.570   3.451  26.015  0.1967 -0.3790  0.1659
    72IDQ   C4345107   8.451   3.593  26.209 -0.0498 -0.5834 -0.7060
    72IDQ   C4445108   8.347   3.554  25.979 -0.4201  0.3369  0.8396
    62IDT    S545109   8.736   3.264  25.931  0.4043 -0.0579 -0.1435
    62IDT   C4545110   8.776   3.440  25.907  0.2118  0.0273  0.1489
    62IDT   C4645111   8.679   3.522  25.956  0.1197 -0.1613  0.2851
    82BTZ   C4745112   8.893   3.476  25.823 -0.2721  0.1906 -0.2300
    82BTZ   C4845113   8.960   3.378  25.755 -0.1650  0.1649 -0.0873
    82BTZ   C4945114   9.076   3.406  25.675 -0.0264  0.1314  0.1006
    82BTZ   C5045115   9.126   3.533  25.662  0.0049  0.1237  0.1446
    82BTZ   C5145116   8.941   3.611  25.812 -0.2446  0.1839 -0.1907
    82BTZ   C5245117   9.059   3.640  25.731 -0.1037  0.1498  0.0000
    92RH    C5345118   9.243   3.569  25.577 -0.0693 -0.2430 -0.2275
    82BTZ    N445119   8.885   3.716  25.873 -0.3402  0.2068 -0.3181
    82BTZ    N545120   9.098   3.768  25.726 -0.0861  0.1454  0.0262
    82BTZ    S645121   8.982   3.859  25.828 -0.2523  0.1856 -0.1968
    92RH    C5445122   9.332   3.497  25.508  0.0050 -0.1575 -0.2227
    92RH     S745123   9.340   3.314  25.498 -0.0858 -0.1432 -0.5740
    92RH    C5545124   9.441   3.556  25.427  0.1784 -0.0582  0.0820
    92RH     O245125   9.463   3.678  25.413  0.2736 -0.0424  0.3610
    92RH     N645126   9.520   3.457  25.365  0.2248  0.0187  0.0156
    92RH    C5645127   9.487   3.325  25.387  0.1096 -0.0067 -0.3042
    92RH    C5745128   9.627   3.483  25.273 -0.8988  0.7399 -0.4241
    92RH    C5845129   9.785   3.487  25.320  0.5986  0.0352  0.0321
    92RH     S845130   9.564   3.188  25.326  0.1332  0.0701 -0.4473
    72IDQ   C5945131   8.352   3.697  25.924 -0.3482 -0.6018  0.0417
    72IDQ   C6045132   8.232   3.801  25.941  0.2330 -0.2503 -0.0821
    72IDQ   C6145133   8.166   3.802  26.081  0.5022 -1.5074  0.6936
    72IDQ   C6245134   8.027   3.874  26.086 -0.4360  0.1166 -0.6943
    72IDQ   C6345135   7.969   3.883  26.227  0.0558 -0.6417  0.1731
    72IDQ   C6445136   7.848   3.963  26.211  0.8790  0.6456  0.1914
    72IDQ   C6545137   7.778   3.984  26.337  0.8162 -0.2725 -0.2254
    72IDQ   C6645138   8.503   3.539  26.343  0.0560  0.4819  0.7050
    72IDQ   C6745139   8.540   3.652  26.435  0.3825  0.2458 -0.0070
    72IDQ   C6845140   8.686   3.698  26.461  0.0763 -0.4570 -0.2261
    72IDQ   C6945141   8.695   3.806  26.566  0.3592 -0.4779 -0.5057
    72IDQ   C7045142   8.685   3.948  26.528  0.1009 -0.3504 -0.2640
    72IDQ   C7145143   8.808   3.996  26.444  0.1112  0.4699 -0.9213
    72IDQ   C7245144   8.799   4.135  26.405  0.4046 -0.7149 -1.4389
    11RH     C145145   1.310   0.490  18.047 -0.1406 -0.1482 -0.0939
    11RH     C245146   1.205   0.576  18.106 -0.0968 -0.1990  0.0567
    11RH     N145147   1.425   0.564  18.012 -0.1213 -0.1367 -0.0078
    11RH     S145148   1.264   0.750  18.112 -0.0331 -0.2285  0.3042
    11RH     C345149   1.424   0.700  18.036 -0.0674 -0.1722  0.1960
    11RH     C445150   1.543   0.499  17.959  0.0656  0.8800  0.5506
    11RH     S245151   1.547   0.811  18.004 -0.0345 -0.1679  0.3343
    11RH     O145152   1.301   0.367  18.029 -0.1884 -0.1186 -0.2761
    11RH     C545153   1.087   0.530  18.148 -0.1042 -0.2191  0.0138
    21BTZ    C645154   0.974   0.587  18.215  0.0439 -0.0919  0.0233
    21BTZ    C745155   0.975   0.716  18.260 -0.0741 -0.0671 -0.0415
    21BTZ    C845156   0.858   0.506  18.240  0.0941 -0.1672  0.0138
    21BTZ    C945157   0.864   0.772  18.333 -0.1483 -0.1148 -0.1183
    21BTZ   C1045158   0.751   0.699  18.359 -0.1044 -0.1872 -0.1302
    21BTZ   C1145159   0.745   0.563  18.313  0.0186 -0.2157 -0.0644
    21BTZ    N245160   0.844   0.379  18.200  0.2077 -0.1978  0.0725
    21BTZ    N345161   0.640   0.482  18.333  0.0716 -0.2852 -0.0687
    21BTZ    S345162   0.683   0.326  18.257  0.2234 -0.2917  0.0294
    31IDT   C1245163   0.644   0.779  18.434 -0.3329 -0.0024 -0.1680
    31IDT   C1345164   0.511   0.747  18.443 -0.3220  0.0212  0.0873
    31IDT   C1445165   0.434   0.846  18.511 -0.1610 -0.0029  0.3066
    31IDT   C1545166   0.508   0.955  18.554 -0.0484 -0.0448  0.2192
    31IDT    S445167   0.682   0.939  18.511 -0.1383 -0.0572 -0.1489
    4IDB    C1645168   0.421   1.045  18.622 -0.6662  0.2221 -0.7647
    4IDB    C1745169   0.288   0.992  18.629 -0.5089 -0.1095 -0.1717
    51IDQ   C1845170   0.287   0.861  18.544  1.3918  0.5442 -1.0407
    4IDB    C1945171   0.188   1.059  18.698 -0.3919 -0.3210  0.2096
    51IDQ   C2045172   0.227   0.726  18.616  0.2858 -0.6012  0.6373
    51IDQ   C2145173   0.200   0.888  18.408 -0.5071  0.5767 -0.5402
    51IDQ   C2245174   0.144   1.030  18.356  0.6461  0.8017 -0.2714
    51IDQ   C2345175   0.315   0.617  18.678  0.1496  1.2931 -0.5604
    51IDQ   C2445176   0.252   1.132  18.300  0.7375  0.8584 -1.2220
    51IDQ   C2545177   0.355   1.093  18.204 -1.0396  0.4517  0.0393
    51IDQ   C2645178   0.474   1.182  18.183  0.8605 -0.7809  0.4118
    51IDQ   C2745179   0.572   1.110  18.103  0.2993  0.2068  0.4471
    51IDQ   C2845180   0.720   1.138  18.129 -0.1616 -0.3575 -0.2744
    51IDQ   C2945181   0.798   1.089  18.007 -0.3879 -0.5313  0.5390
    51IDQ   C3045182   0.397   0.651  18.798  0.8551  0.4993 -0.2958
    51IDQ   C3145183   0.334   0.686  18.939 -0.3552  0.8140  0.0315
    51IDQ   C3245184   0.449   0.733  19.034 -0.9332 -0.6503  0.1430
    51IDQ   C3345185   0.386   0.733  19.174 -0.8205  0.1416 -0.4903
    51IDQ   C3445186   0.471   0.732  19.296 -0.2120 -0.2116 -0.3964
    51IDQ   C3545187   0.524   0.596  19.326 -0.3406  0.0521 -0.3159
    4IDB    C3645188   0.453   1.167  18.685 -0.7076  0.3448 -0.9794
    4IDB    C3745189   0.349   1.234  18.755 -0.5865  0.1251 -0.5827
    11RH    C3845190   1.639   0.442  18.066  0.5899 -0.8879  0.8804
    4IDB    C3945191   0.220   1.180  18.760 -0.4333 -0.1983 -0.0053
    62IDT   C4045192   0.126   1.276  18.812 -0.2888  0.0490 -0.4619
    72IDQ   C4145193   0.351   1.368  18.827 -0.0042 -0.5967  0.8211
    62IDT   C4245194   0.198   1.382  18.861 -0.1838  0.2149 -0.9623
    72IDQ   C4345195   0.396   1.485  18.720  0.2464 -0.1912 -0.3677
    72IDQ   C4445196   0.450   1.392  18.946  0.1476  0.0615 -0.2088
    62IDT    S545197  -0.051   1.301  18.830 -0.2468 -0.0092  0.0557
    62IDT   C4545198  -0.016   1.462  18.907 -0.0815  0.2042 -0.4558
    62IDT   C4645199   0.119   1.487  18.915 -0.0665  0.3029 -0.9594
    82BTZ   C4745200  -0.121   1.537  18.984  0.6177  0.3105 -0.1624
    82BTZ   C4845201  -0.241   1.470  18.989  0.5951  0.3365 -0.3266
    82BTZ   C4945202  -0.342   1.503  19.087  0.4454  0.3950 -0.4992
    82BTZ   C5045203  -0.323   1.602  19.179  0.3185  0.4273 -0.5086
    82BTZ   C5145204  -0.097   1.642  19.078  0.4883  0.3426 -0.1650
    82BTZ   C5245205  -0.200   1.676  19.177  0.3362  0.4020 -0.3405
    92RH    C5345206  -0.428   1.626  19.282  0.2182 -0.0282  0.3425
    82BTZ    N445207   0.015   1.715  19.083  0.4959  0.3220 -0.0148
    82BTZ    N545208  -0.170   1.775  19.262  0.2215  0.4292 -0.3314
    82BTZ    S645209  -0.006   1.831  19.217  0.3046  0.3789 -0.0933
    92RH    C5445210  -0.551   1.580  19.308  0.1885 -0.0473  0.1702
    92RH     S745211  -0.637   1.442  19.222  0.2083  0.1428 -0.1559
    92RH    C5545212  -0.638   1.634  19.414  0.1332 -0.2322  0.2203
    92RH     O245213  -0.610   1.728  19.491  0.1081 -0.3882  0.4230
    92RH     N645214  -0.762   1.566  19.420  0.1114 -0.2107  0.0053
    92RH    C5645215  -0.784   1.463  19.330  0.1425 -0.0312 -0.2108
    92RH    C5745216  -0.852   1.592  19.527 -0.6606  0.2990 -0.2603
    92RH    C5845217  -0.856   1.489  19.645 -0.0234 -0.2062  0.6526
    92RH     S845218  -0.922   1.367  19.316  0.1261  0.0326 -0.4902
    72IDQ   C5945219   0.485   1.282  19.057 -0.2065 -0.2538  0.1428
    72IDQ   C6045220   0.376   1.232  19.147  0.5532  0.3433 -0.2056
    72IDQ   C6145221   0.430   1.155  19.269 -0.0981 -0.2601  0.5527
    72IDQ   C6245222   0.489   1.251  19.380  0.3203  0.6692 -0.9393
    72IDQ   C6345223   0.583   1.203  19.496  0.3608  0.2682  0.5053
    72IDQ   C6445224   0.661   1.312  19.558  0.2101  0.0459 -0.6935
    72IDQ   C6545225   0.589   1.418  19.653 -0.3472 -0.0002  0.1710
    72IDQ   C6645226   0.359   1.473  18.571  0.1673  0.1274 -0.0812
    72IDQ   C6745227   0.220   1.515  18.514 -0.5137 -0.8048 -0.2747
    72IDQ   C6845228   0.115   1.407  18.483  0.0618 -0.5587 -0.4072
    72IDQ   C6945229   0.044   1.453  18.358  0.3427 -0.1945 -1.3183
    72IDQ   C7045230  -0.087   1.524  18.395 -0.9975  0.3427  0.4465
    72IDQ   C7145231  -0.203   1.435  18.428 -0.3344 -0.1622 -0.7989
    72IDQ   C7245232  -0.308   1.479  18.537  0.5475  0.2438  0.8319
    11RH     C145233   2.107   4.368  27.698  0.0936 -0.2235 -0.2460
    11RH     C245234   2.046   4.233  27.691  0.0173 -0.1998 -0.0610
    11RH     N145235   2.214   4.382  27.606  0.1241 -0.4213 -0.2406
    11RH     S145236   2.133   4.133  27.564 -0.0093 -0.4388  0.1092
    11RH     C345237   2.246   4.274  27.527  0.0818 -0.5587 -0.0730
    11RH     C445238   2.276   4.518  27.593  0.2659 -0.1533  0.2206
    11RH     S245239   2.368   4.264  27.410  0.1050 -0.8019 -0.0286
    11RH     O145240   2.071   4.460  27.774  0.1275 -0.0896 -0.3915
    11RH     C545241   1.943   4.195  27.767 -0.0242 -0.0272 -0.0283
    21BTZ    C645242   1.866   4.069  27.778 -0.0032  0.1712 -0.0492
    21BTZ    C745243   1.892   3.964  27.693  0.0262  0.1987 -0.0744
    21BTZ    C845244   1.755   4.059  27.867  0.0798  0.0602  0.0439
    21BTZ    C945245   1.809   3.846  27.691  0.1379  0.1190 -0.0091
    21BTZ   C1045246   1.701   3.833  27.774  0.2200  0.0119  0.0802
    21BTZ   C1145247   1.670   3.939  27.865  0.1933 -0.0209  0.1097
    21BTZ    N245248   1.720   4.154  27.955  0.0613  0.0236  0.0763
    21BTZ    N345249   1.568   3.938  27.951  0.2660 -0.1227  0.1955
    21BTZ    S345250   1.575   4.093  28.040  0.1909 -0.1190  0.1952
    31IDT   C1245251   1.618   3.721  27.756  0.3884  0.2468 -0.1018
    31IDT   C1345252   1.528   3.673  27.847  0.5479  0.6153  0.2575
    31IDT   C1445253   1.454   3.561  27.798  0.2055  0.6375  0.7114
    31IDT   C1545254   1.487   3.523  27.670 -0.2162  0.2866  0.7002
    31IDT    S445255   1.616   3.627  27.600 -0.2124 -0.1024  0.1100
    4IDB    C1645256   1.404   3.412  27.641 -0.7083  0.3827  0.1806
    4IDB    C1745257   1.344   3.360  27.760 -0.2445 -0.1203  0.2022
    51IDQ   C1845258   1.355   3.472  27.865  0.6630 -0.0963  0.1867
    4IDB    C1945259   1.288   3.233  27.761  0.0926 -0.2766 -0.0054
    51IDQ   C2045260   1.210   3.534  27.897 -0.3118  0.0344 -0.3096
    51IDQ   C2145261   1.415   3.430  28.006  0.7008  0.4943  0.7862
    51IDQ   C2245262   1.485   3.293  28.040  0.4776  0.0509  0.4113
    51IDQ   C2345263   1.152   3.672  27.862  0.1308 -0.3048 -0.8613
    51IDQ   C2445264   1.389   3.181  28.101 -0.0000  0.0518  1.0791
    51IDQ   C2545265   1.453   3.049  28.116 -1.3173  0.8816 -0.6140
    51IDQ   C2645266   1.546   2.990  28.006 -0.0578  0.3039  0.8117
    51IDQ   C2745267   1.552   2.834  27.977  0.8941 -1.0959  0.7004
    51IDQ   C2845268   1.630   2.756  28.088 -0.0640 -0.8541  0.4430
    51IDQ   C2945269   1.684   2.625  28.030 -0.4324 -0.0361 -0.8309
    51IDQ   C3045270   1.214   3.806  27.886 -0.0673 -0.3546 -0.1791
    51IDQ   C3145271   1.246   3.849  28.036 -0.5412 -0.2162 -0.1446
    51IDQ   C3245272   1.154   3.828  28.147  0.4308  0.9525  0.0770
    51IDQ   C3345273   1.001   3.858  28.124 -0.1401 -0.7901 -0.5207
    51IDQ   C3445274   0.923   3.792  28.233  0.3316 -0.7151  0.1974
    51IDQ   C3545275   0.806   3.720  28.176  0.4530 -0.6072  0.8956
    4IDB    C3645276   1.407   3.336  27.522 -0.8382  0.7344 -0.0501
    4IDB    C3745277   1.349   3.207  27.526 -0.4891  0.5679 -0.2608
    11RH    C3845278   2.216   4.603  27.476 -0.1745  0.1463  0.1798
    4IDB    C3945279   1.291   3.157  27.643 -0.0374  0.0750 -0.2362
    62IDT   C4045280   1.228   3.032  27.620  0.6401 -0.5148 -0.1556
    72IDQ   C4145281   1.325   3.101  27.409 -0.0179 -0.8765 -0.7460
    62IDT   C4245282   1.241   2.999  27.487  0.6630 -1.0070 -0.0319
    72IDQ   C4345283   1.463   3.033  27.355  0.9420  0.7778 -0.6118
    72IDQ   C4445284   1.243   3.167  27.291 -0.1866 -0.3578 -0.5804
    62IDT    S545285   1.146   2.903  27.714  0.0713  0.0880  0.1950
    62IDT   C4545286   1.134   2.806  27.561 -0.1144 -0.3801  0.5050
    62IDT   C4645287   1.188   2.870  27.454  0.2365 -0.9316  0.3414
    82BTZ   C4745288   1.072   2.668  27.562 -0.3103 -0.2535 -0.0333
    82BTZ   C4845289   1.040   2.615  27.684 -0.4774 -0.3157 -0.1030
    82BTZ   C4945290   0.976   2.486  27.697 -0.5315 -0.3044 -0.2575
    82BTZ   C5045291   0.945   2.410  27.587 -0.4184 -0.2310 -0.3404
    82BTZ   C5145292   1.041   2.592  27.444 -0.1870 -0.1755 -0.1154
    82BTZ   C5245293   0.976   2.461  27.457 -0.2420 -0.1641 -0.2723
    92RH    C5345294   0.883   2.272  27.601  0.4641  0.2840  0.2204
    82BTZ    N445295   1.067   2.633  27.319 -0.0207 -0.1104 -0.0596
    82BTZ    N545296   0.951   2.397  27.342 -0.1198 -0.0898 -0.3419
    82BTZ    S645297   1.009   2.503  27.211  0.0746 -0.0300 -0.2078
    92RH    C5445298   0.833   2.199  27.701  0.1654  0.1963  0.0129
    92RH     S745299   0.853   2.232  27.881 -0.2692 -0.0231  0.1018
    92RH    C5545300   0.753   2.076  27.681  0.1417  0.2666 -0.3338
    92RH     O245301   0.722   2.027  27.571  0.3900  0.4119 -0.4702
    92RH     N645302   0.714   2.019  27.804 -0.2046  0.1464 -0.4958
    92RH    C5645303   0.753   2.082  27.921 -0.4612 -0.0114 -0.3228
    92RH    C5745304   0.625   1.901  27.812 -0.1381 -0.8825  0.5327
    92RH    C5845305   0.697   1.773  27.832  0.5665  0.1129 -0.5591
    92RH     S845306   0.720   2.035  28.079 -0.8909 -0.1761 -0.4578
    72IDQ   C5945307   1.095   3.223  27.328 -0.5046 -0.6002 -0.3545
    72IDQ   C6045308   0.994   3.260  27.224  0.2965  0.3668  0.9754
    72IDQ   C6145309   0.999   3.406  27.162  0.2476  0.0424 -0.7327
    72IDQ   C6245310   0.909   3.455  27.044  0.1623 -0.5786 -0.3531
    72IDQ   C6345311   0.937   3.597  26.981 -0.2913 -0.7456 -0.8885
    72IDQ   C6445312   1.083   3.630  26.926  1.0214 -0.5440 -0.0050
    72IDQ   C6545313   1.066   3.758  26.857  0.1729 -0.0159 -0.9029
    72IDQ   C6645314   1.554   3.077  27.238  0.4060 -0.4227  0.6172
    72IDQ   C6745315   1.689   3.010  27.251  0.2021 -0.0851 -0.1738
    72IDQ   C6845316   1.762   3.013  27.131  0.4848 -0.3526  0.2508
    72IDQ   C6945317   1.863   3.127  27.119  0.4348  0.3348 -0.0662
    72IDQ   C7045318   1.932   3.169  26.993 -0.3716 -0.6887  0.3953
    72IDQ   C7145319   2.012   3.295  27.022  0.8592  0.6898  1.2582
    72IDQ   C7245320   2.132   3.282  26.937 -0.8592 -0.0525 -0.3715
    11RH     C145321   7.302   4.920  18.375  0.1458  0.4139 -0.1421
    11RH     C245322   7.361   4.967  18.502  0.0131  0.0769  0.0458
    11RH     N145323   7.331   4.784  18.351  0.0334  0.4322 -0.3928
    11RH     S145324   7.452   4.829  18.583 -0.2509 -0.1942 -0.1185
    11RH     C345325   7.407   4.716  18.444 -0.1732  0.1512 -0.4282
    11RH     C445326   7.262   4.711  18.242 -0.2058 -0.9837  0.3382
    11RH     S245327   7.455   4.555  18.440 -0.3406  0.1069 -0.7048
    11RH     O145328   7.235   4.990  18.297  0.3322  0.6542 -0.0920
    11RH     C545329   7.349   5.092  18.548  0.0817 -0.0068  0.2966
    21BTZ    C645330   7.427   5.175  18.635 -0.2617  0.1759 -0.3915
    21BTZ    C745331   7.547   5.138  18.691 -0.2881  0.1078 -0.3796
    21BTZ    C845332   7.378   5.307  18.660 -0.2599  0.1554 -0.2751
    21BTZ    C945333   7.624   5.229  18.772 -0.3138  0.0170 -0.2532
    21BTZ   C1045334   7.581   5.356  18.798 -0.3131 -0.0058 -0.1396
    21BTZ   C1145335   7.456   5.400  18.743 -0.2860  0.0631 -0.1473
    21BTZ    N245336   7.262   5.355  18.611 -0.2354  0.2156 -0.2747
    21BTZ    N345337   7.404   5.521  18.761 -0.2825  0.0491 -0.0434
    21BTZ    S345338   7.249   5.523  18.671 -0.2450  0.1558 -0.1064
    31IDT   C1245339   7.668   5.451  18.865 -0.1273  0.2423  0.4333
    31IDT   C1345340   7.658   5.588  18.871 -0.3215  0.2038  1.1225
    31IDT   C1445341   7.765   5.649  18.944 -0.2049  0.0129  1.1120
    31IDT   C1545342   7.857   5.559  18.994  0.0783 -0.0954  0.4172
    31IDT    S445343   7.816   5.389  18.952  0.2206  0.0376 -0.2855
    4IDB    C1645344   7.956   5.629  19.070  0.5009  0.3456 -0.5129
    4IDB    C1745345   7.919   5.767  19.077  0.4702  0.3289 -0.3228
    51IDQ   C1845346   7.796   5.794  18.984  0.2822 -0.6149  1.0564
    4IDB    C1945347   7.988   5.856  19.158  0.2966  0.1834 -0.0110
    51IDQ   C2045348   7.692   5.877  19.066 -0.7197 -0.3070 -0.1207
    51IDQ   C2145349   7.825   5.882  18.848  1.3176  1.0245  0.4130
    51IDQ   C2245350   7.967   5.908  18.802 -0.5091  0.0945 -0.2310
    51IDQ   C2345351   7.591   5.808  19.161  0.8513  1.2943 -0.2721
    51IDQ   C2445352   8.025   5.842  18.671 -0.3995  0.1114 -0.3539
    51IDQ   C2545353   8.175   5.809  18.676  0.1432 -0.0491 -0.6253
    51IDQ   C2645354   8.237   5.738  18.556 -0.0223 -0.4228  1.5431
    51IDQ   C2745355   8.324   5.614  18.586 -0.4389 -0.0251  0.0539
    51IDQ   C2845356   8.425   5.549  18.489 -0.2998 -0.0274  0.0294
    51IDQ   C2945357   8.543   5.627  18.460  0.3421 -0.3460 -0.2773
    51IDQ   C3045358   7.525   5.913  19.247 -0.5828 -0.6311 -0.4038
    51IDQ   C3145359   7.404   5.858  19.310 -0.0271 -0.4789 -0.4934
    51IDQ   C3245360   7.276   5.948  19.308  0.6910 -0.9456  0.1656
    51IDQ   C3345361   7.263   6.041  19.424 -0.9735  0.5366 -0.2226
    51IDQ   C3445362   7.164   6.149  19.410 -0.7859 -0.3079  0.6026
    51IDQ   C3545363   7.111   6.201  19.541  0.3514 -0.2633  0.3500
    4IDB    C3645364   8.063   5.579  19.146  0.3573  0.2160 -0.3915
    4IDB    C3745365   8.133   5.672  19.228  0.1808  0.0681 -0.0725
    11RH    C3845366   7.119   4.658  18.280 -0.5025  0.1210  0.5728
    4IDB    C3945367   8.095   5.806  19.233  0.1530  0.0538  0.1100
    62IDT   C4045368   8.197   5.883  19.314  0.0782 -0.2476 -0.0448
    72IDQ   C4145369   8.265   5.654  19.302 -1.1983 -0.2243 -0.5181
    62IDT   C4245370   8.297   5.796  19.353 -0.1076 -0.4166  0.0539
    72IDQ   C4345371   8.393   5.614  19.200  0.8749 -0.1623 -0.6960
    72IDQ   C4445372   8.273   5.552  19.428 -0.8774 -0.4464 -0.3213
    62IDT    S545373   8.229   6.051  19.371  0.3151 -0.2962 -0.0294
    62IDT   C4545374   8.382   5.991  19.448  0.1418 -0.5551  0.1174
    62IDT   C4645375   8.401   5.857  19.429 -0.0719 -0.5907  0.1459
    82BTZ   C4745376   8.461   6.093  19.535 -0.0798 -0.0776  0.1049
    82BTZ   C4845377   8.389   6.192  19.596 -0.0424 -0.1575  0.2785
    82BTZ   C4945378   8.453   6.293  19.676  0.0125 -0.2276  0.3228
    82BTZ   C5045379   8.589   6.295  19.695  0.0300 -0.2173  0.1953
    82BTZ   C5145380   8.603   6.091  19.551 -0.0634 -0.0638 -0.0343
    82BTZ   C5245381   8.669   6.194  19.632 -0.0076 -0.1348  0.0110
    92RH    C5345382   8.654   6.401  19.778  0.0984 -0.1065  0.0179
    82BTZ    N445383   8.684   6.000  19.496 -0.0961  0.0112 -0.2074
    82BTZ    N545384   8.801   6.185  19.643  0.0046 -0.1171 -0.1259
    82BTZ    S645385   8.850   6.042  19.547 -0.0561 -0.0062 -0.3227
    92RH    C5445386   8.608   6.505  19.848  0.0051 -0.1209 -0.0210
    92RH     S745387   8.446   6.589  19.828  0.1137  0.0133 -0.3582
    92RH    C5545388   8.685   6.571  19.956 -0.2080 -0.2525  0.2122
    92RH     O245389   8.799   6.538  19.994 -0.3232 -0.3629  0.4659
    92RH     N645390   8.613   6.678  20.013 -0.2672 -0.2379  0.1108
    92RH    C5645391   8.488   6.706  19.964 -0.1276 -0.1109 -0.1755
    92RH    C5745392   8.681   6.760  20.120 -0.0654 -0.6780  0.1611
    92RH    C5845393   8.682   6.740  20.264  1.0154 -0.3817  0.5202
    92RH     S845394   8.382   6.828  20.014 -0.1595 -0.0665 -0.3490
    72IDQ   C5945395   8.195   5.579  19.554  0.1475 -1.2311 -0.6077
    72IDQ   C6045396   8.214   5.469  19.653  0.4951 -0.6293 -0.1187
    72IDQ   C6145397   8.082   5.434  19.729 -0.1168 -0.0168  0.7836
    72IDQ   C6245398   8.085   5.350  19.858 -0.3809 -0.2507 -0.6816
    72IDQ   C6345399   8.095   5.427  19.993 -0.2889 -0.0147  0.3700
    72IDQ   C6445400   8.031   5.561  20.016 -0.4244  1.4434  0.2637
    72IDQ   C6545401   8.042   5.612  20.166 -0.2436 -0.0572  0.8886
    72IDQ   C6645402   8.388   5.613  19.052 -0.2639 -1.1228  0.8578
    72IDQ   C6745403   8.541   5.633  19.015  1.2189  0.0576  0.3107
    72IDQ   C6845404   8.587   5.629  18.875 -0.0918 -0.0510  0.4657
    72IDQ   C6945405   8.739   5.586  18.841  1.0709  0.0151 -0.3359
    72IDQ   C7045406   8.764   5.445  18.875 -0.2219  0.6639 -0.3036
    72IDQ   C7145407   8.878   5.384  18.807 -0.0225 -0.3068 -0.0399
    72IDQ   C7245408   8.926   5.253  18.877  0.0752 -0.6000 -0.0750
    11RH     C145409   6.802   3.958  26.827 -0.0521 -0.1237 -0.0634
    11RH     C245410   6.715   4.006  26.937  0.0595 -0.0949  0.0129
    11RH     N145411   6.935   3.938  26.872  0.0500  0.1270 -0.2497
    11RH     S145412   6.813   4.020  27.092  0.2912  0.2596 -0.1654
    11RH     C345413   6.964   3.963  27.004  0.2296  0.3530 -0.3314
    11RH     C445414   7.052   3.929  26.782 -0.0943 -0.3431  1.2341
    11RH     S245415   7.113   3.947  27.081  0.3799  0.6732 -0.5503
    11RH     O145416   6.766   3.938  26.710 -0.2145 -0.3381  0.0219
    11RH     C545417   6.585   4.032  26.922 -0.0047 -0.3019  0.1866
    21BTZ    C645418   6.489   4.082  27.019  0.0211  0.0461  0.0622
    21BTZ    C745419   6.521   4.106  27.150 -0.1204 -0.0231  0.1097
    21BTZ    C845420   6.360   4.121  26.971  0.0803  0.0908 -0.0620
    21BTZ    C945421   6.428   4.169  27.240 -0.2099 -0.0517  0.0372
    21BTZ   C1045422   6.304   4.209  27.199 -0.1580 -0.0110 -0.0812
    21BTZ   C1145423   6.266   4.186  27.063 -0.0107  0.0619 -0.1354
    21BTZ    N245424   6.318   4.103  26.846  0.2161  0.1593 -0.1187
    21BTZ    N345425   6.147   4.220  27.011  0.0520  0.1068 -0.2508
    21BTZ    S345426   6.151   4.170  26.839  0.2340  0.1901 -0.2706
    31IDT   C1245427   6.226   4.302  27.280  0.3291 -0.4443  0.4362
    31IDT   C1345428   6.091   4.303  27.299  0.3330 -0.7960  0.5021
    31IDT   C1445429   6.049   4.393  27.402  0.1078 -0.4814  0.1435
    31IDT   C1545430   6.153   4.460  27.463 -0.0690  0.1107 -0.1974
    31IDT    S445431   6.313   4.415  27.393  0.0371  0.3178 -0.0901
    4IDB    C1645432   6.107   4.538  27.579  0.0144  0.0334 -0.2333
    4IDB    C1745433   5.965   4.523  27.593  0.0672 -0.3220 -0.0310
    51IDQ   C1845434   5.910   4.430  27.482 -0.5159 -0.4348  0.6012
    4IDB    C1945435   5.897   4.586  27.696  0.0593 -0.5170  0.0845
    51IDQ   C2045436   5.835   4.312  27.559  0.1080  0.2953  0.7219
    51IDQ   C2145437   5.804   4.491  27.381  0.5797 -0.4475  0.2319
    51IDQ   C2245438   5.725   4.624  27.408  1.3563  0.3288 -0.6383
    51IDQ   C2345439   5.839   4.158  27.524 -0.2991  0.4796 -0.4686
    51IDQ   C2445440   5.723   4.737  27.309  0.6435  0.3285  0.0065
    51IDQ   C2545441   5.840   4.835  27.306  1.0109  0.3319 -0.5237
    51IDQ   C2645442   5.971   4.768  27.286  0.0821  0.1427  0.1260
    51IDQ   C2745443   6.067   4.880  27.235 -0.0664 -0.6505  1.5562
    51IDQ   C2845444   6.037   4.891  27.083  0.8829 -0.0524 -0.5083
    51IDQ   C2945445   6.046   5.041  27.040 -1.0492  0.4920 -1.0129
    51IDQ   C3045446   5.743   4.073  27.604  0.1510  0.0966 -0.5724
    51IDQ   C3145447   5.593   4.085  27.580  0.7129  0.9523  0.4936
    51IDQ   C3245448   5.510   3.986  27.658  0.8710 -0.2050  0.2363
    51IDQ   C3345449   5.362   4.035  27.659  0.1669  0.5567 -1.1419
    51IDQ   C3445450   5.262   3.978  27.764 -1.0992 -0.1724  0.6409
    51IDQ   C3545451   5.249   3.828  27.754  0.5988 -0.3921  0.2009
    4IDB    C3645452   6.181   4.615  27.669 -0.0471  0.1963 -0.3209
    4IDB    C3745453   6.109   4.679  27.774 -0.0544 -0.0072 -0.2017
    11RH    C3845454   7.099   3.789  26.744  0.4583 -0.3020 -0.6329
    4IDB    C3945455   5.971   4.664  27.786 -0.0022 -0.3540 -0.0046
    62IDT   C4045456   5.931   4.741  27.900  0.4747  0.0730  0.1919
    72IDQ   C4145457   6.165   4.768  27.883  0.1300  1.1276 -0.0790
    62IDT   C4245458   6.043   4.788  27.964  0.4785  0.5193 -0.1340
    72IDQ   C4345459   6.244   4.901  27.837  0.3202 -0.2624  0.2445
    72IDQ   C4445460   6.266   4.693  27.981  0.3887  0.3587 -0.7091
    62IDT    S545461   5.780   4.779  27.990  0.5131  0.3243  0.1517
    62IDT   C4545462   5.882   4.861  28.117  0.5333  1.0551 -0.3253
    62IDT   C4645463   6.016   4.856  28.087  0.5115  1.0750 -0.4258
    82BTZ   C4745464   5.832   4.879  28.250 -0.3059 -0.1432  0.2007
    82BTZ   C4845465   5.707   4.831  28.282 -0.3219 -0.0985  0.2055
    82BTZ   C4945466   5.647   4.855  28.411 -0.3152 -0.0643  0.2022
    82BTZ   C5045467   5.712   4.926  28.508 -0.2926 -0.0745  0.1944
    82BTZ   C5145468   5.904   4.954  28.349 -0.2819 -0.1557  0.1931
    82BTZ   C5245469   5.843   4.978  28.480 -0.2753 -0.1206  0.1898
    92RH    C5345470   5.644   4.974  28.629  0.0610  0.0694  0.0053
    82BTZ    N445471   6.026   5.006  28.330 -0.2648 -0.1979  0.1879
    82BTZ    N545472   5.916   5.049  28.567 -0.2526 -0.1347  0.1822
    82BTZ    S645473   6.069   5.089  28.483 -0.2388 -0.1947  0.1793
    92RH    C5445474   5.526   4.948  28.687  0.0776 -0.0391 -0.0098
    92RH     S745475   5.391   4.846  28.619  0.0083  0.1910 -0.2194
    92RH    C5545476   5.487   5.000  28.820  0.1581 -0.3743  0.1468
    92RH     O245477   5.557   5.073  28.893  0.2183 -0.5903  0.3074
    92RH     N645478   5.358   4.957  28.857  0.1585 -0.4225  0.0917
    92RH    C5645479   5.289   4.876  28.769  0.0885 -0.1667 -0.0899
    92RH    C5745480   5.301   5.010  28.986 -0.1005  0.2957  0.1079
    92RH    C5845481   5.207   5.127  28.959  0.0266 -0.9501  0.5282
    92RH     S845482   5.134   4.811  28.788  0.0732 -0.1601 -0.1902
    72IDQ   C5945483   6.416   4.666  27.979 -0.2516  0.6323 -0.2660
    72IDQ   C6045484   6.456   4.578  28.093  0.8998  0.2942 -0.1845
    72IDQ   C6145485   6.418   4.427  28.090  0.0366 -0.0963  0.3545
    72IDQ   C6245486   6.478   4.349  27.975  1.2775 -0.5109 -0.8031
    72IDQ   C6345487   6.483   4.201  27.997 -0.2122  1.1098 -0.3916
    72IDQ   C6445488   6.521   4.146  27.864  0.6315  0.2363  0.4240
    72IDQ   C6545489   6.542   3.988  27.854 -0.0382 -0.7391 -0.3611
    72IDQ   C6645490   6.170   4.997  27.749 -1.1899 -0.4201 -0.5114
    72IDQ   C6745491   6.238   5.131  27.728  0.9947  0.2753  0.0591
    72IDQ   C6845492   6.299   5.210  27.842 -0.2114  0.2204  0.3381
    72IDQ   C6945493   6.203   5.326  27.892 -0.8466  0.3650 -0.8599
    72IDQ   C7045494   6.208   5.459  27.822 -0.3294 -0.2438 -0.1771
    72IDQ   C7145495   6.111   5.569  27.874  0.2337 -1.1787 -0.8941
    72IDQ   C7245496   6.138   5.704  27.798  0.2510 -0.2006  0.2823
    11RH     C145497   5.608   5.746  18.058 -0.2506  0.0296 -0.4554
    11RH     C245498   5.689   5.869  18.072 -0.2257 -0.0123 -0.2241
    11RH     N145499   5.649   5.669  17.947 -0.0512  0.0675 -0.4086
    11RH     S145500   5.814   5.876  17.938  0.0584  0.0010  0.0392
    11RH     C345501   5.753   5.716  17.870  0.1303  0.0610 -0.1683
    11RH     C445502   5.574   5.539  17.920  1.0120  0.7985 -0.1318
    11RH     S245503   5.821   5.645  17.733  0.3853  0.1003 -0.0648
    11RH     O145504   5.515   5.712  18.134 -0.4226  0.0321 -0.6647
    11RH     C545505   5.671   5.959  18.170 -0.3897 -0.0528 -0.2164
    21BTZ    C645506   5.737   6.088  18.203  0.4894 -0.5712  0.4032
    21BTZ    C745507   5.844   6.131  18.128  0.2723 -0.3753  0.2003
    21BTZ    C845508   5.705   6.159  18.323  0.2269 -0.2544  0.1507
    21BTZ    C945509   5.924   6.244  18.168 -0.2106  0.1380 -0.2580
    21BTZ   C1045510   5.897   6.315  18.282 -0.4755  0.4548 -0.5122
    21BTZ   C1145511   5.786   6.274  18.364 -0.2639  0.2674 -0.3152
    21BTZ    N245512   5.603   6.127  18.404  0.3994 -0.4019  0.3109
    21BTZ    N345513   5.750   6.335  18.477 -0.4859  0.5394 -0.5298
    21BTZ    S345514   5.607   6.246  18.538 -0.0680  0.1314 -0.1362
    31IDT   C1245515   6.003   6.409  18.326  0.1680 -0.2129 -0.6224
    31IDT   C1345516   5.988   6.539  18.368 -0.2166 -0.4038 -0.1373
    31IDT   C1445517   6.113   6.599  18.404 -0.4725 -0.3743  0.7377
    31IDT   C1545518   6.222   6.516  18.390 -0.2852 -0.1613  0.9242
    31IDT    S445519   6.176   6.353  18.330  0.2346  0.0200 -0.0016
    4IDB    C1645520   6.349   6.594  18.412  0.1349  0.1718 -0.5822
    4IDB    C1745521   6.320   6.730  18.444 -0.0567  0.0528 -0.2503
    51IDQ   C1845522   6.163   6.739  18.450 -0.1167  0.0894 -1.0578
    4IDB    C1945523   6.422   6.822  18.467 -0.1855  0.0935  0.1869
    51IDQ   C2045524   6.141   6.769  18.605  0.3818 -0.9510  0.8490
    51IDQ   C2145525   6.079   6.849  18.370 -0.1014 -0.0698 -0.8147
    51IDQ   C2245526   6.154   6.961  18.312  0.1489  0.3376 -0.3574
    51IDQ   C2345527   6.062   6.684  18.692  0.3956  0.1524 -1.1028
    51IDQ   C2445528   6.136   7.005  18.163 -0.6968  0.1273 -0.2206
    51IDQ   C2545529   6.004   7.003  18.102  0.2291 -0.4695 -1.4096
    51IDQ   C2645530   5.995   7.096  17.976  0.1768 -0.2318 -0.5623
    51IDQ   C2745531   5.891   7.044  17.880  0.2081  0.3827  0.7754
    51IDQ   C2845532   5.740   7.058  17.894 -0.6308  0.3620  0.6246
    51IDQ   C2945533   5.662   7.012  17.769  0.6322  0.9852  0.1536
    51IDQ   C3045534   6.114   6.552  18.745  0.8693  0.4531 -0.6169
    51IDQ   C3145535   6.191   6.563  18.874 -0.5618  0.3237 -1.3300
    51IDQ   C3245536   6.280   6.453  18.933 -0.5034  0.2783  0.4435
    51IDQ   C3345537   6.407   6.412  18.850  0.0914 -0.4995 -0.6453
    51IDQ   C3445538   6.497   6.532  18.816 -0.0318  0.3142 -1.0596
    51IDQ   C3545539   6.592   6.562  18.923  0.7749 -0.5826 -1.1461
    4IDB    C3645540   6.482   6.549  18.401  0.1988  0.3332 -0.4783
    4IDB    C3745541   6.585   6.644  18.424  0.0651  0.3726 -0.0296
    11RH    C3845542   5.633   5.405  17.970  0.2591 -0.3934 -0.5201
    4IDB    C3945543   6.555   6.776  18.456 -0.1218  0.2548  0.2906
    62IDT   C4045544   6.675   6.846  18.493 -0.0411  0.0151 -0.3642
    72IDQ   C4145545   6.734   6.630  18.420 -0.4093 -0.0899  0.8912
    62IDT   C4245546   6.783   6.760  18.482  0.0979  0.1850 -0.3285
    72IDQ   C4345547   6.800   6.615  18.273  0.5268  0.1228  0.2236
    72IDQ   C4445548   6.804   6.527  18.526  0.8011 -0.3148 -0.2800
    62IDT    S545549   6.725   7.011  18.541 -0.3475  0.0167 -0.0396
    62IDT   C4545550   6.897   6.954  18.543 -0.2678  0.2585  0.1345
    62IDT   C4645551   6.909   6.822  18.510 -0.0299  0.3229 -0.0477
    82BTZ   C4745552   7.004   7.056  18.562 -0.1638  0.0757 -0.1027
    82BTZ   C4845553   6.964   7.187  18.556 -0.0358  0.1090 -0.2236
    82BTZ   C4945554   7.056   7.295  18.580  0.0429  0.0390 -0.2079
    82BTZ   C5045555   7.188   7.273  18.611 -0.0066 -0.0642 -0.0712
    82BTZ   C5145556   7.140   7.027  18.594 -0.2202 -0.0314  0.0429
    82BTZ   C5245557   7.234   7.137  18.619 -0.1403 -0.1026  0.0587
    92RH    C5345558   7.270   7.377  18.678  0.1959  0.1184 -0.0005
    82BTZ    N445559   7.191   6.904  18.604 -0.3439 -0.0728  0.1683
    82BTZ    N545560   7.359   7.102  18.649 -0.1997 -0.2013  0.1969
    82BTZ    S645561   7.363   6.923  18.646 -0.3638 -0.2075  0.3159
    92RH    C5445562   7.239   7.497  18.728  0.0471  0.0855 -0.0124
    92RH     S745563   7.071   7.567  18.751 -0.0313 -0.0398 -0.2072
    92RH    C5545564   7.340   7.595  18.775 -0.0808  0.1477  0.1364
    92RH     O245565   7.463   7.578  18.773 -0.0659  0.2363  0.2866
    92RH     N645566   7.280   7.713  18.823 -0.2255  0.0940  0.0868
    92RH    C5645567   7.142   7.722  18.821 -0.2294 -0.0037 -0.0834
    92RH    C5745568   7.362   7.832  18.850 -0.7534  0.2679  0.8543
    92RH    C5845569   7.456   7.830  18.975 -0.3037  0.6778 -0.0530
    92RH     S845570   7.046   7.851  18.872 -0.3855 -0.0833 -0.1750
    72IDQ   C5945571   6.795   6.379  18.515 -0.2260  0.8805 -0.7381
    72IDQ   C6045572   6.780   6.313  18.657  0.3280  0.7621  0.5823
    72IDQ   C6145573   6.778   6.161  18.657  0.3248  0.4665  0.1443
    72IDQ   C6245574   6.719   6.080  18.531 -1.4356  0.3177 -0.4217
    72IDQ   C6345575   6.722   5.928  18.545 -0.0799 -0.2375  0.8220
    72IDQ   C6445576   6.851   5.847  18.544 -0.2135 -0.3325  0.4422
    72IDQ   C6545577   6.840   5.705  18.583 -0.1200 -0.2493 -0.8218
    72IDQ   C6645578   6.788   6.486  18.193 -0.1950  0.9749 -0.7480
    72IDQ   C6745579   6.826   6.527  18.052 -0.0461  0.4317 -0.3467
    72IDQ   C6845580   6.729   6.619  17.975  0.1047  0.3793 -0.6144
    72IDQ   C6945581   6.789   6.655  17.847 -0.3294  0.3994  0.0057
    72IDQ   C7045582   6.700   6.718  17.743  0.8035  0.1318  0.4961
    72IDQ   C7145583   6.644   6.851  17.779  0.7665 -0.3731  0.7755
    72IDQ   C7245584   6.555   6.920  17.666  0.6475 -0.5507 -0.1293
    11RH     C145585   5.997   3.289  20.284 -0.0155 -0.0036 -0.5031
    11RH     C245586   6.141   3.315  20.255  0.1098 -0.1754 -0.0534
    11RH     N145587   5.914   3.388  20.226  0.2874  0.1294 -0.7167
    11RH     S145588   6.157   3.467  20.154  0.6179 -0.1510  0.0592
    11RH     C345589   5.974   3.489  20.154  0.6402  0.0850 -0.4930
    11RH     C445590   5.769   3.377  20.234 -0.5188  0.8514 -0.2192
    11RH     S245591   5.898   3.618  20.076  1.0451  0.2177 -0.6709
    11RH     O145592   5.953   3.194  20.350 -0.3430  0.0238 -0.6781
    11RH     C545593   6.240   3.237  20.298 -0.1220 -0.3230  0.2187
    21BTZ    C645594   6.386   3.235  20.297  0.0431  0.0952  0.0364
    21BTZ    C745595   6.456   3.339  20.243  0.1211  0.1012  0.1478
    21BTZ    C845596   6.458   3.130  20.363 -0.0424  0.0237  0.0162
    21BTZ    C945597   6.600   3.345  20.250  0.1191  0.0377  0.2451
    21BTZ   C1045598   6.673   3.248  20.312  0.0389 -0.0317  0.2312
    21BTZ   C1145599   6.604   3.136  20.371 -0.0446 -0.0409  0.1159
    21BTZ    N245600   6.401   3.023  20.420 -0.1230  0.0107 -0.0882
    21BTZ    N345601   6.665   3.035  20.433 -0.1268 -0.1057  0.0901
    21BTZ    S345602   6.534   2.925  20.487 -0.2066 -0.0866 -0.0649
    31IDT   C1245603   6.824   3.265  20.315  0.0126 -0.4200 -0.3180
    31IDT   C1345604   6.918   3.199  20.390 -0.1948 -0.4736 -0.1044
    31IDT   C1445605   7.052   3.239  20.361 -0.1183 -0.3638  0.3843
    31IDT   C1545606   7.061   3.337  20.264  0.1473 -0.2263  0.5464
    31IDT    S445607   6.900   3.385  20.201  0.3228 -0.2249  0.0882
    4IDB    C1645608   7.202   3.361  20.240 -0.2354 -0.4025  0.0887
    4IDB    C1745609   7.287   3.281  20.322 -0.0534 -0.2809  0.0191
    51IDQ   C1845610   7.192   3.203  20.413 -0.2452 -0.2679 -0.6460
    4IDB    C1945611   7.425   3.297  20.320 -0.0782 -0.0854 -0.0957
    51IDQ   C2045612   7.241   3.061  20.393 -0.1827 -0.7842  0.2915
    51IDQ   C2145613   7.191   3.237  20.571  0.0641 -0.2298  0.7749
    51IDQ   C2245614   7.293   3.333  20.633 -0.9877  1.2191 -0.1891
    51IDQ   C2345615   7.170   2.938  20.343 -0.2615  0.1569 -0.2751
    51IDQ   C2445616   7.246   3.402  20.756 -0.0789  0.2909  1.5784
    51IDQ   C2545617   7.271   3.555  20.767  0.3201  0.3022  0.5149
    51IDQ   C2645618   7.209   3.632  20.882 -0.1533 -0.4139 -0.3196
    51IDQ   C2745619   7.304   3.621  20.999  0.0229 -0.0146 -0.0105
    51IDQ   C2845620   7.256   3.683  21.131  0.9879 -0.9789  0.4475
    51IDQ   C2945621   7.360   3.632  21.224 -0.4177  0.4564 -0.4463
    51IDQ   C3045622   7.145   2.931  20.191 -0.5540  0.5917 -0.4974
    51IDQ   C3145623   7.029   2.839  20.137  0.0733 -0.6998 -0.2090
    51IDQ   C3245624   6.979   2.875  19.993  0.0603 -0.4495 -0.8012
    51IDQ   C3345625   6.852   2.835  19.932  0.9584  0.5538  0.9161
    51IDQ   C3445626   6.789   2.704  19.955  0.8059  1.0235  0.3665
    51IDQ   C3545627   6.732   2.664  20.085  0.4042  0.2388 -0.1066
    4IDB    C3645628   7.255   3.459  20.155 -0.4450 -0.3289  0.0429
    4IDB    C3745629   7.396   3.474  20.153 -0.4673 -0.1289 -0.0753
    11RH    C3845630   5.692   3.289  20.141  0.0305 -0.4658  0.7448
    4IDB    C3945631   7.478   3.395  20.234 -0.2876 -0.0120 -0.1427
    62IDT   C4045632   7.623   3.413  20.200  0.0118 -0.0498  0.4220
    72IDQ   C4145633   7.489   3.566  20.071 -0.1654  0.3504 -0.8187
    62IDT   C4245634   7.628   3.509  20.101 -0.1302  0.2216  0.6733
    72IDQ   C4345635   7.489   3.719  20.124 -0.3860 -0.3079  2.0211
    72IDQ   C4445636   7.485   3.542  19.923 -0.1455 -0.1419 -0.1104
    62IDT    S545637   7.786   3.352  20.243  0.0804 -0.1153  0.0749
    62IDT   C4545638   7.857   3.464  20.119 -0.0950  0.2452  0.2985
    62IDT   C4645639   7.760   3.538  20.055 -0.1907  0.3887  0.6037
    82BTZ   C4745640   8.000   3.464  20.100  0.1346 -0.2588  0.1137
    82BTZ   C4845641   8.087   3.465  20.206  0.2097 -0.4696  0.0539
    82BTZ   C4945642   8.230   3.467  20.186  0.1966 -0.4933 -0.0443
    82BTZ   C5045643   8.285   3.468  20.061  0.1084 -0.3060 -0.0826
    82BTZ   C5145644   8.053   3.465  19.967  0.0410 -0.0575  0.0768
    82BTZ   C5245645   8.198   3.467  19.947  0.0276 -0.0815 -0.0229
    92RH    C5345646   8.430   3.493  20.037  0.2740 -0.1596 -0.1434
    82BTZ    N445647   7.978   3.465  19.856 -0.0376  0.1570  0.1278
    82BTZ    N545648   8.240   3.468  19.820 -0.0617  0.1137 -0.0525
    82BTZ    S645649   8.092   3.466  19.719 -0.1340  0.3413  0.0490
    92RH    C5445650   8.536   3.524  20.112  0.1365 -0.1589  0.0558
    92RH     S745651   8.537   3.567  20.290 -0.1920 -0.1840  0.0645
    92RH    C5545652   8.675   3.528  20.059  0.2336 -0.1369  0.3071
    92RH     O245653   8.708   3.504  19.941  0.4492 -0.1169  0.3624
    92RH     N645654   8.768   3.563  20.159  0.0484 -0.1412  0.4804
    92RH    C5645655   8.721   3.588  20.286 -0.1852 -0.1641  0.4005
    92RH    C5745656   8.916   3.597  20.127  0.2099  1.0359 -0.0942
    92RH    C5845657   8.965   3.739  20.087  0.7817  0.7409  0.4076
    92RH     S845658   8.810   3.631  20.423 -0.4368 -0.1740  0.5693
    72IDQ   C5945659   7.359   3.599  19.864  0.1021 -0.5000  0.8161
    72IDQ   C6045660   7.346   3.597  19.710  0.7226 -0.4257  0.4865
    72IDQ   C6145661   7.201   3.627  19.643 -1.2897 -0.3921 -0.5896
    72IDQ   C6245662   7.145   3.768  19.677 -0.3383 -0.4601  0.1215
    72IDQ   C6345663   7.237   3.889  19.670  0.3881 -0.5499  1.0088
    72IDQ   C6445664   7.166   4.016  19.724 -0.4017  0.4923 -0.1497
    72IDQ   C6545665   7.147   4.006  19.875 -0.1606  0.3305  0.0749
    72IDQ   C6645666   7.367   3.774  20.185  0.6891 -0.5120 -0.3282
    72IDQ   C6745667   7.373   3.926  20.220 -0.0951  0.1240  0.3859
    72IDQ   C6845668   7.249   3.975  20.300 -0.5083 -0.1417  0.7346
    72IDQ   C6945669   7.247   3.948  20.451  0.4950  0.1116 -0.5951
    72IDQ   C7045670   7.135   4.030  20.528 -0.1963  0.8758  0.1119
    72IDQ   C7145671   7.145   4.010  20.683  0.3514  0.2065 -0.6374
    72IDQ   C7245672   7.036   4.101  20.756  0.5063 -0.4476 -0.2856
    11RH     C145673   2.831   2.977  21.356  0.0740  0.1239  0.1650
    11RH     C245674   2.771   2.888  21.254  0.2345  0.1489  0.0463
    11RH     N145675   2.801   2.935  21.487 -0.0119  0.0068  0.1085
    11RH     S145676   2.678   2.754  21.338  0.2623  0.0167 -0.1337
    11RH     C345677   2.723   2.823  21.503  0.0603 -0.0651 -0.0424
    11RH     C445678   2.817   3.030  21.598 -0.4573  0.3787 -0.5807
    11RH     S245679   2.673   2.752  21.648 -0.0154 -0.2072 -0.1383
    11RH     O145680   2.901   3.078  21.331  0.0188  0.1952  0.2990
    11RH     C545681   2.784   2.905  21.122  0.3399  0.2533  0.0708
    21BTZ    C645682   2.743   2.831  21.013  0.1075  0.2301 -0.1836
    21BTZ    C745683   2.683   2.709  21.024  0.0219  0.2885 -0.0019
    21BTZ    C845684   2.748   2.894  20.884  0.0134  0.1063 -0.2480
    21BTZ    C945685   2.625   2.642  20.910 -0.1594  0.2286  0.1254
    21BTZ   C1045686   2.627   2.698  20.785 -0.2547  0.1104  0.0708
    21BTZ   C1145687   2.689   2.826  20.768 -0.1709  0.0454 -0.1183
    21BTZ    N245688   2.804   3.013  20.860  0.0824  0.0399 -0.4206
    21BTZ    N345689   2.697   2.890  20.651 -0.2499 -0.0699 -0.1874
    21BTZ    S345690   2.783   3.044  20.685 -0.0887 -0.1063 -0.4267
    31IDT   C1245691   2.568   2.627  20.665 -0.5343  0.0336 -0.0750
    31IDT   C1345692   2.560   2.665  20.534 -0.8124 -0.0211 -0.0749
    31IDT   C1445693   2.480   2.577  20.455 -0.6087 -0.3088  0.0367
    31IDT   C1545694   2.426   2.471  20.526 -0.1751 -0.4748  0.1220
    31IDT    S445695   2.474   2.475  20.699  0.0107 -0.2780  0.0675
    4IDB    C1645696   2.347   2.386  20.439  0.4224 -0.1501 -0.3215
    4IDB    C1745697   2.353   2.445  20.309  0.2745 -0.0510 -0.2842
    51IDQ   C1845698   2.435   2.570  20.309  0.3600 -0.9417 -0.4876
    4IDB    C1945699   2.286   2.388  20.202 -0.0271  0.1517 -0.2059
    51IDQ   C2045700   2.544   2.563  20.201  0.1280 -0.1686  1.2717
    51IDQ   C2145701   2.353   2.701  20.300 -0.1935 -1.0851  0.2232
    51IDQ   C2245702   2.194   2.704  20.301 -0.7347  0.2463  0.1378
    51IDQ   C2345703   2.693   2.545  20.226  0.1590 -0.3505  1.4701
    51IDQ   C2445704   2.126   2.838  20.251  0.0986 -0.1287 -0.5597
    51IDQ   C2545705   2.175   2.967  20.320  0.0352  0.0329 -0.0728
    51IDQ   C2645706   2.109   3.092  20.247  0.0796 -0.3643 -0.0413
    51IDQ   C2745707   1.962   3.102  20.274 -0.5566 -0.5695  0.3930
    51IDQ   C2845708   1.882   3.225  20.212 -0.8486  0.0907 -0.4574
    51IDQ   C2945709   1.742   3.209  20.218  0.0925 -1.0383 -1.0063
    51IDQ   C3045710   2.752   2.446  20.322  0.0101  0.0418  0.3713
    51IDQ   C3145711   2.742   2.308  20.236 -0.1668  0.0948  0.6274
    51IDQ   C3245712   2.846   2.200  20.249 -0.9140 -1.1717 -0.5417
    51IDQ   C3345713   2.881   2.168  20.391 -0.5575  0.6464  0.2070
    51IDQ   C3445714   2.989   2.056  20.385  0.6384  0.9612  0.5036
    51IDQ   C3545715   3.018   1.978  20.515  0.1045 -0.6276  0.2195
    4IDB    C3645716   2.274   2.269  20.463  0.2681 -0.0464 -0.2809
    4IDB    C3745717   2.206   2.212  20.352 -0.0402  0.1606 -0.2012
    11RH    C3845718   2.944   3.012  21.684 -0.0755 -1.4398  0.6230
    4IDB    C3945719   2.212   2.270  20.225 -0.1815  0.2554 -0.1655
    62IDT   C4045720   2.133   2.193  20.132  0.3385 -0.5899 -0.6164
    72IDQ   C4145721   2.114   2.087  20.345 -0.3339 -1.0212 -1.2596
    62IDT   C4245722   2.068   2.092  20.200  0.3120 -0.6120 -0.6742
    72IDQ   C4345723   1.995   2.116  20.439 -0.4850 -0.7428  0.5554
    72IDQ   C4445724   2.182   1.944  20.352 -0.6137 -0.1727  0.4392
    62IDT    S545725   2.085   2.198  19.958 -0.0353 -0.1626 -0.5056
    62IDT   C4545726   1.975   2.057  19.989 -0.2167 -0.0301 -0.5445
    62IDT   C4645727   1.979   2.015  20.120 -0.0020 -0.2956 -0.6337
    82BTZ   C4745728   1.906   1.987  19.872  0.1449  0.0041  0.1947
    82BTZ   C4845729   1.941   2.034  19.748  0.4249 -0.0704  0.2441
    82BTZ   C4945730   1.871   1.992  19.629  0.6404 -0.0795  0.1202
    82BTZ   C5045731   1.767   1.903  19.634  0.5757 -0.0142 -0.0536
    82BTZ   C5145732   1.798   1.895  19.883  0.0663  0.0744  0.0143
    82BTZ   C5245733   1.727   1.852  19.762  0.2854  0.0651 -0.1116
    92RH    C5345734   1.690   1.857  19.519 -0.0325 -0.3443  0.0031
    82BTZ    N445735   1.754   1.843  19.998 -0.1992  0.1501 -0.0491
    82BTZ    N545736   1.626   1.765  19.780  0.1960  0.1333 -0.2770
    82BTZ    S645737   1.618   1.734  19.956 -0.1798  0.2140 -0.2788
    92RH    C5445738   1.697   1.862  19.386  0.1304 -0.2092  0.0162
    92RH     S745739   1.823   1.949  19.285  0.3323 -0.2206  0.2578
    92RH    C5545740   1.600   1.794  19.296  0.1727 -0.0236 -0.1717
    92RH     O245741   1.502   1.727  19.333  0.0649  0.0282 -0.3586
    92RH     N645742   1.631   1.816  19.160  0.3544  0.0913 -0.1124
    92RH    C5645743   1.741   1.892  19.130  0.4629  0.0204  0.1001
    92RH    C5745744   1.534   1.756  19.058 -0.3978 -0.6412  0.0828
    92RH    C5845745   1.560   1.615  19.005  0.9063  0.2455  0.7652
    92RH     S845746   1.800   1.933  18.977  0.6825  0.1275  0.2117
    72IDQ   C5945747   2.155   1.859  20.482 -0.7262 -0.2303  0.3952
    72IDQ   C6045748   2.235   1.908  20.599 -0.1684  0.4086 -0.1815
    72IDQ   C6145749   2.356   1.820  20.622 -0.3711 -0.7423 -0.2944
    72IDQ   C6245750   2.470   1.882  20.703  0.1278 -0.6160 -0.8963
    72IDQ   C6345751   2.438   1.935  20.843 -0.6055 -1.0082 -0.5478
    72IDQ   C6445752   2.466   1.842  20.962 -0.4994 -0.3874  0.5001
    72IDQ   C6545753   2.364   1.896  21.062 -0.1178 -0.0994 -0.1055
    72IDQ   C6645754   1.900   2.235  20.411 -0.0596 -0.2893  0.1821
    72IDQ   C6745755   1.765   2.226  20.479 -0.3392 -0.0724 -0.4884
    72IDQ   C6845756   1.654   2.280  20.399  0.2444 -0.2446 -0.4433
    72IDQ   C6945757   1.630   2.429  20.354  0.2650  0.0561  0.2163
    72IDQ   C7045758   1.661   2.442  20.211 -0.1562  0.5544  0.7509
    72IDQ   C7145759   1.712   2.579  20.164 -0.0641  0.0490  0.4471
    72IDQ   C7245760   1.856   2.590  20.212 -0.4588  1.3938 -0.8638
    11RH     C145761   3.717   2.742  18.144 -0.0857  0.2432 -0.0749
    11RH     C245762   3.855   2.705  18.104 -0.0706  0.2763 -0.0529
    11RH     N145763   3.634   2.760  18.031 -0.0657  0.2479 -0.0891
    11RH     S145764   3.866   2.697  17.922 -0.0312  0.3111 -0.0518
    11RH     C345765   3.688   2.742  17.906 -0.0365  0.2804 -0.0806
    11RH     C445766   3.489   2.809  18.039  0.2748 -0.0248  0.2738
    11RH     S245767   3.612   2.757  17.757 -0.0085  0.2928 -0.0935
    11RH     O145768   3.676   2.756  18.261 -0.1122  0.2149 -0.0806
    11RH     C545769   3.953   2.683  18.192 -0.0844  0.2790 -0.0366
    21BTZ    C645770   4.090   2.635  18.184  0.4459  0.2349 -0.1983
    21BTZ    C745771   4.158   2.606  18.069  0.5006  0.1429 -0.1426
    21BTZ    C845772   4.156   2.612  18.310  0.2751  0.0378 -0.1421
    21BTZ    C945773   4.293   2.555  18.071  0.3904 -0.1454 -0.0315
    21BTZ   C1045774   4.360   2.532  18.189  0.2260 -0.3412  0.0242
    21BTZ   C1145775   4.293   2.560  18.312  0.1632 -0.2552 -0.0291
    21BTZ    N245776   4.100   2.636  18.429  0.2074  0.1021 -0.1874
    21BTZ    N345777   4.347   2.542  18.433  0.0055 -0.4264  0.0167
    21BTZ    S345778   4.223   2.592  18.551 -0.0067 -0.2158 -0.0846
    31IDT   C1245779   4.487   2.451  18.180  0.6998 -0.3624  0.2736
    31IDT   C1345780   4.601   2.473  18.252  0.9223 -0.6185  0.0062
    31IDT   C1445781   4.714   2.404  18.199  0.6886 -0.7135 -0.3805
    31IDT   C1545782   4.688   2.329  18.086  0.2872 -0.5309 -0.4093
    31IDT    S445783   4.515   2.340  18.038  0.1731 -0.2216  0.0537
    4IDB    C1645784   4.805   2.266  18.039 -0.2499 -0.0255  0.4874
    4IDB    C1745785   4.915   2.306  18.121 -0.1748  0.2550  0.2522
    51IDQ   C1845786   4.863   2.396  18.237  0.4090  0.1726 -0.7852
    4IDB    C1945787   5.046   2.281  18.082 -0.2044  0.2650  0.1446
    51IDQ   C2045788   4.913   2.317  18.360  0.0393 -0.1625  0.1827
    51IDQ   C2145789   4.916   2.540  18.245 -0.5942  0.2211  0.4105
    51IDQ   C2245790   5.012   2.605  18.148 -0.3613 -0.8330 -0.2140
    51IDQ   C2345791   4.823   2.251  18.459  0.6508 -1.1561  0.1662
    51IDQ   C2445792   5.007   2.757  18.161 -0.4118 -0.7384  0.1294
    51IDQ   C2545793   5.121   2.834  18.109  0.1772 -0.4147  0.0055
    51IDQ   C2645794   5.131   2.978  18.168  0.3621  0.1666  1.1628
    51IDQ   C2745795   5.261   3.058  18.168 -1.2630 -0.6100  0.0940
    51IDQ   C2845796   5.377   3.014  18.254 -0.1879 -0.1927 -1.0217
    51IDQ   C2945797   5.348   3.028  18.404  0.5974  0.1852  0.0019
    51IDQ   C3045798   4.882   2.160  18.572 -0.9026  0.0381  0.2768
    51IDQ   C3145799   4.789   2.060  18.635  0.3081  0.1397  0.5113
    51IDQ   C3245800   4.828   1.912  18.669 -0.1392 -1.0818 -0.1598
    51IDQ   C3345801   4.877   1.809  18.573 -0.2587 -0.2079  0.1814
    51IDQ   C3445802   5.015   1.742  18.615 -0.1496 -0.7162 -0.7881
    51IDQ   C3545803   5.126   1.821  18.664  0.3332  0.3495  0.5026
    4IDB    C3645804   4.826   2.200  17.917 -0.3557 -0.2992  0.6170
    4IDB    C3745805   4.961   2.174  17.879 -0.3847 -0.2846  0.5040
    11RH    C3845806   3.389   2.698  18.048  0.4333  0.2551 -0.0676
    4IDB    C3945807   5.067   2.214  17.960 -0.3103 -0.0087  0.2742
    62IDT   C4045808   5.200   2.175  17.898 -0.3936 -0.5537 -0.6217
    72IDQ   C4145809   5.025   2.087  17.759 -0.3690  0.3580 -0.6398
    62IDT   C4245810   5.177   2.107  17.780 -0.0418 -0.6886 -0.6127
    72IDQ   C4345811   4.993   2.141  17.618  0.3955  0.0900  0.5437
    72IDQ   C4445812   4.962   1.939  17.767 -0.9324  0.2461 -0.0089
    62IDT    S545813   5.375   2.193  17.932 -0.4914 -0.2563 -0.2673
    62IDT   C4545814   5.410   2.103  17.779 -0.0290 -0.3338 -0.1184
    62IDT   C4645815   5.296   2.065  17.713  0.1649 -0.5645 -0.3285
    82BTZ   C4745816   5.545   2.091  17.725  0.1391  0.4394 -0.2185
    82BTZ   C4845817   5.640   2.187  17.747  0.1509  0.4536 -0.3314
    82BTZ   C4945818   5.776   2.171  17.702  0.1454  0.3905 -0.3247
    82BTZ   C5045819   5.816   2.058  17.635  0.1283  0.3131 -0.2052
    82BTZ   C5145820   5.582   1.971  17.656  0.1211  0.3596 -0.0906
    82BTZ   C5245821   5.720   1.954  17.610  0.1156  0.2954 -0.0839
    92RH    C5345822   5.948   2.048  17.579 -0.3652  0.3638 -0.0045
    82BTZ    N445823   5.499   1.871  17.629  0.1087  0.3383  0.0267
    82BTZ    N545824   5.748   1.840  17.547  0.0986  0.2226  0.0386
    82BTZ    S645825   5.595   1.747  17.542  0.0887  0.2332  0.1529
    92RH    C5445826   6.055   2.127  17.585 -0.2719  0.2419 -0.0510
    92RH     S745827   6.071   2.284  17.679  0.0163  0.1184  0.1085
    92RH    C5545828   6.182   2.099  17.514 -0.3928  0.1868 -0.2460
    92RH     O245829   6.204   2.000  17.441 -0.5907  0.2455 -0.3867
    92RH     N645830   6.279   2.199  17.538 -0.2540  0.0562 -0.2544
    92RH    C5645831   6.245   2.304  17.620 -0.0371  0.0001 -0.0901
    92RH    C5745832   6.418   2.174  17.473  0.9599  0.2104  0.0394
    92RH    C5845833   6.433   2.234  17.329 -1.0885  0.0341 -0.5186
    92RH     S845834   6.340   2.436  17.665  0.1611 -0.1527 -0.0620
    72IDQ   C5945835   5.025   1.819  17.699 -0.6882 -0.9644  0.7320
    72IDQ   C6045836   4.923   1.706  17.713  0.0935 -0.3576  0.3712
    72IDQ   C6145837   4.933   1.585  17.623 -0.3388 -0.0066  0.0278
    72IDQ   C6245838   4.867   1.438  17.643 -0.4962 -0.9500 -0.1500
    72IDQ   C6345839   4.729   1.445  17.715 -0.3247 -0.8029  0.5582
    72IDQ   C6445840   4.626   1.364  17.657  1.0975 -0.2219 -0.5237
    72IDQ   C6545841   4.485   1.390  17.724 -0.7240  0.8744 -0.9651
    72IDQ   C6645842   4.865   2.208  17.568  0.9143  0.4566 -0.3735
    72IDQ   C6745843   4.735   2.137  17.588  0.1640 -0.9151 -0.5878
    72IDQ   C6845844   4.688   2.031  17.491 -0.0609  0.5516 -0.6929
    72IDQ   C6945845   4.561   1.960  17.539 -0.5943  0.4588 -0.0063
    72IDQ   C7045846   4.522   1.862  17.432 -0.1146 -0.4519  1.0661
    72IDQ   C7145847   4.379   1.814  17.442  0.5268  0.3619 -0.4698
    72IDQ   C7245848   4.286   1.902  17.373  0.5748  0.4037  0.5766
    11RH     C145849   2.143   3.736   5.784  0.3578 -0.1345 -0.1036
    11RH     C245850   2.070   3.642   5.872  0.1246 -0.0304 -0.1851
    11RH     N145851   2.118   3.709   5.647  0.5098 -0.1287 -0.1334
    11RH     S145852   1.972   3.525   5.770  0.1204  0.0684 -0.2956
    11RH     C345853   2.033   3.605   5.616  0.4269 -0.0326 -0.2288
    11RH     C445854   2.214   3.768   5.555 -0.4055  0.2763  0.4677
    11RH     S245855   1.987   3.553   5.462  0.5712 -0.0045 -0.2824
    11RH     O145856   2.218   3.827   5.822  0.4168 -0.2176 -0.0194
    11RH     C545857   2.076   3.646   6.005 -0.0516 -0.0144 -0.1763
    21BTZ    C645858   2.021   3.572   6.112  0.2567 -0.5780  0.3179
    21BTZ    C745859   1.936   3.466   6.094  0.1124 -0.4759  0.3878
    21BTZ    C845860   2.055   3.611   6.246  0.1589 -0.4181  0.2972
    21BTZ    C945861   1.881   3.393   6.205 -0.1335 -0.2133  0.4402
    21BTZ   C1045862   1.910   3.426   6.335 -0.2348 -0.0533  0.4228
    21BTZ   C1145863   1.998   3.536   6.359 -0.0911 -0.1513  0.3506
    21BTZ    N245864   2.136   3.712   6.277  0.2815 -0.4954  0.2309
    21BTZ    N345865   2.034   3.578   6.481 -0.1695 -0.0142  0.3271
    21BTZ    S345866   2.144   3.717   6.456  0.0782 -0.2250  0.2340
    31IDT   C1245867   1.858   3.332   6.440 -0.7106  0.7643  0.4841
    31IDT   C1345868   1.905   3.317   6.567 -1.2624  1.1116  0.7366
    31IDT   C1445869   1.868   3.191   6.625 -0.7449  0.8751  0.5703
    31IDT   C1545870   1.793   3.111   6.542  0.2023  0.3473  0.1910
    31IDT    S445871   1.763   3.188   6.383  0.5154  0.1067  0.0134
    4IDB    C1645872   1.753   2.991   6.605 -0.4200  0.2738  0.1657
    4IDB    C1745873   1.817   2.978   6.732  0.1009 -0.0395 -0.1239
    51IDQ   C1845874   1.889   3.114   6.758  1.0801  0.7706 -0.9902
    4IDB    C1945875   1.819   2.857   6.799  0.0989 -0.1283 -0.2828
    51IDQ   C2045876   1.826   3.182   6.887 -0.6544  0.9321  2.1491
    51IDQ   C2145877   2.046   3.116   6.777 -0.4013  0.4525 -0.1544
    51IDQ   C2245878   2.124   2.985   6.788 -0.3995  0.0964 -0.2918
    51IDQ   C2345879   1.738   3.305   6.873  0.3790  0.2374 -0.1538
    51IDQ   C2445880   2.266   2.986   6.842  0.3225 -0.6966  1.0041
    51IDQ   C2545881   2.267   3.068   6.966 -0.9556  0.2057 -1.4739
    51IDQ   C2645882   2.400   3.083   7.043 -1.1590  0.7758 -0.5025
    51IDQ   C2745883   2.538   3.087   6.970  0.3490  0.3099  0.3218
    51IDQ   C2845884   2.660   3.087   7.054  0.3946  0.7617  0.7061
    51IDQ   C2945885   2.793   3.102   6.977  1.3180 -0.1428 -0.8208
    51IDQ   C3045886   1.731   3.388   7.007 -0.3900  0.9603 -0.1250
    51IDQ   C3145887   1.858   3.446   7.072 -0.8040 -1.2945 -0.4899
    51IDQ   C3245888   1.851   3.600   7.106 -0.3078  1.0142  0.5871
    51IDQ   C3345889   1.937   3.616   7.228 -0.9339 -1.2290  0.3020
    51IDQ   C3445890   1.894   3.754   7.290  0.2249 -0.0710  0.3568
    51IDQ   C3545891   1.961   3.757   7.424  0.3754 -1.2633 -0.3230
    4IDB    C3645892   1.689   2.881   6.545 -0.9488  0.5013  0.2985
    4IDB    C3745893   1.692   2.758   6.615 -0.9424  0.4063  0.1327
    11RH    C3845894   2.191   3.910   5.515  0.0975  0.1751 -0.8671
    4IDB    C3945895   1.756   2.747   6.739 -0.4299  0.0992 -0.1500
    62IDT   C4045896   1.760   2.602   6.779  0.4705  0.3758  0.4681
    72IDQ   C4145897   1.639   2.620   6.570 -0.3285  0.0390 -0.6953
    62IDT   C4245898   1.688   2.531   6.686  0.4790  0.9671 -0.0060
    72IDQ   C4345899   1.678   2.555   6.431 -0.4040 -0.9488  0.4218
    72IDQ   C4445900   1.480   2.614   6.589  0.1674 -0.7164 -0.1981
    62IDT    S545901   1.824   2.497   6.910 -0.3854 -0.3119  0.3504
    62IDT   C4545902   1.745   2.355   6.828 -0.7020  0.2645 -0.3684
    62IDT   C4645903   1.679   2.391   6.714 -0.1838  0.9051 -0.4795
    82BTZ   C4745904   1.766   2.225   6.888  0.1271 -0.1403 -0.6691
    82BTZ   C4845905   1.659   2.141   6.902  0.2174 -0.3251 -1.0462
    82BTZ   C4945906   1.675   2.002   6.936  0.3440 -0.3427 -1.1750
    82BTZ   C5045907   1.798   1.947   6.956  0.3802 -0.1756 -0.9265
    82BTZ   C5145908   1.898   2.171   6.908  0.1603  0.0392 -0.3978
    82BTZ   C5245909   1.914   2.030   6.943  0.2890  0.0213 -0.5287
    92RH    C5345910   1.820   1.805   6.989  0.0041 -0.0138  0.0339
    82BTZ    N445911   2.010   2.243   6.897  0.0807  0.2275 -0.0232
    82BTZ    N545912   2.040   1.988   6.960  0.3128  0.1951 -0.2596
    82BTZ    S645913   2.145   2.130   6.931  0.1687  0.3934  0.1819
    92RH    C5445914   1.739   1.700   7.006 -0.1056  0.0505 -0.0873
    92RH     S745915   1.557   1.697   6.983 -0.1277  0.3052  0.0435
    92RH    C5545916   1.786   1.566   7.049 -0.2300 -0.0799 -0.3552
    92RH     O245917   1.904   1.535   7.073 -0.2474 -0.2604 -0.4967
    92RH     N645918   1.679   1.474   7.059 -0.3297  0.0271 -0.4341
    92RH    C5645919   1.552   1.518   7.030 -0.3004  0.2272 -0.2620
    92RH    C5745920   1.704   1.329   7.110  0.8736 -0.1507 -0.0643
    92RH    C5845921   1.735   1.219   7.004  0.3915 -0.2841 -0.4400
    92RH     S845922   1.408   1.430   7.035 -0.4007  0.3873 -0.3077
    72IDQ   C5945923   1.396   2.698   6.682 -0.1518  1.0067  0.1428
    72IDQ   C6045924   1.262   2.653   6.741  0.7922  0.0774 -1.0736
    72IDQ   C6145925   1.266   2.532   6.843 -0.5010  0.3178  0.9600
    72IDQ   C6245926   1.322   2.567   6.981 -0.8320 -0.8440 -0.0353
    72IDQ   C6345927   1.244   2.664   7.068  0.4057  0.2396 -0.0113
    72IDQ   C6445928   1.311   2.721   7.194  0.2085  0.1131 -0.3081
    72IDQ   C6545929   1.203   2.772   7.284  0.4496  1.1234  0.7850
    72IDQ   C6645930   1.667   2.641   6.305  0.8878  1.0699  0.0342
    72IDQ   C6745931   1.690   2.563   6.160 -0.0766  0.3823 -0.5678
    72IDQ   C6845932   1.612   2.634   6.056 -0.1598  0.4323  0.5755
    72IDQ   C6945933   1.475   2.586   6.044  0.1839 -0.3409 -0.0422
    72IDQ   C7045934   1.399   2.643   5.923  0.2569 -0.1941 -0.1906
    72IDQ   C7145935   1.379   2.544   5.809  0.2031 -0.6602 -0.4575
    72IDQ   C7245936   1.489   2.473   5.736  0.0959 -0.3700 -0.4161
    11RH     C145937   6.906   2.232  26.287 -0.1911 -0.1494  0.3409
    11RH     C245938   6.821   2.201  26.405 -0.2599 -0.1677  0.2875
    11RH     N145939   6.916   2.372  26.267 -0.0731 -0.1425  0.4455
    11RH     S145940   6.761   2.357  26.481 -0.1648 -0.1747  0.3769
    11RH     C345941   6.851   2.456  26.354 -0.0387 -0.1531  0.4811
    11RH     C445942   6.981   2.422  26.144 -0.1092  0.0357 -1.0766
    11RH     S245943   6.847   2.624  26.351  0.0957 -0.1481  0.6013
    11RH     O145944   6.961   2.149  26.214 -0.2298 -0.1409  0.3023
    11RH     C545945   6.795   2.077  26.447 -0.3740 -0.1773  0.1885
    21BTZ    C645946   6.712   2.012  26.550  0.4029 -0.1329  0.5652
    21BTZ    C745947   6.616   2.080  26.620  0.5398  0.0076  0.6156
    21BTZ    C845948   6.723   1.870  26.568  0.1211 -0.1688  0.4640
    21BTZ    C945949   6.527   2.013  26.712  0.4079  0.1191  0.5693
    21BTZ   C1045950   6.534   1.878  26.733  0.1393  0.0901  0.4727
    21BTZ   C1145951   6.632   1.802  26.661 -0.0130 -0.0554  0.4168
    21BTZ    N245952   6.811   1.792  26.505 -0.0337 -0.3016  0.4077
    21BTZ    N345953   6.648   1.670  26.673 -0.2755 -0.0970  0.3223
    21BTZ    S345954   6.782   1.626  26.564 -0.3643 -0.2870  0.2890
    31IDT   C1245955   6.439   1.829  26.834 -0.0908  0.3533  0.2669
    31IDT   C1345956   6.358   1.718  26.837 -0.5329  0.6388 -0.4759
    31IDT   C1445957   6.303   1.693  26.967 -0.9335  0.1990 -0.7243
    31IDT   C1545958   6.342   1.784  27.063 -0.8001 -0.4230 -0.1743
    31IDT    S445959   6.451   1.910  26.997 -0.1505 -0.5009  0.7095
    4IDB    C1645960   6.288   1.751  27.194  0.7060 -0.1352  0.2080
    4IDB    C1745961   6.212   1.631  27.187  0.9387 -0.2770  0.0825
    51IDQ   C1845962   6.210   1.588  27.039  0.3167 -0.7024 -0.5958
    4IDB    C1945963   6.134   1.589  27.294  0.7635 -0.3693 -0.0784
    51IDQ   C2045964   6.276   1.442  27.063  0.3557 -0.1645 -0.0393
    51IDQ   C2145965   6.071   1.593  26.963 -0.4421  1.2451  0.6883
    51IDQ   C2245966   5.935   1.621  27.017  0.4072 -0.0462  0.0429
    51IDQ   C2345967   6.405   1.401  26.994 -1.2380 -0.7949 -1.2562
    51IDQ   C2445968   5.889   1.769  27.009 -0.6321  0.5988 -0.5399
    51IDQ   C2545969   5.919   1.855  26.886 -0.0344  0.2127 -0.1259
    51IDQ   C2645970   5.863   2.005  26.895 -0.9716  0.4795  0.1163
    51IDQ   C2745971   5.969   2.121  26.904 -0.6055 -0.2098 -0.0901
    51IDQ   C2845972   6.015   2.161  26.772 -0.5435  0.4521  0.8072
    51IDQ   C2945973   6.133   2.255  26.786 -0.1083  0.0341 -0.2198
    51IDQ   C3045974   6.403   1.395  26.847 -0.0219 -0.2110 -0.2227
    51IDQ   C3145975   6.523   1.351  26.782 -0.4265  0.3205 -0.0271
    51IDQ   C3245976   6.558   1.203  26.778  0.3303  0.0722  0.1764
    51IDQ   C3345977   6.620   1.149  26.648  1.0813  1.1455 -0.3045
    51IDQ   C3445978   6.760   1.192  26.630 -0.2471 -0.7167 -0.0832
    51IDQ   C3545979   6.814   1.109  26.517  0.1491  0.4864  0.6225
    4IDB    C3645980   6.288   1.831  27.309  0.2943 -0.0846  0.1731
    4IDB    C3745981   6.208   1.786  27.418  0.1205 -0.1805  0.0081
    11RH    C3845982   7.142   2.451  26.152  0.5296  0.3384  0.6253
    4IDB    C3945983   6.134   1.668  27.410  0.3518 -0.3188 -0.1136
    62IDT   C4045984   6.061   1.660  27.529 -0.3362 -0.3825 -0.4462
    72IDQ   C4145985   6.206   1.849  27.559 -0.3739  0.7202  0.2423
    62IDT   C4245986   6.112   1.748  27.622 -0.0472 -0.1884 -0.7834
    72IDQ   C4345987   6.139   1.991  27.549  0.0024  0.2072  0.7276
    72IDQ   C4445988   6.338   1.826  27.646 -0.0083 -0.3672  0.7417
    62IDT    S545989   5.910   1.581  27.587 -0.0429 -0.4322  0.2736
    62IDT   C4545990   5.925   1.675  27.741  0.4802 -0.1755  0.0718
    62IDT   C4645991   6.035   1.757  27.742  0.4146 -0.0711 -0.4907
    82BTZ   C4745992   5.814   1.660  27.840  0.0192  0.0315  0.1801
    82BTZ   C4845993   5.746   1.541  27.839 -0.0367  0.0632  0.1640
    82BTZ   C4945994   5.633   1.518  27.925 -0.1382  0.1567  0.0544
    82BTZ   C5045995   5.586   1.614  28.010 -0.1832  0.2184 -0.0391
    82BTZ   C5145996   5.769   1.764  27.928 -0.0246  0.0935  0.0844
    82BTZ   C5245997   5.653   1.741  28.014 -0.1277  0.1886 -0.0272
    92RH    C5345998   5.474   1.591  28.096 -0.1704  0.2665 -0.0661
    82BTZ    N445999   5.827   1.884  27.937  0.0224  0.0707  0.0892
    82BTZ    N546000   5.618   1.842  28.093 -0.1634  0.2422 -0.1125
    82BTZ    S646001   5.733   1.975  28.060 -0.0647  0.1720 -0.0513
    92RH    C5446002   5.395   1.485  28.117 -0.1328  0.2177 -0.1712
    92RH     S746003   5.374   1.340  28.006  0.0666  0.2278 -0.2222
    92RH    C5546004   5.309   1.469  28.237 -0.2515  0.1456 -0.2651
    92RH     O246005   5.301   1.550  28.331 -0.3968  0.1222 -0.2580
    92RH     N646006   5.237   1.348  28.233 -0.1788  0.1053 -0.3661
    92RH    C5646007   5.254   1.265  28.124 -0.0165  0.1363 -0.3648
    92RH    C5746008   5.137   1.325  28.336 -1.0602 -0.0364 -0.1678
    92RH    C5846009   5.011   1.380  28.305 -0.0837  1.1062 -0.0680
    92RH     S846010   5.180   1.117  28.095  0.0983  0.1000 -0.4730
    72IDQ   C5946011   6.458   1.922  27.615 -0.5844 -0.1550 -0.2215
    72IDQ   C6046012   6.462   2.063  27.672  0.9861 -0.4483 -0.4141
    72IDQ   C6146013   6.442   2.099  27.814  0.2646  0.0619 -0.4787
    72IDQ   C6246014   6.490   2.248  27.829 -0.6530 -1.4134  0.1506
    72IDQ   C6346015   6.443   2.297  27.967 -0.5393 -0.4900 -0.2481
    72IDQ   C6446016   6.471   2.455  27.972 -0.3609  0.3941 -0.0035
    72IDQ   C6546017   6.388   2.553  27.889 -0.7813 -0.5620  0.1881
    72IDQ   C6646018   6.079   2.083  27.664  0.1186 -0.7465  0.2427
    72IDQ   C6746019   6.043   2.223  27.611 -0.8210 -0.2924 -0.1488
    72IDQ   C6846020   6.137   2.308  27.521 -0.3664  0.5252  0.4349
    72IDQ   C6946021   6.090   2.440  27.499 -0.7862  0.3730  0.2731
    72IDQ   C7046022   5.953   2.440  27.420  0.2496 -0.3986 -1.4356
    72IDQ   C7146023   5.911   2.582  27.373  0.4012  0.7960 -0.4641
    72IDQ   C7246024   5.775   2.574  27.320  0.5442  0.3174 -1.0608
    11RH     C146025   1.631   6.822  13.817  0.0977 -0.0292 -0.2539
    11RH     C246026   1.570   6.771  13.942  0.0263  0.0180 -0.2689
    11RH     N146027   1.763   6.775  13.801  0.1601  0.0869 -0.0850
    11RH     S146028   1.690   6.664  14.031  0.0459  0.2121 -0.0605
    11RH     C346029   1.815   6.692  13.898  0.1476  0.2213  0.0370
    11RH     C446030   1.849   6.815  13.682  0.2946  0.2937 -0.0085
    11RH     S246031   1.969   6.623  13.903  0.2117  0.3762  0.2456
    11RH     O146032   1.575   6.896  13.735  0.1035 -0.1541 -0.3719
    11RH     C546033   1.445   6.800  13.981 -0.0411 -0.0709 -0.4157
    21BTZ    C646034   1.374   6.757  14.100  0.2173  0.0523 -0.1415
    21BTZ    C746035   1.426   6.678  14.200  0.2096 -0.0807 -0.2420
    21BTZ    C846036   1.233   6.785  14.102  0.2024 -0.0192 -0.1600
    21BTZ    C946037   1.343   6.624  14.305  0.1870 -0.2897 -0.3657
    21BTZ   C1046038   1.209   6.649  14.311  0.1721 -0.3651 -0.3880
    21BTZ   C1146039   1.149   6.731  14.209  0.1794 -0.2315 -0.2856
    21BTZ    N246040   1.171   6.861  14.011  0.2079  0.0957 -0.0699
    21BTZ    N346041   1.019   6.762  14.204  0.1664 -0.2872 -0.2959
    21BTZ    S346042   0.999   6.865  14.059  0.1834 -0.0658 -0.1427
    31IDT   C1246043   1.134   6.599  14.425 -0.2483  0.5205 -0.1827
    31IDT   C1346044   1.002   6.561  14.426 -0.1887  0.3139  0.0286
    31IDT   C1446045   0.967   6.484  14.541  0.1771  0.0379 -0.0443
    31IDT   C1546046   1.072   6.461  14.628  0.3982  0.0322 -0.3115
    31IDT    S446047   1.225   6.538  14.570  0.1581  0.3790 -0.4930
    4IDB    C1646048   1.025   6.378  14.738  0.6058 -0.0230  0.3596
    4IDB    C1746049   0.885   6.354  14.727  0.5135  0.4228  0.4954
    51IDQ   C1846050   0.830   6.433  14.603 -0.4735  0.2171  0.7169
    4IDB    C1946051   0.816   6.284  14.825  0.4664  0.2999  0.3772
    51IDQ   C2046052   0.746   6.329  14.509 -0.6066  1.3258 -1.6751
    51IDQ   C2146053   0.738   6.568  14.630 -0.1295  1.2385  0.1100
    51IDQ   C2246054   0.715   6.624  14.768  0.7326 -0.7375 -0.9091
    51IDQ   C2346055   0.757   6.331  14.354  0.2912  0.4996 -0.5216
    51IDQ   C2446056   0.822   6.672  14.865  0.7622  0.4496 -0.7251
    51IDQ   C2546057   0.792   6.685  15.022  0.0381  0.0097 -0.5366
    51IDQ   C2646058   0.641   6.711  15.060 -0.2538 -0.3494  0.1108
    51IDQ   C2746059   0.561   6.579  15.098 -0.3705 -0.6772  0.6199
    51IDQ   C2846060   0.617   6.466  15.195  0.3008  0.7906  1.1336
    51IDQ   C2946061   0.653   6.478  15.341  0.3082 -0.0218  0.1503
    51IDQ   C3046062   0.694   6.461  14.297 -0.9583  0.8271 -0.3985
    51IDQ   C3146063   0.749   6.473  14.152  0.3964  1.3541 -0.6096
    51IDQ   C3246064   0.690   6.378  14.048  0.8774 -0.1141 -0.5447
    51IDQ   C3346065   0.765   6.404  13.920  0.4300  0.4873  0.1417
    51IDQ   C3446066   0.725   6.339  13.791  0.3417 -0.1273 -0.7080
    51IDQ   C3546067   0.792   6.383  13.665 -0.2065  0.0075  0.3755
    4IDB    C3646068   1.098   6.333  14.849  0.6518 -0.5980  0.1030
    4IDB    C3746069   1.026   6.262  14.949  0.6026 -0.7154 -0.0148
    11RH    C3846070   1.802   6.774  13.550 -0.1275  0.1254  0.3393
    4IDB    C3946071   0.889   6.239  14.937  0.5124 -0.2751  0.1199
    62IDT   C4046072   0.839   6.170  15.051  0.2410  0.8588 -0.0263
    72IDQ   C4146073   1.079   6.210  15.083  0.2389 -1.1865 -0.4883
    62IDT   C4246074   0.942   6.163  15.142 -0.1989  1.0049  0.4880
    72IDQ   C4346075   1.133   6.327  15.181 -0.4076  0.6360  0.1587
    72IDQ   C4446076   1.187   6.095  15.076 -0.1799  0.3646 -0.0341
    62IDT    S546077   0.692   6.083  15.107  0.2249  0.2566 -0.9569
    62IDT   C4546078   0.782   6.039  15.259 -0.4065  0.2333 -0.5837
    62IDT   C4646079   0.910   6.089  15.260 -0.5656  0.6515  0.1736
    82BTZ   C4746080   0.724   5.952  15.365 -0.1922 -0.1193  0.5455
    82BTZ   C4846081   0.588   5.942  15.371 -0.1937  0.0014  0.7303
    82BTZ   C4946082   0.521   5.860  15.469 -0.1336  0.0533  0.8142
    82BTZ   C5046083   0.592   5.787  15.561 -0.0723 -0.0157  0.7138
    82BTZ   C5146084   0.802   5.878  15.459 -0.1292 -0.1951  0.4342
    82BTZ   C5246085   0.735   5.794  15.559 -0.0682 -0.1426  0.5200
    92RH    C5346086   0.532   5.701  15.663 -0.1406 -0.0131 -0.0625
    82BTZ    N446087   0.936   5.879  15.464 -0.1214 -0.3138  0.2527
    82BTZ    N546088   0.815   5.728  15.644 -0.0114 -0.2189  0.4070
    82BTZ    S646089   0.982   5.771  15.599 -0.0339 -0.3645  0.1822
    92RH    C5446090   0.403   5.681  15.693 -0.1892 -0.0044 -0.2644
    92RH     S746091   0.259   5.775  15.630 -0.0535  0.2476 -0.1979
    92RH    C5546092   0.356   5.574  15.785 -0.3669 -0.2054 -0.5834
    92RH     O246093   0.429   5.493  15.844 -0.4894 -0.4015 -0.6995
    92RH     N646094   0.215   5.575  15.798 -0.3819 -0.1476 -0.7453
    92RH    C5646095   0.144   5.670  15.728 -0.2380  0.0755 -0.5949
    92RH    C5746096   0.145   5.468  15.881  0.2890  0.1581 -0.2627
    92RH    C5846097   0.086   5.345  15.801 -0.7625 -0.6531  0.4089
    92RH     S846098  -0.023   5.693  15.726 -0.2214  0.1884 -0.7346
    72IDQ   C5946099   1.159   5.944  15.062 -1.0524 -0.4819  0.2795
    72IDQ   C6046100   1.292   5.886  15.000  0.2362 -0.3509 -0.1295
    72IDQ   C6146101   1.293   5.738  14.992  0.2248  0.0126 -0.1740
    72IDQ   C6246102   1.422   5.675  14.954 -1.2468 -0.1899 -0.4983
    72IDQ   C6346103   1.461   5.711  14.809 -0.3917  0.4955  0.2495
    72IDQ   C6446104   1.582   5.636  14.762 -0.6185  0.2011  0.4781
    72IDQ   C6546105   1.719   5.687  14.815 -0.6641 -0.6698 -0.9460
    72IDQ   C6646106   1.059   6.455  15.191  0.1442  0.6995 -0.6923
    72IDQ   C6746107   1.119   6.561  15.274  0.3097  0.1266  0.0187
    72IDQ   C6846108   1.056   6.699  15.269  0.4364 -0.2710  0.3978
    72IDQ   C6946109   1.097   6.782  15.391  0.4199 -1.4070  0.1245
    72IDQ   C7046110   1.027   6.918  15.416  0.3820 -0.9521  0.0617
    72IDQ   C7146111   1.070   7.021  15.531 -0.1924 -0.1510  0.3342
    72IDQ   C7246112   1.014   7.157  15.495  0.2522  0.5050 -0.1318
    11RH     C146113   6.737   2.733  24.911 -0.0417  0.4841  0.1554
    11RH     C246114   6.719   2.756  25.056  0.1607  0.2767  0.2141
    11RH     N146115   6.809   2.614  24.886 -0.2608  0.4067 -0.1205
    11RH     S146116   6.798   2.620  25.150  0.0498 -0.0066 -0.0969
    11RH     C346117   6.851   2.539  24.993 -0.2587  0.1626 -0.2894
    11RH     C446118   6.835   2.578  24.743 -0.3585 -1.4032  0.2943
    11RH     S246119   6.938   2.394  24.991 -0.4933  0.0244 -0.6237
    11RH     O146120   6.695   2.806  24.820 -0.0257  0.7001  0.3223
    11RH     C546121   6.654   2.861  25.107  0.3876  0.3003  0.4600
    21BTZ    C646122   6.609   2.883  25.243 -0.2010  0.0618  0.0800
    21BTZ    C746123   6.616   2.790  25.343 -0.2519  0.0522  0.0749
    21BTZ    C846124   6.556   3.013  25.273 -0.1047  0.0984  0.0944
    21BTZ    C946125   6.572   2.819  25.477 -0.2109  0.0781  0.0825
    21BTZ   C1046126   6.520   2.942  25.511 -0.1190  0.1133  0.0958
    21BTZ   C1146127   6.510   3.042  25.410 -0.0629  0.1246  0.1020
    21BTZ    N246128   6.544   3.111  25.184 -0.0479  0.1109  0.1006
    21BTZ    N346129   6.462   3.165  25.430  0.0273  0.1583  0.1149
    21BTZ    S346130   6.472   3.250  25.273  0.0634  0.1577  0.1162
    31IDT   C1246131   6.466   2.948  25.653 -0.7706 -0.5324  0.0798
    31IDT   C1346132   6.455   2.851  25.750 -1.5925 -0.4920  0.0420
    31IDT   C1446133   6.403   2.901  25.873 -1.3871 -0.1442 -0.0091
    31IDT   C1546134   6.374   3.036  25.872 -0.4096  0.0819 -0.0104
    31IDT    S446135   6.410   3.111  25.712  0.3334 -0.1296  0.0534
    4IDB    C1646136   6.340   3.075  26.008 -0.4295 -0.4162  0.0593
    4IDB    C1746137   6.366   2.962  26.091 -0.2353 -0.3376  0.1082
    51IDQ   C1846138   6.396   2.837  26.008 -0.9883  0.2867 -0.5206
    4IDB    C1946139   6.353   2.970  26.230  0.0129 -0.2276  0.1248
    51IDQ   C2046140   6.536   2.794  26.075 -1.0292  0.2936 -0.3710
    51IDQ   C2146141   6.298   2.721  26.007 -0.6019  0.9943  0.0982
    51IDQ   C2246142   6.166   2.722  26.079 -0.0335 -0.5754  0.2016
    51IDQ   C2346143   6.666   2.774  26.004 -0.1990 -0.5357 -0.8185
    51IDQ   C2446144   6.053   2.625  26.044  0.0678  0.3927  0.5709
    51IDQ   C2546145   6.092   2.486  26.020 -0.1711  0.7997 -0.0906
    51IDQ   C2646146   5.961   2.398  25.985  0.5839  0.1832 -1.0359
    51IDQ   C2746147   5.991   2.263  25.933 -0.9987 -0.2930  0.0658
    51IDQ   C2846148   5.865   2.186  25.903  0.6260  0.8350 -0.1770
    51IDQ   C2946149   5.877   2.054  25.827  0.8757 -0.5728  0.4247
    51IDQ   C3046150   6.747   2.897  25.975 -0.4702 -0.1457 -0.0679
    51IDQ   C3146151   6.880   2.865  25.921 -0.8515 -0.1886  0.2166
    51IDQ   C3246152   6.956   2.984  25.861 -0.2773  0.1430 -0.2363
    51IDQ   C3346153   7.111   2.958  25.887 -0.0812  0.1464  0.0573
    51IDQ   C3446154   7.198   3.032  25.781 -1.4594  0.3123  0.1032
    51IDQ   C3546155   7.275   2.935  25.684  0.6433 -0.0061 -0.0725
    4IDB    C3646156   6.301   3.198  26.064 -0.3759 -0.3851  0.0267
    4IDB    C3746157   6.289   3.205  26.205 -0.1209 -0.2723  0.0439
    11RH    C3846158   6.759   2.462  24.678  0.4339 -0.2470 -0.0458
    4IDB    C3946159   6.314   3.093  26.285  0.0666 -0.1964  0.0925
    62IDT   C4046160   6.289   3.132  26.421  0.8914 -0.2216  0.2180
    72IDQ   C4146161   6.270   3.332  26.296  0.4466  0.7942 -0.0345
    62IDT   C4246162   6.266   3.267  26.430  0.5295 -0.2564 -0.1373
    72IDQ   C4346163   6.140   3.411  26.268 -0.3389 -0.2626 -0.1238
    72IDQ   C4446164   6.379   3.440  26.263 -1.3361  0.3151  0.0749
    62IDT    S546165   6.274   3.050  26.580  0.4833  0.0591  0.3249
    62IDT   C4546166   6.235   3.212  26.654 -0.1877  0.1174 -0.1395
    62IDT   C4646167   6.235   3.313  26.562 -0.0809 -0.0648 -0.3400
    82BTZ   C4746168   6.207   3.216  26.797  0.3404 -0.3975  0.2903
    82BTZ   C4846169   6.271   3.128  26.881  0.2146 -0.4408  0.3419
    82BTZ   C4946170   6.234   3.115  27.020  0.1818 -0.3224  0.3448
    82BTZ   C5046171   6.133   3.190  27.075  0.2746 -0.1610  0.2959
    82BTZ   C5146172   6.101   3.297  26.850  0.4414 -0.2299  0.2389
    82BTZ   C5246173   6.064   3.283  26.992  0.4081 -0.1096  0.2413
    92RH    C5346174   6.105   3.176  27.220 -0.4176 -0.8952 -0.1365
    82BTZ    N446175   6.032   3.386  26.779  0.5676 -0.1731  0.1860
    82BTZ    N546176   5.964   3.362  27.034  0.5074  0.0439  0.1907
    82BTZ    S646177   5.913   3.458  26.892  0.6506  0.0412  0.1367
    92RH    C5446178   6.160   3.109  27.322 -0.2686 -0.6505 -0.0529
    92RH     S746179   6.285   2.975  27.310 -0.0438 -0.4558  0.1071
    92RH    C5546180   6.126   3.133  27.464 -0.2635 -0.4950 -0.0777
    92RH     O246181   6.045   3.217  27.506 -0.3936 -0.5710 -0.1769
    92RH     N646182   6.199   3.048  27.550 -0.0892 -0.2435  0.0268
    92RH    C5646183   6.287   2.958  27.493  0.0460 -0.1785  0.1335
    92RH    C5746184   6.165   3.035  27.696 -0.2913 -0.9356 -0.2777
    92RH    C5846185   6.040   2.949  27.719 -0.7422 -0.2406 -0.3999
    92RH     S846186   6.386   2.846  27.572  0.2636  0.1062  0.2699
    72IDQ   C5946187   6.446   3.502  26.387 -0.6007 -0.0696 -0.3782
    72IDQ   C6046188   6.573   3.581  26.349 -0.7875 -0.3101 -0.5366
    72IDQ   C6146189   6.657   3.625  26.455 -0.7967 -1.3756 -0.3594
    72IDQ   C6246190   6.809   3.662  26.429 -0.0498  0.4463  0.4627
    72IDQ   C6346191   6.892   3.560  26.340  0.6659  0.5429 -0.0096
    72IDQ   C6446192   7.043   3.579  26.323 -0.0992 -0.2783 -0.0042
    72IDQ   C6546193   7.085   3.723  26.283  0.1620 -0.4381  0.1748
    72IDQ   C6646194   6.078   3.512  26.367  0.1323 -0.2464  0.2139
    72IDQ   C6746195   5.943   3.574  26.319  0.0170  0.2252 -0.2571
    72IDQ   C6846196   5.942   3.648  26.188  0.1565  0.0006 -0.8444
    72IDQ   C6946197   5.821   3.733  26.166 -0.3141 -0.6420 -0.0297
    72IDQ   C7046198   5.871   3.810  26.034  2.0751  0.0595 -0.3603
    72IDQ   C7146199   5.761   3.802  25.922  0.2630  0.2490  0.1908
    72IDQ   C7246200   5.686   3.683  25.860 -0.4033 -0.7401 -0.2286
    11RH     C146201   0.976   2.514  19.498 -0.1992 -0.3082  0.0739
    11RH     C246202   0.993   2.612  19.388 -0.2078 -0.3697  0.0176
    11RH     N146203   0.840   2.482  19.517 -0.2339 -0.0036  0.3598
    11RH     S146204   0.830   2.655  19.317 -0.2610 -0.0230  0.3445
    11RH     C346205   0.746   2.542  19.436 -0.2692  0.1866  0.5393
    11RH     C446206   0.787   2.433  19.653 -0.5106  0.1828  0.3916
    11RH     S246207   0.579   2.520  19.438 -0.3145  0.5563  0.8874
    11RH     O146208   1.067   2.465  19.566 -0.1661 -0.4960 -0.1035
    11RH     C546209   1.112   2.659  19.349 -0.1801 -0.6405 -0.2357
    21BTZ    C646210   1.163   2.748  19.248 -0.0085  0.1356  0.2646
    21BTZ    C746211   1.074   2.803  19.160  0.0339  0.3521  0.3557
    21BTZ    C846212   1.302   2.780  19.236  0.0267 -0.0134  0.2704
    21BTZ    C946213   1.118   2.892  19.055  0.1124  0.4326  0.4563
    21BTZ   C1046214   1.249   2.926  19.039  0.1485  0.2965  0.4655
    21BTZ   C1146215   1.346   2.871  19.129  0.1066  0.0684  0.3719
    21BTZ    N246216   1.398   2.733  19.316 -0.0086 -0.2276  0.1864
    21BTZ    N346217   1.477   2.896  19.124  0.1354 -0.0801  0.3705
    21BTZ    S346218   1.551   2.803  19.257  0.0601 -0.3362  0.2360
    31IDT   C1246219   1.289   3.012  18.927  0.6874 -0.6063 -0.4136
    31IDT   C1346220   1.395   3.098  18.908  0.6223 -0.6074 -0.7925
    31IDT   C1446221   1.379   3.180  18.792  0.0125 -0.3228 -0.5207
    31IDT   C1546222   1.263   3.157  18.722 -0.3902 -0.1036  0.0667
    31IDT    S446223   1.162   3.029  18.798 -0.0251 -0.2417  0.3222
    4IDB    C1646224   1.270   3.232  18.594  0.1171 -0.4160 -0.2635
    4IDB    C1746225   1.378   3.324  18.604 -0.0561 -0.2159 -0.2165
    51IDQ   C1846226   1.460   3.293  18.735 -0.7726  0.4175  0.0112
    4IDB    C1946227   1.411   3.409  18.499 -0.3063  0.0014 -0.1210
    51IDQ   C2046228   1.603   3.220  18.689 -0.2188 -0.0533  0.9332
    51IDQ   C2146229   1.477   3.414  18.834 -0.4934 -0.5994 -0.6278
    51IDQ   C2246230   1.617   3.475  18.872 -0.0992 -0.0455  0.4134
    51IDQ   C2346231   1.649   3.071  18.715  0.7451  1.0892  0.3535
    51IDQ   C2446232   1.634   3.595  18.961  0.4106 -0.5467  0.7966
    51IDQ   C2546233   1.767   3.651  18.998  0.4433  0.2601 -0.2339
    51IDQ   C2646234   1.874   3.675  18.887  0.4615  0.1419 -0.0018
    51IDQ   C2746235   1.864   3.768  18.767  0.1587  0.3742  0.3085
    51IDQ   C2846236   1.726   3.814  18.713  0.1377  0.3348 -0.3229
    51IDQ   C2946237   1.733   3.894  18.590 -0.0327 -0.5187  0.1772
    51IDQ   C3046238   1.787   3.038  18.669  0.2143  0.3423  0.1937
    51IDQ   C3146239   1.905   3.115  18.731 -0.2688  0.8954 -0.9580
    51IDQ   C3246240   1.946   3.260  18.689 -0.0822  0.3295 -0.5519
    51IDQ   C3346241   1.954   3.277  18.541  1.7997  0.5905 -0.1592
    51IDQ   C3446242   1.938   3.428  18.497  0.3820  0.5104  1.0796
    51IDQ   C3546243   1.791   3.481  18.484 -0.0780  0.1744 -0.5427
    4IDB    C3646244   1.192   3.224  18.477  0.0404 -0.3996 -0.2131
    4IDB    C3746245   1.227   3.311  18.370 -0.2160 -0.1761 -0.1149
    11RH    C3846246   0.748   2.280  19.660 -0.1012 -0.6883 -0.1254
    4IDB    C3946247   1.333   3.401  18.382 -0.3830  0.0179 -0.0711
    62IDT   C4046248   1.339   3.486  18.261 -0.0503 -0.4191 -0.5918
    72IDQ   C4146249   1.172   3.323  18.232  0.5302 -0.5421  0.6686
    62IDT   C4246250   1.246   3.441  18.169 -0.0875 -0.0247 -0.7510
    72IDQ   C4346251   1.021   3.380  18.229 -0.9342  0.1362  0.8206
    72IDQ   C4446252   1.167   3.182  18.160  0.7355 -0.5921  1.5120
    62IDT    S546253   1.426   3.632  18.203  0.1779 -0.3755 -0.1486
    62IDT   C4546254   1.328   3.624  18.050  0.2127  0.2019 -0.2040
    62IDT   C4646255   1.240   3.519  18.050  0.0611  0.3270 -0.5322
    82BTZ   C4746256   1.361   3.711  17.935 -0.5800  0.6142  0.5610
    82BTZ   C4846257   1.445   3.815  17.962 -0.6579  0.6989  0.4783
    82BTZ   C4946258   1.477   3.915  17.862 -0.5842  0.5377  0.3395
    82BTZ   C5046259   1.423   3.910  17.736 -0.4328  0.2921  0.2834
    82BTZ   C5146260   1.302   3.701  17.805 -0.4212  0.3585  0.5069
    82BTZ   C5246261   1.334   3.802  17.704 -0.3462  0.1947  0.3653
    92RH    C5346262   1.457   3.997  17.623 -0.2260  0.0767 -0.2896
    82BTZ    N446263   1.218   3.604  17.767 -0.3333  0.2545  0.5770
    82BTZ    N546264   1.275   3.787  17.585 -0.1982 -0.0410  0.3214
    82BTZ    S646265   1.175   3.639  17.597 -0.1471 -0.0641  0.4635
    92RH    C5446266   1.533   4.103  17.593 -0.2280  0.1230 -0.1297
    92RH     S746267   1.628   4.206  17.711 -0.3387  0.0294  0.0421
    92RH    C5546268   1.552   4.154  17.455 -0.1372  0.2624 -0.0653
    92RH     O246269   1.501   4.106  17.353 -0.0504  0.3508 -0.1512
    92RH     N646270   1.637   4.267  17.453 -0.1611  0.2838  0.1076
    92RH    C5646271   1.688   4.312  17.573 -0.2598  0.1787  0.1903
    92RH    C5746272   1.661   4.329  17.318 -0.2406 -0.2635  0.4559
    92RH    C5846273   1.793   4.325  17.255 -0.8280 -0.1693  0.7956
    92RH     S846274   1.791   4.443  17.598 -0.3079  0.1777  0.3948
    72IDQ   C5946275   1.308   3.135  18.128  1.0764 -0.4137  0.0215
    72IDQ   C6046276   1.306   2.985  18.061 -0.3631 -0.6273 -0.1358
    72IDQ   C6146277   1.234   2.956  17.931 -0.4630 -0.1256 -0.5137
    72IDQ   C6246278   1.262   3.065  17.824  0.1859 -0.5369  0.6033
    72IDQ   C6346279   1.152   3.077  17.726  0.9988 -0.2909  0.7624
    72IDQ   C6446280   1.172   3.198  17.624 -0.9332 -0.2284 -0.0578
    72IDQ   C6546281   1.047   3.227  17.532 -0.5288 -0.3279 -0.0563
    72IDQ   C6646282   0.898   3.368  18.309  0.2109 -0.1982 -0.0846
    72IDQ   C6746283   0.877   3.230  18.363  0.8172  0.2446  0.1946
    72IDQ   C6846284   0.833   3.104  18.282  0.9247 -0.1889  0.1262
    72IDQ   C6946285   0.771   2.993  18.370 -0.2377  0.1863 -0.9722
    72IDQ   C7046286   0.869   2.919  18.467  0.1770 -0.6857  0.9861
    72IDQ   C7146287   0.973   2.835  18.390  0.7139 -0.3434  0.2475
    72IDQ   C7246288   1.079   2.796  18.477 -0.2532  0.0637 -0.0971
    11RH     C146289   4.005   5.194  19.639 -0.3003 -0.0032 -0.6452
    11RH     C246290   3.861   5.211  19.669 -0.2537 -0.0709 -0.3800
    11RH     N146291   4.078   5.311  19.667 -0.2302 -0.1206 -0.3287
    11RH     S146292   3.831   5.381  19.733 -0.1209 -0.2848  0.2674
    11RH     C346293   4.010   5.421  19.716 -0.1332 -0.2743  0.1574
    11RH     C446294   4.231   5.329  19.637  1.4715  1.0651  0.0769
    11RH     S246295   4.073   5.572  19.757 -0.0361 -0.4350  0.6070
    11RH     O146296   4.057   5.091  19.594 -0.3892  0.1383 -1.0886
    11RH     C546297   3.769   5.115  19.651 -0.3038  0.0149 -0.5957
    21BTZ    C646298   3.622   5.123  19.641 -0.4091  0.3242  0.5662
    21BTZ    C746299   3.553   5.239  19.659 -0.5511  0.2352  0.5994
    21BTZ    C846300   3.549   5.000  19.631 -0.2751  0.2671  0.2761
    21BTZ    C946301   3.409   5.241  19.667 -0.5687  0.0867  0.3510
    21BTZ   C1046302   3.335   5.127  19.658 -0.4441  0.0272  0.0708
    21BTZ   C1146303   3.403   5.002  19.639 -0.2930  0.1161  0.0238
    21BTZ    N246304   3.605   4.880  19.613 -0.1308  0.3430  0.2160
    21BTZ    N346305   3.342   4.884  19.629 -0.1630  0.0709 -0.2384
    21BTZ    S346306   3.471   4.762  19.607 -0.0092  0.2224 -0.1732
    31IDT   C1246307   3.186   5.133  19.645 -0.2142  0.0703 -0.2857
    31IDT   C1346308   3.101   5.045  19.707 -0.0768  0.3967  0.3915
    31IDT   C1446309   2.963   5.081  19.693 -0.1038  0.3678  0.5836
    31IDT   C1546310   2.942   5.197  19.621 -0.2616  0.0196  0.0562
    31IDT    S446311   3.096   5.270  19.565 -0.3893 -0.3009 -0.7330
    4IDB    C1646312   2.808   5.233  19.615 -0.5548 -0.5216 -1.2746
    4IDB    C1746313   2.735   5.140  19.695 -0.3402 -0.7738 -1.3714
    51IDQ   C1846314   2.824   5.016  19.736 -1.1050 -0.1407 -0.2198
    4IDB    C1946315   2.599   5.157  19.719 -0.1832 -0.5717 -0.5518
    51IDQ   C2046316   2.801   4.999  19.890 -0.4505  0.1262 -0.4531
    51IDQ   C2146317   2.795   4.872  19.658 -0.3930  0.4281 -1.0273
    51IDQ   C2246318   2.675   4.833  19.569  0.0496 -0.7515  0.6819
    51IDQ   C2346319   2.894   5.038  20.006 -0.5926 -0.1023 -0.0709
    51IDQ   C2446320   2.684   4.680  19.545  1.0287 -2.0638  0.2103
    51IDQ   C2546321   2.623   4.641  19.409 -0.4138  0.1258  0.7944
    51IDQ   C2646322   2.583   4.491  19.384 -0.2312  0.0664 -0.8046
    51IDQ   C2746323   2.685   4.391  19.431 -0.7349 -0.7556 -0.1551
    51IDQ   C2846324   2.640   4.254  19.485 -0.1265  0.5026  0.3106
    51IDQ   C2946325   2.743   4.188  19.570 -0.3816 -0.0468  0.2916
    51IDQ   C3046326   2.910   5.186  20.032 -0.7908  0.1163 -0.5157
    51IDQ   C3146327   3.004   5.191  20.158 -0.1660  0.3971 -0.3692
    51IDQ   C3246328   3.024   5.334  20.203  0.0415 -1.0573 -0.1613
    51IDQ   C3346329   3.131   5.359  20.312 -0.9203  0.6348 -0.0719
    51IDQ   C3446330   3.071   5.336  20.444 -0.5169 -0.0444  0.3495
    51IDQ   C3546331   3.178   5.363  20.552  0.6628 -0.1951 -0.4526
    4IDB    C3646332   2.744   5.345  19.558 -0.6140 -0.0629 -0.3514
    4IDB    C3746333   2.605   5.360  19.583 -0.4514  0.1379  0.4778
    11RH    C3846334   4.339   5.262  19.718 -0.3253  0.0089  0.3187
    4IDB    C3946335   2.536   5.268  19.662 -0.2424 -0.1129  0.3708
    62IDT   C4046336   2.399   5.305  19.676 -0.1672 -0.1944  0.0786
    72IDQ   C4146337   2.514   5.472  19.542  0.1558 -0.7507 -0.2799
    62IDT   C4246338   2.381   5.429  19.618  0.1166 -0.0362  0.3233
    72IDQ   C4346339   2.501   5.493  19.387 -0.6125  0.1519  0.4097
    72IDQ   C4446340   2.574   5.611  19.579  0.4001 -0.0834  0.8066
    62IDT    S546341   2.246   5.239  19.742 -0.3388 -0.0175 -0.1425
    62IDT   C4546342   2.161   5.389  19.685 -0.0014  0.2752  0.1210
    62IDT   C4646343   2.247   5.477  19.623  0.2108  0.2295  0.3476
    82BTZ   C4746344   2.017   5.411  19.732 -0.2746  0.2763  0.2025
    82BTZ   C4846345   1.980   5.335  19.839 -0.2763  0.2722  0.1984
    82BTZ   C4946346   1.847   5.342  19.894 -0.2800  0.2629  0.1903
    82BTZ   C5046347   1.752   5.425  19.842 -0.2821  0.2577  0.1866
    82BTZ   C5146348   1.921   5.500  19.673 -0.2767  0.2713  0.1979
    82BTZ   C5246349   1.786   5.506  19.729 -0.2805  0.2619  0.1903
    92RH    C5346350   1.610   5.416  19.884 -0.0442 -0.2929 -0.3851
    82BTZ    N446351   1.945   5.579  19.568 -0.2755  0.2748  0.2007
    82BTZ    N546352   1.701   5.591  19.670 -0.2823  0.2576  0.1869
    82BTZ    S646353   1.793   5.667  19.536 -0.2791  0.2657  0.1929
    92RH    C5446354   1.543   5.340  19.971 -0.0449 -0.2035 -0.3076
    92RH     S746355   1.611   5.208  20.077  0.0159  0.1338  0.0795
    92RH    C5546356   1.397   5.353  19.994 -0.0971 -0.3706 -0.5307
    92RH     O246357   1.321   5.434  19.938 -0.1453 -0.6083 -0.8106
    92RH     N646358   1.352   5.261  20.091 -0.0856 -0.2254 -0.3861
    92RH    C5646359   1.444   5.175  20.148 -0.0305  0.0376 -0.0734
    92RH    C5746360   1.210   5.252  20.134  0.2909 -0.0115 -0.0808
    92RH    C5846361   1.135   5.160  20.035 -0.3140  0.1460 -0.0489
    92RH     S846362   1.417   5.057  20.265 -0.0057  0.2530  0.1526
    72IDQ   C5946363   2.530   5.703  19.694 -0.6020  0.7375 -0.8071
    72IDQ   C6046364   2.592   5.654  19.829 -0.0087 -0.4676  0.5109
    72IDQ   C6146365   2.521   5.676  19.960  1.1854 -0.2230 -0.2949
    72IDQ   C6246366   2.607   5.684  20.079  0.6147  0.5266  0.5206
    72IDQ   C6346367   2.531   5.709  20.212  0.6997  0.5560  0.5301
    72IDQ   C6446368   2.445   5.585  20.258 -0.2282  0.0936  1.0643
    72IDQ   C6546369   2.390   5.608  20.394 -0.7183 -0.3115 -0.6448
    72IDQ   C6646370   2.405   5.401  19.310  0.5675  0.2266 -0.4357
    72IDQ   C6746371   2.434   5.253  19.292 -0.3131  0.5912  0.0001
    72IDQ   C6846372   2.545   5.228  19.194  0.4013  0.1552 -0.6278
    72IDQ   C6946373   2.536   5.272  19.042 -0.1765 -0.2730 -0.3062
    72IDQ   C7046374   2.452   5.186  18.965  0.6047  0.3398  1.3630
    72IDQ   C7146375   2.400   5.268  18.845  1.0591 -0.4329  0.3822
    72IDQ   C7246376   2.322   5.192  18.746  0.0825  0.1221 -0.0629
    11RH     C146377   3.840   6.607  26.336  0.0103  0.0864 -0.0453
    11RH     C246378   3.791   6.747  26.326  0.0710  0.1109 -0.0067
    11RH     N146379   3.973   6.603  26.384  0.0551  0.0227 -0.1754
    11RH     S146380   3.922   6.863  26.380  0.1830  0.0482 -0.1443
    11RH     C346381   4.036   6.722  26.413  0.1442 -0.0072 -0.2460
    11RH     C446382   4.054   6.476  26.373  0.8829 -0.7162 -0.5766
    11RH     S246383   4.193   6.744  26.471  0.2124 -0.0827 -0.4010
    11RH     O146384   3.775   6.505  26.307 -0.0699  0.1172  0.0253
    11RH     C546385   3.668   6.779  26.283  0.0452  0.1701  0.1112
    21BTZ    C646386   3.591   6.899  26.255  0.3769  0.2116 -0.3744
    21BTZ    C746387   3.643   7.024  26.272  0.2552  0.2240 -0.0768
    21BTZ    C846388   3.457   6.885  26.208  0.3110  0.1984 -0.1845
    21BTZ    C946389   3.566   7.143  26.243  0.0640  0.2240  0.4201
    21BTZ   C1046390   3.437   7.135  26.198 -0.0053  0.2117  0.6181
    21BTZ   C1146391   3.378   7.005  26.179  0.1166  0.1984  0.3209
    21BTZ    N246392   3.395   6.768  26.188  0.4160  0.1857 -0.4387
    21BTZ    N346393   3.253   6.985  26.136  0.0653  0.1857  0.4730
    21BTZ    S346394   3.231   6.807  26.130  0.2678  0.1730 -0.0346
    31IDT   C1246395   3.355   7.257  26.211  0.1124 -0.0057  0.1069
    31IDT   C1346396   3.220   7.271  26.189  0.1370  0.0288 -0.0253
    31IDT   C1446397   3.171   7.399  26.227  0.1182  0.0141  0.0005
    31IDT   C1546398   3.267   7.484  26.278  0.0792 -0.0316  0.1497
    31IDT    S446399   3.429   7.407  26.282  0.0631 -0.0599  0.2725
    4IDB    C1646400   3.208   7.606  26.323  0.2344 -0.1269 -0.5138
    4IDB    C1746401   3.069   7.604  26.288  0.1691 -0.1070 -0.2570
    51IDQ   C1846402   3.037   7.469  26.218  0.6789 -1.2148 -0.0741
    4IDB    C1946403   2.985   7.709  26.323  0.2705 -0.0467 -0.1927
    51IDQ   C2046404   2.915   7.402  26.299  0.0169 -0.7181  0.1600
    51IDQ   C2146405   2.986   7.491  26.070 -0.1260  0.9019  0.2029
    51IDQ   C2246406   3.026   7.599  25.974  0.5448 -1.9938 -0.4362
    51IDQ   C2346407   2.911   7.262  26.364 -0.3448 -0.4863 -0.3643
    51IDQ   C2446408   2.962   7.611  25.843  0.2430 -0.4506  0.9169
    51IDQ   C2546409   2.974   7.747  25.774  0.1745  0.3195  0.8486
    51IDQ   C2646410   2.932   7.746  25.624 -0.0075 -0.3486 -0.5597
    51IDQ   C2746411   2.779   7.726  25.601  0.1606 -0.6937 -0.0078
    51IDQ   C2846412   2.738   7.701  25.453  0.8297 -0.1576 -0.5221
    51IDQ   C2946413   2.591   7.667  25.446 -0.2236 -0.1595 -0.6478
    51IDQ   C3046414   3.027   7.216  26.455  0.6091  0.0080 -0.9998
    51IDQ   C3146415   3.031   7.301  26.579 -0.2139 -1.4354 -0.4845
    51IDQ   C3246416   2.902   7.298  26.659 -0.3224  0.2485  1.3921
    51IDQ   C3346417   2.887   7.393  26.780  0.6824  0.4299 -0.8909
    51IDQ   C3446418   2.913   7.547  26.752 -0.6608 -0.0365  0.5519
    51IDQ   C3546419   2.949   7.629  26.879  0.2102  0.0584 -0.1008
    4IDB    C3646420   3.263   7.714  26.392  0.4025 -0.0864 -0.7091
    4IDB    C3746421   3.176   7.821  26.427  0.5042 -0.0250 -0.6399
    11RH    C3846422   4.108   6.385  26.480 -0.2355 -0.2486  1.2293
    4IDB    C3946423   3.041   7.817  26.392  0.4386 -0.0062 -0.3886
    62IDT   C4046424   2.969   7.938  26.450  0.2816  0.2471  0.8513
    72IDQ   C4146425   3.210   7.965  26.482  0.0853  0.2839 -0.5793
    62IDT   C4246426   3.065   8.021  26.503 -0.0830  0.6289  0.9294
    72IDQ   C4346427   3.294   8.060  26.384  0.7888  0.7264 -0.2307
    72IDQ   C4446428   3.267   7.957  26.631  0.6969 -0.4072  0.5707
    62IDT    S546429   2.805   8.011  26.459  0.0758 -0.0988  0.0967
    62IDT   C4546430   2.879   8.157  26.539 -0.5213  0.3109 -0.0819
    62IDT   C4646431   3.015   8.145  26.554 -0.5374  0.6655  0.4025
    82BTZ   C4746432   2.799   8.277  26.589  0.1564  0.0149  0.2747
    82BTZ   C4846433   2.666   8.255  26.617  0.1675  0.0168  0.3295
    82BTZ   C4946434   2.574   8.365  26.632  0.1420  0.0123  0.2041
    82BTZ   C5046435   2.613   8.495  26.619  0.1053  0.0060  0.0226
    82BTZ   C5146436   2.846   8.411  26.575  0.1181  0.0084  0.0863
    82BTZ   C5246437   2.751   8.523  26.590  0.0922  0.0039 -0.0415
    92RH    C5346438   2.515   8.610  26.614  0.0754  0.2296 -0.2964
    82BTZ    N446439   2.972   8.445  26.548  0.1038  0.0060  0.0157
    82BTZ    N546440   2.802   8.645  26.575  0.0571 -0.0021 -0.2151
    82BTZ    S646441   2.976   8.623  26.540  0.0556 -0.0022 -0.2219
    92RH    C5446442   2.382   8.611  26.608  0.0654  0.0646 -0.1101
    92RH     S746443   2.269   8.471  26.646  0.2696  0.0688  0.5355
    92RH    C5546444   2.302   8.730  26.569 -0.1191 -0.1540 -0.4106
    92RH     O246445   2.349   8.840  26.537 -0.2833 -0.2095 -0.8612
    92RH     N646446   2.164   8.703  26.572 -0.0869 -0.2962 -0.1198
    92RH    C5646447   2.122   8.577  26.609  0.1010 -0.2184  0.3777
    92RH    C5746448   2.054   8.794  26.510 -0.6154  0.5571 -0.3403
    92RH    C5846449   2.011   8.914  26.608 -0.0163  0.3963  0.2744
    92RH     S846450   1.964   8.519  26.620  0.1783 -0.3534  0.8030
    72IDQ   C5946451   3.359   7.847  26.690 -1.1846  0.0470  0.4225
    72IDQ   C6046452   3.320   7.808  26.834  0.3117  0.3035  0.2678
    72IDQ   C6146453   3.382   7.686  26.891  0.6815 -0.2191  0.1375
    72IDQ   C6246454   3.344   7.545  26.836 -0.2364  0.3813 -0.0008
    72IDQ   C6346455   3.451   7.435  26.883 -0.9874 -0.2484  0.2769
    72IDQ   C6446456   3.593   7.443  26.834 -0.7351  0.2996 -1.0527
    72IDQ   C6546457   3.621   7.487  26.688  0.8253  0.4878  1.1299
    72IDQ   C6646458   3.407   8.007  26.294 -1.0064 -0.0157 -0.0109
    72IDQ   C6746459   3.429   8.090  26.165  0.4632  0.9344  1.0481
    72IDQ   C6846460   3.566   8.062  26.115 -0.4151 -0.2894 -0.0784
    72IDQ   C6946461   3.623   8.174  26.024 -0.0676 -0.7150  0.6910
    72IDQ   C7046462   3.641   8.317  26.083 -0.5189  0.9169 -1.3576
    72IDQ   C7146463   3.718   8.422  26.001 -0.2031 -0.2661  0.3934
    72IDQ   C7246464   3.868   8.411  25.977 -0.2743  0.0752  0.2521
    11RH     C146465   4.921   5.097  20.908  0.1221  0.2503  0.0801
    11RH     C246466   4.985   5.195  20.998 -0.1563  0.4175  0.0968
    11RH     N146467   4.799   5.146  20.855  0.1289  0.0324 -0.1439
    11RH     S146468   4.881   5.346  21.009 -0.3906  0.2771 -0.1847
    11RH     C346469   4.758   5.272  20.893 -0.1098  0.0044 -0.3099
    11RH     C446470   4.711   5.056  20.773  0.2593  1.3804 -0.1115
    11RH     S246471   4.618   5.353  20.845 -0.1564 -0.2359 -0.5879
    11RH     O146472   4.966   4.985  20.879  0.3265  0.2919  0.2408
    11RH     C546473   5.101   5.174  21.061 -0.2184  0.6362  0.2898
    21BTZ    C646474   5.184   5.263  21.148  0.1995  0.0479  0.0692
    21BTZ    C746475   5.149   5.390  21.187  0.3920  0.0679  0.1807
    21BTZ    C846476   5.296   5.200  21.212  0.1370 -0.1584 -0.0229
    21BTZ    C946477   5.222   5.460  21.289  0.5325 -0.1122  0.2065
    21BTZ   C1046478   5.330   5.404  21.353  0.4799 -0.3123  0.1213
    21BTZ   C1146479   5.370   5.272  21.316  0.2798 -0.3415  0.0038
    21BTZ    N246480   5.340   5.077  21.183 -0.0465 -0.1979 -0.1340
    21BTZ    N346481   5.474   5.207  21.370  0.2110 -0.5282 -0.0873
    21BTZ    S346482   5.481   5.048  21.289 -0.0446 -0.4768 -0.2125
    31IDT   C1246483   5.406   5.482  21.458  0.3867 -0.8441  0.6213
    31IDT   C1346484   5.441   5.452  21.587  1.3461 -0.5935  0.4306
    31IDT   C1446485   5.522   5.553  21.648  1.5134 -0.3108 -0.2489
    31IDT   C1546486   5.549   5.661  21.565  0.6847 -0.3436 -0.5800
    31IDT    S446487   5.473   5.642  21.404 -0.3817 -0.7389 -0.0525
    4IDB    C1646488   5.620   5.762  21.641 -0.0367 -0.0789  0.2207
    4IDB    C1746489   5.663   5.707  21.765  0.0688  0.0336  0.2341
    51IDQ   C1846490   5.588   5.578  21.786 -0.5367  0.5264  0.2846
    4IDB    C1946491   5.752   5.776  21.847 -0.0088  0.1920  0.1854
    51IDQ   C2046492   5.713   5.465  21.802  0.5825 -0.2982  0.2131
    51IDQ   C2146493   5.473   5.568  21.897 -0.3958 -1.0329  0.3155
    51IDQ   C2246494   5.428   5.691  21.986  0.6266  0.9954  0.0867
    51IDQ   C2346495   5.724   5.390  21.931 -0.7465 -0.0857  1.4119
    51IDQ   C2446496   5.311   5.642  22.067  0.1773 -0.4464 -0.3412
    51IDQ   C2546497   5.341   5.536  22.164  1.1993  0.0078 -0.1454
    51IDQ   C2646498   5.209   5.447  22.166 -0.7923  0.4908 -0.0970
    51IDQ   C2746499   5.233   5.309  22.230  0.2136 -0.1834 -0.9068
    51IDQ   C2846500   5.120   5.204  22.229 -0.5389  0.0407 -0.4775
    51IDQ   C2946501   5.188   5.069  22.266 -0.4102 -1.0641 -0.6313
    51IDQ   C3046502   5.780   5.481  22.041  0.0233  1.1371  0.3489
    51IDQ   C3146503   5.819   5.413  22.172  0.4359 -0.5271  0.2169
    51IDQ   C3246504   5.893   5.485  22.284 -0.7842  0.5047 -0.2528
    51IDQ   C3346505   5.824   5.600  22.357  1.1823  0.8308 -1.0101
    51IDQ   C3446506   5.872   5.631  22.497  0.2575  1.0373 -0.3407
    51IDQ   C3546507   5.757   5.706  22.568  0.6788  0.5271  0.4316
    4IDB    C3646508   5.665   5.887  21.597 -0.2215 -0.0335  0.1583
    4IDB    C3746509   5.756   5.956  21.682 -0.2984  0.1287  0.1087
    11RH    C3846510   4.708   5.052  20.628 -0.3105  0.0066  0.5182
    4IDB    C3946511   5.797   5.901  21.803 -0.1935  0.2374  0.1228
    62IDT   C4046512   5.912   5.980  21.853 -0.2977 -0.0925 -0.3155
    72IDQ   C4146513   5.818   6.101  21.665 -1.2569  0.5322 -0.7873
    62IDT   C4246514   5.918   6.101  21.786 -0.1493 -0.1582 -0.4206
    72IDQ   C4346515   5.717   6.218  21.687  0.5523 -0.6417  0.7317
    72IDQ   C4446516   5.899   6.111  21.536  0.2989  0.5303  0.1443
    62IDT    S546517   6.035   5.970  21.984 -0.6026  0.0455 -0.0145
    62IDT   C4546518   6.090   6.138  21.939 -0.5088  0.0048 -0.0490
    62IDT   C4646519   6.019   6.190  21.834 -0.2683 -0.1032 -0.2704
    82BTZ   C4746520   6.217   6.194  22.009 -0.2413  0.0139 -0.0558
    82BTZ   C4846521   6.282   6.114  22.098 -0.2071 -0.1787 -0.2527
    82BTZ   C4946522   6.406   6.155  22.160 -0.0658 -0.4058 -0.3791
    82BTZ   C5046523   6.463   6.276  22.133  0.0406 -0.4401 -0.3086
    82BTZ   C5146524   6.273   6.322  21.977 -0.1334 -0.0132  0.0243
    82BTZ   C5246525   6.398   6.364  22.040  0.0100 -0.2440 -0.1040
    92RH    C5346526   6.583   6.318  22.207  0.0239 -0.2273  0.1523
    82BTZ    N446527   6.218   6.409  21.892 -0.1540  0.1609  0.2131
    82BTZ    N546528   6.444   6.484  22.006  0.1048 -0.2556 -0.0186
    82BTZ    S646529   6.327   6.551  21.888  0.0125  0.0344  0.2347
    92RH    C5446530   6.649   6.267  22.312 -0.0682 -0.2300  0.2103
    92RH     S746531   6.617   6.108  22.396  0.0861 -0.4009 -0.0506
    92RH    C5546532   6.763   6.336  22.377 -0.3181 -0.0896  0.5054
    92RH     O246533   6.810   6.446  22.343 -0.4687  0.0445  0.7296
    92RH     N646534   6.815   6.261  22.484 -0.3666 -0.1262  0.5029
    92RH    C5646535   6.756   6.140  22.514 -0.1868 -0.2786  0.2427
    92RH    C5746536   6.934   6.312  22.547 -0.2701  0.9135  0.1993
    92RH    C5846537   6.914   6.418  22.644 -0.1128 -0.8673 -0.3150
    92RH     S846538   6.798   6.031  22.636 -0.1985 -0.3526  0.1807
    72IDQ   C5946539   5.836   6.178  21.416  0.1724  0.2809 -0.1864
    72IDQ   C6046540   5.718   6.117  21.336 -0.3727 -0.1407 -0.5189
    72IDQ   C6146541   5.595   6.210  21.341 -0.2598  0.7235  0.5990
    72IDQ   C6246542   5.475   6.170  21.248 -0.4061 -0.0733  0.5704
    72IDQ   C6346543   5.352   6.262  21.263  1.8464 -0.2445 -0.9341
    72IDQ   C6446544   5.233   6.214  21.192 -0.3235 -0.0252  0.3743
    72IDQ   C6546545   5.094   6.268  21.239 -0.2245 -0.3219  1.1380
    72IDQ   C6646546   5.669   6.270  21.825  1.2115 -0.2264 -0.4729
    72IDQ   C6746547   5.579   6.169  21.909  0.0875 -0.1912  0.1107
    72IDQ   C6846548   5.518   6.217  22.039 -1.2137 -0.7033 -0.6225
    72IDQ   C6946549   5.607   6.236  22.170 -0.2279 -0.4863 -0.1999
    72IDQ   C7046550   5.690   6.112  22.202 -0.8041 -0.6911 -0.5116
    72IDQ   C7146551   5.805   6.155  22.309 -0.2076 -0.2815 -0.3218
    72IDQ   C7246552   5.874   6.038  22.376 -0.9054  0.3780 -0.4193
    11RH     C146553   4.584   2.695  14.449 -0.2220 -0.0520 -0.1564
    11RH     C246554   4.448   2.680  14.392 -0.2781  0.0127 -0.0403
    11RH     N146555   4.586   2.664  14.587 -0.1076 -0.1065 -0.1699
    11RH     S146556   4.332   2.626  14.523 -0.1769 -0.0024  0.0436
    11RH     C346557   4.468   2.626  14.647 -0.0654 -0.0935 -0.0787
    11RH     C446558   4.707   2.668  14.668 -1.1860  0.3784  0.7719
    11RH     S246559   4.444   2.584  14.809  0.0666 -0.1492 -0.0725
    11RH     O146560   4.686   2.729  14.386 -0.2676 -0.0588 -0.2337
    11RH     C546561   4.419   2.703  14.263 -0.3863  0.0720 -0.0054
    21BTZ    C646562   4.292   2.696  14.189  0.2089  0.3518  0.0599
    21BTZ    C746563   4.175   2.653  14.244  0.2881  0.0848  0.0236
    21BTZ    C846564   4.292   2.741  14.053  0.1626  0.2732  0.0334
    21BTZ    C946565   4.052   2.652  14.170  0.3262 -0.2708 -0.0398
    21BTZ   C1046566   4.046   2.695  14.040  0.2845 -0.3586 -0.0667
    21BTZ   C1146567   4.167   2.741  13.977  0.2011 -0.0882 -0.0310
    21BTZ    N246568   4.400   2.786  13.988  0.0849  0.5105  0.0639
    21BTZ    N346569   4.174   2.785  13.851  0.1544 -0.1413 -0.0525
    21BTZ    S346570   4.345   2.829  13.824  0.0568  0.2774  0.0103
    31IDT   C1246571   3.916   2.709  13.972  0.2461  0.6006  0.4999
    31IDT   C1346572   3.803   2.754  14.037  0.4109  0.9214  0.5670
    31IDT   C1446573   3.687   2.753  13.954  0.3092  1.0307  0.7067
    31IDT   C1546574   3.710   2.707  13.826  0.0666  0.7946  0.7467
    31IDT    S446575   3.882   2.661  13.800 -0.0528  0.4119  0.6097
    4IDB    C1646576   3.588   2.689  13.752  0.3557  0.2425  0.0472
    4IDB    C1746577   3.486   2.743  13.836  0.1861  0.1108 -0.0722
    51IDQ   C1846578   3.540   2.784  13.976  0.2972 -0.4557  0.5629
    4IDB    C1946579   3.354   2.751  13.792  0.2002 -0.1947 -0.1713
    51IDQ   C2046580   3.512   2.935  14.018  0.9349 -0.6678  0.9231
    51IDQ   C2146581   3.477   2.708  14.098  0.8497 -0.0517 -0.7381
    51IDQ   C2246582   3.385   2.589  14.084 -0.4961  0.8696  0.6074
    51IDQ   C2346583   3.619   3.042  14.019 -0.0744 -0.1377  0.5013
    51IDQ   C2446584   3.444   2.459  14.009  0.5612 -0.0938  0.5899
    51IDQ   C2546585   3.553   2.388  14.060  0.6354  0.5214 -0.2207
    51IDQ   C2646586   3.556   2.243  14.015 -0.3849  0.0252 -0.5707
    51IDQ   C2746587   3.467   2.158  14.105  0.6108 -0.5045 -0.1555
    51IDQ   C2846588   3.502   2.018  14.101  0.0852 -0.3283 -0.9598
    51IDQ   C2946589   3.400   1.929  14.192  0.6576 -1.4212  0.7459
    51IDQ   C3046590   3.673   3.065  13.869  1.0195 -0.4899 -0.1228
    51IDQ   C3146591   3.765   3.187  13.852  0.4743 -0.2002  0.2913
    51IDQ   C3246592   3.705   3.320  13.902 -0.6186  0.4960  0.1493
    51IDQ   C3346593   3.805   3.417  13.960 -0.5289  0.1968  0.6406
    51IDQ   C3446594   3.759   3.537  14.038 -0.2197 -0.4286  0.1723
    51IDQ   C3546595   3.668   3.524  14.156 -0.0420  0.1032  1.3260
    4IDB    C3646596   3.559   2.642  13.623  0.5413  0.0682  0.0677
    4IDB    C3746597   3.423   2.650  13.581  0.5528 -0.2437 -0.0348
    11RH    C3846598   4.788   2.531  14.655  0.4654 -0.8456 -1.1782
    4IDB    C3946599   3.325   2.703  13.664  0.3858 -0.3691 -0.1508
    62IDT   C4046600   3.201   2.712  13.596  0.3005  0.3404 -0.3316
    72IDQ   C4146601   3.353   2.602  13.454  0.7003  0.8487  0.2366
    62IDT   C4246602   3.213   2.666  13.466  0.1493  0.1916 -0.2940
    72IDQ   C4346603   3.346   2.452  13.428  0.3868 -0.3086 -0.5224
    72IDQ   C4446604   3.399   2.683  13.325 -0.8639  0.5533 -0.3624
    62IDT    S546605   3.033   2.761  13.635  0.2290 -0.1252 -0.0269
    62IDT   C4546606   2.985   2.716  13.465 -0.0134 -0.5156  0.1438
    62IDT   C4646607   3.091   2.668  13.392 -0.0284 -0.2926 -0.0250
    82BTZ   C4746608   2.838   2.711  13.434  0.0209  0.2560  0.0107
    82BTZ   C4846609   2.751   2.735  13.537  0.0097  0.4230 -0.0374
    82BTZ   C4946610   2.608   2.737  13.516  0.0173  0.5343 -0.0837
    82BTZ   C5046611   2.553   2.715  13.393  0.0364  0.4783 -0.0820
    82BTZ   C5146612   2.785   2.688  13.303  0.0409  0.1915  0.0141
    82BTZ   C5246613   2.640   2.689  13.282  0.0489  0.3045 -0.0329
    92RH    C5346614   2.403   2.708  13.373 -0.0471 -0.2254  0.1209
    82BTZ    N446615   2.860   2.663  13.195  0.0534  0.0314  0.0587
    82BTZ    N546616   2.599   2.666  13.157  0.0676  0.2353 -0.0265
    82BTZ    S646617   2.746   2.641  13.059  0.0762  0.0180  0.0414
    92RH    C5446618   2.298   2.712  13.457  0.0126 -0.2558  0.1974
    92RH     S746619   2.304   2.733  13.639  0.1214  0.0767  0.1562
    92RH    C5546620   2.158   2.699  13.413 -0.0011 -0.5750  0.3312
    92RH     O246621   2.120   2.683  13.295 -0.0679 -0.8469  0.3877
    92RH     N646622   2.068   2.706  13.522  0.0726 -0.5346  0.3889
    92RH    C5646623   2.120   2.724  13.648  0.1435 -0.2221  0.3178
    92RH    C5746624   1.919   2.697  13.489 -1.0387 -1.0650 -0.2749
    92RH    C5846625   1.843   2.832  13.485  0.0201  0.2777 -0.2761
    92RH     S846626   2.036   2.736  13.793  0.2386 -0.1081  0.3641
    72IDQ   C5946627   3.534   2.653  13.257  0.2765 -0.8068 -1.3171
    72IDQ   C6046628   3.582   2.784  13.187  0.1734  0.2875 -0.0687
    72IDQ   C6146629   3.725   2.775  13.121 -0.6182  0.5935 -1.3315
    72IDQ   C6246630   3.832   2.722  13.226  0.1343  0.4831  0.9961
    72IDQ   C6346631   3.881   2.817  13.344  1.1089  0.9748  0.5554
    72IDQ   C6446632   3.989   2.738  13.429  0.4664 -0.9756  0.5460
    72IDQ   C6546633   4.055   2.808  13.547  0.5026 -1.1801 -0.1521
    72IDQ   C6646634   3.328   2.365  13.548  0.2769 -0.6289  1.2475
    72IDQ   C6746635   3.331   2.219  13.525  0.0069  0.1196 -0.9983
    72IDQ   C6846636   3.401   2.157  13.645  0.7960 -0.1012  0.3927
    72IDQ   C6946637   3.412   2.008  13.634 -0.2151 -0.9216 -0.4811
    72IDQ   C7046638   3.516   1.937  13.729  0.2035 -0.4949 -0.0911
    72IDQ   C7146639   3.486   1.793  13.773 -0.5918 -0.4236  0.8243
    72IDQ   C7246640   3.360   1.755  13.838  0.1589 -0.8947 -0.6596
    11RH     C146641   7.373   0.352  20.246 -0.3887  0.0863 -0.4268
    11RH     C246642   7.250   0.297  20.184 -0.4920  0.0439 -0.1884
    11RH     N146643   7.359   0.489  20.277 -0.4423  0.0364 -0.2302
    11RH     S146644   7.124   0.430  20.170 -0.6529 -0.0587  0.2783
    11RH     C346645   7.240   0.551  20.248 -0.5758 -0.0407  0.1369
    11RH     C446646   7.478   0.558  20.334 -0.5719 -0.0565 -0.5222
    11RH     S246647   7.198   0.712  20.275 -0.6638 -0.1117  0.4306
    11RH     O146648   7.477   0.287  20.269 -0.2695  0.1566 -0.7572
    11RH     C546649   7.237   0.170  20.144 -0.4674  0.0777 -0.3066
    21BTZ    C646650   7.138   0.098  20.075  0.0886  0.0565 -0.6255
    21BTZ    C746651   7.029   0.156  20.016  0.0335 -0.0041 -0.5832
    21BTZ    C846652   7.142  -0.045  20.087  0.0339  0.0758 -0.3524
    21BTZ    C946653   6.919   0.077  19.967 -0.0772 -0.0484 -0.2723
    21BTZ   C1046654   6.918  -0.060  19.975 -0.1330 -0.0322 -0.0051
    21BTZ   C1146655   7.031  -0.125  20.036 -0.0789  0.0308 -0.0372
    21BTZ    N246656   7.243  -0.113  20.142  0.0786  0.1335 -0.3643
    21BTZ    N346657   7.042  -0.258  20.050 -0.1246  0.0521  0.2046
    21BTZ    S346658   7.199  -0.286  20.131 -0.0233  0.1326  0.0366
    31IDT   C1246659   6.803  -0.141  19.931 -0.0664 -0.1144  0.3584
    31IDT   C1346660   6.801  -0.275  19.904 -0.1628 -0.1591  0.5827
    31IDT   C1446661   6.670  -0.322  19.869 -0.1588 -0.0839  0.4654
    31IDT   C1546662   6.573  -0.224  19.869 -0.0593  0.0183  0.1525
    31IDT    S446663   6.640  -0.064  19.914  0.0377  0.0273 -0.0201
    4IDB    C1646664   6.444  -0.287  19.827  0.1011 -0.5894  0.1911
    4IDB    C1746665   6.470  -0.420  19.783  0.1769 -0.4423 -0.2160
    51IDQ   C1846666   6.613  -0.457  19.833 -0.4065  0.0409  0.2230
    4IDB    C1946667   6.367  -0.500  19.734  0.2436 -0.3112 -0.5722
    51IDQ   C2046668   6.614  -0.556  19.953  0.3445 -0.0699 -0.5975
    51IDQ   C2146669   6.703  -0.511  19.714 -0.8043 -0.2383  0.5919
    51IDQ   C2246670   6.673  -0.491  19.559  0.2505  0.3556 -0.9418
    51IDQ   C2346671   6.657  -0.531  20.093  0.5356  0.0662 -0.6295
    51IDQ   C2446672   6.803  -0.496  19.481 -0.3857 -0.4824  0.2579
    51IDQ   C2546673   6.771  -0.506  19.334  1.4352 -0.3835 -0.1530
    51IDQ   C2646674   6.884  -0.493  19.226 -0.4058  0.3243  0.7651
    51IDQ   C2746675   6.834  -0.458  19.084 -1.0777  0.1479  0.3522
    51IDQ   C2846676   6.871  -0.555  18.962 -1.5544  0.1336  0.6993
    51IDQ   C2946677   7.024  -0.597  18.955 -0.6925 -1.1642  0.9237
    51IDQ   C3046678   6.579  -0.417  20.159  0.9686  0.0881 -0.0909
    51IDQ   C3146679   6.659  -0.287  20.203  0.0664  0.7031  0.3270
    51IDQ   C3246680   6.560  -0.181  20.275 -1.2531  0.6461 -0.2634
    51IDQ   C3346681   6.617  -0.039  20.264  0.0066 -0.3721  0.6803
    51IDQ   C3446682   6.746   0.008  20.339  0.2954  0.8955  0.3067
    51IDQ   C3546683   6.740  -0.008  20.491 -0.6183  0.0575  1.4795
    4IDB    C3646684   6.315  -0.232  19.823  0.0916 -0.6063  0.2456
    4IDB    C3746685   6.211  -0.315  19.772  0.1605 -0.4711 -0.1221
    11RH    C3846686   7.502   0.583  20.482 -0.0761  0.1992  0.5014
    4IDB    C3946687   6.238  -0.445  19.729  0.2340 -0.3281 -0.5186
    62IDT   C4046688   6.114  -0.504  19.677 -0.3687  0.5786  0.3182
    72IDQ   C4146689   6.062  -0.286  19.746  0.8415 -0.4641 -1.4770
    62IDT   C4246690   6.016  -0.407  19.667 -0.7060  0.2280  0.1860
    72IDQ   C4346691   6.031  -0.156  19.662  0.5125 -0.9052  0.1276
    72IDQ   C4446692   5.983  -0.269  19.885  0.0144 -0.2582 -0.1384
    62IDT    S546693   6.071  -0.653  19.586  0.2277  0.3671  0.3721
    62IDT   C4546694   5.915  -0.573  19.538 -0.0225 -0.2121  0.2046
    62IDT   C4646695   5.903  -0.446  19.589 -0.5107 -0.2195  0.1211
    82BTZ   C4746696   5.809  -0.641  19.461 -0.1668 -0.0615  0.4080
    82BTZ   C4846697   5.683  -0.589  19.463 -0.1189  0.0651  0.2041
    82BTZ   C4946698   5.573  -0.655  19.396 -0.0736  0.1849  0.0114
    82BTZ   C5046699   5.590  -0.772  19.327 -0.0762  0.1780  0.0227
    82BTZ   C5146700   5.833  -0.764  19.390 -0.1717 -0.0740  0.4282
    82BTZ   C5246701   5.721  -0.831  19.322 -0.1255  0.0478  0.2327
    92RH    C5346702   5.485  -0.830  19.237  0.0584  0.1086 -0.2611
    82BTZ    N446703   5.951  -0.824  19.381 -0.2164 -0.1915  0.6170
    82BTZ    N546704   5.750  -0.944  19.259 -0.1330  0.0280  0.2642
    82BTZ    S646705   5.925  -0.972  19.284 -0.2009 -0.1506  0.5510
    92RH    C5446706   5.359  -0.805  19.203  0.0144  0.0437 -0.1483
    92RH     S746707   5.256  -0.663  19.257 -0.0863 -0.1322  0.1262
    92RH    C5546708   5.280  -0.892  19.112  0.0420  0.1069 -0.2337
    92RH     O246709   5.321  -0.996  19.058  0.1076  0.2251 -0.4148
    92RH     N646710   5.149  -0.842  19.093 -0.0165  0.0153 -0.0806
    92RH    C5646711   5.114  -0.725  19.157 -0.0873 -0.1137  0.1163
    92RH    C5746712   5.053  -0.909  19.009  0.3133  0.0666  1.0129
    92RH    C5846713   4.970  -1.012  19.093 -0.7647 -1.1427  0.7421
    92RH     S846714   4.966  -0.644  19.151 -0.1661 -0.2413  0.3252
    72IDQ   C5946715   6.030  -0.322  20.033  1.0234 -0.1560  0.1927
    72IDQ   C6046716   6.036  -0.480  20.044 -0.0036 -0.7761  0.7644
    72IDQ   C6146717   6.152  -0.534  20.120  0.1947 -0.0083 -0.2276
    72IDQ   C6246718   6.161  -0.684  20.076  0.2038 -0.5565  0.0324
    72IDQ   C6346719   6.209  -0.775  20.183  0.3339 -1.0734 -0.0326
    72IDQ   C6446720   6.173  -0.927  20.166  0.0275 -0.3280 -0.3230
    72IDQ   C6546721   6.062  -0.979  20.074 -0.6048  0.4735  1.4915
    72IDQ   C6646722   5.891  -0.105  19.619 -0.0074 -0.4918 -0.7530
    72IDQ   C6746723   5.887   0.017  19.540 -0.5788 -0.3640  0.5739
    72IDQ   C6846724   5.746   0.064  19.517  1.1534  0.6062 -0.2280
    72IDQ   C6946725   5.676  -0.011  19.400 -0.1065  1.1410 -1.0433
    72IDQ   C7046726   5.534   0.044  19.367 -0.5848  0.0669  0.1210
    72IDQ   C7146727   5.462  -0.036  19.248 -0.5466 -0.2370 -0.3071
    72IDQ   C7246728   5.545   0.001  19.118 -0.1220  0.7427 -1.2876
    11RH     C146729   1.072   5.267  15.322 -0.0175  0.0118  0.2024
    11RH     C246730   1.177   5.367  15.352 -0.0145  0.0529  0.0556
    11RH     N146731   0.944   5.326  15.317 -0.0425 -0.0299  0.3344
    11RH     S146732   1.101   5.533  15.371 -0.0447  0.0338  0.0999
    11RH     C346733   0.934   5.462  15.339 -0.0599 -0.0274  0.3109
    11RH     C446734   0.828   5.231  15.320  0.9997 -0.1727  0.0922
    11RH     S246735   0.794   5.556  15.338 -0.0907 -0.0719  0.4466
    11RH     O146736   1.092   5.146  15.304 -0.0005  0.0129  0.2124
    11RH     C546737   1.307   5.337  15.362  0.0074  0.0967 -0.0861
    21BTZ    C646738   1.440   5.392  15.382  0.2602  0.0560  0.1143
    21BTZ    C746739   1.460   5.526  15.403  0.2533  0.0591  0.1013
    21BTZ    C846740   1.555   5.308  15.367  0.2638  0.0700  0.0627
    21BTZ    C946741   1.592   5.584  15.410  0.2494  0.0759  0.0374
    21BTZ   C1046742   1.704   5.507  15.396  0.2525  0.0897 -0.0133
    21BTZ   C1146743   1.689   5.366  15.374  0.2598  0.0871 -0.0024
    21BTZ    N246744   1.549   5.176  15.346  0.2705  0.0685  0.0691
    21BTZ    N346745   1.791   5.281  15.359  0.2634  0.0995 -0.0482
    21BTZ    S346746   1.718   5.119  15.335  0.2722  0.0897 -0.0092
    31IDT   C1246747   1.832   5.569  15.425  0.0304 -0.2043  0.3140
    31IDT   C1346748   1.953   5.553  15.363  0.1937 -0.6616  0.7374
    31IDT   C1446749   2.047   5.654  15.397  0.3180 -0.7745  0.7329
    31IDT   C1546750   1.999   5.749  15.485  0.2503 -0.4050  0.3068
    31IDT    S446751   1.829   5.716  15.532  0.0219  0.1193 -0.1256
    4IDB    C1646752   2.095   5.854  15.502  0.4156 -0.5298  0.1745
    4IDB    C1746753   2.220   5.824  15.439  0.4841  0.0719  0.0160
    51IDQ   C1846754   2.187   5.697  15.353 -1.1414 -0.6571 -0.3674
    4IDB    C1946755   2.329   5.910  15.453  0.1156  0.5587 -0.0576
    51IDQ   C2046756   2.230   5.746  15.213  1.6295  0.5199  1.0614
    51IDQ   C2146757   2.283   5.566  15.378  0.7835 -0.3061 -0.1653
    51IDQ   C2246758   2.406   5.549  15.465  0.1770  0.2873  0.1391
    51IDQ   C2346759   2.128   5.730  15.097  1.0088 -0.4201  0.5306
    51IDQ   C2446760   2.491   5.424  15.429  0.0973  0.0859  0.4537
    51IDQ   C2546761   2.412   5.305  15.487 -0.4692 -0.4992  0.6158
    51IDQ   C2646762   2.395   5.167  15.422  0.4322  0.3326 -0.0174
    51IDQ   C2746763   2.318   5.076  15.515 -0.8766 -0.4117  0.0290
    51IDQ   C2846764   2.207   5.009  15.449  0.4399  0.4852  0.9382
    51IDQ   C2946765   2.074   5.077  15.415 -0.3613 -0.7267  0.2281
    51IDQ   C3046766   2.161   5.797  14.954  0.0150  0.1190 -0.6191
    51IDQ   C3146767   2.277   5.730  14.879 -0.1949 -0.9562  0.5978
    51IDQ   C3246768   2.282   5.764  14.728 -0.7777  0.4053 -0.1158
    51IDQ   C3346769   2.412   5.697  14.671 -0.0457 -0.1223 -0.5988
    51IDQ   C3446770   2.470   5.776  14.551  0.3422  0.3671  0.1851
    51IDQ   C3546771   2.526   5.911  14.594 -0.2734 -0.9279  0.6761
    4IDB    C3646772   2.078   5.970  15.579 -0.0247 -0.6485  0.2613
    4IDB    C3746773   2.190   6.056  15.592 -0.3972 -0.1454  0.1845
    11RH    C3846774   0.782   5.180  15.184 -0.3854 -0.2321 -0.5954
    4IDB    C3946775   2.312   6.026  15.530 -0.3247  0.4399  0.0291
    62IDT   C4046776   2.417   6.113  15.570  0.3233 -0.2610  0.3432
    72IDQ   C4146777   2.213   6.188  15.674  0.2035 -0.0395 -0.1302
    62IDT   C4246778   2.367   6.218  15.644  0.3987 -0.5150  0.7622
    72IDQ   C4346779   2.176   6.187  15.828  0.0860  0.1357  1.4314
    72IDQ   C4446780   2.147   6.310  15.604 -0.2365  0.1248  0.6025
    62IDT    S546781   2.595   6.121  15.551  0.2513  0.0743 -0.2486
    62IDT   C4546782   2.594   6.275  15.649  0.3308 -0.1580  0.1195
    62IDT   C4646783   2.467   6.310  15.689  0.4032 -0.4572  0.6359
    82BTZ   C4746784   2.729   6.327  15.698  0.1859 -0.2482 -0.0159
    82BTZ   C4846785   2.836   6.315  15.614  0.2005 -0.3572  0.0181
    82BTZ   C4946786   2.969   6.355  15.654  0.2314 -0.5077  0.0663
    82BTZ   C5046787   2.994   6.406  15.779  0.2477 -0.5492  0.0799
    82BTZ   C5146788   2.750   6.380  15.829  0.2019 -0.2861 -0.0031
    82BTZ   C5246789   2.885   6.421  15.870  0.2334 -0.4390  0.0458
    92RH    C5346790   3.126   6.456  15.833  0.4130  0.2126 -0.0674
    82BTZ    N446791   2.653   6.397  15.920  0.1901 -0.1898 -0.0334
    82BTZ    N546792   2.897   6.470  15.994  0.2468 -0.4660  0.0548
    82BTZ    S646793   2.733   6.466  16.065  0.2193 -0.2929  0.0003
    92RH    C5446794   3.254   6.456  15.794  0.4053  0.2160 -0.0932
    92RH     S746795   3.318   6.418  15.627  0.3695  0.2525 -0.1152
    92RH    C5546796   3.367   6.486  15.886  0.4250  0.1895 -0.1090
    92RH     O246797   3.357   6.515  16.006  0.4507  0.1616 -0.1001
    92RH     N646798   3.491   6.478  15.818  0.4111  0.1998 -0.1362
    92RH    C5646799   3.491   6.445  15.685  0.3825  0.2314 -0.1442
    92RH    C5746800   3.622   6.491  15.887 -0.8926 -0.6453 -0.4260
    92RH    C5846801   3.697   6.620  15.924  0.5423 -0.4484  0.4396
    92RH     S846802   3.624   6.429  15.582  0.3611  0.2493 -0.1750
    72IDQ   C5946803   1.985   6.318  15.602  0.7580 -0.6057 -0.9831
    72IDQ   C6046804   1.931   6.443  15.527  1.0588 -0.0864 -0.1125
    72IDQ   C6146805   1.778   6.434  15.532 -0.2897 -0.2627 -1.7157
    72IDQ   C6246806   1.677   6.528  15.469 -1.0622 -0.4541  0.1572
    72IDQ   C6346807   1.669   6.535  15.314  0.0483 -0.4268 -1.1014
    72IDQ   C6446808   1.640   6.409  15.236 -0.4121  0.1732 -0.4009
    72IDQ   C6546809   1.500   6.392  15.189  0.9131  0.3521 -0.6471
    72IDQ   C6646810   2.234   6.098  15.940 -0.1499  0.3098  0.8249
    72IDQ   C6746811   2.382   6.098  15.942 -0.6731  0.3487  0.4170
    72IDQ   C6846812   2.453   5.990  16.030 -0.0966  0.2064  0.3915
    72IDQ   C6946813   2.597   6.022  16.009  0.0293 -0.2971 -0.3647
    72IDQ   C7046814   2.687   5.917  16.033  0.0706  0.4948  0.2214
    72IDQ   C7146815   2.833   5.971  16.022 -0.4051  0.5231 -0.1865
    72IDQ   C7246816   2.874   6.062  16.135 -0.1788 -0.5056  0.0314
    11RH     C146817   1.535   1.136  22.091 -0.2206  0.2782  0.3161
    11RH     C246818   1.498   1.110  21.950  0.0434  0.2652  0.2480
    11RH     N146819   1.464   1.052  22.180 -0.2793  0.1848  0.1818
    11RH     S146820   1.372   0.976  21.943  0.1971  0.1309  0.0107
    11RH     C346821   1.375   0.962  22.127 -0.0947  0.0985  0.0138
    11RH     C446822   1.476   1.077  22.323  0.0010 -1.1695 -0.4042
    11RH     S246823   1.279   0.851  22.210 -0.1158 -0.0212 -0.1688
    11RH     O146824   1.618   1.221  22.129 -0.3746  0.3599  0.4721
    11RH     C546825   1.550   1.176  21.846  0.1465  0.3418  0.3484
    21BTZ    C646826   1.534   1.169  21.699  0.4093 -0.1886 -0.0299
    21BTZ    C746827   1.454   1.078  21.635  0.5132 -0.1733 -0.1802
    21BTZ    C846828   1.618   1.254  21.621  0.2155  0.1286  0.1054
    21BTZ    C946829   1.453   1.067  21.491  0.4325  0.1521 -0.2050
    21BTZ   C1046830   1.532   1.147  21.412  0.2480  0.4617 -0.0799
    21BTZ   C1146831   1.617   1.243  21.475  0.1334  0.4593  0.0796
    21BTZ    N246832   1.700   1.346  21.673  0.1001  0.1471  0.2580
    21BTZ    N346833   1.698   1.326  21.409 -0.0479  0.7437  0.2112
    21BTZ    S346834   1.781   1.424  21.534 -0.1230  0.5975  0.3762
    31IDT   C1246835   1.538   1.113  21.266  0.1997 -0.5368  0.4145
    31IDT   C1346836   1.599   1.189  21.170  0.4962 -0.4026  0.7048
    31IDT   C1446837   1.591   1.130  21.040  0.5481 -0.0325  0.5322
    31IDT   C1546838   1.524   1.010  21.036  0.2922  0.1176  0.1110
    31IDT    S446839   1.466   0.960  21.199 -0.0374 -0.2010 -0.1021
    4IDB    C1646840   1.551   0.941  20.917  0.3469  0.2697  0.1496
    4IDB    C1746841   1.616   1.027  20.823 -0.0547  0.2739 -0.1264
    51IDQ   C1846842   1.650   1.159  20.903 -0.3544 -0.0304  0.0677
    4IDB    C1946843   1.642   0.984  20.693 -0.2346  0.1333 -0.1181
    51IDQ   C2046844   1.805   1.156  20.897  0.2105 -0.8258 -0.9132
    51IDQ   C2146845   1.610   1.306  20.862 -0.0072  0.7343  0.1886
    51IDQ   C2246846   1.556   1.314  20.725  0.2297 -0.0916 -0.0915
    51IDQ   C2346847   1.907   1.166  21.010 -0.2454 -0.4118 -0.4265
    51IDQ   C2446848   1.518   1.445  20.672  0.2276 -0.6014  0.8547
    51IDQ   C2546849   1.608   1.569  20.669  0.3553 -0.1197  0.1296
    51IDQ   C2646850   1.744   1.574  20.601 -0.4280  0.4283  0.6069
    51IDQ   C2746851   1.818   1.709  20.598  0.5315  0.2089 -0.0081
    51IDQ   C2846852   1.772   1.822  20.510 -0.2255  0.1661 -0.4927
    51IDQ   C2946853   1.755   1.785  20.368  0.6978 -0.3051  0.1124
    51IDQ   C3046854   2.050   1.185  20.958  0.4417  0.8418 -1.1156
    51IDQ   C3146855   2.153   1.165  21.070  0.5880 -0.3031  0.1208
    51IDQ   C3246856   2.280   1.078  21.066 -0.4464 -0.8729  0.0043
    51IDQ   C3346857   2.384   1.122  21.165 -0.4437 -0.4337 -1.1889
    51IDQ   C3446858   2.525   1.076  21.111  0.0723  0.0892 -0.8891
    51IDQ   C3546859   2.628   1.124  21.209 -0.0950  0.3323 -0.1261
    4IDB    C3646860   1.513   0.811  20.882  0.5721  0.1239  0.4373
    4IDB    C3746861   1.541   0.768  20.749  0.3833 -0.0185  0.4416
    11RH    C3846862   1.529   0.967  22.415  0.7190  0.0932 -0.3534
    4IDB    C3946863   1.604   0.854  20.658 -0.0094 -0.0124  0.1705
    62IDT   C4046864   1.626   0.783  20.531  0.2007  0.9323 -0.3164
    72IDQ   C4146865   1.498   0.641  20.673 -0.2645 -0.7527 -0.2027
    62IDT   C4246866   1.562   0.661  20.534  0.2139  0.9367  0.3037
    72IDQ   C4346867   1.339   0.646  20.687 -0.0398  0.8833  0.6430
    72IDQ   C4446868   1.558   0.504  20.732 -0.2840  0.0044 -0.7755
    62IDT    S546869   1.718   0.806  20.378  0.3576  0.0835 -0.3618
    62IDT   C4546870   1.662   0.642  20.324  0.4366 -0.2361  0.5027
    62IDT   C4646871   1.582   0.581  20.417  0.3472  0.2763  0.7677
    82BTZ   C4746872   1.682   0.610  20.177  0.2282 -0.4422 -0.0075
    82BTZ   C4846873   1.687   0.711  20.084  0.0349 -0.3594  0.0715
    82BTZ   C4946874   1.716   0.685  19.945 -0.2069 -0.2299 -0.0038
    82BTZ   C5046875   1.739   0.558  19.899 -0.2550 -0.1834 -0.1584
    82BTZ   C5146876   1.706   0.475  20.133  0.1871 -0.3980 -0.1688
    82BTZ   C5246877   1.735   0.449  19.992 -0.0587 -0.2664 -0.2451
    92RH    C5346878   1.781   0.523  19.766  0.0782  0.0453  0.3232
    82BTZ    N446879   1.704   0.369  20.214  0.3605 -0.4695 -0.2580
    82BTZ    N546880   1.757   0.321  19.959 -0.0829 -0.2321 -0.3958
    82BTZ    S646881   1.740   0.227  20.111  0.2138 -0.3695 -0.4479
    92RH    C5446882   1.824   0.589  19.658 -0.0617  0.0428  0.2661
    92RH     S746883   1.866   0.767  19.648 -0.4038  0.1163  0.1218
    92RH    C5546884   1.844   0.525  19.526  0.0437 -0.0224  0.3138
    92RH     O246885   1.824   0.405  19.500  0.2694 -0.0812  0.4101
    92RH     N646886   1.889   0.618  19.430 -0.1463 -0.0098  0.2351
    92RH    C5646887   1.908   0.749  19.469 -0.3910  0.0575  0.1307
    92RH    C5746888   1.898   0.581  19.284  0.8576 -0.2528 -0.1578
    92RH    C5846889   1.776   0.624  19.204  0.1988  1.0763  0.1935
    92RH     S846890   1.961   0.878  19.375 -0.6503  0.0862  0.0229
    72IDQ   C5946891   1.532   0.486  20.877  0.4745 -0.3770 -0.9725
    72IDQ   C6046892   1.538   0.335  20.921  0.0020 -0.1626  0.8301
    72IDQ   C6146893   1.683   0.283  20.928  0.3077 -0.1419  0.5821
    72IDQ   C6246894   1.697   0.140  20.974  0.5943 -0.1189 -0.8567
    72IDQ   C6346895   1.809   0.062  20.908 -0.2672 -0.1416 -0.4764
    72IDQ   C6446896   1.949   0.097  20.965 -0.1476 -0.0069  0.3978
    72IDQ   C6546897   1.971   0.049  21.107 -0.2671 -0.4700 -0.6359
    72IDQ   C6646898   1.253   0.534  20.618 -0.6379  0.1060 -0.6004
    72IDQ   C6746899   1.141   0.514  20.722 -0.5014 -0.8156 -0.2035
    72IDQ   C6846900   1.042   0.400  20.695  0.2751 -0.4356 -0.1295
    72IDQ   C6946901   0.911   0.463  20.634  0.7171  0.4454 -0.0463
    72IDQ   C7046902   0.812   0.343  20.640 -0.5977  0.1187  0.5424
    72IDQ   C7146903   0.674   0.408  20.635  0.2745  0.6287  0.5484
    72IDQ   C7246904   0.561   0.305  20.605  0.0661  1.1425  0.5247
    11RH     C146905   5.082   0.930  24.164 -0.0124  0.1853  0.0610
    11RH     C246906   5.064   1.065  24.106 -0.0956  0.1393 -0.0215
    11RH     N146907   5.164   0.849  24.082 -0.0948  0.1340  0.0283
    11RH     S146908   5.156   1.078  23.948 -0.2768  0.0315 -0.1354
    11RH     C346909   5.213   0.903  23.965 -0.2339  0.0525 -0.0687
    11RH     C446910   5.196   0.707  24.117  0.2910  0.2010  0.5420
    11RH     S246911   5.312   0.829  23.851 -0.3539 -0.0210 -0.1254
    11RH     O146912   5.033   0.890  24.271  0.1138  0.2595  0.1464
    11RH     C546913   4.991   1.161  24.164 -0.0424  0.1735 -0.0115
    21BTZ    C646914   4.945   1.294  24.129 -0.1800  0.0313 -0.2561
    21BTZ    C746915   4.984   1.364  24.018 -0.3682  0.0409 -0.3166
    21BTZ    C846916   4.852   1.354  24.220 -0.0565  0.0081 -0.1130
    21BTZ    C946917   4.933   1.496  23.991 -0.4441  0.0283 -0.2403
    21BTZ   C1046918   4.844   1.558  24.075 -0.3313  0.0060 -0.1029
    21BTZ   C1146919   4.801   1.489  24.192 -0.1335 -0.0048 -0.0348
    21BTZ    N246920   4.806   1.296  24.331  0.1291 -0.0032 -0.0429
    21BTZ    N346921   4.714   1.539  24.281 -0.0099 -0.0263  0.0982
    21BTZ    S346922   4.694   1.413  24.407  0.2152 -0.0311  0.1299
    31IDT   C1246923   4.777   1.681  24.025 -0.6201 -0.4526  0.2718
    31IDT   C1346924   4.752   1.785  24.111 -1.1128 -0.6199  0.3371
    31IDT   C1446925   4.710   1.904  24.043 -0.8347 -0.5212  0.3386
    31IDT   C1546926   4.704   1.891  23.906 -0.1298 -0.2785  0.2743
    31IDT    S446927   4.750   1.727  23.851  0.2397 -0.1551  0.2066
    4IDB    C1646928   4.675   2.019  23.841  0.4785  0.3476 -0.6535
    4IDB    C1746929   4.661   2.115  23.945 -0.0565  0.0688 -0.4635
    51IDQ   C1846930   4.672   2.049  24.080 -1.1645  0.4803 -1.7083
    4IDB    C1946931   4.622   2.245  23.917 -0.3054  0.0396 -0.2639
    51IDQ   C2046932   4.780   2.143  24.162  0.6194  0.8579 -0.6196
    51IDQ   C2146933   4.563   2.042  24.174 -0.3612 -0.6244 -1.1372
    51IDQ   C2246934   4.437   2.132  24.174 -0.2851 -0.0224 -0.2392
    51IDQ   C2346935   4.910   2.087  24.214 -0.0510 -0.4542 -0.3606
    51IDQ   C2446936   4.339   2.109  24.060  0.1321  0.3675 -0.4032
    51IDQ   C2546937   4.208   2.180  24.074  0.0528 -0.5448  0.3872
    51IDQ   C2646938   4.126   2.164  23.939 -0.2602 -0.8667 -0.5240
    51IDQ   C2746939   4.055   2.292  23.911  0.6928 -0.5226  0.3705
    51IDQ   C2846940   4.140   2.408  23.858  0.9214  0.2212 -0.9199
    51IDQ   C2946941   4.157   2.421  23.708  0.6478 -0.2496  0.2812
    51IDQ   C3046942   5.019   2.056  24.111  0.3947  0.0232  0.8945
    51IDQ   C3146943   5.142   1.990  24.144 -1.3098 -0.4229 -0.5102
    51IDQ   C3246944   5.192   1.918  24.019 -0.1727 -0.4779  0.7386
    51IDQ   C3346945   5.246   1.782  24.030 -1.1130 -0.1348  0.0888
    51IDQ   C3446946   5.282   1.713  23.907 -0.3175 -1.6035  1.4038
    51IDQ   C3546947   5.369   1.590  23.923  0.5666 -1.2702 -1.1795
    4IDB    C3646948   4.651   2.053  23.707  0.7691  0.6003 -0.6442
    4IDB    C3746949   4.612   2.187  23.680  0.5082  0.5663 -0.4392
    11RH    C3846950   5.299   0.673  24.225  0.2143  0.6045 -0.9152
    4IDB    C3946951   4.598   2.280  23.783 -0.0148  0.2923 -0.2550
    62IDT   C4046952   4.560   2.411  23.720 -0.8642  0.0121 -0.2282
    72IDQ   C4146953   4.568   2.249  23.543  0.7948 -0.8102  0.0919
    62IDT   C4246954   4.554   2.395  23.583 -0.5192  0.4147 -0.2956
    72IDQ   C4346955   4.423   2.204  23.497 -0.3911  0.5058 -0.3343
    72IDQ   C4446956   4.686   2.238  23.439 -0.0224  0.7958 -0.4357
    62IDT    S546957   4.522   2.580  23.770 -0.4491  0.0072  0.1227
    62IDT   C4546958   4.498   2.621  23.594  0.2005  0.5775  0.1621
    62IDT   C4646959   4.519   2.514  23.512  0.0832  0.7348 -0.0749
    82BTZ   C4746960   4.414   2.736  23.550  0.2219  0.7472  0.1974
    82BTZ   C4846961   4.322   2.784  23.638  0.3412  0.8151  0.2847
    82BTZ   C4946962   4.236   2.895  23.605  0.2483  0.7448  0.2890
    82BTZ   C5046963   4.243   2.957  23.483  0.0364  0.6066  0.2064
    82BTZ   C5146964   4.425   2.797  23.421 -0.0006  0.6024  0.1087
    82BTZ   C5246965   4.338   2.910  23.387 -0.0950  0.5310  0.1135
    92RH    C5346966   4.152   3.059  23.436 -0.1938  0.2863  0.3275
    82BTZ    N446967   4.511   2.759  23.326 -0.1329  0.5250  0.0196
    82BTZ    N546968   4.353   2.962  23.265 -0.3031  0.3961  0.0272
    82BTZ    S646969   4.483   2.867  23.186 -0.3891  0.3540 -0.0645
    92RH    C5446970   4.044   3.115  23.491 -0.2903  0.2680  0.1588
    92RH     S746971   3.978   3.085  23.660 -0.6890  0.0744 -0.0261
    92RH    C5546972   3.957   3.213  23.421 -0.0802  0.4073  0.0949
    92RH     O246973   3.975   3.255  23.305  0.2038  0.5542  0.1879
    92RH     N646974   3.851   3.256  23.503 -0.2439  0.3526 -0.0887
    92RH    C5646975   3.841   3.204  23.630 -0.5592  0.1866 -0.1793
    92RH    C5746976   3.749   3.348  23.450 -0.7186  0.3050  0.0113
    92RH    C5846977   3.790   3.476  23.428 -0.5219 -0.7207  0.0966
    92RH     S846978   3.724   3.238  23.746 -0.8062  0.0904 -0.3972
    72IDQ   C5946979   4.683   2.153  23.316  0.7438  0.2357  0.6741
    72IDQ   C6046980   4.696   1.999  23.336  0.1019 -0.3991 -1.5605
    72IDQ   C6146981   4.660   1.922  23.217  0.5972 -0.3055 -0.3924
    72IDQ   C6246982   4.568   1.805  23.243  0.1622  0.5889 -0.0089
    72IDQ   C6346983   4.609   1.710  23.361 -0.8849 -0.2608 -0.0938
    72IDQ   C6446984   4.732   1.621  23.340 -0.0053  0.7868 -0.0497
    72IDQ   C6546985   4.779   1.539  23.461  0.4485 -0.2242  0.0771
    72IDQ   C6646986   4.323   2.115  23.578 -0.4218 -0.2320 -0.5439
    72IDQ   C6746987   4.364   1.973  23.607  1.1142  0.0671  0.0049
    72IDQ   C6846988   4.256   1.892  23.694  0.9086 -0.5596  0.9029
    72IDQ   C6946989   4.303   1.755  23.745 -0.0256  0.9025  0.6302
    72IDQ   C7046990   4.345   1.654  23.635  0.1825 -1.4459  0.3002
    72IDQ   C7146991   4.363   1.519  23.692 -0.8210  0.4430  0.4709
    72IDQ   C7246992   4.325   1.427  23.582  0.5369  1.0497  0.2891
    11RH     C146993   1.151   1.349   2.676 -0.0897  0.2157  0.1616
    11RH     C246994   1.072   1.423   2.777 -0.0937  0.2591  0.1270
    11RH     N146995   1.098   1.221   2.653 -0.0429  0.1766  0.2712
    11RH     S146996   0.933   1.318   2.836 -0.0356  0.2457  0.2411
    11RH     C346997   0.987   1.182   2.723 -0.0089  0.1834  0.3288
    11RH     C446998   1.148   1.136   2.552 -1.2942  0.3781 -0.2414
    11RH     S246999   0.905   1.035   2.715  0.0491  0.1430  0.4596
    11RH     O147000   1.252   1.393   2.617 -0.1227  0.2131  0.1033
    11RH     C547001   1.101   1.547   2.817 -0.1342  0.3010  0.0269
    21BTZ    C647002   1.032   1.654   2.884 -0.4308  0.2726  0.1900
    21BTZ    C747003   0.904   1.644   2.932 -0.3974  0.2858  0.2827
    21BTZ    C847004   1.098   1.781   2.889 -0.3996  0.2567  0.1808
    21BTZ    C947005   0.835   1.759   2.986 -0.3318  0.2840  0.3704
    21BTZ   C1047006   0.894   1.882   2.993 -0.2999  0.2691  0.3653
    21BTZ   C1147007   1.028   1.897   2.944 -0.3330  0.2549  0.2699
    21BTZ    N247008   1.223   1.802   2.845 -0.4271  0.2429  0.0947
    21BTZ    N347009   1.096   2.012   2.945 -0.3070  0.2397  0.2555
    21BTZ    S347010   1.256   1.976   2.874 -0.3679  0.2267  0.1245
    31IDT   C1247011   0.817   2.001   3.049  0.0978  0.3632  0.6218
    31IDT   C1347012   0.847   2.135   3.059  0.3148  0.3037  0.7865
    31IDT   C1447013   0.737   2.213   3.107  0.2987  0.4823  0.4669
    31IDT   C1547014   0.624   2.139   3.134  0.0699  0.6785  0.0575
    31IDT    S447015   0.647   1.964   3.101 -0.1449  0.6522  0.0447
    4IDB    C1647016   0.525   2.227   3.188 -0.0241  0.1195 -0.6026
    4IDB    C1747017   0.567   2.363   3.187  0.1744  0.0601 -0.3878
    51IDQ   C1847018   0.711   2.359   3.143  0.1459 -0.9031  0.6878
    4IDB    C1947019   0.485   2.464   3.237  0.2298  0.1288 -0.4354
    51IDQ   C2047020   0.723   2.476   3.031  0.5606 -0.6361 -1.0220
    51IDQ   C2147021   0.820   2.401   3.248  0.1033 -0.3087 -0.2432
    51IDQ   C2247022   0.786   2.414   3.395 -0.1917 -0.0423  0.1807
    51IDQ   C2347023   0.751   2.438   2.885 -0.2275  0.1546  0.3458
    51IDQ   C2447024   0.854   2.542   3.451 -0.1534 -0.9696 -0.0428
    51IDQ   C2547025   0.824   2.590   3.601 -0.6772 -0.2976  0.3852
    51IDQ   C2647026   0.689   2.583   3.663  0.9738  0.1755 -0.4558
    51IDQ   C2747027   0.566   2.597   3.581  0.8404  0.7664 -0.2286
    51IDQ   C2847028   0.440   2.625   3.661  0.3523  1.2408 -0.2705
    51IDQ   C2947029   0.361   2.518   3.733  0.0298  0.8023 -0.7347
    51IDQ   C3047030   0.901   2.418   2.840 -0.5982  0.9547 -0.1688
    51IDQ   C3147031   0.926   2.305   2.731 -0.3937  0.1165 -0.4922
    51IDQ   C3247032   1.079   2.312   2.690 -0.1664 -0.4343  0.5644
    51IDQ   C3347033   1.099   2.224   2.568  0.8326 -0.4736 -0.5579
    51IDQ   C3447034   1.214   2.247   2.481  0.0676 -0.6098 -1.2462
    51IDQ   C3547035   1.273   2.112   2.463 -0.5157 -0.4117  0.3359
    4IDB    C3647036   0.399   2.190   3.238 -0.1691  0.2487 -0.8679
    4IDB    C3747037   0.316   2.295   3.288 -0.1097  0.3174 -0.9128
    11RH    C3847038   1.099   1.139   2.410  0.1111 -0.0151  0.1739
    4IDB    C3947039   0.359   2.427   3.287  0.0848  0.2581 -0.7007
    62IDT   C4047040   0.265   2.504   3.356  0.5611  0.5849  0.2705
    72IDQ   C4147041   0.192   2.279   3.380 -1.6945  0.9795  1.5418
    62IDT   C4247042   0.169   2.426   3.416  0.6801  0.3898  0.2107
    72IDQ   C4347043   0.238   2.170   3.495  0.2324  0.0376 -0.2009
    72IDQ   C4447044   0.074   2.225   3.297 -0.8988 -0.9147  0.6288
    62IDT    S547045   0.241   2.679   3.389  0.2474  0.5294  0.3408
    62IDT   C4547046   0.094   2.635   3.487  0.2962  0.2306  0.2829
    62IDT   C4647047   0.072   2.500   3.490  0.5305  0.1892  0.2177
    82BTZ   C4747048   0.003   2.748   3.535 -0.2284  0.4139 -0.1333
    82BTZ   C4847049  -0.017   2.850   3.445 -0.4567  0.3984 -0.1016
    82BTZ   C4947050  -0.095   2.966   3.479 -0.6841  0.2322 -0.0510
    82BTZ   C5047051  -0.153   2.981   3.602 -0.6831  0.0818 -0.0323
    82BTZ   C5147052  -0.056   2.759   3.665 -0.2174  0.2602 -0.1155
    82BTZ   C5247053  -0.136   2.877   3.699 -0.4486  0.0913 -0.0640
    92RH    C5347054  -0.240   3.092   3.638 -0.0236 -0.1181 -0.1448
    82BTZ    N447055  -0.044   2.666   3.761 -0.0064  0.2589 -0.1428
    82BTZ    N547056  -0.187   2.880   3.822 -0.4234 -0.0459 -0.0499
    82BTZ    S647057  -0.135   2.728   3.901 -0.0963  0.0367 -0.1032
    92RH    C5447058  -0.285   3.202   3.578 -0.0281 -0.0041  0.0665
    92RH     S747059  -0.241   3.261   3.410  0.1031  0.4102  0.2423
    92RH    C5547060  -0.380   3.297   3.641 -0.1448 -0.2038  0.1938
    92RH     O247061  -0.428   3.286   3.755 -0.2500 -0.4945  0.1220
    92RH     N647062  -0.410   3.405   3.555 -0.1226 -0.0217  0.4124
    92RH    C5647063  -0.350   3.408   3.431 -0.0025  0.2994  0.4756
    92RH    C5747064  -0.496   3.518   3.599  0.0311  0.1146  0.2022
    92RH    C5847065  -0.432   3.631   3.677  0.6945  0.5049 -0.6413
    92RH     S847066  -0.369   3.525   3.310  0.0488  0.5676  0.7245
    72IDQ   C5947067   0.057   2.265   3.149 -1.0163 -0.3532  0.8516
    72IDQ   C6047068  -0.068   2.206   3.094 -1.0938  0.5258 -0.3599
    72IDQ   C6147069  -0.118   2.221   2.952  0.2772 -0.4738 -0.8540
    72IDQ   C6247070  -0.040   2.197   2.828  0.3168  0.6986 -0.3048
    72IDQ   C6347071  -0.107   2.253   2.704 -0.1286  0.1135  0.6172
    72IDQ   C6447072  -0.031   2.223   2.582  0.0178  0.0500  0.3068
    72IDQ   C6547073   0.102   2.271   2.566 -0.4690  0.1036 -0.3905
    72IDQ   C6647074   0.181   2.172   3.638 -0.0235 -0.2598  0.2716
    72IDQ   C6747075   0.031   2.142   3.639  0.6548  0.3035  0.8515
    72IDQ   C6847076  -0.020   2.171   3.771 -0.6053 -0.7166 -0.8178
    72IDQ   C6947077  -0.164   2.227   3.778  0.4098 -0.6953  1.1469
    72IDQ   C7047078  -0.216   2.299   3.908  0.0261 -0.2948  1.0023
    72IDQ   C7147079  -0.208   2.208   4.030  0.4728 -0.3125 -0.2544
    72IDQ   C7247080  -0.207   2.288   4.165  0.6265  0.2338 -0.1967
    11RH     C147081   2.884   2.272  24.231  0.2370  0.2135  0.1249
    11RH     C247082   2.966   2.247  24.352  0.1361 -0.0697  0.1354
    11RH     N147083   2.854   2.152  24.163 -0.0579  0.3277  0.0499
    11RH     S147084   2.999   2.067  24.367 -0.3401 -0.1676  0.0460
    11RH     C347085   2.902   2.034  24.214 -0.3827  0.1704 -0.0005
    11RH     C447086   2.775   2.146  24.034 -0.1597 -0.4028 -0.4976
    11RH     S247087   2.882   1.878  24.152 -0.7727  0.2573 -0.0925
    11RH     O147088   2.844   2.383  24.193  0.5399  0.3395  0.1750
    11RH     C547089   3.008   2.343  24.434  0.3660 -0.2239  0.2010
    21BTZ    C647090   3.077   2.345  24.554  0.2753  0.0724 -0.2404
    21BTZ    C747091   3.126   2.232  24.613  0.1460  0.0193 -0.2327
    21BTZ    C847092   3.072   2.466  24.630  0.1594  0.0168 -0.1588
    21BTZ    C947093   3.174   2.232  24.749 -0.1021 -0.0904 -0.1450
    21BTZ   C1047094   3.172   2.345  24.826 -0.2206 -0.1467 -0.0650
    21BTZ   C1147095   3.121   2.466  24.769 -0.0928 -0.0946 -0.0691
    21BTZ    N247096   3.026   2.583  24.584  0.2663  0.0599 -0.1569
    21BTZ    N347097   3.113   2.583  24.834 -0.1885 -0.1411  0.0043
    21BTZ    S347098   3.043   2.700  24.718  0.0446 -0.0422 -0.0391
    31IDT   C1247099   3.247   2.327  24.960  0.0124  0.0424  0.6136
    31IDT   C1347100   3.231   2.411  25.067  0.1206  0.1368  0.5555
    31IDT   C1447101   3.304   2.369  25.182  0.2025  0.2149  0.5331
    31IDT   C1547102   3.376   2.253  25.164  0.1576  0.1805  0.5718
    31IDT    S447103   3.357   2.187  24.997  0.0065  0.0455  0.6421
    4IDB    C1647104   3.434   2.202  25.288  0.6002  0.5137 -0.1066
    4IDB    C1747105   3.389   2.286  25.395  0.5696  0.5645 -0.1597
    51IDQ   C1847106   3.305   2.404  25.335  0.3108 -0.6559  0.8919
    4IDB    C1947107   3.431   2.264  25.526  0.0201  0.2178 -0.0341
    51IDQ   C2047108   3.169   2.406  25.401 -0.8833  0.3778  0.1647
    51IDQ   C2147109   3.375   2.550  25.355 -0.6723  0.4228 -0.2538
    51IDQ   C2247110   3.513   2.571  25.420 -0.0924 -0.5472 -0.2289
    51IDQ   C2347111   3.037   2.340  25.341 -0.2511 -0.0244 -0.1887
    51IDQ   C2447112   3.582   2.709  25.404  0.5666 -0.9648 -0.1749
    51IDQ   C2547113   3.492   2.815  25.457  0.5231 -1.0840  0.0815
    51IDQ   C2647114   3.537   2.965  25.455 -0.2061  1.2065 -0.1617
    51IDQ   C2747115   3.431   3.049  25.521  1.0585 -0.0240 -0.2772
    51IDQ   C2847116   3.476   3.184  25.554 -1.3404 -0.1562  0.2441
    51IDQ   C2947117   3.386   3.278  25.622  0.7162  0.4541 -0.3129
    51IDQ   C3047118   3.042   2.199  25.291 -0.7798  0.3988  0.4842
    51IDQ   C3147119   2.938   2.138  25.195 -0.1507 -0.0003 -0.1950
    51IDQ   C3247120   2.786   2.180  25.218 -0.8099  1.4524  0.5193
    51IDQ   C3347121   2.733   2.110  25.346 -0.2235 -0.1723  0.6869
    51IDQ   C3447122   2.729   1.946  25.365  0.6315 -1.0712  0.1377
    51IDQ   C3547123   2.616   1.903  25.454  0.2656  1.5027 -0.0207
    4IDB    C3647124   3.522   2.096  25.312  0.0779  0.1133  0.0725
    4IDB    C3747125   3.564   2.075  25.446 -0.4796 -0.2374  0.1988
    11RH    C3847126   2.626   2.167  24.062 -0.3316  0.1011  0.2095
    4IDB    C3947127   3.519   2.157  25.549 -0.5022 -0.1826  0.1460
    62IDT   C4047128   3.572   2.112  25.668 -0.2831  0.3464 -0.4568
    72IDQ   C4147129   3.655   1.971  25.500 -0.6923  0.2105  0.8085
    62IDT   C4247130   3.665   2.014  25.642 -0.1414  0.5618 -0.7792
    72IDQ   C4347131   3.806   1.969  25.443 -0.0257  1.2585 -0.1420
    72IDQ   C4447132   3.599   1.832  25.481  0.0026  0.2821  1.4925
    62IDT    S547133   3.566   2.155  25.842 -0.1711 -0.0562 -0.3515
    62IDT   C4547134   3.696   2.032  25.872  0.0733  0.0954 -0.7692
    62IDT   C4647135   3.735   1.968  25.757  0.0603  0.4203 -0.9561
    82BTZ   C4747136   3.731   2.019  26.016  0.3980  0.1587 -0.2652
    82BTZ   C4847137   3.646   2.078  26.106  0.2952  0.1619 -0.3638
    82BTZ   C4947138   3.666   2.065  26.248  0.0762  0.0824 -0.3390
    82BTZ   C5047139   3.771   1.995  26.300 -0.0395  0.0000 -0.2157
    82BTZ   C5147140   3.843   1.945  26.065  0.2837  0.0740 -0.1340
    82BTZ   C5247141   3.863   1.932  26.210  0.0612 -0.0067 -0.1087
    92RH    C5347142   3.803   1.986  26.448 -0.0361  0.1775 -0.2069
    82BTZ    N447143   3.932   1.883  25.988  0.3665  0.0625 -0.0286
    82BTZ    N547144   3.969   1.861  26.249 -0.0349 -0.0832  0.0167
    82BTZ    S647145   4.049   1.805  26.099  0.1592 -0.0546  0.1086
    92RH    C5447146   3.737   2.027  26.557  0.0036  0.0439 -0.1321
    92RH     S747147   3.575   2.113  26.561  0.0291  0.0848  0.0295
    92RH    C5547148   3.788   2.008  26.695  0.0339 -0.1646 -0.1707
    92RH     O247149   3.895   1.954  26.726  0.0263 -0.2391 -0.2742
    92RH     N647150   3.698   2.061  26.790  0.0735 -0.2723 -0.0730
    92RH    C5647151   3.582   2.119  26.745  0.0786 -0.1755  0.0386
    92RH    C5747152   3.741   2.049  26.934  0.1305  0.7548 -0.0863
    92RH    C5847153   3.663   1.940  27.005  0.7603 -0.3953  0.1137
    92RH     S847154   3.459   2.189  26.838  0.1222 -0.2692  0.1688
    72IDQ   C5947155   3.659   1.701  25.529 -0.0435  0.3441 -0.6048
    72IDQ   C6047156   3.549   1.579  25.524 -0.2155 -0.9819 -0.1483
    72IDQ   C6147157   3.531   1.526  25.383 -0.3975 -0.5290 -0.0655
    72IDQ   C6247158   3.481   1.389  25.373  0.9917  0.7916 -0.5927
    72IDQ   C6347159   3.350   1.344  25.434  0.1025 -0.2379  0.9025
    72IDQ   C6447160   3.302   1.199  25.428  0.1259  0.3823 -0.0059
    72IDQ   C6547161   3.376   1.101  25.513 -0.0724 -0.8751 -0.5938
    72IDQ   C6647162   3.893   2.081  25.402 -0.5911  0.4589  0.4087
    72IDQ   C6747163   3.878   2.204  25.485 -0.1853  0.5097  0.1253
    72IDQ   C6847164   3.950   2.337  25.452 -0.7435  0.3524  0.0282
    72IDQ   C6947165   3.937   2.462  25.546  0.6446 -0.0300  0.5057
    72IDQ   C7047166   3.917   2.444  25.698  0.4633 -0.0471  0.2447
    72IDQ   C7147167   3.930   2.575  25.779  0.4875 -0.0075 -0.2908
    72IDQ   C7247168   3.972   2.540  25.923  0.0027 -0.4750 -0.4404
    11RH     C147169   0.266   3.450  19.453 -0.0405 -0.0393  0.1502
    11RH     C247170   0.320   3.348  19.547  0.0266 -0.0691  0.0787
    11RH     N147171   0.357   3.477  19.349 -0.1732 -0.1094  0.0152
    11RH     S147172   0.487   3.295  19.492 -0.0892 -0.1875 -0.1597
    11RH     C347173   0.477   3.410  19.347 -0.2206 -0.1918 -0.1545
    11RH     C447174   0.340   3.607  19.270 -0.2833  0.3899 -0.2028
    11RH     S247175   0.602   3.424  19.235 -0.3738 -0.2857 -0.3376
    11RH     O147176   0.155   3.505  19.463  0.0109  0.0371  0.3061
    11RH     C547177   0.254   3.304  19.654  0.1528 -0.0157  0.1793
    21BTZ    C647178   0.282   3.229  19.776 -0.0125  0.0513 -0.0850
    21BTZ    C747179   0.408   3.195  19.816 -0.0048 -0.1357 -0.2599
    21BTZ    C847180   0.170   3.180  19.852  0.0159  0.1028 -0.0091
    21BTZ    C947181   0.432   3.113  19.932  0.0310 -0.2806 -0.3695
    21BTZ   C1047182   0.329   3.064  20.008  0.0590 -0.2384 -0.3038
    21BTZ   C1147183   0.194   3.096  19.970  0.0522 -0.0446 -0.1202
    21BTZ    N247184   0.042   3.205  19.823  0.0116  0.2800  0.1593
    21BTZ    N347185   0.086   3.054  20.035  0.0773  0.0143 -0.0410
    21BTZ    S347186  -0.055   3.121  19.947  0.0550  0.2657  0.1841
    31IDT   C1247187   0.358   3.001  20.139  0.4608  0.7469 -0.4187
    31IDT   C1347188   0.268   2.930  20.215  0.0387  0.9898 -0.6824
    31IDT   C1447189   0.330   2.862  20.324 -0.4549  0.7272 -0.5627
    31IDT   C1547190   0.466   2.880  20.333 -0.4125  0.2834 -0.2079
    31IDT    S447191   0.528   2.986  20.202  0.2621  0.1626  0.0042
    4IDB    C1647192   0.521   2.797  20.443  0.0635 -0.5062 -0.1227
    4IDB    C1747193   0.417   2.725  20.509  0.0136 -0.5271 -0.2241
    51IDQ   C1847194   0.284   2.770  20.441 -0.5727 -0.1577 -0.4334
    4IDB    C1947195   0.444   2.644  20.619 -0.1498 -0.1220  0.1203
    51IDQ   C2047196   0.213   2.626  20.422 -0.7127 -0.7262 -1.0580
    51IDQ   C2147197   0.185   2.848  20.537  0.2634 -0.6416 -0.8503
    51IDQ   C2247198   0.220   2.910  20.677 -0.3912 -0.5641  0.2662
    51IDQ   C2347199   0.148   2.557  20.305 -0.7581 -0.5872 -0.9630
    51IDQ   C2447200   0.096   2.937  20.764 -0.5567 -0.1080 -0.1937
    51IDQ   C2547201  -0.020   2.851  20.779 -0.1978  0.0724  0.3548
    51IDQ   C2647202  -0.134   2.923  20.847 -0.1097 -1.1439  0.2743
    51IDQ   C2747203  -0.270   2.858  20.850  0.0530  0.4256 -1.7414
    51IDQ   C2847204  -0.310   2.720  20.911  0.1216  0.0839 -0.5975
    51IDQ   C2947205  -0.453   2.670  20.878  0.1146 -0.5927  0.2942
    51IDQ   C3047206   0.079   2.643  20.200 -0.1053 -0.8397  0.3804
    51IDQ   C3147207   0.114   2.596  20.051 -0.2456 -0.3841 -0.9152
    51IDQ   C3247208   0.091   2.686  19.931  1.5678  0.1224 -0.1613
    51IDQ   C3347209  -0.056   2.745  19.920  0.3494  0.2069  0.8142
    51IDQ   C3447210  -0.059   2.806  19.782 -0.8270 -0.0309 -0.0882
    51IDQ   C3547211  -0.204   2.802  19.736 -0.4707 -0.1527  0.0644
    4IDB    C3647212   0.654   2.788  20.487 -0.0505 -0.0772  0.3276
    4IDB    C3747213   0.680   2.705  20.599 -0.2170  0.3330  0.6752
    11RH    C3847214   0.282   3.614  19.130  0.0942 -0.0783  0.5764
    4IDB    C3947215   0.577   2.635  20.663 -0.2638  0.3069  0.5706
    62IDT   C4047216   0.636   2.563  20.778 -0.1419 -0.2864 -0.4127
    72IDQ   C4147217   0.813   2.688  20.682  0.8352 -0.6971  0.8057
    62IDT   C4247218   0.773   2.580  20.780 -0.1441 -0.2328 -0.6638
    72IDQ   C4347219   0.844   2.822  20.767 -0.0349 -0.0094  0.6525
    72IDQ   C4447220   0.936   2.625  20.598 -0.1776  0.7502 -0.7120
    62IDT    S547221   0.582   2.442  20.900  0.0930 -0.0611 -0.0823
    62IDT   C4547222   0.755   2.421  20.950  0.1801  0.1018 -0.3120
    62IDT   C4647223   0.841   2.500  20.877  0.0379 -0.0131 -0.6070
    82BTZ   C4747224   0.799   2.328  21.055 -0.3131 -0.0660  0.0511
    82BTZ   C4847225   0.781   2.370  21.184 -0.3296 -0.1711  0.0834
    82BTZ   C4947226   0.849   2.307  21.295 -0.2670 -0.1976  0.0300
    82BTZ   C5047227   0.935   2.202  21.276 -0.1879 -0.1190 -0.0565
    82BTZ   C5147228   0.887   2.217  21.031 -0.2312  0.0193 -0.0391
    82BTZ   C5247229   0.956   2.153  21.143 -0.1675 -0.0077 -0.0935
    92RH    C5347230   1.016   2.143  21.383 -0.5591 -0.0912  0.1434
    82BTZ    N447231   0.912   2.167  20.910 -0.2076  0.1246 -0.0792
    82BTZ    N547232   1.037   2.051  21.112 -0.0927  0.0760 -0.1769
    82BTZ    S647233   1.027   2.032  20.935 -0.1007  0.1952 -0.1893
    92RH    C5447234   1.022   2.161  21.516 -0.1491 -0.0283  0.1183
    92RH     S747235   0.930   2.287  21.613  0.3948  0.2295  0.3068
    92RH    C5547236   1.107   2.081  21.606 -0.0724 -0.1633 -0.0739
    92RH     O247237   1.182   1.988  21.571 -0.3716 -0.3467 -0.2303
    92RH     N647238   1.094   2.122  21.740  0.3925 -0.0570 -0.0583
    92RH    C5647239   1.009   2.226  21.768  0.6974  0.1466  0.1225
    92RH    C5747240   1.170   2.053  21.841 -0.8947 -0.3699  0.8338
    92RH    C5847241   1.285   2.115  21.915 -0.2407 -0.3765  0.2155
    92RH     S847242   0.975   2.295  21.919  1.2653  0.3067  0.1807
    72IDQ   C5947243   1.046   2.716  20.548  0.1803  0.8540 -0.2297
    72IDQ   C6047244   1.182   2.689  20.620 -0.6877 -0.1308 -0.0551
    72IDQ   C6147245   1.312   2.755  20.560  1.5951 -0.0461 -1.3436
    72IDQ   C6247246   1.422   2.740  20.658  0.3462  1.1261  0.2915
    72IDQ   C6347247   1.530   2.832  20.622 -0.4552  1.4244  0.9033
    72IDQ   C6447248   1.630   2.766  20.526  0.1541 -0.8963  0.1895
    72IDQ   C6547249   1.738   2.868  20.492 -0.5845  0.1284 -0.6815
    72IDQ   C6647250   0.736   2.915  20.812  0.8630 -0.1974 -0.3914
    72IDQ   C6747251   0.794   3.028  20.896 -0.7770 -0.0870 -0.4285
    72IDQ   C6847252   0.689   3.132  20.945 -0.4930 -0.8087  0.6209
    72IDQ   C6947253   0.601   3.186  20.835 -0.9501 -0.3960  0.5445
    72IDQ   C7047254   0.475   3.265  20.866  0.9299  0.4994  0.3113
    72IDQ   C7147255   0.408   3.314  20.736  0.2038 -0.0573 -0.0483
    72IDQ   C7247256   0.261   3.347  20.765  0.4957 -0.7990  0.3062
    11RH     C147257   5.440   1.741   0.285  0.1854  0.2037  0.1753
    11RH     C247258   5.417   1.609   0.222  0.0951  0.2303  0.1514
    11RH     N147259   5.357   1.760   0.398  0.2391  0.2167  0.2125
    11RH     S147260   5.289   1.517   0.316  0.0868  0.2705  0.1793
    11RH     C347261   5.272   1.658   0.434  0.2028  0.2503  0.2213
    11RH     C447262   5.342   1.893   0.461  0.1681  0.0093  0.1714
    11RH     S247263   5.163   1.655   0.563  0.2524  0.2718  0.2632
    11RH     O147264   5.520   1.827   0.245  0.2121  0.1737  0.1648
    11RH     C547265   5.483   1.566   0.114  0.0312  0.2246  0.1149
    21BTZ    C647266   5.461   1.446   0.021 -0.2619 -0.5743  0.2618
    21BTZ    C747267   5.380   1.337   0.039 -0.3365 -0.5782 -0.0781
    21BTZ    C847268   5.546   1.450  -0.094 -0.1590 -0.3369  0.3452
    21BTZ    C947269   5.380   1.226  -0.054 -0.3142 -0.3505 -0.3510
    21BTZ   C1047270   5.460   1.226  -0.165 -0.2172 -0.1193 -0.2838
    21BTZ   C1147271   5.546   1.338  -0.188 -0.1364 -0.1054  0.0677
    21BTZ    N247272   5.629   1.551  -0.122 -0.0798 -0.3089  0.6666
    21BTZ    N347273   5.629   1.349  -0.293 -0.0389  0.1085  0.1659
    21BTZ    S347274   5.712   1.506  -0.274  0.0295  0.0213  0.6265
    31IDT   C1247275   5.459   1.109  -0.262 -0.4083 -0.2986 -0.1576
    31IDT   C1347276   5.551   1.071  -0.357 -0.2774 -0.4756  0.0377
    31IDT   C1447277   5.518   0.947  -0.419 -0.2058 -0.5788  0.2060
    31IDT   C1547278   5.402   0.889  -0.373 -0.2813 -0.4813  0.1399
    31IDT    S447279   5.324   0.989  -0.245 -0.4505 -0.2492 -0.1432
    4IDB    C1647280   5.382   0.763  -0.438 -0.0631  0.6552 -0.8076
    4IDB    C1747281   5.476   0.742  -0.544  0.3145  0.4117 -0.4311
    51IDQ   C1847282   5.579   0.846  -0.525  0.0234 -1.4623 -0.0267
    4IDB    C1947283   5.468   0.629  -0.625  0.7120  0.1352 -0.0953
    51IDQ   C2047284   5.716   0.769  -0.491  0.2555 -0.0614  0.7980
    51IDQ   C2147285   5.611   0.932  -0.651  0.3124  0.9002  0.6361
    51IDQ   C2247286   5.530   0.911  -0.792  0.5262 -0.5110 -1.0964
    51IDQ   C2347287   5.761   0.774  -0.347 -1.4712  0.9412 -0.0674
    51IDQ   C2447288   5.590   0.962  -0.927 -0.4674  0.4571  0.3100
    51IDQ   C2547289   5.621   1.111  -0.945 -0.7013 -0.1579 -0.2132
    51IDQ   C2647290   5.499   1.205  -0.940 -0.4189  0.0363 -0.5642
    51IDQ   C2747291   5.512   1.331  -1.033 -1.2833  1.2251  0.2227
    51IDQ   C2847292   5.389   1.408  -1.042 -0.2845  0.0661 -1.0616
    51IDQ   C2947293   5.433   1.535  -1.105  0.0986 -0.0242  0.1433
    51IDQ   C3047294   5.896   0.701  -0.349 -0.0046  0.7326  0.2289
    51IDQ   C3147295   5.953   0.680  -0.207 -0.2560  0.6926 -0.9106
    51IDQ   C3247296   6.086   0.612  -0.206  0.1953 -0.0277 -0.1467
    51IDQ   C3347297   6.147   0.617  -0.067  0.8455  0.8550 -0.5203
    51IDQ   C3447298   6.269   0.541  -0.066 -0.1711  0.2344  0.0077
    51IDQ   C3547299   6.375   0.613   0.013 -0.6735 -0.0962 -0.5715
    4IDB    C3647300   5.280   0.671  -0.413 -0.0446  0.6232 -0.8497
    4IDB    C3747301   5.273   0.556  -0.497  0.3647  0.3390 -0.5031
    11RH    C3847302   5.434   1.917   0.578 -0.6353 -0.2534 -0.0620
    4IDB    C3947303   5.365   0.537  -0.600  0.7304  0.1032 -0.1373
    62IDT   C4047304   5.337   0.408  -0.662 -0.2345  0.1168 -0.4226
    72IDQ   C4147305   5.171   0.440  -0.496 -0.1486 -0.3383 -0.8585
    62IDT   C4247306   5.224   0.354  -0.603 -0.3185  0.1128 -0.5870
    72IDQ   C4347307   5.014   0.481  -0.516  0.3410 -0.5811  0.4508
    72IDQ   C4447308   5.179   0.361  -0.350 -0.8489 -0.5953  0.8989
    62IDT    S547309   5.408   0.297  -0.785 -0.0686  0.1316 -0.3409
    62IDT   C4547310   5.274   0.179  -0.748 -0.1244  0.1317 -0.5435
    62IDT   C4647311   5.189   0.225  -0.652 -0.2564  0.1213 -0.6561
    82BTZ   C4747312   5.285   0.041  -0.798 -0.2553 -0.1442  0.4226
    82BTZ   C4847313   5.408  -0.007  -0.831 -0.2401 -0.0114  0.2823
    82BTZ   C4947314   5.424  -0.126  -0.911 -0.2028  0.1272  0.0815
    82BTZ   C5047315   5.316  -0.196  -0.957 -0.1805  0.1330  0.0213
    82BTZ   C5147316   5.169  -0.028  -0.844 -0.2333 -0.1439  0.3662
    82BTZ   C5247317   5.184  -0.149  -0.925 -0.1953 -0.0030  0.1621
    92RH    C5347318   5.331  -0.313  -1.038  0.0587  0.4785  0.1664
    82BTZ    N447319   5.043   0.009  -0.818 -0.2452 -0.2660  0.4892
    82BTZ    N547320   5.071  -0.209  -0.965 -0.1765 -0.0118  0.1211
    82BTZ    S647321   4.937  -0.111  -0.898 -0.2072 -0.2043  0.3460
    92RH    C5447322   5.430  -0.378  -1.101 -0.0744  0.2496  0.1950
    92RH     S747323   5.603  -0.323  -1.120  0.0144 -0.0654  0.0797
    92RH    C5547324   5.411  -0.510  -1.166 -0.3226  0.2164  0.3276
    92RH     O247325   5.305  -0.574  -1.171 -0.4350  0.3926  0.4272
    92RH     N647326   5.532  -0.556  -1.224 -0.4205 -0.0454  0.3289
    92RH    C5647327   5.644  -0.477  -1.214 -0.2806 -0.2260  0.2122
    92RH    C5747328   5.526  -0.683  -1.301 -1.4813  0.6614  0.1002
    92RH    C5847329   5.597  -0.812  -1.238  0.6758  0.4974 -0.7577
    92RH     S847330   5.798  -0.508  -1.273 -0.3538 -0.5476  0.1874
    72IDQ   C5947331   5.312   0.330  -0.298 -0.1509  0.2063  0.0910
    72IDQ   C6047332   5.305   0.240  -0.171 -0.7309 -0.3337  0.2840
    72IDQ   C6147333   5.287   0.303  -0.037 -0.4057  0.1778 -0.3085
    72IDQ   C6247334   5.276   0.207   0.078 -0.1219  0.5196 -0.0853
    72IDQ   C6347335   5.231   0.270   0.206 -0.6682  0.1922 -0.6002
    72IDQ   C6447336   5.101   0.331   0.237 -0.8018  0.1762  0.3580
    72IDQ   C6547337   5.001   0.239   0.320 -1.1659 -0.1769  0.0160
    72IDQ   C6647338   4.972   0.566  -0.634 -0.5634 -1.0134 -1.0472
    72IDQ   C6747339   4.822   0.562  -0.675 -0.4875  0.3769  0.2141
    72IDQ   C6847340   4.736   0.575  -0.556  0.3521  0.0937 -0.0681
    72IDQ   C6947341   4.583   0.558  -0.589  0.9250  0.7562  0.6572
    72IDQ   C7047342   4.507   0.671  -0.672  0.3847  0.8943 -0.0278
    72IDQ   C7147343   4.546   0.708  -0.814  1.0504 -0.2391  0.5342
    72IDQ   C7247344   4.457   0.824  -0.863 -0.0485 -0.0092  0.2095
    11RH     C147345   0.434   5.461  13.093 -0.0157 -0.5032  0.1538
    11RH     C247346   0.301   5.440  13.155 -0.0681 -0.3601  0.0913
    11RH     N147347   0.424   5.541  12.977  0.1375 -0.4184  0.1999
    11RH     S147348   0.172   5.528  13.058  0.0875 -0.1233  0.0970
    11RH     C347349   0.300   5.588  12.939  0.2143 -0.2248  0.1814
    11RH     C447350   0.547   5.563  12.909 -0.0899 -0.1224  0.0208
    11RH     S247351   0.262   5.684  12.807  0.3961 -0.0900  0.2265
    11RH     O147352   0.541   5.415  13.134 -0.0940 -0.6765  0.1662
    11RH     C547353   0.282   5.368  13.266 -0.2087 -0.4030  0.0399
    21BTZ    C647354   0.178   5.339  13.359  0.3232 -0.0230  0.1403
    21BTZ    C747355   0.048   5.380  13.347  0.3453 -0.0381 -0.1493
    21BTZ    C847356   0.216   5.265  13.476  0.0525 -0.0936  0.1845
    21BTZ    C947357  -0.051   5.350  13.447  0.1043 -0.1228 -0.4096
    21BTZ   C1047358  -0.019   5.279  13.560 -0.1587 -0.1923 -0.3789
    21BTZ   C1147359   0.116   5.234  13.578 -0.1926 -0.1798 -0.0801
    21BTZ    N247360   0.340   5.219  13.500  0.0043 -0.0870  0.4554
    21BTZ    N347361   0.158   5.165  13.684 -0.4377 -0.2425 -0.0215
    21BTZ    S347362   0.332   5.134  13.657 -0.3640 -0.1928  0.3830
    31IDT   C1247363  -0.131   5.240  13.648  0.0151  0.5178 -0.2085
    31IDT   C1347364  -0.118   5.166  13.763  0.1087  0.5431 -0.2027
    31IDT   C1447365  -0.244   5.135  13.823  0.1348  0.2126 -0.3140
    31IDT   C1547366  -0.353   5.185  13.755  0.0619 -0.0662 -0.4053
    31IDT    S447367  -0.305   5.276  13.608 -0.0468  0.0696 -0.3568
    4IDB    C1647368  -0.471   5.161  13.838  0.0686 -0.6469  0.0518
    4IDB    C1747369  -0.441   5.078  13.951  0.0471 -0.6076  0.0865
    51IDQ   C1847370  -0.287   5.053  13.952  0.0764 -1.3805 -0.8149
    4IDB    C1947371  -0.540   5.040  14.040  0.0969 -0.2616  0.2943
    51IDQ   C2047372  -0.237   5.118  14.093 -0.0507  0.2838 -0.0130
    51IDQ   C2147373  -0.241   4.909  13.930 -0.2151  0.1881 -0.2381
    51IDQ   C2247374  -0.350   4.808  13.868 -1.6235  0.0937 -0.5148
    51IDQ   C2347375  -0.177   5.254  14.108  0.8987 -0.0010 -0.6918
    51IDQ   C2447376  -0.311   4.659  13.861  0.3866  0.4329  0.1609
    51IDQ   C2547377  -0.424   4.565  13.807 -0.2769 -0.8375  1.2411
    51IDQ   C2647378  -0.513   4.630  13.696  0.0112  0.2833 -0.9595
    51IDQ   C2747379  -0.646   4.581  13.654  1.4360 -0.0719 -0.9622
    51IDQ   C2847380  -0.751   4.673  13.713 -0.5866  0.3438 -0.5978
    51IDQ   C2947381  -0.886   4.623  13.674  0.7945 -0.2593  1.3594
    51IDQ   C3047382  -0.206   5.301  14.253 -0.0393 -0.5615  0.3815
    51IDQ   C3147383  -0.129   5.230  14.358  0.5686  1.2314  0.0600
    51IDQ   C3247384  -0.206   5.261  14.495  0.3369  0.2651 -0.5210
    51IDQ   C3347385  -0.167   5.212  14.636 -1.1318  0.7737 -0.5368
    51IDQ   C3447386  -0.180   5.060  14.659  0.2234 -0.3055 -0.3986
    51IDQ   C3547387  -0.053   4.986  14.620  0.4458  0.9036  0.1097
    4IDB    C3647388  -0.602   5.206  13.815  0.1407 -0.3383  0.2258
    4IDB    C3747389  -0.702   5.166  13.907  0.1910  0.0130  0.4373
    11RH    C3847390   0.606   5.694  12.936 -0.0171 -0.1417  0.7182
    4IDB    C3947391  -0.671   5.085  14.016  0.1692  0.0467  0.4686
    62IDT   C4047392  -0.794   5.071  14.090 -0.0870 -0.0300 -0.0573
    72IDQ   C4147393  -0.853   5.203  13.895  0.8734 -0.0666 -1.0270
    62IDT   C4247394  -0.901   5.133  14.029 -0.1624  0.4628  0.5584
    72IDQ   C4347395  -0.905   5.154  13.758  0.4175  0.0988  0.1560
    72IDQ   C4447396  -0.864   5.356  13.927 -0.6111 -0.2291 -0.0219
    62IDT    S547397  -0.843   4.983  14.239  0.2613 -0.3453 -0.1254
    62IDT   C4547398  -1.014   5.038  14.210  0.2880  0.2335  0.7232
    62IDT   C4647399  -1.025   5.115  14.097  0.0497  0.6123  1.0004
    82BTZ   C4747400  -1.123   5.006  14.299 -0.5249 -0.2017 -0.2821
    82BTZ   C4847401  -1.122   4.884  14.361 -0.5592 -0.1513 -0.1822
    82BTZ   C4947402  -1.203   4.857  14.478 -0.3591  0.0538  0.0062
    82BTZ   C5047403  -1.285   4.953  14.532 -0.1251  0.2080  0.0937
    82BTZ   C5147404  -1.208   5.109  14.352 -0.2831 -0.0454 -0.1965
    82BTZ   C5247405  -1.290   5.082  14.470 -0.0796  0.1630 -0.0052
    92RH    C5347406  -1.364   4.933  14.656  0.3749 -0.1542  0.0966
    82BTZ    N447407  -1.218   5.232  14.300 -0.2267 -0.0756 -0.2792
    82BTZ    N547408  -1.366   5.183  14.513  0.1402  0.3003  0.0658
    82BTZ    S647409  -1.336   5.320  14.402  0.0956  0.1661 -0.1129
    92RH    C5447410  -1.377   4.827  14.737  0.0821 -0.1616  0.0405
    92RH     S747411  -1.275   4.674  14.735 -0.2054 -0.3554  0.0975
    92RH    C5547412  -1.479   4.818  14.843 -0.0578 -0.0088 -0.0794
    92RH     O247413  -1.564   4.905  14.870  0.0763  0.1415 -0.1416
    92RH     N647414  -1.470   4.695  14.913 -0.3696 -0.0544 -0.1165
    92RH    C5647415  -1.373   4.605  14.875 -0.4965 -0.2249 -0.0405
    92RH    C5747416  -1.554   4.664  15.039 -0.4261 -0.2779  0.1809
    92RH    C5847417  -1.696   4.615  15.009  0.1057  0.4641  0.4566
    92RH     S847418  -1.341   4.454  14.942 -0.8596 -0.3124 -0.0625
    72IDQ   C5947419  -0.962   5.447  13.853  0.3970  0.4263 -0.3892
    72IDQ   C6047420  -0.945   5.590  13.872  0.5762 -0.8717  0.7956
    72IDQ   C6147421  -1.066   5.663  13.810 -0.4261  0.7194 -0.6751
    72IDQ   C6247422  -1.062   5.809  13.819 -0.0541  0.6725  0.3247
    72IDQ   C6347423  -0.955   5.893  13.763 -0.2313 -0.2439  1.3992
    72IDQ   C6447424  -0.945   5.909  13.609  0.1842  1.0524 -0.8853
    72IDQ   C6547425  -0.807   5.949  13.566  0.5900 -0.0878 -0.6383
    72IDQ   C6647426  -1.054   5.139  13.712 -0.4138  0.3376 -0.0320
    72IDQ   C6747427  -1.068   5.084  13.565  0.3901 -0.1691 -0.5733
    72IDQ   C6847428  -1.020   5.183  13.458 -0.1024 -1.6962 -0.1586
    72IDQ   C6947429  -1.102   5.318  13.448 -0.3653 -0.6986  1.5026
    72IDQ   C7047430  -1.045   5.441  13.367 -0.0158  0.4599 -0.3120
    72IDQ   C7147431  -1.128   5.569  13.388 -0.8972  0.1746 -0.4283
    72IDQ   C7247432  -1.268   5.552  13.326  0.0219  0.5216  0.4307
    11RH     C147433   4.325   0.876  23.855 -0.4542 -0.3399 -0.0472
    11RH     C247434   4.417   0.768  23.811 -0.2339 -0.2031  0.0701
    11RH     N147435   4.306   0.972  23.753 -0.3342 -0.2817 -0.0154
    11RH     S147436   4.471   0.799  23.638  0.1170 -0.0068  0.2131
    11RH     C347437   4.370   0.954  23.632 -0.0446 -0.1150  0.1125
    11RH     C447438   4.242   1.102  23.783 -0.3422  0.8815  0.6735
    11RH     S247439   4.364   1.052  23.496  0.1498 -0.0148  0.1750
    11RH     O147440   4.272   0.884  23.966 -0.7128 -0.4878 -0.1593
    11RH     C547441   4.452   0.665  23.888 -0.2910 -0.2248  0.0669
    21BTZ    C647442   4.548   0.562  23.891 -0.0737  0.4611  0.4299
    21BTZ    C747443   4.638   0.533  23.793 -0.0812  0.5802  0.3872
    21BTZ    C847444   4.537   0.473  24.003  0.0259  0.3945  0.3862
    21BTZ    C947445   4.722   0.416  23.799  0.0081  0.6396  0.3014
    21BTZ   C1047446   4.716   0.328  23.904  0.1048  0.5797  0.2580
    21BTZ   C1147447   4.622   0.354  24.010  0.1166  0.4548  0.2985
    21BTZ    N247448   4.453   0.490  24.106  0.0428  0.2781  0.4210
    21BTZ    N347449   4.607   0.276  24.117  0.2066  0.3869  0.2627
    21BTZ    S347450   4.479   0.352  24.217  0.1785  0.2399  0.3410
    31IDT   C1247451   4.808   0.209  23.912  0.0322 -0.4057  0.0548
    31IDT   C1347452   4.889   0.173  24.016 -0.4803 -0.8846  0.2933
    31IDT   C1447453   4.977   0.066  23.983 -0.7110 -1.1153  0.4187
    31IDT   C1547454   4.965   0.020  23.854 -0.3765 -0.8147  0.2764
    31IDT    S447455   4.839   0.110  23.763  0.2621 -0.2105 -0.0299
    4IDB    C1647456   5.059  -0.085  23.830 -0.0422  0.3715  0.7995
    4IDB    C1747457   5.131  -0.109  23.951  0.1410 -0.0489  0.6080
    51IDQ   C1847458   5.095  -0.004  24.060  0.0546 -0.9217  0.9738
    4IDB    C1947459   5.224  -0.212  23.959  0.1245 -0.1051  0.1219
    51IDQ   C2047460   5.076  -0.048  24.223  0.1599 -0.7725  1.0614
    51IDQ   C2147461   5.203   0.113  24.073 -0.0805  0.4410  0.6778
    51IDQ   C2247462   5.348   0.099  24.016  0.3088  0.1806 -0.1475
    51IDQ   C2347463   4.940  -0.035  24.288  0.3388  0.6707 -0.5681
    51IDQ   C2447464   5.431   0.219  24.062  0.0574  0.8814 -0.1200
    51IDQ   C2547465   5.447   0.254  24.212 -1.2437 -0.5956  0.9098
    51IDQ   C2647466   5.503   0.138  24.296  0.0854 -0.1209 -0.0761
    51IDQ   C2747467   5.572   0.171  24.439 -0.7740 -0.0267  0.3374
    51IDQ   C2847468   5.668   0.298  24.451  0.8527  0.1233  0.5829
    51IDQ   C2947469   5.741   0.304  24.582 -0.1773  0.6896  0.4600
    51IDQ   C3047470   4.938  -0.051  24.443  0.7454  0.3151  0.0989
    51IDQ   C3147471   4.978  -0.176  24.530  0.2580 -0.5513 -0.4626
    51IDQ   C3247472   4.988  -0.107  24.668 -0.4996 -0.5837  0.6089
    51IDQ   C3347473   5.088  -0.180  24.754 -0.8623  0.7860  0.3875
    51IDQ   C3447474   5.237  -0.175  24.720 -0.1640  0.9591  0.4737
    51IDQ   C3547475   5.322  -0.279  24.807 -0.6159 -0.3296  1.0344
    4IDB    C3647476   5.079  -0.164  23.716 -0.2444  0.7399  0.5035
    4IDB    C3747477   5.174  -0.269  23.726 -0.2583  0.6762  0.0081
    11RH    C3847478   4.091   1.092  23.776  0.8226  0.1688 -0.3490
    4IDB    C3947479   5.244  -0.291  23.844 -0.0779  0.2635 -0.1739
    62IDT   C4047480   5.323  -0.410  23.838 -0.2578 -0.0923 -0.7078
    72IDQ   C4147481   5.219  -0.381  23.621 -0.7547  0.2411 -0.9482
    62IDT   C4247482   5.313  -0.470  23.715  0.0432 -0.4472 -0.5608
    72IDQ   C4347483   5.312  -0.305  23.512 -0.0804  0.7658 -0.0381
    72IDQ   C4447484   5.096  -0.439  23.552  0.0245 -0.1056  0.2641
    62IDT    S547485   5.416  -0.510  23.955 -0.1752  0.4334 -0.3157
    62IDT   C4547486   5.438  -0.634  23.824  0.2843  0.1309  0.0428
    62IDT   C4647487   5.378  -0.597  23.707  0.3501 -0.3214 -0.1364
    82BTZ   C4747488   5.527  -0.748  23.859  0.0639 -0.0474  0.2953
    82BTZ   C4847489   5.606  -0.741  23.970  0.2546 -0.1067  0.1655
    82BTZ   C4947490   5.701  -0.845  24.003  0.3847 -0.0745 -0.1044
    82BTZ   C5047491   5.716  -0.955  23.924  0.3236  0.0167 -0.2446
    82BTZ   C5147492   5.540  -0.862  23.772 -0.0072  0.0486  0.1574
    82BTZ   C5247493   5.636  -0.967  23.806  0.1251  0.0814 -0.1173
    92RH    C5347494   5.808  -1.060  23.955 -0.0516  0.0762 -0.0898
    82BTZ    N447495   5.468  -0.880  23.661 -0.1897  0.1129  0.2632
    82BTZ    N547496   5.642  -1.070  23.721  0.0488  0.1720 -0.2327
    82BTZ    S647497   5.522  -1.036  23.592 -0.2007  0.2203  0.0105
    92RH    C5447498   5.894  -1.093  24.052 -0.1266  0.0832 -0.0196
    92RH     S747499   5.923  -1.003  24.209 -0.2795  0.0712  0.0151
    92RH    C5547500   5.983  -1.211  24.045 -0.0961  0.1026  0.0424
    92RH     O247501   5.988  -1.293  23.951  0.0007  0.1144  0.0367
    92RH     N647502   6.064  -1.222  24.160 -0.1918  0.1062  0.1105
    92RH    C5647503   6.051  -1.126  24.258 -0.2955  0.0923  0.1106
    92RH    C5747504   6.149  -1.348  24.174 -0.2461 -0.8583 -0.2466
    92RH    C5847505   6.113  -1.440  24.281  0.2091 -1.0821  0.3354
    92RH     S847506   6.135  -1.116  24.404 -0.4216  0.0931  0.1836
    72IDQ   C5947507   5.100  -0.531  23.421  0.2697  0.2356  0.4353
    72IDQ   C6047508   4.989  -0.625  23.380 -0.0062  0.1045  0.0883
    72IDQ   C6147509   4.958  -0.729  23.489  0.2387 -0.3413  0.0640
    72IDQ   C6247510   5.042  -0.856  23.502 -0.3626 -1.0941  0.5380
    72IDQ   C6347511   5.008  -0.952  23.612  0.0557  0.3843  0.6718
    72IDQ   C6447512   5.034  -1.108  23.623  0.0769 -1.4364  1.5270
    72IDQ   C6547513   5.005  -1.191  23.504 -0.0140 -0.2062 -0.5902
    72IDQ   C6647514   5.427  -0.377  23.436  0.0269 -0.4980  1.7190
    72IDQ   C6747515   5.541  -0.268  23.430  0.3466  1.0277 -0.0185
    72IDQ   C6847516   5.666  -0.329  23.357 -0.3351 -0.2791 -0.7338
    72IDQ   C6947517   5.798  -0.265  23.360 -0.1514 -0.9803  0.0885
    72IDQ   C7047518   5.898  -0.310  23.461  0.0250 -0.1973 -0.1825
    72IDQ   C7147519   5.979  -0.197  23.525 -0.3644 -0.3366  0.1546
    72IDQ   C7247520   6.076  -0.244  23.639  0.5278 -0.6122 -0.1294
    11RH     C147521   1.754   6.679  22.264 -0.2428 -0.0056  0.0248
    11RH     C247522   1.846   6.638  22.373 -0.0424 -0.0156 -0.1469
    11RH     N147523   1.661   6.577  22.234 -0.2320 -0.0423  0.1150
    11RH     S147524   1.804   6.468  22.429  0.1471 -0.0728 -0.1774
    11RH     C347525   1.668   6.459  22.306 -0.0475 -0.0805  0.0377
    11RH     C447526   1.558   6.582  22.129 -0.0899 -0.6442 -0.9506
    11RH     S247527   1.570   6.323  22.290  0.0059 -0.1283  0.1168
    11RH     O147528   1.756   6.788  22.205 -0.4022  0.0302  0.0844
    11RH     C547529   1.943   6.717  22.421 -0.0111  0.0134 -0.2580
    21BTZ    C647530   2.049   6.699  22.529 -0.6320  0.6752  0.0605
    21BTZ    C747531   2.066   6.585  22.603 -0.6940  0.5708 -0.0844
    21BTZ    C847532   2.139   6.809  22.550 -0.3027  0.4407 -0.1011
    21BTZ    C947533   2.171   6.574  22.702 -0.4374  0.2327 -0.3924
    21BTZ   C1047534   2.259   6.676  22.725 -0.1193 -0.0002 -0.5557
    21BTZ   C1147535   2.245   6.797  22.650 -0.0418  0.0972 -0.4144
    21BTZ    N247536   2.133   6.925  22.483 -0.2118  0.5127  0.0153
    21BTZ    N347537   2.325   6.904  22.663  0.2586 -0.1070 -0.5493
    21BTZ    S347538   2.266   7.026  22.547  0.2201  0.1366 -0.2760
    31IDT   C1247539   2.349   6.647  22.835 -0.2261 -0.0599 -0.1348
    31IDT   C1347540   2.405   6.746  22.912 -0.3914  0.1141 -0.2365
    31IDT   C1447541   2.471   6.695  23.028 -0.4264  0.3558 -0.1097
    31IDT   C1547542   2.466   6.558  23.041 -0.2884  0.3680  0.0890
    31IDT    S447543   2.376   6.481  22.905 -0.1017  0.0714  0.1314
    4IDB    C1647544   2.532   6.512  23.152 -0.3854  0.0654 -0.0330
    4IDB    C1747545   2.601   6.622  23.211 -0.4188  0.0949 -0.0486
    51IDQ   C1847546   2.566   6.753  23.141  0.1180 -0.3727  0.2013
    4IDB    C1947547   2.681   6.604  23.323 -0.3466  0.1183 -0.0958
    51IDQ   C2047548   2.496   6.839  23.257 -0.8180 -0.1680  1.3521
    51IDQ   C2147549   2.679   6.838  23.078 -0.1261  0.0452 -0.4985
    51IDQ   C2247550   2.826   6.790  23.084  0.1281  0.2045  1.1624
    51IDQ   C2347551   2.344   6.845  23.254  0.8087  0.3645 -0.5619
    51IDQ   C2447552   2.912   6.912  23.074  0.6721 -0.1203  0.9841
    51IDQ   C2547553   3.057   6.897  23.094 -0.8450 -0.6454  0.1835
    51IDQ   C2647554   3.129   7.043  23.106  0.7098  0.8776  0.4542
    51IDQ   C2747555   3.153   7.123  22.980 -0.0948  0.5888 -0.1421
    51IDQ   C2847556   3.032   7.194  22.920  0.0374 -0.3353  0.4932
    51IDQ   C2947557   3.068   7.259  22.780 -1.0256 -0.1114  0.4965
    51IDQ   C3047558   2.275   6.943  23.163  0.3210 -0.2910 -0.0373
    51IDQ   C3147559   2.132   6.896  23.190 -0.0014  0.1053 -0.0050
    51IDQ   C3247560   2.015   6.943  23.095 -0.2449 -0.5099  0.5329
    51IDQ   C3347561   1.875   6.878  23.096  0.3003  0.8882  0.1258
    51IDQ   C3447562   1.881   6.726  23.052  0.0334  0.6619  0.1294
    51IDQ   C3547563   1.887   6.705  22.901  0.7329  0.1093 -0.2654
    4IDB    C3647564   2.541   6.383  23.206 -0.2788  0.0594 -0.0653
    4IDB    C3747565   2.623   6.367  23.322 -0.2061  0.0839 -0.1130
    11RH    C3847566   1.435   6.652  22.179  1.7138 -0.6824  1.0205
    4IDB    C3947567   2.690   6.475  23.378 -0.2400  0.1124 -0.1278
    62IDT   C4047568   2.765   6.440  23.497 -0.2831  0.4920  0.0414
    72IDQ   C4147569   2.658   6.242  23.400  0.7238  0.2962 -0.3614
    62IDT   C4247570   2.743   6.305  23.512 -0.0596  0.3352 -0.8788
    72IDQ   C4347571   2.748   6.158  23.305 -0.5841  0.3434 -0.3087
    72IDQ   C4447572   2.529   6.164  23.444  0.5077  0.1162 -0.6229
    62IDT    S547573   2.888   6.502  23.613 -0.3948 -0.0871  0.4774
    62IDT   C4547574   2.903   6.333  23.679 -0.1201 -0.5320 -0.6626
    62IDT   C4647575   2.821   6.244  23.616  0.0328 -0.2438 -1.2779
    82BTZ   C4747576   2.976   6.316  23.811 -0.5224  0.4214  0.2303
    82BTZ   C4847577   3.016   6.425  23.883 -0.6189  0.4623  0.2213
    82BTZ   C4947578   3.081   6.413  24.011 -0.4467  0.5230  0.1411
    82BTZ   C5047579   3.106   6.290  24.067 -0.1783  0.5427  0.0695
    82BTZ   C5147580   2.999   6.185  23.866 -0.2427  0.4398  0.1574
    82BTZ   C5247581   3.065   6.172  23.997 -0.0677  0.5015  0.0758
    92RH    C5347582   3.180   6.286  24.198 -0.3121  0.1095 -0.1129
    82BTZ    N447583   2.965   6.071  23.806 -0.1252  0.4040  0.1574
    82BTZ    N547584   3.084   6.048  24.041  0.1906  0.5155  0.0095
    82BTZ    S647585   3.017   5.939  23.916  0.2213  0.4487  0.0504
    92RH    C5447586   3.221   6.377  24.287 -0.1765  0.0676 -0.1307
    92RH     S747587   3.233   6.559  24.260  0.1024  0.0440 -0.1698
    92RH    C5547588   3.263   6.345  24.425 -0.2348  0.0328 -0.1216
    92RH     O247589   3.266   6.231  24.475 -0.4120  0.0381 -0.0963
    92RH     N647590   3.300   6.461  24.497 -0.0613 -0.0084 -0.1446
    92RH    C5647591   3.293   6.582  24.432  0.1289 -0.0106 -0.1712
    92RH    C5747592   3.343   6.449  24.639  0.0798  0.8722  0.0188
    92RH    C5847593   3.494   6.437  24.657 -0.5559 -0.2886 -0.0846
    92RH     S847594   3.332   6.734  24.494  0.3580 -0.0553 -0.2022
    72IDQ   C5947595   2.465   6.198  23.583 -0.2305  0.2720 -0.0196
    72IDQ   C6047596   2.351   6.303  23.559 -0.6751  0.3915 -0.0896
    72IDQ   C6147597   2.281   6.349  23.681  0.0738 -0.7046 -0.3103
    72IDQ   C6247598   2.174   6.456  23.642  0.9438  0.1959  0.4637
    72IDQ   C6347599   2.061   6.445  23.532 -0.8482  0.2715  0.2157
    72IDQ   C6447600   2.018   6.583  23.494  0.2597  0.2712 -0.4577
    72IDQ   C6547601   1.917   6.596  23.381  0.4956 -0.4231  0.1236
    72IDQ   C6647602   2.761   6.010  23.329 -0.6270  0.4244  0.3831
    72IDQ   C6747603   2.806   5.926  23.201  0.3495  0.0176 -0.2763
    72IDQ   C6847604   2.952   5.958  23.152  0.4539 -0.3270  0.3701
    72IDQ   C6947605   2.967   5.860  23.041 -0.2595 -0.4953 -0.4623
    72IDQ   C7047606   2.960   5.699  23.058 -0.1177 -0.4653 -0.7882
    72IDQ   C7147607   3.074   5.627  22.977 -0.8122 -1.4585 -0.5730
    72IDQ   C7247608   3.209   5.605  23.057  0.5753 -0.2496  0.9044
    11RH     C147609   2.604   0.658  24.384 -0.0447 -0.0098  0.0277
    11RH     C247610   2.532   0.769  24.316 -0.2192 -0.1782 -0.0644
    11RH     N147611   2.553   0.634  24.513  0.0423  0.0666  0.0766
    11RH     S147612   2.401   0.835  24.428 -0.2574 -0.2251 -0.0806
    11RH     C347613   2.448   0.713  24.558 -0.0410 -0.0200  0.0348
    11RH     C447614   2.617   0.550  24.617 -0.8290  0.3769  0.9987
    11RH     S247615   2.370   0.705  24.707  0.0335  0.0423  0.0772
    11RH     O147616   2.697   0.592  24.335  0.0199  0.0586  0.0596
    11RH     C547617   2.561   0.811  24.193 -0.3284 -0.2771 -0.1244
    21BTZ    C647618   2.498   0.918  24.114 -0.0670  0.3585  0.2311
    21BTZ    C747619   2.398   0.998  24.163 -0.0974  0.3935  0.1111
    21BTZ    C847620   2.540   0.934  23.978 -0.1219  0.1241  0.1841
    21BTZ    C947621   2.335   1.099  24.081 -0.1828  0.2013 -0.0606
    21BTZ   C1047622   2.372   1.118  23.950 -0.2377 -0.0256 -0.1118
    21BTZ   C1147623   2.476   1.037  23.895 -0.2088 -0.0713  0.0095
    21BTZ    N247624   2.636   0.862  23.920 -0.0995  0.0678  0.2899
    21BTZ    N347625   2.521   1.046  23.769 -0.2562 -0.2846 -0.0248
    21BTZ    S347626   2.649   0.923  23.752 -0.1905 -0.2437  0.1694
    31IDT   C1247627   2.323   1.248  23.889 -0.3723 -0.8128 -0.4373
    31IDT   C1347628   2.348   1.289  23.761 -1.2320 -1.1622 -0.7291
    31IDT   C1447629   2.282   1.411  23.728 -1.3505 -1.1843 -0.5765
    31IDT   C1547630   2.207   1.464  23.831 -0.5839 -0.8526 -0.1680
    31IDT    S447631   2.214   1.362  23.979  0.3563 -0.4833  0.0571
    4IDB    C1647632   2.140   1.583  23.791  0.0802  0.2149 -0.1101
    4IDB    C1747633   2.168   1.618  23.656  0.4330  0.6719  0.0777
    51IDQ   C1847634   2.279   1.518  23.609 -0.4015 -0.4280 -0.3070
    4IDB    C1947635   2.103   1.725  23.595  0.4038  0.7193  0.1920
    51IDQ   C2047636   2.232   1.450  23.475 -0.4754 -0.3798 -0.8288
    51IDQ   C2147637   2.426   1.580  23.598  0.0827  0.3011  0.9433
    51IDQ   C2247638   2.465   1.724  23.613  0.3604 -0.7853 -1.1112
    51IDQ   C2347639   2.341   1.420  23.371  0.9598 -0.7731  1.4479
    51IDQ   C2447640   2.419   1.825  23.723  0.1886 -0.9783 -0.1150
    51IDQ   C2547641   2.504   1.950  23.762  0.6348 -0.3445  0.3068
    51IDQ   C2647642   2.483   2.053  23.645  0.0499  0.3439 -0.5913
    51IDQ   C2747643   2.339   2.111  23.650 -0.5189 -1.2105  0.7748
    51IDQ   C2847644   2.302   2.204  23.530 -0.7583  0.2547  0.2789
    51IDQ   C2947645   2.164   2.245  23.511 -1.0238 -1.0395  0.0149
    51IDQ   C3047646   2.294   1.351  23.236  1.1664 -0.3418  0.3837
    51IDQ   C3147647   2.169   1.252  23.237 -0.6966  0.8401 -0.0097
    51IDQ   C3247648   2.115   1.220  23.091 -0.0679 -0.5154 -0.6317
    51IDQ   C3347649   2.200   1.178  22.968  0.1657  0.0924 -0.5771
    51IDQ   C3447650   2.294   1.056  22.966 -0.2368 -0.3972 -0.4223
    51IDQ   C3547651   2.243   0.936  22.889 -0.3534  0.6939 -0.7472
    4IDB    C3647652   2.046   1.655  23.867 -0.3061 -0.1999 -0.1855
    4IDB    C3747653   1.981   1.764  23.804 -0.3300 -0.1445 -0.0672
    11RH    C3847654   2.569   0.403  24.624 -1.2048 -0.0135 -0.8353
    4IDB    C3947655   2.010   1.797  23.671  0.0175  0.3046  0.1167
    62IDT   C4047656   1.931   1.906  23.625 -0.5186  0.0294 -0.4191
    72IDQ   C4147657   1.883   1.870  23.857  0.3947  1.0083 -0.4052
    62IDT   C4247658   1.863   1.961  23.732 -0.6030  0.0261 -0.4716
    72IDQ   C4347659   1.944   1.954  23.980 -0.6654  0.0769  0.7359
    72IDQ   C4447660   1.764   1.801  23.933  0.0615  0.2744 -0.6934
    62IDT    S547661   1.906   1.999  23.474  0.1118  0.3996 -0.3027
    62IDT   C4547662   1.800   2.114  23.567  0.2340  0.5371 -0.3325
    62IDT   C4647663   1.788   2.079  23.699 -0.1777  0.3132 -0.4220
    82BTZ   C4747664   1.734   2.232  23.505  0.1622  0.0305  0.8384
    82BTZ   C4847665   1.748   2.240  23.369  0.4742 -0.1038  0.8593
    82BTZ   C4947666   1.682   2.343  23.292  0.6189 -0.2018  0.6013
    82BTZ   C5047667   1.602   2.437  23.351  0.4515 -0.1653  0.3229
    82BTZ   C5147668   1.652   2.328  23.572 -0.0231  0.0737  0.5512
    82BTZ   C5247669   1.585   2.433  23.493  0.1240 -0.0258  0.2885
    92RH    C5347670   1.533   2.547  23.276 -0.4340 -0.2164 -0.1034
    82BTZ    N447671   1.631   2.331  23.703 -0.3290  0.2016  0.5016
    82BTZ    N547672   1.510   2.519  23.563 -0.0635  0.0220  0.0286
    82BTZ    S647673   1.522   2.469  23.734 -0.4441  0.2001  0.1097
    92RH    C5447674   1.535   2.584  23.148 -0.3233  0.0134 -0.0353
    92RH     S747675   1.630   2.507  23.011 -0.3631  0.1307 -0.1304
    92RH    C5547676   1.456   2.699  23.095 -0.1456  0.2142  0.1326
    92RH     O247677   1.381   2.772  23.162 -0.0793  0.1944  0.2298
    92RH     N647678   1.476   2.716  22.957 -0.0576  0.4371  0.1728
    92RH    C5647679   1.561   2.629  22.892 -0.1431  0.4393  0.0567
    92RH    C5747680   1.385   2.815  22.880  0.0411  0.2827 -0.1174
    92RH    C5847681   1.281   2.742  22.802  0.5173  0.2353 -0.8990
    92RH     S847682   1.602   2.628  22.728 -0.0680  0.6790  0.0730
    72IDQ   C5947683   1.656   1.739  23.851  0.4632  0.3755 -0.0269
    72IDQ   C6047684   1.520   1.812  23.835 -0.9061  0.1924 -0.3904
    72IDQ   C6147685   1.423   1.726  23.912  0.5516 -0.6810  0.0233
    72IDQ   C6247686   1.268   1.743  23.874  0.3005 -0.0772  0.3034
    72IDQ   C6347687   1.196   1.638  23.944 -0.0080  0.4357 -0.3887
    72IDQ   C6447688   1.103   1.549  23.862 -0.5852 -0.3848 -0.2781
    72IDQ   C6547689   1.041   1.433  23.951 -0.4414 -0.4911  0.1973
    72IDQ   C6647690   2.097   1.987  23.994  1.5378 -0.3121 -0.4521
    72IDQ   C6747691   2.139   2.015  24.136 -0.0534  0.3567  0.6737
    72IDQ   C6847692   2.256   2.122  24.125  0.4952  0.0321  0.3504
    72IDQ   C6947693   2.291   2.173  24.268 -0.7197  0.4249 -0.0432
    72IDQ   C7047694   2.199   2.287  24.308 -0.6232  0.9115 -0.7391
    72IDQ   C7147695   2.197   2.331  24.456  1.1917  0.8937 -0.5727
    72IDQ   C7247696   2.197   2.219  24.552  0.8901 -0.1493  0.2770
    11RH     C147697   2.900   5.863  27.834 -0.0677  0.2034  0.0553
    11RH     C247698   2.993   5.922  27.735  0.1092  0.0639  0.1373
    11RH     N147699   2.890   5.723  27.817 -0.1721  0.2029  0.1225
    11RH     S147700   3.061   5.790  27.627  0.1266 -0.0588  0.2972
    11RH     C347701   2.963   5.663  27.718 -0.1006  0.0801  0.2484
    11RH     C447702   2.801   5.648  27.908 -0.1048 -0.8182  0.5647
    11RH     S247703   2.969   5.499  27.678 -0.1964  0.0519  0.3490
    11RH     O147704   2.837   5.925  27.921 -0.1207  0.3089 -0.0582
    11RH     C547705   3.020   6.053  27.728  0.2336  0.0361  0.0967
    21BTZ    C647706   3.113   6.139  27.653  0.3017 -0.1588 -0.1536
    21BTZ    C747707   3.203   6.092  27.561  0.4826 -0.1661  0.0243
    21BTZ    C847708   3.128   6.273  27.701  0.1296 -0.1111 -0.2327
    21BTZ    C947709   3.311   6.174  27.511  0.5034 -0.1276  0.1335
    21BTZ   C1047710   3.329   6.302  27.554  0.3433 -0.0813  0.0642
    21BTZ   C1147711   3.237   6.356  27.651  0.1508 -0.0718 -0.1216
    21BTZ    N247712   3.047   6.330  27.791 -0.0543 -0.0994 -0.4039
    21BTZ    N347713   3.245   6.480  27.700 -0.0161 -0.0286 -0.2036
    21BTZ    S347714   3.109   6.496  27.815 -0.2114 -0.0363 -0.4325
    31IDT   C1247715   3.438   6.381  27.498 -0.0309  0.3020  0.2427
    31IDT   C1347716   3.442   6.516  27.479 -0.3892  0.2042 -0.6204
    31IDT   C1447717   3.556   6.559  27.405 -0.6437  0.0222 -1.1339
    31IDT   C1547718   3.641   6.457  27.368 -0.4814 -0.0196 -0.6680
    31IDT    S447719   3.581   6.297  27.423  0.0107  0.1697  0.4689
    4IDB    C1647720   3.767   6.505  27.310  0.4555  0.1097  0.2403
    4IDB    C1747721   3.764   6.647  27.306  0.4089  0.1050  0.0815
    51IDQ   C1847722   3.626   6.695  27.366 -0.1065 -0.0723 -0.5065
    4IDB    C1947723   3.873   6.720  27.260  0.2371  0.0782 -0.3726
    51IDQ   C2047724   3.666   6.792  27.479 -0.3776 -0.4812  0.3899
    51IDQ   C2147725   3.529   6.772  27.265  0.2148 -1.4625 -1.3276
    51IDQ   C2247726   3.568   6.831  27.145  0.0349  0.0520  0.4411
    51IDQ   C2347727   3.610   6.765  27.619 -0.1100 -0.5554 -0.7640
    51IDQ   C2447728   3.449   6.907  27.105 -0.0632 -0.7539  0.9243
    51IDQ   C2547729   3.424   6.935  26.958  0.5820 -0.0690 -0.0701
    51IDQ   C2647730   3.292   6.853  26.932 -0.0958 -0.6738  0.6180
    51IDQ   C2747731   3.234   6.878  26.791 -0.1615 -0.2912 -0.5771
    51IDQ   C2847732   3.090   6.802  26.788 -0.5396 -0.5671  0.6934
    51IDQ   C2947733   3.025   6.865  26.667 -0.2634 -0.7020  0.7722
    51IDQ   C3047734   3.655   6.869  27.721  0.6915  0.2857  1.4124
    51IDQ   C3147735   3.624   6.833  27.870 -0.1773 -0.5625  0.3140
    51IDQ   C3247736   3.706   6.893  27.974  0.3279 -0.9045 -0.6998
    51IDQ   C3347737   3.709   7.052  27.980  0.2010  0.1767  0.1819
    51IDQ   C3447738   3.786   7.118  28.105  0.5010 -0.4327  0.8886
    51IDQ   C3547739   3.931   7.093  28.108  0.3863 -0.9344 -0.0440
    4IDB    C3647740   3.880   6.433  27.267  0.3294  0.0874 -0.0563
    4IDB    C3747741   3.990   6.509  27.220  0.1544  0.0603 -0.5193
    11RH    C3847742   2.838   5.606  28.045 -0.7865  0.2531 -0.1520
    4IDB    C3947743   3.986   6.648  27.217  0.1110  0.0560 -0.6696
    62IDT   C4047744   4.105   6.691  27.154 -0.3935  0.6461  0.4443
    72IDQ   C4147745   4.119   6.454  27.162 -0.2297 -0.1844  0.1788
    62IDT   C4247746   4.187   6.584  27.121 -0.7159  0.3253  0.6704
    72IDQ   C4347747   4.101   6.352  27.037  0.2566  0.4106  0.5719
    72IDQ   C4447748   4.220   6.381  27.257 -0.0575  0.5612  0.1276
    62IDT    S547749   4.187   6.849  27.126  0.0661  0.3445  0.0469
    62IDT   C4547750   4.333   6.758  27.068 -0.2159 -0.2272  0.2151
    62IDT   C4647751   4.316   6.622  27.072 -0.6161 -0.1687  0.5412
    82BTZ   C4747752   4.456   6.838  27.058  0.0302  1.0980 -0.5024
    82BTZ   C4847753   4.454   6.970  27.094  0.3580  1.0816 -0.4187
    82BTZ   C4947754   4.572   7.053  27.084  0.6654  0.7038 -0.0124
    82BTZ   C5047755   4.691   7.004  27.038  0.6443  0.3427  0.3092
    82BTZ   C5147756   4.579   6.782  27.009 -0.0056  0.7280 -0.1760
    82BTZ   C5247757   4.698   6.866  26.999  0.3068  0.3439  0.2370
    92RH    C5347758   4.807   7.077  27.009 -0.3511  0.0007 -0.1923
    82BTZ    N447759   4.593   6.655  26.971 -0.3105  0.7050 -0.2189
    82BTZ    N547760   4.808   6.807  26.953  0.2528  0.0123  0.5260
    82BTZ    S647761   4.763   6.637  26.919 -0.2093  0.1804  0.2767
    92RH    C5447762   4.837   7.207  27.016 -0.3263 -0.0042 -0.2065
    92RH     S747763   4.720   7.346  27.045 -0.2945  0.0178 -0.1836
    92RH    C5547764   4.974   7.261  27.001 -0.3207 -0.0292 -0.2441
    92RH     O247765   5.076   7.193  26.980 -0.3380 -0.0483 -0.2670
    92RH     N647766   4.977   7.401  27.013 -0.2928 -0.0291 -0.2515
    92RH    C5647767   4.858   7.467  27.036 -0.2754 -0.0069 -0.2246
    92RH    C5747768   5.105   7.470  27.020  0.0473  0.1888  0.1569
    92RH    C5847769   5.163   7.541  26.897  0.0627  0.0702 -0.0787
    92RH     S847770   4.834   7.633  27.054 -0.2413 -0.0019 -0.2265
    72IDQ   C5947771   4.159   6.268  27.340  0.0291 -0.4647  0.5221
    72IDQ   C6047772   4.246   6.210  27.441  0.1851  0.2342 -0.1361
    72IDQ   C6147773   4.195   6.062  27.428  0.7119 -0.0982 -0.4119
    72IDQ   C6247774   4.260   5.968  27.526 -0.2450  0.4534 -0.4743
    72IDQ   C6347775   4.164   5.951  27.648 -0.0177 -0.5880 -0.0599
    72IDQ   C6447776   4.214   5.858  27.750 -0.3922 -0.4156  0.5975
    72IDQ   C6547777   4.113   5.812  27.844  0.4280  0.3585 -0.4463
    72IDQ   C6647778   4.061   6.402  26.903  0.7299  0.5918 -0.7935
    72IDQ   C6747779   3.921   6.454  26.889  0.4090  0.4336  0.1919
    72IDQ   C6847780   3.869   6.481  26.748  0.9748 -0.1107  0.1498
    72IDQ   C6947781   3.720   6.529  26.731 -0.0445  0.5720 -0.1346
    72IDQ   C7047782   3.647   6.482  26.604  0.0699 -0.0029 -0.2376
    72IDQ   C7147783   3.495   6.513  26.579 -0.8620  0.0562  0.0222
    72IDQ   C7247784   3.471   6.499  26.422 -0.3677 -0.3071 -0.7387
    11RH     C147785   1.171   4.638  22.524 -0.2476  0.1802  0.0191
    11RH     C247786   1.064   4.694  22.438 -0.1101  0.0572 -0.2341
    11RH     N147787   1.257   4.739  22.572 -0.2202  0.2286 -0.1316
    11RH     S147788   1.085   4.876  22.425  0.0461  0.0131 -0.6529
    11RH     C347789   1.233   4.869  22.534 -0.0778  0.1594 -0.4730
    11RH     C447790   1.391   4.706  22.640  0.0637 -0.7472  0.7566
    11RH     S247791   1.320   5.007  22.577 -0.0162  0.1956 -0.7114
    11RH     O147792   1.185   4.518  22.552 -0.3723  0.2360  0.3247
    11RH     C547793   0.969   4.620  22.380 -0.1055 -0.0087 -0.1582
    21BTZ    C647794   0.883   4.637  22.268 -0.0082  0.4950 -0.5708
    21BTZ    C747795   0.873   4.753  22.197 -0.1402  0.3229 -0.8378
    21BTZ    C847796   0.815   4.520  22.219  0.1197  0.3060 -0.3033
    21BTZ    C947797   0.797   4.761  22.074 -0.1532 -0.0412 -0.8564
    21BTZ   C1047798   0.730   4.653  22.024 -0.0342 -0.2326 -0.6068
    21BTZ   C1147799   0.738   4.528  22.094  0.1064 -0.0641 -0.3219
    21BTZ    N247800   0.818   4.401  22.279  0.2541  0.4449 -0.0300
    21BTZ    N347801   0.678   4.416  22.055  0.2303 -0.2227 -0.0639
    21BTZ    S347802   0.719   4.292  22.177  0.3720  0.1012  0.2200
    31IDT   C1247803   0.637   4.683  21.916 -0.1258  0.2851  0.3204
    31IDT   C1347804   0.604   4.600  21.813 -0.0734 -0.0297  0.5527
    31IDT   C1447805   0.530   4.666  21.710 -0.1717 -0.3802  0.3943
    31IDT   C1547806   0.506   4.800  21.734 -0.2994 -0.3354  0.0417
    31IDT    S447807   0.576   4.853  21.891 -0.3052  0.1589 -0.1186
    4IDB    C1647808   0.426   4.866  21.633 -0.2117 -0.2370  0.0083
    4IDB    C1747809   0.386   4.759  21.547 -0.1413  0.0082 -0.3338
    51IDQ   C1847810   0.471   4.636  21.575 -0.0174  0.3979  0.0412
    4IDB    C1947811   0.300   4.782  21.441 -0.1553  0.2941 -0.2631
    51IDQ   C2047812   0.389   4.498  21.568  0.1858  0.0067  0.3078
    51IDQ   C2147813   0.595   4.618  21.467 -1.3736 -0.3413 -0.2724
    51IDQ   C2247814   0.639   4.715  21.346  0.3146 -1.1498 -0.3394
    51IDQ   C2347815   0.291   4.440  21.673 -0.0941 -0.2852 -0.6101
    51IDQ   C2447816   0.694   4.848  21.394 -0.3862 -0.1936 -1.3958
    51IDQ   C2547817   0.813   4.848  21.496 -0.0578 -0.2968  0.2708
    51IDQ   C2647818   0.873   4.980  21.545 -0.7756  0.0633 -0.1476
    51IDQ   C2747819   0.776   5.084  21.611 -0.5158 -1.3518 -0.4161
    51IDQ   C2847820   0.831   5.218  21.650 -0.3485 -0.9336  0.4155
    51IDQ   C2947821   0.732   5.310  21.719 -0.6294 -0.2564  0.0127
    51IDQ   C3047822   0.220   4.312  21.642 -0.7146  0.8241 -0.7338
    51IDQ   C3147823   0.315   4.193  21.659  0.4999 -0.2889  0.0683
    51IDQ   C3247824   0.252   4.053  21.637 -0.3451  0.3364 -0.5065
    51IDQ   C3347825   0.330   3.930  21.686 -0.0586 -0.1831  0.2932
    51IDQ   C3447826   0.474   3.911  21.639 -0.4308 -0.4095 -0.3604
    51IDQ   C3547827   0.565   3.838  21.752  0.3487 -1.2122  0.4809
    4IDB    C3647828   0.381   4.997  21.612 -0.2969 -0.1974  0.4263
    4IDB    C3747829   0.293   5.018  21.503 -0.3100  0.0963  0.4930
    11RH    C3847830   1.410   4.672  22.784  0.0801  0.6228 -0.0914
    4IDB    C3947831   0.254   4.913  21.420 -0.2406  0.3337  0.1558
    62IDT   C4047832   0.174   4.962  21.312  0.2932  0.2392 -0.0612
    72IDQ   C4147833   0.232   5.145  21.450 -0.6543 -0.2394  0.0020
    62IDT   C4247834   0.152   5.097  21.329 -0.0260  0.1699  0.0892
    72IDQ   C4347835   0.345   5.251  21.406  0.0806  0.1113  0.0653
    72IDQ   C4447836   0.161   5.225  21.565  0.4384  0.4562  0.1290
    62IDT    S547837   0.083   4.896  21.171  0.0667  0.0876  0.1530
    62IDT   C4547838   0.017   5.063  21.142 -0.4740 -0.0690  0.4483
    62IDT   C4647839   0.063   5.154  21.233 -0.4602 -0.0046  0.3762
    82BTZ   C4747840  -0.095   5.091  21.048 -0.1848 -0.0593  0.2614
    82BTZ   C4847841  -0.157   4.981  20.996 -0.1689 -0.0107  0.1383
    82BTZ   C4947842  -0.267   4.992  20.904 -0.0873  0.0757  0.0505
    82BTZ   C5047843  -0.315   5.114  20.864 -0.0216  0.1137  0.0863
    82BTZ   C5147844  -0.142   5.221  21.009 -0.1180 -0.0223  0.3033
    82BTZ   C5247845  -0.254   5.232  20.915 -0.0350  0.0656  0.2141
    92RH    C5347846  -0.425   5.114  20.761  0.0458  0.1184  0.4340
    82BTZ    N447847  -0.090   5.336  21.053 -0.1258 -0.0629  0.4206
    82BTZ    N547848  -0.292   5.356  20.883  0.0240  0.0956  0.2604
    82BTZ    S647849  -0.184   5.467  20.974 -0.0253  0.0108  0.4222
    92RH    C5447850  -0.492   5.023  20.689  0.2627  0.0149  0.3610
    92RH     S747851  -0.469   4.841  20.693  0.7722  0.0695  0.1382
    92RH    C5547852  -0.598   5.058  20.592  0.1171 -0.1659  0.4539
    92RH     O247853  -0.637   5.173  20.566 -0.2164 -0.2418  0.6065
    92RH     N647854  -0.652   4.943  20.530  0.4074 -0.2446  0.3452
    92RH    C5647855  -0.601   4.820  20.566  0.7684 -0.1493  0.1774
    92RH    C5747856  -0.768   4.949  20.451  0.1889  0.5767  1.1121
    92RH    C5847857  -0.905   4.907  20.514  0.2314  0.6593 -0.8721
    92RH     S847858  -0.647   4.669  20.508  1.1618 -0.2121  0.0229
    72IDQ   C5947859   0.031   5.167  21.611  0.3048  0.3230 -0.2976
    72IDQ   C6047860  -0.072   5.240  21.698  0.0382  0.2350 -0.6717
    72IDQ   C6147861  -0.025   5.279  21.846 -0.0092 -0.6295 -0.6318
    72IDQ   C6247862   0.072   5.394  21.876  0.3369  0.7790 -1.0350
    72IDQ   C6347863   0.043   5.521  21.804  0.1030  0.4045 -0.4565
    72IDQ   C6447864   0.159   5.620  21.800  0.6322 -0.4676 -0.0305
    72IDQ   C6547865   0.287   5.571  21.724 -0.6845  0.5490  0.0409
    72IDQ   C6647866   0.454   5.229  21.295 -0.2048 -0.7053  0.1225
    72IDQ   C6747867   0.559   5.341  21.297  0.1067 -0.5745 -0.1038
    72IDQ   C6847868   0.659   5.320  21.180 -0.6368 -0.2607  1.3946
    72IDQ   C6947869   0.746   5.442  21.173 -0.3756 -0.1039 -0.7740
    72IDQ   C7047870   0.889   5.437  21.115  1.0463 -0.2061  0.0230
    72IDQ   C7147871   0.980   5.338  21.181  0.5077  0.2305 -1.1682
    72IDQ   C7247872   1.130   5.365  21.153  0.0033 -0.9222 -0.5561
    11RH     C147873   7.142   4.654  20.111  0.1926  0.0544  0.0529
    11RH     C247874   7.213   4.778  20.152  0.0207  0.1154  0.1712
    11RH     N147875   7.182   4.543  20.190 -0.0009  0.1336  0.2649
    11RH     S147876   7.328   4.741  20.290 -0.3842  0.2728  0.5554
    11RH     C347877   7.276   4.564  20.288 -0.3070  0.2503  0.5398
    11RH     C447878   7.117   4.418  20.165  0.0556 -0.1152 -0.5441
    11RH     S247879   7.341   4.450  20.394 -0.5839  0.3620  0.8297
    11RH     O147880   7.057   4.645  20.021  0.4711 -0.0526 -0.2012
    11RH     C547881   7.193   4.896  20.093  0.1503  0.0606  0.0151
    21BTZ    C647882   7.263   5.017  20.119 -0.2069 -0.1044  0.4953
    21BTZ    C747883   7.372   5.025  20.202 -0.0790 -0.0011  0.3190
    21BTZ    C847884   7.215   5.136  20.057 -0.1758 -0.2124  0.2613
    21BTZ    C947885   7.438   5.150  20.228  0.0844  0.0014 -0.0930
    21BTZ   C1047886   7.395   5.267  20.171  0.1199 -0.0995 -0.3289
    21BTZ   C1147887   7.282   5.264  20.083 -0.0095 -0.2099 -0.1583
    21BTZ    N247888   7.110   5.141  19.974 -0.2899 -0.3186  0.3986
    21BTZ    N347889   7.231   5.371  20.021  0.0099 -0.3141 -0.3572
    21BTZ    S347890   7.092   5.312  19.925 -0.1876 -0.4220 -0.0098
    31IDT   C1247891   7.475   5.387  20.206 -0.2668  0.4499 -0.3987
    31IDT   C1347892   7.480   5.501  20.130 -0.9372  0.8405  0.1135
    31IDT   C1447893   7.559   5.604  20.190 -1.1669  0.8714  0.3653
    31IDT   C1547894   7.614   5.570  20.311 -0.6744  0.5055  0.0482
    31IDT    S447895   7.570   5.403  20.360  0.1258  0.0895 -0.5998
    4IDB    C1647896   7.707   5.672  20.349 -0.6610  0.4543  0.0972
    4IDB    C1747897   7.690   5.781  20.259  0.0132  0.2970 -0.2313
    51IDQ   C1847898   7.595   5.749  20.150  0.5523 -0.5039  0.3039
    4IDB    C1947899   7.754   5.902  20.280  0.2381  0.1792 -0.2332
    51IDQ   C2047900   7.467   5.848  20.172  0.5273  0.7927 -0.0389
    51IDQ   C2147901   7.633   5.760  20.005 -0.0226  0.2045  1.0491
    51IDQ   C2247902   7.776   5.789  19.964 -0.6749 -0.8450  0.0103
    51IDQ   C2347903   7.315   5.791  20.207 -0.0937 -0.0315  0.7732
    51IDQ   C2447904   7.789   5.808  19.811 -0.1955 -1.0482  0.1696
    51IDQ   C2547905   7.820   5.680  19.726 -0.0961  0.0348 -0.2365
    51IDQ   C2647906   7.770   5.717  19.582 -0.2588  0.2566 -0.0783
    51IDQ   C2747907   7.788   5.622  19.464 -1.1862 -0.4258 -0.3521
    51IDQ   C2847908   7.737   5.477  19.473  0.0823  0.7326 -1.1546
    51IDQ   C2947909   7.753   5.398  19.347  0.2359 -0.1916 -0.7410
    51IDQ   C3047910   7.197   5.892  20.216 -0.4508  0.3097 -0.1901
    51IDQ   C3147911   7.193   6.001  20.314 -0.4466 -0.1031 -0.5363
    51IDQ   C3247912   7.289   6.122  20.314  0.1617  0.0576 -0.2447
    51IDQ   C3347913   7.300   6.184  20.176  0.2737  0.6797  1.1401
    51IDQ   C3447914   7.196   6.267  20.116 -0.0868  0.4135  0.2933
    51IDQ   C3547915   7.079   6.203  20.036 -0.1340 -0.7498  0.3045
    4IDB    C3647916   7.789   5.684  20.462 -1.1168  0.4947  0.4277
    4IDB    C3747917   7.853   5.808  20.483 -0.8780  0.3728  0.4206
    11RH    C3847918   6.999   4.404  20.241  0.9315 -0.7441  0.2612
    4IDB    C3947919   7.836   5.914  20.393 -0.2176  0.2197  0.0976
    62IDT   C4047920   7.901   6.031  20.456  0.5689 -0.1972  0.2394
    72IDQ   C4147921   7.952   5.834  20.601  0.4552  0.5820  0.5401
    62IDT   C4247922   7.972   5.990  20.567  1.1763  0.0731 -0.0348
    72IDQ   C4347923   8.082   5.743  20.591  0.0200  0.3894  0.1390
    72IDQ   C4447924   7.868   5.811  20.742  0.0214 -0.6645  1.2305
    62IDT    S547925   7.903   6.210  20.438 -0.5407 -0.1522  0.4463
    62IDT   C4547926   8.004   6.220  20.589 -0.1036  0.2491  0.1354
    62IDT   C4647927   8.030   6.096  20.642  0.7969  0.3256 -0.0939
    82BTZ   C4747928   8.049   6.351  20.639 -0.1839 -0.3507 -0.3850
    82BTZ   C4847929   7.969   6.459  20.615 -0.1044 -0.3489 -0.6533
    82BTZ   C4947930   8.011   6.593  20.647 -0.0489 -0.3107 -0.8850
    82BTZ   C5047931   8.134   6.618  20.703 -0.0729 -0.2746 -0.8481
    82BTZ   C5147932   8.178   6.372  20.697 -0.2119 -0.3136 -0.3362
    82BTZ   C5247933   8.222   6.508  20.729 -0.1555 -0.2749 -0.5713
    92RH    C5347934   8.197   6.752  20.746  0.1069  0.0772 -0.1022
    82BTZ    N447935   8.265   6.274  20.724 -0.2879 -0.3119 -0.0844
    82BTZ    N547936   8.343   6.520  20.783 -0.1860 -0.2418 -0.5088
    82BTZ    S647937   8.409   6.354  20.794 -0.2905 -0.2590 -0.1381
    92RH    C5447938   8.150   6.877  20.737  0.0709  0.0707 -0.0095
    92RH     S747939   7.995   6.932  20.655  0.0723  0.0912  0.0019
    92RH    C5547940   8.221   6.995  20.794  0.0225  0.0451  0.1030
    92RH     O247941   8.328   6.992  20.856  0.0100  0.0269  0.1240
    92RH     N647942   8.149   7.114  20.770 -0.0085  0.0436  0.1858
    92RH    C5647943   8.031   7.107  20.701  0.0091  0.0648  0.1535
    92RH    C5747944   8.216   7.239  20.804 -1.7942 -0.7095  0.1431
    92RH    C5847945   8.304   7.316  20.700 -0.0346 -0.5454 -1.1487
    92RH     S847946   7.928   7.234  20.659 -0.0202  0.0679  0.2356
    72IDQ   C5947947   7.923   5.882  20.867 -0.1664  0.3696 -0.2033
    72IDQ   C6047948   7.952   5.773  20.976  0.2111 -0.9369  0.3487
    72IDQ   C6147949   7.836   5.694  21.047 -0.5368  1.2516 -1.2059
    72IDQ   C6247950   7.726   5.776  21.115  0.1014  0.3339  1.0630
    72IDQ   C6347951   7.661   5.683  21.220  0.5264 -0.1845  0.0723
    72IDQ   C6447952   7.546   5.742  21.314 -0.2223 -0.4204  1.6363
    72IDQ   C6547953   7.463   5.624  21.354  0.8276  0.0263 -0.5777
    72IDQ   C6647954   8.214   5.812  20.635  0.8278  0.1192 -0.4064
    72IDQ   C6747955   8.248   5.819  20.784 -0.2655  0.6633 -0.2264
    72IDQ   C6847956   8.365   5.914  20.811  0.3464  0.3189  0.9669
    72IDQ   C6947957   8.397   5.944  20.953  0.7888 -1.0931 -0.6044
    72IDQ   C7047958   8.499   5.854  21.015  0.0796  0.6276  0.7261
    72IDQ   C7147959   8.510   5.871  21.167  0.6670  0.5294  0.3782
    72IDQ   C7247960   8.487   5.735  21.224 -0.8103  0.1942 -0.2969
    11RH     C147961   2.656   1.306  21.802  0.2455 -0.0637 -0.1211
    11RH     C247962   2.662   1.160  21.825  0.0914 -0.0704 -0.1259
    11RH     N147963   2.763   1.350  21.720  0.4677 -0.1260  0.1342
    11RH     S147964   2.807   1.089  21.738  0.2489 -0.1582  0.2046
    11RH     C347965   2.853   1.256  21.675  0.5107 -0.1817  0.3338
    11RH     C447966   2.786   1.495  21.688  0.0170 -0.4305  0.2068
    11RH     S247967   2.989   1.281  21.578  0.7589 -0.2612  0.6537
    11RH     O147968   2.570   1.383  21.847  0.1908 -0.0107 -0.3133
    11RH     C547969   2.572   1.093  21.899 -0.1284 -0.0189 -0.3446
    21BTZ    C647970   2.534   0.949  21.911 -0.3546  0.3081 -0.2729
    21BTZ    C747971   2.584   0.849  21.831 -0.2280  0.4095 -0.3219
    21BTZ    C847972   2.445   0.914  22.017 -0.2705  0.1376 -0.2584
    21BTZ    C947973   2.549   0.710  21.852 -0.0138  0.3490 -0.3581
    21BTZ   C1047974   2.464   0.672  21.953  0.0734  0.1872 -0.3457
    21BTZ   C1147975   2.410   0.773  22.039 -0.0528  0.0761 -0.2952
    21BTZ    N247976   2.390   1.002  22.101 -0.3782  0.0268 -0.2117
    21BTZ    N347977   2.326   0.748  22.140  0.0146 -0.0841 -0.2780
    21BTZ    S347978   2.288   0.907  22.214 -0.2021 -0.1648 -0.2133
    31IDT   C1247979   2.449   0.525  21.971  0.1002 -0.4103  0.1944
    31IDT   C1347980   2.474   0.451  22.083  0.0584 -0.4971  0.1459
    31IDT   C1447981   2.482   0.311  22.057  0.0486 -0.4786  0.0434
    31IDT   C1547982   2.464   0.278  21.924  0.0830 -0.3778  0.0132
    31IDT    S447983   2.435   0.422  21.822  0.1307 -0.2978  0.1129
    4IDB    C1647984   2.483   0.134  21.904 -0.1041 -0.3746  0.1337
    4IDB    C1747985   2.513   0.076  22.031  0.4328 -0.3110  0.0401
    51IDQ   C1847986   2.516   0.187  22.131  0.6878 -0.3715 -1.0256
    4IDB    C1947987   2.536  -0.061  22.043  0.5306 -0.2978  0.0052
    51IDQ   C2047988   2.420   0.143  22.254 -0.1046 -0.4620 -0.1766
    51IDQ   C2147989   2.661   0.224  22.190 -1.3327 -0.3289 -0.1687
    51IDQ   C2247990   2.782   0.138  22.156  0.2338  0.0028  0.9240
    51IDQ   C2347991   2.312   0.218  22.313 -0.2364  0.1708 -0.6816
    51IDQ   C2447992   2.908   0.199  22.184 -1.4819 -0.3246  0.4389
    51IDQ   C2547993   3.021   0.154  22.091 -0.3623 -0.1397 -0.7199
    51IDQ   C2647994   3.035   0.225  21.954  0.1271  0.4684 -0.8967
    51IDQ   C2747995   2.920   0.197  21.854 -0.1923  0.7324 -0.7149
    51IDQ   C2847996   2.917   0.290  21.741  0.4138 -0.7222  0.8546
    51IDQ   C2947997   2.922   0.444  21.781  0.0267 -0.5597 -0.5469
    51IDQ   C3047998   2.349   0.347  22.383  0.6686 -0.0329  0.0710
    51IDQ   C3147999   2.240   0.414  22.454  0.8262 -0.6230  0.1774
    51IDQ   C3248000   2.186   0.543  22.376 -0.5112  0.6035 -1.6024
    51IDQ   C3348001   2.100   0.653  22.443  0.4482 -0.5807 -0.5726
    51IDQ   C3448002   2.129   0.716  22.575 -0.9139  0.5762  0.8869
    51IDQ   C3548003   2.084   0.860  22.593 -0.2173  0.8508 -0.1374
    4IDB    C3648004   2.475   0.056  21.788 -0.5493 -0.4259  0.1936
    4IDB    C3748005   2.499  -0.084  21.803 -0.4417 -0.4116  0.1574
    11RH    C3848006   2.710   1.552  21.571 -0.2806 -0.8576  0.8890
    4IDB    C3948007   2.528  -0.139  21.927  0.0854 -0.3492  0.0656
    62IDT   C4048008   2.572  -0.285  21.920  0.5600  0.6587 -0.0482
    72IDQ   C4148009   2.506  -0.197  21.703  0.6111  1.1540  0.1082
    62IDT   C4248010   2.561  -0.319  21.786  0.5343  0.8453 -0.0935
    72IDQ   C4348011   2.599  -0.161  21.587 -0.5495  0.1323 -0.3113
    72IDQ   C4448012   2.365  -0.245  21.646  0.9042 -0.0029  0.6376
    62IDT    S548013   2.624  -0.425  22.020  0.0760  0.3827 -0.1770
    62IDT   C4548014   2.628  -0.526  21.869 -0.1464  0.5419 -0.2908
    62IDT   C4648015   2.592  -0.455  21.757  0.1350  0.7795 -0.2303
    82BTZ   C4748016   2.676  -0.667  21.860 -0.1780 -0.2726 -0.5277
    82BTZ   C4848017   2.676  -0.736  21.978 -0.1589 -0.2134 -0.4935
    82BTZ   C4948018   2.705  -0.877  21.984 -0.0696 -0.1923 -0.4168
    82BTZ   C5048019   2.733  -0.950  21.871  0.0006 -0.2307 -0.3750
    82BTZ   C5148020   2.705  -0.739  21.739 -0.1068 -0.3146 -0.4859
    82BTZ   C5248021   2.734  -0.882  21.744 -0.0159 -0.2931 -0.4082
    92RH    C5348022   2.754  -1.091  21.862  0.5031  0.6987  0.4117
    82BTZ    N448023   2.707  -0.683  21.617 -0.1169 -0.3736 -0.5131
    82BTZ    N548024   2.760  -0.942  21.628  0.0470 -0.3350 -0.3729
    82BTZ    S648025   2.748  -0.814  21.503 -0.0085 -0.4046 -0.4394
    92RH    C5448026   2.753  -1.189  21.952  0.0912  0.4436  0.1378
    92RH     S748027   2.717  -1.173  22.132  0.0069  0.0680  0.1566
    92RH    C5548028   2.782  -1.331  21.920 -0.3752  0.4270 -0.2351
    92RH     O248029   2.811  -1.374  21.807 -0.4391  0.6427 -0.3366
    92RH     N648030   2.774  -1.412  22.035 -0.7495  0.1304 -0.4678
    92RH    C5648031   2.742  -1.354  22.155 -0.6402 -0.0926 -0.3281
    92RH    C5748032   2.795  -1.559  22.024 -0.8883  0.2218  1.2028
    92RH    C5848033   2.674  -1.643  21.997  1.0328  0.3305  0.0230
    92RH     S848034   2.726  -1.428  22.305 -1.0170 -0.4615 -0.5469
    72IDQ   C5948035   2.249  -0.144  21.593 -0.0346 -0.4247 -0.1658
    72IDQ   C6048036   2.108  -0.210  21.560 -1.3886 -0.4604  0.8669
    72IDQ   C6148037   2.002  -0.112  21.506 -1.0933  0.3693  0.0964
    72IDQ   C6248038   1.928  -0.013  21.588  0.2633  0.3909 -0.1198
    72IDQ   C6348039   1.863   0.103  21.508 -0.4103  0.1397  0.0524
    72IDQ   C6448040   1.806   0.225  21.576 -0.5591  0.3365 -0.5489
    72IDQ   C6548041   1.732   0.311  21.470  0.1770 -0.1842 -0.7769
    72IDQ   C6648042   2.683  -0.246  21.496 -0.7189 -1.3393  0.0165
    72IDQ   C6748043   2.595  -0.330  21.412  0.8887 -0.1954 -0.1207
    72IDQ   C6848044   2.668  -0.440  21.351  0.5516 -0.1279  0.6653
    72IDQ   C6948045   2.709  -0.408  21.208 -0.3422  0.1584  0.2051
    72IDQ   C7048046   2.771  -0.534  21.142 -0.1302 -0.4296 -0.2868
    72IDQ   C7148047   2.799  -0.496  20.996  0.4853  0.3385 -0.5342
    72IDQ   C7248048   2.880  -0.603  20.927 -0.5984 -0.1596  0.3820
    11RH     C148049   1.746   2.500  24.372  0.0050  0.2636 -0.1760
    11RH     C248050   1.791   2.506  24.231  0.0691  0.1281 -0.1607
    11RH     N148051   1.763   2.372  24.427 -0.0833  0.2985 -0.0651
    11RH     S148052   1.854   2.341  24.180  0.0091  0.0555 -0.0021
    11RH     C348053   1.817   2.273  24.347 -0.0978  0.2075  0.0367
    11RH     C448054   1.739   2.334  24.568  0.8557 -0.5850  0.8701
    11RH     S248055   1.847   2.112  24.388 -0.1959  0.2244  0.1793
    11RH     O148056   1.698   2.595  24.436  0.0246  0.3389 -0.2723
    11RH     C548057   1.786   2.616  24.156  0.1571  0.0711 -0.2517
    21BTZ    C648058   1.833   2.645  24.019  0.2193 -0.0032 -0.1483
    21BTZ    C748059   1.899   2.550  23.945  0.2091  0.0023 -0.1645
    21BTZ    C848060   1.809   2.773  23.959  0.2639  0.0212 -0.1135
    21BTZ    C948061   1.944   2.576  23.811  0.2420  0.0318 -0.1478
    21BTZ   C1048062   1.924   2.697  23.750  0.2851  0.0558 -0.1144
    21BTZ   C1148063   1.855   2.799  23.823  0.2974  0.0513 -0.0963
    21BTZ    N248064   1.746   2.874  24.021  0.2779  0.0187 -0.0954
    21BTZ    N348065   1.829   2.921  23.774  0.3383  0.0729 -0.0639
    21BTZ    S348066   1.743   3.009  23.904  0.3356  0.0554 -0.0539
    31IDT   C1248067   1.956   2.688  23.606 -0.1857 -0.2018 -0.3383
    31IDT   C1348068   1.964   2.794  23.519 -0.5193 -0.3290 -0.5288
    31IDT   C1448069   1.999   2.753  23.387 -0.5262 -0.4709 -0.4878
    31IDT   C1548070   2.017   2.618  23.372 -0.1988 -0.4530 -0.2671
    31IDT    S448071   1.992   2.529  23.526  0.1470 -0.2532 -0.0917
    4IDB    C1648072   2.044   2.586  23.231  0.6521 -0.8169 -0.1933
    4IDB    C1748073   2.028   2.704  23.152  0.5495 -0.5410  0.2351
    51IDQ   C1848074   2.024   2.826  23.247  0.1139 -0.1539 -0.2451
    4IDB    C1948075   2.036   2.699  23.014  0.4883 -0.0389  0.2109
    51IDQ   C2048076   2.163   2.901  23.228 -0.7193  0.4321  0.3286
    51IDQ   C2148077   1.921   2.941  23.226  0.0883 -0.3661  0.2428
    51IDQ   C2248078   1.825   2.943  23.102 -0.3919  0.4506 -0.2332
    51IDQ   C2348079   2.268   2.902  23.336 -0.3287 -0.3464  0.3604
    51IDQ   C2448080   1.707   3.040  23.093  0.9705 -0.0267  0.3109
    51IDQ   C2548081   1.583   3.017  23.181 -0.4471  0.6914 -0.7134
    51IDQ   C2648082   1.490   3.128  23.164 -0.4935 -0.2098 -1.1076
    51IDQ   C2748083   1.370   3.106  23.255 -0.1478 -0.9568 -0.0977
    51IDQ   C2848084   1.283   3.225  23.282 -0.6953 -0.6046 -0.1287
    51IDQ   C2948085   1.138   3.230  23.234  0.4853  1.0257  0.1933
    51IDQ   C3048086   2.345   2.768  23.364 -0.5646  0.3391  0.6653
    51IDQ   C3148087   2.453   2.723  23.258 -0.0910 -0.0578  0.0009
    51IDQ   C3248088   2.563   2.622  23.299 -1.0511 -0.3970 -0.5110
    51IDQ   C3348089   2.672   2.671  23.398 -0.0265 -0.3905  0.4190
    51IDQ   C3448090   2.750   2.792  23.350  0.2392 -0.2700 -0.5377
    51IDQ   C3548091   2.874   2.813  23.434  0.6495  0.9772  1.0454
    4IDB    C3648092   2.068   2.461  23.171  0.6943 -0.5906 -0.6523
    4IDB    C3748093   2.076   2.458  23.029  0.6307 -0.0772 -0.6700
    11RH    C3848094   1.853   2.384  24.660 -1.3783 -1.1391 -0.2268
    4IDB    C3948095   2.060   2.574  22.953  0.5306  0.1874 -0.2483
    62IDT   C4048096   2.049   2.553  22.821  0.4245  0.5970  0.7092
    72IDQ   C4148097   2.117   2.347  22.931 -0.2492 -0.1382 -0.3172
    62IDT   C4248098   2.086   2.422  22.799  0.7293  0.5886  1.2498
    72IDQ   C4348099   2.039   2.213  22.949  0.0841  0.6156 -0.1561
    72IDQ   C4448100   2.269   2.295  22.935 -0.5918  0.0056 -0.6163
    62IDT    S548101   2.008   2.638  22.667  0.3330 -0.0935  0.3436
    62IDT   C4548102   2.046   2.484  22.578  0.7311 -0.3707  0.9716
    62IDT   C4648103   2.085   2.383  22.661  0.9030  0.0415  1.3990
    82BTZ   C4748104   2.033   2.481  22.433 -0.1814 -0.2139 -0.2493
    82BTZ   C4848105   1.926   2.545  22.375 -0.1505 -0.1811 -0.2699
    82BTZ   C4948106   1.908   2.547  22.232 -0.0447 -0.0538 -0.2813
    82BTZ   C5048107   1.996   2.485  22.147  0.0300  0.0405 -0.2727
    82BTZ   C5148108   2.128   2.415  22.349 -0.1060 -0.1186 -0.2389
    82BTZ   C5248109   2.109   2.417  22.203  0.0015  0.0107 -0.2508
    92RH    C5348110   1.982   2.490  22.001 -0.1152 -0.1884  0.2423
    82BTZ    N448111   2.235   2.349  22.393 -0.1267 -0.1391 -0.2193
    82BTZ    N548112   2.201   2.353  22.131  0.0672  0.0944 -0.2413
    82BTZ    S648113   2.319   2.286  22.248 -0.0070  0.0093 -0.2150
    92RH    C5448114   1.891   2.534  21.912 -0.1308 -0.3218  0.1922
    92RH     S748115   1.748   2.643  21.947 -0.1758 -0.3417  0.0691
    92RH    C5548116   1.894   2.499  21.768 -0.1132 -0.4790  0.2303
    92RH     O248117   1.978   2.427  21.713 -0.0826 -0.5056  0.3114
    92RH     N648118   1.786   2.558  21.699 -0.1358 -0.5988  0.1620
    92RH    C5648119   1.698   2.637  21.770 -0.1693 -0.5567  0.0739
    92RH    C5748120   1.766   2.528  21.557 -0.1936  0.3235 -0.3990
    92RH    C5848121   1.708   2.389  21.527 -0.1036 -0.4416 -0.0224
    92RH     S848122   1.562   2.718  21.711 -0.2010 -0.6756 -0.0191
    72IDQ   C5948123   2.374   2.388  22.992  0.1312  0.4609  0.0470
    72IDQ   C6048124   2.428   2.330  23.128  0.5642 -0.3261  0.1789
    72IDQ   C6148125   2.481   2.189  23.123  0.2768  0.7625  0.4870
    72IDQ   C6248126   2.522   2.126  23.250  0.6180 -0.0547 -0.1674
    72IDQ   C6348127   2.666   2.164  23.268 -0.7917  0.4398  0.6010
    72IDQ   C6448128   2.718   2.072  23.373 -0.4044  0.6435 -0.0948
    72IDQ   C6548129   2.872   2.097  23.414  0.2892  0.2074 -1.3818
    72IDQ   C6648130   1.895   2.201  22.933  0.9108 -0.5244 -1.0180
    72IDQ   C6748131   1.843   2.063  22.914  0.5722  1.3856 -0.4589
    72IDQ   C6848132   1.689   2.056  22.925 -0.1701 -0.9192  0.6616
    72IDQ   C6948133   1.612   2.137  22.819  0.0974 -0.0604  0.1166
    72IDQ   C7048134   1.463   2.150  22.833  0.6861 -0.0159 -0.2884
    72IDQ   C7148135   1.384   2.248  22.741 -0.8552 -0.7579  0.0106
    72IDQ   C7248136   1.238   2.224  22.744 -0.5856 -0.3514  0.4282
    11RH     C148137   4.758   6.018  24.755  0.4251 -0.2536 -0.0348
    11RH     C248138   4.804   5.968  24.887  0.4081 -0.3282 -0.0563
    11RH     N148139   4.644   6.100  24.767  0.6337  0.0289  0.0320
    11RH     S148140   4.694   6.034  25.019  0.6675 -0.0220  0.0112
    11RH     C348141   4.593   6.123  24.893  0.7862  0.1898  0.0658
    11RH     C448142   4.599   6.170  24.648  1.5920 -0.7418  1.0352
    11RH     S248143   4.459   6.216  24.934  1.0446  0.5295  0.1454
    11RH     O148144   4.812   5.991  24.646  0.2774 -0.4145 -0.0691
    11RH     C548145   4.910   5.888  24.904  0.2273 -0.5830 -0.1171
    21BTZ    C648146   4.976   5.822  25.016 -0.0899 -0.4534 -0.1355
    21BTZ    C748147   4.922   5.829  25.142 -0.0914 -0.3829 -0.1392
    21BTZ    C848148   5.089   5.736  24.995  0.0037 -0.3521 -0.0505
    21BTZ    C948149   4.976   5.752  25.252 -0.0017 -0.2105 -0.0615
    21BTZ   C1048150   5.083   5.669  25.236  0.0896 -0.1091  0.0200
    21BTZ   C1148151   5.143   5.658  25.106  0.0949 -0.1769  0.0281
    21BTZ    N248152   5.151   5.721  24.877  0.0148 -0.4065 -0.0386
    21BTZ    N348153   5.249   5.580  25.078  0.1793 -0.0907  0.1040
    21BTZ    S348154   5.283   5.604  24.905  0.1451 -0.2326  0.0771
    31IDT   C1248155   5.130   5.602  25.368  0.2842 -0.1570  0.6211
    31IDT   C1348156   5.250   5.539  25.385 -0.0068 -0.6425  0.9499
    31IDT   C1448157   5.284   5.521  25.523 -0.4889 -0.8556  1.0438
    31IDT   C1548158   5.190   5.569  25.611 -0.5684 -0.5344  0.7881
    31IDT    S448159   5.049   5.642  25.526 -0.0341  0.0680  0.4054
    4IDB    C1648160   5.236   5.538  25.742 -0.1222 -0.7750 -0.2620
    4IDB    C1748161   5.361   5.470  25.736 -0.2785 -1.1020  0.1450
    51IDQ   C1848162   5.402   5.460  25.588 -1.1563 -0.6294  0.0747
    4IDB    C1948163   5.435   5.447  25.852 -0.1798 -0.2926  0.2525
    51IDQ   C2048164   5.540   5.548  25.571  0.4332 -0.1103 -0.4032
    51IDQ   C2148165   5.423   5.311  25.532 -0.3107 -0.4112  0.5827
    51IDQ   C2248166   5.386   5.188  25.602  0.7802  0.2130  0.0901
    51IDQ   C2348167   5.519   5.701  25.538  0.3939 -0.0443 -1.2529
    51IDQ   C2448168   5.494   5.128  25.703 -0.2552 -0.2624 -0.5325
    51IDQ   C2548169   5.434   5.022  25.791  0.2860  0.6194 -1.6344
    51IDQ   C2648170   5.335   5.075  25.902  0.2421  0.7824 -0.8231
    51IDQ   C2748171   5.343   5.007  26.046  0.4096  0.2322 -0.0917
    51IDQ   C2848172   5.209   5.014  26.128  0.5475 -1.3599  0.9091
    51IDQ   C2948173   5.203   4.925  26.243 -0.1545  0.1217 -0.9337
    51IDQ   C3048174   5.668   5.761  25.538  0.5087  0.1937 -0.7449
    51IDQ   C3148175   5.675   5.912  25.495 -0.5417  0.7358 -0.2405
    51IDQ   C3248176   5.776   5.991  25.569  0.5640 -0.3271 -0.0925
    51IDQ   C3348177   5.752   6.052  25.712 -1.0616  0.4949  0.2903
    51IDQ   C3448178   5.889   6.117  25.750 -0.5637  0.1927 -0.1407
    51IDQ   C3548179   5.956   6.105  25.887  0.1425 -0.1087 -0.0102
    4IDB    C3648180   5.184   5.585  25.864  0.1352  0.3711 -0.5665
    4IDB    C3748181   5.261   5.561  25.980  0.2326  1.1864 -0.4516
    11RH    C3848182   4.646   6.318  24.629 -0.0467  0.7280  0.6874
    4IDB    C3948183   5.383   5.494  25.973  0.0775  0.8536 -0.0528
    62IDT   C4048184   5.445   5.461  26.104  0.1841  0.4784 -0.1518
    72IDQ   C4148185   5.247   5.588  26.136  1.3412  0.2301 -0.3718
    62IDT   C4248186   5.365   5.513  26.202 -0.1670  0.2321 -0.3042
    72IDQ   C4348187   5.107   5.558  26.191  0.1048  0.5994  0.8394
    72IDQ   C4448188   5.284   5.732  26.162 -0.5068 -0.6113 -0.4986
    62IDT    S548189   5.579   5.362  26.172 -0.1882  0.1246  0.0736
    62IDT   C4548190   5.515   5.399  26.338 -0.8301 -0.3612 -0.0554
    62IDT   C4648191   5.404   5.478  26.335 -0.7408 -0.2429 -0.2503
    82BTZ   C4748192   5.550   5.309  26.446  0.2600  0.1612  0.0394
    82BTZ   C4848193   5.577   5.180  26.408  0.2136  0.1793 -0.0572
    82BTZ   C4948194   5.600   5.076  26.505  0.0628  0.0740 -0.1335
    82BTZ   C5048195   5.596   5.101  26.640 -0.0413 -0.0492 -0.1138
    82BTZ   C5148196   5.544   5.340  26.586  0.1552  0.0341  0.0634
    82BTZ   C5248197   5.567   5.234  26.685  0.0020 -0.0731 -0.0143
    92RH    C5348198   5.628   5.008  26.742  0.5886  0.0675 -0.4731
    82BTZ    N448199   5.518   5.462  26.635  0.1870  0.0044  0.1545
    82BTZ    N548200   5.560   5.271  26.813 -0.0893 -0.1888  0.0143
    82BTZ    S648201   5.523   5.446  26.813  0.0191 -0.1654  0.1439
    92RH    C5448202   5.678   4.884  26.736  0.5115  0.0240 -0.2484
    92RH     S748203   5.715   4.788  26.584  0.5741 -0.2265 -0.0762
    92RH    C5548204   5.712   4.803  26.856  0.3581  0.1782 -0.1001
    92RH     O248205   5.698   4.840  26.973  0.2841  0.3622 -0.1640
    92RH     N648206   5.762   4.676  26.820  0.3036  0.0903  0.1297
    92RH    C5648207   5.773   4.646  26.686  0.3947 -0.1153  0.1836
    92RH    C5748208   5.778   4.572  26.927  0.6110 -0.6226  0.1938
    92RH    C5848209   5.917   4.563  26.980  0.1105 -0.5976 -0.3593
    92RH     S848210   5.830   4.503  26.617  0.3569 -0.2562  0.4420
    72IDQ   C5948211   5.183   5.843  26.130 -0.2474 -0.3558  0.3628
    72IDQ   C6048212   5.223   5.982  26.186  1.1277  0.7662  0.2759
    72IDQ   C6148213   5.194   6.008  26.326  0.8871  0.1403 -1.7081
    72IDQ   C6248214   5.219   6.147  26.390  0.6681 -0.3646  0.8777
    72IDQ   C6348215   5.108   6.249  26.350  0.3468  0.0239  0.1653
    72IDQ   C6448216   5.104   6.369  26.445 -0.0288  1.0986  0.0997
    72IDQ   C6548217   5.005   6.475  26.381 -0.7616 -0.8542 -0.9549
    72IDQ   C6648218   5.060   5.409  26.177 -0.9111  0.6679  0.7400
    72IDQ   C6748219   4.927   5.381  26.251 -0.0641  0.4400  0.7786
    72IDQ   C6848220   4.890   5.227  26.258 -0.2873 -1.0485 -0.6367
    72IDQ   C6948221   4.761   5.201  26.333  0.8822  0.7030 -0.6180
    72IDQ   C7048222   4.751   5.076  26.419  1.0735  0.1330  0.9352
    72IDQ   C7148223   4.781   4.944  26.342 -0.0404  0.7433 -0.3193
    72IDQ   C7248224   4.768   4.808  26.419 -0.0293  0.1240  0.1368
    11RH     C148225   5.845   4.962  22.292 -0.3394  0.1304 -0.2823
    11RH     C248226   5.803   5.025  22.419 -0.2180  0.0285 -0.1926
    11RH     N148227   5.752   4.988  22.189 -0.3252  0.3963 -0.2281
    11RH     S148228   5.645   5.115  22.395 -0.0932  0.2890 -0.0417
    11RH     C348229   5.642   5.065  22.218 -0.2074  0.5200 -0.1044
    11RH     C448230   5.747   4.903  22.062 -0.1542  0.6257  0.0911
    11RH     S248231   5.517   5.111  22.114 -0.1655  0.8335 -0.0181
    11RH     O148232   5.947   4.893  22.275 -0.4417  0.0026 -0.3929
    11RH     C548233   5.873   5.015  22.533 -0.2056 -0.2178 -0.2200
    21BTZ    C648234   5.864   5.094  22.657 -0.3109  0.0467 -0.1887
    21BTZ    C748235   5.777   5.198  22.677 -0.2947  0.0548 -0.1607
    21BTZ    C848236   5.949   5.054  22.765 -0.2533  0.0632 -0.2275
    21BTZ    C948237   5.770   5.267  22.804 -0.2216  0.0794 -0.1688
    21BTZ   C1048238   5.849   5.233  22.910 -0.1646  0.0958 -0.2069
    21BTZ   C1148239   5.942   5.124  22.893 -0.1791  0.0881 -0.2365
    21BTZ    N248240   6.038   4.954  22.758 -0.2623  0.0573 -0.2580
    21BTZ    N348241   6.024   5.081  22.989 -0.1281  0.1024 -0.2742
    21BTZ    S348242   6.117   4.946  22.918 -0.1742  0.0842 -0.3002
    31IDT   C1248243   5.861   5.338  23.014  0.2570 -0.5827  0.1742
    31IDT   C1348244   5.945   5.342  23.122  0.1881 -0.5362  0.2275
    31IDT   C1448245   5.948   5.469  23.187  0.4898 -0.3734 -0.1001
    31IDT   C1548246   5.866   5.564  23.128  0.7902 -0.2948 -0.4032
    31IDT    S448247   5.778   5.498  22.986  0.7134 -0.4224 -0.2976
    4IDB    C1648248   5.876   5.688  23.207 -0.1945 -0.2903 -0.1516
    4IDB    C1748249   5.966   5.672  23.317 -0.2831 -0.3641 -0.0896
    51IDQ   C1848250   6.014   5.518  23.316  0.7745 -0.3664  0.4092
    4IDB    C1948251   6.001   5.780  23.397 -0.2014 -0.3804 -0.1032
    51IDQ   C2048252   6.171   5.493  23.334  0.0240 -0.5428  0.3729
    51IDQ   C2148253   5.949   5.427  23.421  1.5795 -0.8361 -0.9925
    51IDQ   C2248254   5.834   5.450  23.524  0.1835  0.4235  0.0382
    51IDQ   C2348255   6.243   5.405  23.218 -0.3426 -0.0246 -0.7944
    51IDQ   C2448256   5.693   5.422  23.487  0.7147  0.9953  0.0977
    51IDQ   C2548257   5.633   5.538  23.424  0.5367 -0.1047  0.5243
    51IDQ   C2648258   5.489   5.500  23.367  0.3663 -0.7649  0.8325
    51IDQ   C2748259   5.404   5.606  23.299  0.2889  0.5646 -0.4870
    51IDQ   C2848260   5.427   5.636  23.151  0.3821  0.1133  0.5545
    51IDQ   C2948261   5.303   5.655  23.061  0.3918  0.9661 -0.7956
    51IDQ   C3048262   6.273   5.487  23.099 -0.3755 -0.6667  0.3074
    51IDQ   C3148263   6.295   5.410  22.975  0.6229  0.2966  0.8797
    51IDQ   C3248264   6.302   5.478  22.835  0.4501 -0.6009  0.1441
    51IDQ   C3348265   6.173   5.549  22.766 -1.1044  0.0236 -0.4348
    51IDQ   C3448266   6.086   5.661  22.815  1.3140  0.0946 -0.4167
    51IDQ   C3548267   6.177   5.773  22.874  1.1732 -0.0601 -0.2715
    4IDB    C3648268   5.820   5.814  23.177 -0.0225 -0.2323 -0.2279
    4IDB    C3748269   5.858   5.923  23.259  0.0589 -0.2500 -0.2408
    11RH    C3848270   5.857   4.917  21.959  0.0264  0.9941 -0.7841
    4IDB    C3948271   5.945   5.906  23.366 -0.0294 -0.3222 -0.1795
    62IDT   C4048272   5.972   6.037  23.428 -0.2719 -0.4951  0.1088
    72IDQ   C4148273   5.810   6.077  23.253 -0.5752 -0.3837  0.2183
    62IDT   C4248274   5.886   6.130  23.374 -0.2058 -0.6851 -0.3319
    72IDQ   C4348275   5.660   6.109  23.277  0.5179 -0.0656 -0.3302
    72IDQ   C4448276   5.864   6.147  23.115  1.1456  0.4364 -0.5297
    62IDT    S548277   6.081   6.109  23.551 -0.4514 -0.0656  0.0201
    62IDT   C4548278   6.002   6.270  23.521 -0.4266 -0.1710 -0.6398
    62IDT   C4648279   5.903   6.262  23.426 -0.2931 -0.5022 -0.7558
    82BTZ   C4748280   6.056   6.397  23.586 -0.4330  0.0188  0.3746
    82BTZ   C4848281   6.175   6.382  23.652 -0.6018 -0.1152  0.6523
    82BTZ   C4948282   6.245   6.494  23.709 -0.5670 -0.1824  0.7424
    82BTZ   C5048283   6.196   6.621  23.700 -0.3632 -0.1158  0.5543
    82BTZ   C5148284   6.000   6.529  23.574 -0.2164  0.0930  0.1693
    82BTZ   C5248285   6.072   6.643  23.632 -0.1808  0.0246  0.2608
    92RH    C5348286   6.262   6.743  23.746  0.2339 -0.3072 -0.2407
    82BTZ    N448287   5.885   6.557  23.513 -0.0390  0.2238 -0.1073
    82BTZ    N548288   6.014   6.763  23.617  0.0250  0.1004  0.0577
    82BTZ    S648289   5.863   6.734  23.527  0.1858  0.2658 -0.2660
    92RH    C5448290   6.379   6.769  23.807  0.1575 -0.0998 -0.1807
    92RH     S748291   6.515   6.650  23.838  0.3580  0.1454 -0.1195
    92RH    C5548292   6.415   6.902  23.860 -0.1113 -0.0355 -0.1531
    92RH     O248293   6.344   7.004  23.855 -0.2941 -0.1633 -0.1822
    92RH     N648294   6.544   6.901  23.919 -0.1376  0.1937 -0.0887
    92RH    C5648295   6.614   6.782  23.920  0.0772  0.3208 -0.0615
    92RH    C5748296   6.596   7.029  23.974 -0.7841 -0.1062  0.2737
    92RH    C5848297   6.564   7.076  24.123 -0.4360  2.1490  0.0119
    92RH     S848298   6.768   6.754  23.983  0.0978  0.5955  0.0143
    72IDQ   C5948299   5.862   6.061  22.975 -0.1015 -0.9730 -0.2659
    72IDQ   C6048300   5.721   6.056  22.906  0.8593  0.6514  0.2229
    72IDQ   C6148301   5.640   6.175  22.884  0.3275  0.5787 -0.2125
    72IDQ   C6248302   5.695   6.250  22.760  0.4979  0.5936 -0.4837
    72IDQ   C6348303   5.680   6.396  22.745  0.6047 -0.3328  1.0489
    72IDQ   C6448304   5.754   6.439  22.614  0.6831  0.2888 -0.8485
    72IDQ   C6548305   5.908   6.411  22.607  0.5777 -0.5045  0.5909
    72IDQ   C6648306   5.553   6.006  23.229 -0.0045 -0.4330 -0.6731
    72IDQ   C6748307   5.412   6.057  23.240  1.0921 -0.6484  0.4626
    72IDQ   C6848308   5.371   6.183  23.152  0.5809  0.9381 -0.6587
    72IDQ   C6948309   5.226   6.178  23.132  1.2422 -0.8944 -0.5295
    72IDQ   C7048310   5.165   6.304  23.064  0.1553 -0.0898  0.5156
    72IDQ   C7148311   5.165   6.315  22.916 -0.7210  0.0132  0.2810
    72IDQ   C7248312   5.293   6.335  22.835  0.4453  0.2007  0.0102
    11RH     C148313   2.341   4.054  23.292 -0.0628  0.1092  0.1035
    11RH     C248314   2.355   4.193  23.243 -0.2084  0.1391  0.1440
    11RH     N148315   2.337   4.049  23.433  0.0142  0.0556  0.1038
    11RH     S148316   2.362   4.309  23.385 -0.2345  0.0947  0.1821
    11RH     C348317   2.346   4.168  23.503 -0.0519  0.0391  0.1411
    11RH     C448318   2.331   3.925  23.504  0.4672  0.9041 -0.0357
    11RH     S248319   2.343   4.190  23.670  0.0157 -0.0222  0.1507
    11RH     O148320   2.334   3.952  23.221 -0.0122  0.1277  0.0710
    11RH     C548321   2.362   4.224  23.113 -0.3032  0.1903  0.1515
    21BTZ    C648322   2.388   4.353  23.042  0.4110  0.1537  0.1895
    21BTZ    C748323   2.412   4.473  23.103  0.6334  0.1343  0.1421
    21BTZ    C848324   2.379   4.348  22.899  0.2468  0.1402  0.2003
    21BTZ    C948325   2.427   4.594  23.027  0.7051  0.1012  0.1035
    21BTZ   C1048326   2.419   4.595  22.890  0.5545  0.0873  0.1127
    21BTZ   C1148327   2.395   4.471  22.822  0.3197  0.1067  0.1612
    21BTZ    N248328   2.356   4.237  22.829  0.0256  0.1566  0.2441
    21BTZ    N348329   2.385   4.459  22.689  0.1572  0.0960  0.1736
    21BTZ    S348330   2.354   4.286  22.657 -0.1014  0.1292  0.2377
    31IDT   C1248331   2.407   4.722  22.811  0.4585  0.1628 -0.3746
    31IDT   C1348332   2.444   4.748  22.681 -0.2452  0.0640 -0.6046
    31IDT   C1448333   2.440   4.888  22.649 -0.7998  0.0052 -0.8187
    31IDT   C1548334   2.400   4.968  22.754 -0.5233  0.0589 -0.7529
    31IDT    S448335   2.364   4.874  22.902  0.4699  0.1891 -0.4128
    4IDB    C1648336   2.404   5.108  22.706  0.7966  0.0584 -0.1527
    4IDB    C1748337   2.450   5.110  22.571  0.5433 -0.0074 -0.2403
    51IDQ   C1848338   2.487   4.969  22.525  0.5282  0.5143 -0.3370
    4IDB    C1948339   2.457   5.230  22.500  0.3208 -0.0543 -0.3439
    51IDQ   C2048340   2.400   4.932  22.391  0.5085 -0.0135 -0.1598
    51IDQ   C2148341   2.634   4.938  22.480  0.9038 -0.0799 -0.8481
    51IDQ   C2248342   2.756   5.026  22.476 -1.4036 -0.0689 -0.0922
    51IDQ   C2348343   2.282   4.851  22.376  0.0127  0.3035  0.2401
    51IDQ   C2448344   2.894   4.962  22.488 -0.0030  0.0730 -0.3584
    51IDQ   C2548345   3.003   5.052  22.439  0.2189  0.0651 -0.6095
    51IDQ   C2648346   2.991   5.109  22.293 -0.0148  0.6536  0.0021
    51IDQ   C2748347   3.119   5.179  22.237  0.2984  0.4385 -0.1435
    51IDQ   C2848348   3.172   5.291  22.321  0.1601 -0.5499 -0.8386
    51IDQ   C2948349   3.319   5.305  22.322 -0.3054  0.2655  0.9969
    51IDQ   C3048350   2.226   4.839  22.236  0.7628 -0.3371  0.3721
    51IDQ   C3148351   2.093   4.772  22.247 -0.3984  0.8374 -0.0831
    51IDQ   C3248352   2.057   4.699  22.117  0.3328 -0.6868  0.0336
    51IDQ   C3348353   1.912   4.683  22.106  0.3191  0.4390  0.6475
    51IDQ   C3448354   1.872   4.661  21.963  0.8532 -0.5756  0.0309
    51IDQ   C3548355   1.722   4.653  21.939  0.8421  0.0312  0.6771
    4IDB    C3648356   2.366   5.226  22.772  0.8289  0.0776 -0.1678
    4IDB    C3748357   2.374   5.347  22.697  0.5994  0.0291 -0.2742
    11RH    C3848358   2.190   3.872  23.558  0.9088  0.8673  0.7587
    4IDB    C3948359   2.418   5.348  22.565  0.3532 -0.0350 -0.3589
    62IDT   C4048360   2.417   5.486  22.523 -0.6886 -0.4994  0.1668
    72IDQ   C4148361   2.335   5.497  22.741 -0.8054  0.9096  0.0667
    62IDT   C4248362   2.348   5.571  22.608 -0.9052 -0.4511 -0.0553
    72IDQ   C4348363   2.420   5.550  22.861 -0.4251 -0.4540  0.2075
    72IDQ   C4448364   2.176   5.536  22.758  0.3248  0.2230  0.0694
    62IDT    S548365   2.441   5.559  22.361  0.0563 -0.4416  0.2997
    62IDT   C4548366   2.354   5.707  22.419  0.0345 -0.3506  0.0345
    62IDT   C4648367   2.312   5.696  22.549 -0.4966 -0.3668 -0.1307
    82BTZ   C4748368   2.343   5.828  22.326 -0.2333 -0.3082  0.3029
    82BTZ   C4848369   2.371   5.813  22.193 -0.4100 -0.3946  0.2751
    82BTZ   C4948370   2.369   5.925  22.102 -0.3633 -0.4243  0.2370
    82BTZ   C5048371   2.339   6.052  22.144 -0.1400 -0.3674  0.2273
    82BTZ   C5148372   2.311   5.959  22.376  0.0037 -0.2460  0.2937
    82BTZ   C5248373   2.309   6.073  22.283  0.0511 -0.2760  0.2551
    92RH    C5348374   2.340   6.165  22.047  0.3298  0.3126 -0.1799
    82BTZ    N448375   2.282   5.986  22.503  0.1905 -0.1603  0.3190
    82BTZ    N548376   2.278   6.191  22.336  0.2760 -0.2145  0.2494
    82BTZ    S648377   2.250   6.162  22.511  0.4400 -0.1132  0.2934
    92RH    C5448378   2.365   6.179  21.916  0.3319  0.1931 -0.1926
    92RH     S748379   2.419   6.048  21.799 -0.1820 -0.0331 -0.1846
    92RH    C5548380   2.352   6.308  21.844  0.7671  0.2279 -0.2155
    92RH     O248381   2.316   6.416  21.894  1.1732  0.3686 -0.2255
    92RH     N648382   2.384   6.294  21.707  0.6659  0.0789 -0.2249
    92RH    C5648383   2.422   6.170  21.661  0.2028 -0.0708 -0.2122
    92RH    C5748384   2.377   6.405  21.621  0.9002 -0.1547  0.2204
    92RH    C5848385   2.230   6.434  21.578 -0.2977  0.1954  0.4253
    92RH     S848386   2.466   6.127  21.504 -0.0107 -0.2646 -0.2193
    72IDQ   C5948387   2.116   5.475  22.881 -0.2283  0.0328  0.0150
    72IDQ   C6048388   1.972   5.508  22.912 -1.1256 -0.2424  0.0754
    72IDQ   C6148389   1.953   5.506  23.060  0.6861 -1.0225 -0.5969
    72IDQ   C6248390   1.817   5.541  23.118 -1.2382  0.3710  0.4082
    72IDQ   C6348391   1.725   5.424  23.139 -0.4297  0.0068 -0.5001
    72IDQ   C6448392   1.588   5.459  23.205  0.3655 -0.6778  0.1737
    72IDQ   C6548393   1.531   5.356  23.289  0.4555 -0.6293  0.2418
    72IDQ   C6648394   2.542   5.466  22.917  0.7295 -0.1124 -0.3876
    72IDQ   C6748395   2.626   5.530  23.022 -0.6892  0.4880 -0.2160
    72IDQ   C6848396   2.695   5.441  23.130 -1.4227  0.4595 -1.0941
    72IDQ   C6948397   2.642   5.337  23.231 -1.2166  1.4387 -0.7386
    72IDQ   C7048398   2.579   5.207  23.165 -0.7889  0.8188  0.0061
    72IDQ   C7148399   2.602   5.081  23.250 -1.6409 -0.6370 -0.7904
    72IDQ   C7248400   2.748   5.030  23.236 -0.1972  0.3118 -0.3777
    11RH     C148401   1.852   3.393  26.495  0.0086 -0.1478 -0.2675
    11RH     C248402   1.878   3.247  26.506 -0.0681 -0.1523 -0.1435
    11RH     N148403   1.728   3.428  26.552  0.0105 -0.0389 -0.3281
    11RH     S148404   1.737   3.165  26.591 -0.1327 -0.0132 -0.1170
    11RH     C348405   1.651   3.328  26.608 -0.0552  0.0442 -0.2694
    11RH     C448406   1.688   3.573  26.565 -0.1988  0.0119  0.7162
    11RH     S248407   1.500   3.342  26.682 -0.0681  0.1798 -0.3214
    11RH     O148408   1.928   3.476  26.443  0.0649 -0.2279 -0.3133
    11RH     C548409   1.989   3.188  26.460 -0.0853 -0.2455 -0.0664
    21BTZ    C648410   2.034   3.053  26.474  0.2725 -0.1479 -0.0434
    21BTZ    C748411   1.970   2.958  26.551  0.1412 -0.1233 -0.1221
    21BTZ    C848412   2.153   3.015  26.405  0.2930 -0.2199  0.0310
    21BTZ    C948413   2.020   2.824  26.563  0.0242 -0.1679 -0.1330
    21BTZ   C1048414   2.134   2.783  26.498  0.0386 -0.2371 -0.0638
    21BTZ   C1148415   2.204   2.878  26.417  0.1740 -0.2654  0.0196
    21BTZ    N248416   2.224   3.098  26.328  0.4157 -0.2500  0.1116
    21BTZ    N348417   2.316   2.851  26.350  0.2012 -0.3318  0.0916
    21BTZ    S348418   2.362   3.002  26.266  0.3839 -0.3393  0.1786
    31IDT   C1248419   2.180   2.647  26.518 -0.2666 -0.6835 -0.4791
    31IDT   C1348420   2.272   2.574  26.447 -0.7152 -1.0459 -0.7067
    31IDT   C1448421   2.292   2.443  26.500 -0.7830 -0.9714 -0.4930
    31IDT   C1548422   2.216   2.414  26.611 -0.3876 -0.5526 -0.1010
    31IDT    S448423   2.111   2.553  26.657  0.1058 -0.2171  0.0275
    4IDB    C1648424   2.237   2.280  26.656 -0.2425 -0.3448  0.0581
    4IDB    C1748425   2.334   2.219  26.570 -0.1584 -0.0594 -0.0525
    51IDQ   C1848426   2.373   2.320  26.459  0.6775  0.9711  0.3186
    4IDB    C1948427   2.381   2.091  26.596 -0.1327 -0.1203 -0.3954
    51IDQ   C2048428   2.526   2.334  26.452 -0.5442  0.0874 -0.3548
    51IDQ   C2148429   2.324   2.277  26.317 -1.2743 -0.2191  0.2482
    51IDQ   C2248430   2.230   2.159  26.285  0.7162  0.3328  0.2128
    51IDQ   C2348431   2.618   2.453  26.502  0.3155 -0.0049  1.0317
    51IDQ   C2448432   2.212   2.152  26.129 -0.3109  0.4904 -0.0652
    51IDQ   C2548433   2.134   2.027  26.087 -1.0386 -0.4806  0.1086
    51IDQ   C2648434   2.115   2.030  25.944  0.2183  0.1864  0.0777
    51IDQ   C2748435   1.982   1.974  25.902  1.2191  0.2498 -0.0980
    51IDQ   C2848436   1.846   2.035  25.946 -0.5072 -0.0434 -0.7472
    51IDQ   C2948437   1.720   1.951  25.948 -0.9318 -0.4186  0.5455
    51IDQ   C3048438   2.657   2.567  26.408  0.3782  0.3135 -0.2918
    51IDQ   C3148439   2.771   2.648  26.464  0.6409 -0.3255 -1.0744
    51IDQ   C3248440   2.855   2.728  26.370 -0.4804  0.6041 -0.0114
    51IDQ   C3348441   2.784   2.807  26.259  1.2165  0.4725 -0.4295
    51IDQ   C3448442   2.776   2.962  26.269 -0.0410  0.4071 -0.1937
    51IDQ   C3548443   2.766   3.003  26.127  0.0162  0.3913  0.1754
    4IDB    C3648444   2.187   2.212  26.768 -0.3020 -0.6950 -0.1750
    4IDB    C3748445   2.236   2.082  26.793 -0.2747 -0.7521 -0.5245
    11RH    C3848446   1.735   3.655  26.692 -0.5624 -0.4819  0.7073
    4IDB    C3948447   2.331   2.023  26.708 -0.1922 -0.4704 -0.6289
    62IDT   C4048448   2.364   1.891  26.750  0.0086  0.2018 -0.5647
    72IDQ   C4148449   2.203   1.983  26.899  1.3086  0.0593  0.5276
    62IDT   C4248450   2.272   1.856  26.848 -0.3868  0.0685 -0.9756
    72IDQ   C4348451   2.038   1.953  26.892 -0.0176  0.4982  0.3805
    72IDQ   C4448452   2.235   2.023  27.041  0.2410  0.4522 -0.4675
    62IDT    S548453   2.475   1.756  26.711  0.2415  0.2916 -0.2231
    62IDT   C4548454   2.388   1.654  26.834 -0.2312  0.1367 -0.6764
    62IDT   C4648455   2.286   1.722  26.895 -0.5229  0.0316 -1.0400
    82BTZ   C4748456   2.465   1.538  26.890 -0.2592  0.1534 -0.6219
    82BTZ   C4848457   2.601   1.545  26.885 -0.2618  0.2490 -0.5488
    82BTZ   C4948458   2.685   1.432  26.916 -0.1953  0.3607 -0.3152
    82BTZ   C5048459   2.631   1.311  26.952 -0.1263  0.3766 -0.1559
    82BTZ   C5148460   2.404   1.413  26.926 -0.1882  0.1657 -0.4621
    82BTZ   C5248461   2.489   1.298  26.958 -0.1206  0.2792 -0.2246
    92RH    C5348462   2.720   1.192  26.960  0.0490 -0.4121 -0.2709
    82BTZ    N448463   2.272   1.393  26.934 -0.1785  0.0791 -0.5126
    82BTZ    N548464   2.425   1.185  26.991 -0.0565  0.2838 -0.0844
    82BTZ    S648465   2.250   1.223  26.984 -0.0805  0.1403 -0.2540
    92RH    C5448466   2.853   1.190  26.949  0.0457 -0.3871 -0.3181
    92RH     S748467   2.965   1.334  26.935  0.0257 -0.3616 -0.2133
    92RH    C5548468   2.933   1.064  26.946  0.0581 -0.3759 -0.4692
    92RH     O248469   2.887   0.949  26.953  0.0728 -0.3881 -0.5674
    92RH     N648470   3.071   1.091  26.933  0.0512 -0.3491 -0.4896
    92RH    C5648471   3.112   1.222  26.926  0.0347 -0.3374 -0.3734
    92RH    C5748472   3.168   0.984  26.940 -0.8449 -1.1656 -0.4029
    92RH    C5848473   3.227   0.966  26.804 -0.3574  0.2696  0.2852
    92RH     S848474   3.269   1.281  26.912  0.0235 -0.3060 -0.3691
    72IDQ   C5948475   2.374   2.076  27.088  0.1773  0.9729  1.2592
    72IDQ   C6048476   2.500   1.998  27.061 -0.4693  1.6979 -0.8038
    72IDQ   C6148477   2.609   2.099  27.089 -0.8147 -0.4310 -0.3912
    72IDQ   C6248478   2.749   2.044  27.125  0.8602  0.3318  0.8962
    72IDQ   C6348479   2.849   2.130  27.198 -0.3230 -0.2281 -0.6508
    72IDQ   C6448480   2.871   2.275  27.158  1.4291 -0.7236 -0.2269
    72IDQ   C6548481   2.977   2.351  27.233  0.5490 -0.9759 -0.9023
    72IDQ   C6648482   1.969   1.819  26.928  1.4970 -0.8402 -0.6006
    72IDQ   C6748483   2.007   1.781  27.072 -0.0977 -0.5652  0.0660
    72IDQ   C6848484   1.918   1.661  27.110  0.2338  0.2878  0.5478
    72IDQ   C6948485   1.936   1.585  27.238  0.0717 -0.3142 -0.8039
    72IDQ   C7048486   2.071   1.530  27.254  0.0487  0.9158 -1.4295
    72IDQ   C7148487   2.081   1.466  27.405  0.4039 -0.4601  0.2864
    72IDQ   C7248488   2.212   1.407  27.454  0.0614  0.1075 -0.7468
    11RH     C148489   5.670   4.181  26.833 -0.1193 -0.2483  0.1640
    11RH     C248490   5.572   4.252  26.748 -0.0197 -0.1849  0.1020
    11RH     N148491   5.642   4.199  26.970 -0.0497 -0.0273  0.1496
    11RH     S148492   5.449   4.339  26.853  0.1593  0.1618  0.0291
    11RH     C348493   5.533   4.276  27.005  0.0938  0.2058  0.0834
    11RH     C448494   5.740   4.168  27.075 -0.1433 -0.7790  0.0734
    11RH     S248495   5.478   4.314  27.160  0.2010  0.4958  0.0529
    11RH     O148496   5.765   4.113  26.792 -0.2483 -0.4665  0.2227
    11RH     C548497   5.576   4.251  26.614 -0.0586 -0.3597  0.1021
    21BTZ    C648498   5.499   4.307  26.505  0.0037  0.0071 -0.0304
    21BTZ    C748499   5.386   4.383  26.519  0.0153  0.0155  0.0191
    21BTZ    C848500   5.546   4.276  26.373 -0.0964 -0.0570 -0.0515
    21BTZ    C948501   5.313   4.432  26.405 -0.0706 -0.0378  0.0496
    21BTZ   C1048502   5.354   4.406  26.277 -0.1676 -0.0998  0.0310
    21BTZ   C1148503   5.472   4.326  26.257 -0.1836 -0.1112 -0.0210
    21BTZ    N248504   5.655   4.203  26.347 -0.1173 -0.0714 -0.0992
    21BTZ    N348505   5.522   4.294  26.137 -0.2744 -0.1692 -0.0429
    21BTZ    S348506   5.668   4.196  26.169 -0.2522 -0.1567 -0.1062
    31IDT   C1248507   5.279   4.457  26.158  0.3820 -0.0814  0.3436
    31IDT   C1348508   5.308   4.423  26.028  0.3203 -0.4727  0.4301
    31IDT   C1448509   5.238   4.503  25.933  0.3573 -0.6875  0.2213
    31IDT   C1548510   5.155   4.599  25.989  0.4474 -0.4618 -0.0270
    31IDT    S448511   5.160   4.595  26.169  0.4928  0.0447 -0.0131
    4IDB    C1648512   5.089   4.671  25.885  0.2353  0.1461  0.5738
    4IDB    C1748513   5.152   4.634  25.762  0.0895 -0.2773  0.6237
    51IDQ   C1848514   5.245   4.510  25.777  0.2628 -0.3074 -0.8397
    4IDB    C1948515   5.133   4.709  25.646  0.3558 -0.3841  0.5093
    51IDQ   C2048516   5.156   4.385  25.708 -0.2595 -0.6127  0.0294
    51IDQ   C2148517   5.388   4.517  25.715 -0.1743 -0.0909 -0.6133
    51IDQ   C2248518   5.446   4.645  25.659  0.1789 -0.0909  0.0045
    51IDQ   C2348519   5.058   4.296  25.788  0.8019  0.0844 -0.0300
    51IDQ   C2448520   5.599   4.667  25.652 -0.2001  0.3590 -0.0961
    51IDQ   C2548521   5.694   4.636  25.773  0.3898  0.4092 -1.4710
    51IDQ   C2648522   5.639   4.660  25.917  0.8062 -0.1209 -0.1278
    51IDQ   C2748523   5.738   4.665  26.030 -0.1309 -0.2833  0.7865
    51IDQ   C2848524   5.707   4.601  26.158 -0.2504 -0.4023  0.0547
    51IDQ   C2948525   5.815   4.614  26.267  0.3157  0.4073 -0.1228
    51IDQ   C3048526   4.983   4.182  25.703  0.9834 -1.8662 -0.2251
    51IDQ   C3148527   5.046   4.103  25.596 -0.0807 -0.6203  0.3723
    51IDQ   C3248528   4.965   4.015  25.505 -0.3801  0.2133 -0.3930
    51IDQ   C3348529   5.052   3.939  25.393 -0.3019 -0.8713  0.0993
    51IDQ   C3448530   5.113   3.813  25.461  0.1031 -0.6210 -1.2460
    51IDQ   C3548531   5.170   3.719  25.369 -0.3061  0.0130  1.1085
    4IDB    C3648532   5.006   4.784  25.893  0.6512  0.4669  0.4086
    4IDB    C3748533   4.988   4.860  25.774  0.9189  0.3518  0.2923
    11RH    C3848534   5.767   4.019  27.099  0.1146 -0.1426 -0.3642
    4IDB    C3948535   5.050   4.822  25.654  0.7715 -0.0632  0.3428
    62IDT   C4048536   5.013   4.934  25.562 -0.1415  0.0951 -0.0410
    72IDQ   C4148537   4.892   4.985  25.761 -0.2883 -0.2561 -0.4978
    62IDT   C4248538   4.921   5.021  25.617  0.3650  0.6042  0.0257
    72IDQ   C4348539   4.920   5.087  25.879  1.4334  0.4965  0.0227
    72IDQ   C4448540   4.756   4.931  25.796 -0.0607  1.1532 -0.8916
    62IDT    S548541   5.063   4.986  25.397 -0.1889 -0.3407 -0.1954
    62IDT   C4548542   4.952   5.129  25.413  0.5126  0.2157 -0.1585
    62IDT   C4648543   4.886   5.131  25.533  0.7354  0.6731 -0.0401
    82BTZ   C4748544   4.936   5.220  25.304 -0.0273  0.4934  0.5372
    82BTZ   C4848545   5.033   5.216  25.207  0.0142  0.2099  0.5884
    82BTZ   C4948546   5.023   5.295  25.087  0.0467 -0.1653  0.3338
    82BTZ   C5048547   4.917   5.379  25.065  0.0377 -0.2567  0.0275
    82BTZ   C5148548   4.823   5.306  25.285 -0.0383  0.4116  0.2203
    82BTZ   C5248549   4.813   5.387  25.163 -0.0052  0.0303 -0.0386
    92RH    C5348550   4.896   5.460  24.940  0.0304  0.1290 -0.0469
    82BTZ    N448551   4.723   5.319  25.373 -0.0774  0.6639  0.1402
    82BTZ    N548552   4.705   5.464  25.153 -0.0178 -0.0242 -0.3271
    82BTZ    S648553   4.609   5.437  25.301 -0.0737  0.4192 -0.2778
    92RH    C5448554   4.954   5.464  24.820 -0.0366  0.0139 -0.0834
    92RH     S748555   5.090   5.356  24.759  0.1529  0.1696  0.0597
    92RH    C5548556   4.916   5.560  24.713 -0.2834 -0.2674 -0.2508
    92RH     O248557   4.827   5.646  24.723 -0.4541 -0.4269 -0.3753
    92RH     N648558   4.993   5.541  24.597 -0.3034 -0.3363 -0.2543
    92RH    C5648559   5.089   5.442  24.597 -0.1030 -0.1445 -0.1087
    92RH    C5748560   4.959   5.626  24.474  0.0971  0.1167  0.3205
    92RH    C5848561   4.852   5.562  24.386  0.6316  0.0070 -0.9928
    92RH     S848562   5.194   5.400  24.472 -0.0794 -0.1748 -0.0787
    72IDQ   C5948563   4.625   4.964  25.729  0.2587 -0.0468 -1.1148
    72IDQ   C6048564   4.516   4.844  25.747 -0.3406  0.4148  0.5086
    72IDQ   C6148565   4.389   4.879  25.658 -1.0589  0.3010  0.9108
    72IDQ   C6248566   4.366   4.803  25.525 -0.3660  0.2360  0.5829
    72IDQ   C6348567   4.227   4.834  25.472  0.0189  0.3489  0.1173
    72IDQ   C6448568   4.102   4.806  25.560  0.1728  0.9375 -0.6673
    72IDQ   C6548569   3.965   4.841  25.513 -0.3109  0.4444 -0.6047
    72IDQ   C6648570   4.940   5.232  25.847 -0.0641 -0.6160 -0.8444
    72IDQ   C6748571   4.813   5.306  25.799 -0.3509 -1.1946 -0.0460
    72IDQ   C6848572   4.832   5.461  25.814 -0.6159 -0.3202  0.0353
    72IDQ   C6948573   4.718   5.540  25.753  0.2718 -0.6524 -1.1561
    72IDQ   C7048574   4.745   5.693  25.733 -0.1137  0.8655  0.6141
    72IDQ   C7148575   4.807   5.781  25.855  0.9048 -0.0972  0.6655
    72IDQ   C7248576   4.808   5.923  25.809  0.6416 -1.1094  0.5226
    11RH     C148577   4.178   0.105  26.342 -0.4542 -0.2093 -0.0262
    11RH     C248578   4.213   0.143  26.203 -0.3453 -0.1814  0.0086
    11RH     N148579   4.081   0.002  26.344 -0.4219 -0.2430 -0.1232
    11RH     S148580   4.115   0.041  26.084 -0.2077 -0.2011 -0.0882
    11RH     C348581   4.033  -0.046  26.224 -0.3004 -0.2452 -0.1707
    11RH     C448582   4.042  -0.055  26.475  0.6962  0.7437  0.1221
    11RH     S248583   3.918  -0.167  26.200 -0.2382 -0.2817 -0.2861
    11RH     O148584   4.226   0.155  26.444 -0.5612 -0.2046  0.0219
    11RH     C548585   4.303   0.237  26.172 -0.3508 -0.1474  0.0978
    21BTZ    C648586   4.375   0.262  26.048  0.7092 -0.6839  0.0996
    21BTZ    C748587   4.356   0.192  25.931  0.6260 -0.6246  0.0782
    21BTZ    C848588   4.467   0.372  26.048  0.3771 -0.4030 -0.0238
    21BTZ    C948589   4.425   0.227  25.810  0.2152 -0.2886 -0.0644
    21BTZ   C1048590   4.514   0.332  25.805 -0.1116 -0.0125 -0.1861
    21BTZ   C1148591   4.537   0.407  25.924 -0.0407 -0.0615 -0.1688
    21BTZ    N248592   4.494   0.447  26.155  0.4193 -0.4287 -0.0167
    21BTZ    N348593   4.621   0.511  25.932 -0.3339  0.1873 -0.2780
    21BTZ    S348594   4.614   0.569  26.101 -0.0835 -0.0086 -0.1979
    31IDT   C1248595   4.569   0.372  25.673  0.2470  0.2728 -0.3363
    31IDT   C1348596   4.647   0.477  25.632  0.9707 -0.2674 -0.3767
    31IDT   C1448597   4.645   0.495  25.490  1.0515 -0.2669 -0.3786
    31IDT   C1548598   4.565   0.405  25.423  0.3914  0.2725 -0.3396
    31IDT    S448599   4.486   0.289  25.535 -0.3909  0.8267 -0.2965
    4IDB    C1648600   4.568   0.441  25.282  0.2662 -0.2317  0.0118
    4IDB    C1748601   4.660   0.547  25.259  0.0653 -0.0401  0.0834
    51IDQ   C1848602   4.697   0.604  25.396  1.1435 -0.7603  0.1031
    4IDB    C1948603   4.687   0.592  25.130 -0.0814  0.1543  0.1186
    51IDQ   C2048604   4.853   0.653  25.381  0.4191 -0.4071 -1.0147
    51IDQ   C2148605   4.620   0.735  25.440  0.0847 -0.3565 -0.4656
    51IDQ   C2248606   4.505   0.808  25.359 -0.2889  0.3607 -0.4083
    51IDQ   C2348607   4.960   0.601  25.483 -0.5120 -0.0437  0.7401
    51IDQ   C2448608   4.536   0.949  25.307  0.7835 -0.0642 -0.1488
    51IDQ   C2548609   4.650   0.973  25.206 -0.1165 -0.2712  0.9449
    51IDQ   C2648610   4.648   1.122  25.164  0.1811  0.1091 -0.7158
    51IDQ   C2748611   4.696   1.230  25.263 -0.5104  0.1194  0.8022
    51IDQ   C2848612   4.629   1.370  25.265 -0.0564  0.5008  0.2777
    51IDQ   C2948613   4.476   1.377  25.267 -0.0059 -0.5381  0.2277
    51IDQ   C3048614   4.951   0.624  25.636  0.5950 -0.6447  0.0969
    51IDQ   C3148615   5.059   0.541  25.714  1.0869  0.3711 -0.6289
    51IDQ   C3248616   5.203   0.487  25.665  0.7418 -0.3185  0.1041
    51IDQ   C3348617   5.299   0.602  25.623 -0.7212  1.0441 -0.5679
    51IDQ   C3448618   5.458   0.569  25.622 -0.3398  0.2424 -0.5255
    51IDQ   C3548619   5.512   0.639  25.495  0.4642  0.0251  0.2595
    4IDB    C3648620   4.501   0.378  25.176  0.3215 -0.2300 -0.0238
    4IDB    C3748621   4.530   0.425  25.045  0.1695 -0.0299  0.0134
    11RH    C3848622   4.119  -0.189  26.511  0.3457  0.3565  0.6830
    4IDB    C3948623   4.621   0.529  25.024 -0.0261  0.1561  0.0822
    62IDT   C4048624   4.645   0.550  24.880 -0.0833 -0.1690 -0.6098
    72IDQ   C4148625   4.480   0.386  24.909  1.5431  0.1143  0.8272
    62IDT   C4248626   4.567   0.465  24.805 -0.0653  0.0558 -0.8893
    72IDQ   C4348627   4.324   0.441  24.890 -0.6656 -0.2844 -0.4223
    72IDQ   C4448628   4.467   0.226  24.878  0.3933  0.4002  0.5613
    62IDT    S548629   4.745   0.658  24.777  0.4039 -0.2750 -0.2576
    62IDT   C4548630   4.672   0.578  24.630  0.6166  0.0038 -0.5191
    62IDT   C4648631   4.582   0.480  24.664  0.3303  0.1539 -0.8388
    82BTZ   C4748632   4.706   0.622  24.502 -0.0809  0.2585 -0.5625
    82BTZ   C4848633   4.651   0.739  24.455 -0.0442  0.2186 -0.7086
    82BTZ   C4948634   4.674   0.785  24.321  0.2149  0.1970 -0.6728
    82BTZ   C5048635   4.752   0.716  24.233  0.4370  0.2154 -0.4917
    82BTZ   C5148636   4.789   0.546  24.413  0.1454  0.2791 -0.3705
    82BTZ   C5248637   4.812   0.593  24.277  0.4088  0.2571 -0.3343
    92RH    C5348638   4.771   0.771  24.104 -0.2178 -0.1873  0.2495
    82BTZ    N448639   4.849   0.431  24.447  0.1351  0.3178 -0.2165
    82BTZ    N548640   4.891   0.517  24.200  0.6100  0.2783 -0.1521
    82BTZ    S648641   4.939   0.377  24.302  0.4683  0.3282 -0.0151
    92RH    C5448642   4.736   0.883  24.040  0.0554 -0.1641  0.1378
    92RH     S748643   4.616   1.010  24.097  0.1145  0.0201 -0.1420
    92RH    C5548644   4.791   0.923  23.908  0.3619 -0.2889  0.2265
    92RH     O248645   4.875   0.858  23.843  0.4020 -0.4270  0.4120
    92RH     N648646   4.736   1.045  23.864  0.6109 -0.2318  0.0736
    92RH    C5648647   4.644   1.109  23.944  0.5412 -0.0765 -0.1273
    92RH    C5748648   4.787   1.117  23.749 -0.3920 -0.5589  0.0231
    92RH    C5848649   4.748   1.056  23.613  0.6062  0.2786  0.6768
    92RH     S848650   4.565   1.254  23.915  0.7926  0.0199 -0.3362
    72IDQ   C5948651   4.600   0.159  24.876  1.2270 -0.0177  0.6295
    72IDQ   C6048652   4.635   0.063  24.765 -0.0587  0.6053  0.0448
    72IDQ   C6148653   4.596   0.129  24.626 -0.1607  0.6587 -0.6213
    72IDQ   C6248654   4.594   0.027  24.507  0.9941  0.4350  0.4935
    72IDQ   C6348655   4.519  -0.110  24.522 -0.1726 -0.7165  0.2110
    72IDQ   C6448656   4.501  -0.212  24.408  0.2442 -1.0674  0.0504
    72IDQ   C6548657   4.621  -0.259  24.332 -0.5033  0.2115  0.2591
    72IDQ   C6648658   4.265   0.576  24.960 -0.3741 -0.8800 -0.0330
    72IDQ   C6748659   4.116   0.598  24.907 -0.4018 -0.4520 -1.3428
    72IDQ   C6848660   4.089   0.628  24.764 -0.2240  0.5692  0.4013
    72IDQ   C6948661   4.152   0.737  24.680  0.1783  0.2570 -0.1094
    72IDQ   C7048662   4.161   0.688  24.542  0.3537  0.2456  0.7624
    72IDQ   C7148663   4.215   0.781  24.437 -0.0629 -0.7889 -1.6606
    72IDQ   C7248664   4.272   0.732  24.307 -1.0866 -0.3821  1.0645
    11RH     C148665   5.862   5.483  15.441 -0.0014  0.0124  0.0367
    11RH     C248666   5.956   5.510  15.329  0.0063  0.2522  0.0994
    11RH     N148667   5.740   5.553  15.423 -0.2129 -0.3871 -0.1023
    11RH     S148668   5.878   5.625  15.209 -0.2650 -0.0629 -0.0282
    11RH     C348669   5.725   5.632  15.312 -0.3755 -0.4965 -0.1583
    11RH     C448670   5.650   5.563  15.542 -0.1896  0.6619  0.1093
    11RH     S248671   5.591   5.724  15.268 -0.6394 -0.9499 -0.3204
    11RH     O148672   5.885   5.410  15.538  0.1553  0.1384  0.0963
    11RH     C548673   6.078   5.457  15.321  0.1873  0.6401  0.2298
    21BTZ    C648674   6.188   5.472  15.225  0.1911  0.5247 -0.0611
    21BTZ    C748675   6.195   5.569  15.129  0.3370  0.5792  0.0052
    21BTZ    C848676   6.301   5.386  15.245  0.0274  0.2772 -0.1862
    21BTZ    C948677   6.314   5.587  15.048  0.3296  0.3946 -0.0474
    21BTZ   C1048678   6.424   5.508  15.064  0.1763  0.1555 -0.1663
    21BTZ   C1148679   6.421   5.404  15.163  0.0199  0.0893 -0.2396
    21BTZ    N248680   6.305   5.288  15.336 -0.1236  0.2016 -0.2599
    21BTZ    N348681   6.522   5.321  15.188 -0.1371 -0.1373 -0.3564
    21BTZ    S348682   6.467   5.213  15.320 -0.2852 -0.1195 -0.4041
    31IDT   C1248683   6.542   5.532  14.968  0.2380  0.0092  0.3900
    31IDT   C1348684   6.669   5.481  14.976  0.0608 -0.6124 -0.4313
    31IDT   C1448685   6.755   5.531  14.874 -0.3103 -0.9168 -0.8998
    31IDT   C1548686   6.695   5.619  14.787 -0.4180 -0.5302 -0.4401
    31IDT    S448687   6.522   5.647  14.829 -0.0549  0.2566  0.6318
    4IDB    C1648688   6.788   5.669  14.689  0.2401 -0.0230 -0.3801
    4IDB    C1748689   6.909   5.595  14.707  0.2528  0.0477 -0.1659
    51IDQ   C1848690   6.903   5.510  14.833  0.3516 -0.4306  0.5472
    4IDB    C1948691   7.018   5.614  14.622  0.3622  0.0491 -0.0266
    51IDQ   C2048692   6.942   5.366  14.790 -0.0667  0.7978  0.0505
    51IDQ   C2148693   6.986   5.551  14.955 -0.5039 -0.9067  0.4314
    51IDQ   C2248694   7.088   5.662  14.948 -0.2765 -0.4455  0.6701
    51IDQ   C2348695   6.840   5.249  14.799  1.0766  0.4626  0.3168
    51IDQ   C2448696   7.160   5.647  15.080 -0.2741 -0.5562  0.4678
    51IDQ   C2548697   7.278   5.745  15.089  0.7552 -0.3826  0.2272
    51IDQ   C2648698   7.415   5.715  15.016  0.1959  0.2030 -0.2584
    51IDQ   C2748699   7.535   5.712  15.109  0.0194 -0.2961  0.4775
    51IDQ   C2848700   7.676   5.731  15.039 -0.1085  0.5442  0.3695
    51IDQ   C2948701   7.720   5.860  14.958  0.6103  1.0136  0.1087
    51IDQ   C3048702   6.826   5.166  14.927  0.4154 -0.7970  0.9217
    51IDQ   C3148703   6.939   5.076  14.963  0.3883 -0.1548 -0.1346
    51IDQ   C3248704   6.911   5.019  15.103  0.7766 -0.6813 -0.8070
    51IDQ   C3348705   6.802   5.070  15.216 -0.1058 -0.1241  0.5298
    51IDQ   C3448706   6.816   5.003  15.347  0.4188 -0.0067 -1.2748
    51IDQ   C3548707   6.744   4.859  15.358 -0.0425 -1.0213  0.1098
    4IDB    C3648708   6.775   5.762  14.585  0.3371 -0.0936 -0.4568
    4IDB    C3748709   6.887   5.781  14.499  0.4481 -0.0911 -0.3128
    11RH    C3848710   5.534   5.465  15.521 -0.5491  0.4119 -1.0687
    4IDB    C3948711   7.004   5.708  14.518  0.4593 -0.0214 -0.1037
    62IDT   C4048712   7.093   5.730  14.406  0.1399  0.4610  0.4520
    72IDQ   C4148713   6.906   5.880  14.375  0.9128  0.4334 -0.5590
    62IDT   C4248714   7.040   5.826  14.322  0.1011  0.5960  0.6313
    72IDQ   C4348715   6.907   6.023  14.440 -0.1338  0.2128  0.2296
    72IDQ   C4448716   6.790   5.872  14.265 -0.0959 -0.1555 -0.1233
    62IDT    S548717   7.251   5.669  14.347 -0.1758  0.1104 -0.0483
    62IDT   C4548718   7.237   5.782  14.206 -0.3525  0.1675  0.0144
    62IDT   C4648719   7.122   5.856  14.209 -0.1775  0.4302  0.3843
    82BTZ   C4748720   7.349   5.804  14.113 -0.2004  1.0000  0.2228
    82BTZ   C4848721   7.476   5.789  14.160 -0.2295  1.0991  0.3326
    82BTZ   C4948722   7.591   5.824  14.081 -0.1803  0.9272  0.3283
    82BTZ   C5048723   7.579   5.873  13.953 -0.1021  0.6561  0.2142
    82BTZ   C5148724   7.330   5.855  13.980 -0.1189  0.7173  0.1013
    82BTZ   C5248725   7.447   5.890  13.899 -0.0689  0.5424  0.0968
    92RH    C5348726   7.696   5.872  13.859 -0.0966  0.4939 -0.1276
    82BTZ    N448727   7.211   5.874  13.923 -0.0837  0.5970 -0.0122
    82BTZ    N548728   7.422   5.937  13.776  0.0064  0.2816 -0.0200
    82BTZ    S648729   7.244   5.939  13.759  0.0168  0.2477 -0.1318
    92RH    C5448730   7.824   5.836  13.869 -0.1274  0.3983 -0.0746
    92RH     S748731   7.910   5.775  14.019 -0.1926  0.4950  0.0025
    92RH    C5548732   7.919   5.840  13.755 -0.1126  0.1919 -0.0706
    92RH     O248733   7.892   5.876  13.639 -0.0708  0.0854 -0.1144
    92RH     N648734   8.048   5.796  13.793 -0.1524  0.1283 -0.0094
    92RH    C5648735   8.068   5.758  13.924 -0.1972  0.2584  0.0358
    92RH    C5748736   8.153   5.795  13.691  0.6833  0.9007  0.4248
    92RH    C5848737   8.150   5.679  13.594  0.5286  0.7796  1.3207
    92RH     S848738   8.210   5.702  13.995 -0.2500  0.2196  0.1116
    72IDQ   C5948739   6.640   5.894  14.318 -1.0078  0.4536  0.1155
    72IDQ   C6048740   6.550   5.910  14.196 -0.5480  0.5497  0.6221
    72IDQ   C6148741   6.408   5.929  14.218 -0.5829 -0.8365 -0.6464
    72IDQ   C6248742   6.331   5.798  14.240 -0.5346  0.1774 -0.0564
    72IDQ   C6348743   6.313   5.743  14.381  0.2017  0.3874 -0.8588
    72IDQ   C6448744   6.263   5.836  14.502  0.2758  0.3127  0.7729
    72IDQ   C6548745   6.241   5.759  14.624  0.9172 -0.0903 -0.2259
    72IDQ   C6648746   6.899   6.143  14.352  0.3185  0.4153 -0.4462
    72IDQ   C6748747   7.036   6.198  14.298  0.5837  0.4784  0.7946
    72IDQ   C6848748   7.020   6.328  14.235 -0.9238 -0.6567 -0.8500
    72IDQ   C6948749   7.064   6.357  14.096 -0.0355  0.7667 -0.1785
    72IDQ   C7048750   7.214   6.351  14.068  0.2662  0.8184  0.3284
    72IDQ   C7148751   7.271   6.220  14.011  0.1855  0.2947  0.0052
    72IDQ   C7248752   7.417   6.225  14.012 -0.7090 -0.3238  0.4173
    11RH     C148753   2.093   4.944  14.621  0.0830 -0.4166 -0.1235
    11RH     C248754   1.946   4.957  14.637  0.1121 -0.3113  0.0653
    11RH     N148755   2.141   4.824  14.677  0.0805 -0.4112 -0.1100
    11RH     S148756   1.880   4.810  14.725  0.1344 -0.2121  0.2485
    11RH     C348757   2.050   4.739  14.736  0.1041 -0.3145  0.0672
    11RH     C448758   2.287   4.801  14.703 -0.2535  0.4810 -1.0133
    11RH     S248759   2.081   4.590  14.810  0.1068 -0.2869  0.1218
    11RH     O148760   2.167   5.027  14.565  0.0629 -0.5001 -0.2763
    11RH     C548761   1.876   5.061  14.592  0.1201 -0.2945  0.0920
    21BTZ    C648762   1.730   5.078  14.572  0.2365 -0.0344 -0.2738
    21BTZ    C748763   1.636   4.981  14.595  0.3813 -0.2038 -0.3827
    21BTZ    C848764   1.688   5.206  14.524  0.0578 -0.0982 -0.2875
    21BTZ    C948765   1.495   5.006  14.573  0.3581 -0.4429 -0.5100
    21BTZ   C1048766   1.450   5.127  14.528  0.1901 -0.5122 -0.5278
    21BTZ   C1148767   1.545   5.231  14.502  0.0342 -0.3413 -0.4168
    21BTZ    N248768   1.770   5.308  14.498 -0.0937  0.0509 -0.1886
    21BTZ    N348769   1.513   5.353  14.458 -0.1362 -0.3874 -0.4218
    21BTZ    S348770   1.667   5.443  14.443 -0.2767 -0.1165 -0.2578
    31IDT   C1248771   1.308   5.149  14.494 -0.3241  0.5974  0.3821
    31IDT   C1348772   1.198   5.194  14.563 -0.6318  0.0365  0.2735
    31IDT   C1448773   1.083   5.209  14.480 -0.6049 -0.4549  0.1366
    31IDT   C1548774   1.104   5.176  14.347 -0.2772 -0.2721  0.1404
    31IDT    S448775   1.272   5.122  14.317  0.0254  0.5438  0.3189
    4IDB    C1648776   0.983   5.200  14.271 -0.0545  0.3321  0.3935
    4IDB    C1748777   0.894   5.276  14.353 -0.3008  0.4463  0.0246
    51IDQ   C1848778   0.946   5.283  14.499 -0.3654  0.2348 -0.4215
    4IDB    C1948779   0.769   5.313  14.306 -0.2248  0.2517 -0.3452
    51IDQ   C2048780   0.958   5.442  14.539  0.7020  0.2876  0.7887
    51IDQ   C2148781   0.863   5.212  14.602  0.3911  0.7192  1.0757
    51IDQ   C2248782   0.730   5.130  14.581 -0.9837  0.7280  0.1016
    51IDQ   C2348783   1.090   5.521  14.536 -0.3240 -0.3701 -0.3070
    51IDQ   C2448784   0.630   5.133  14.702  0.9345 -0.1657 -0.4578
    51IDQ   C2548785   0.511   5.046  14.658  0.1782 -0.4395  0.3052
    51IDQ   C2648786   0.446   5.036  14.521 -0.7672 -0.4808  0.8308
    51IDQ   C2748787   0.382   4.900  14.499 -0.8373  0.0793 -1.0488
    51IDQ   C2848788   0.309   4.903  14.370  0.4571 -0.1443  0.0177
    51IDQ   C2948789   0.231   4.776  14.349  0.4727  0.0302  0.0770
    51IDQ   C3048790   1.165   5.535  14.406 -0.2215  0.2418 -0.8483
    51IDQ   C3148791   1.279   5.633  14.427 -0.3708 -0.2693 -0.5439
    51IDQ   C3248792   1.337   5.687  14.296 -0.6071 -0.0394 -0.6856
    51IDQ   C3348793   1.421   5.818  14.290 -0.2211  0.5056 -0.2243
    51IDQ   C3448794   1.548   5.797  14.369  0.9941  0.1973 -0.1726
    51IDQ   C3548795   1.634   5.910  14.349 -0.2724 -0.4033 -0.4473
    4IDB    C3648796   0.946   5.160  14.142  0.2713  0.0204  0.3939
    4IDB    C3748797   0.817   5.198  14.096  0.3444 -0.1749  0.0129
    11RH    C3848798   2.372   4.757  14.587  0.6701  0.2867  0.4218
    4IDB    C3948799   0.732   5.273  14.177  0.1010 -0.0599 -0.3448
    62IDT   C4048800   0.620   5.319  14.099 -0.2428  0.2390  0.5148
    72IDQ   C4148801   0.765   5.190  13.955  0.6591  0.5121  0.1236
    62IDT   C4248802   0.637   5.274  13.970  0.2140  0.3809  0.5219
    72IDQ   C4348803   0.746   5.044  13.909  0.3348 -0.1555 -0.2275
    72IDQ   C4448804   0.867   5.243  13.844  0.3664  0.3908  0.0577
    62IDT    S548805   0.479   5.429  14.115 -0.2923  0.2320  0.1345
    62IDT   C4548806   0.448   5.408  13.937  0.3378  0.4310 -0.0018
    62IDT   C4648807   0.540   5.325  13.878  0.5428  0.4895  0.2298
    82BTZ   C4748808   0.326   5.460  13.871 -0.3863  0.3870  0.3422
    82BTZ   C4848809   0.209   5.457  13.943 -0.3590  0.8762  0.4120
    82BTZ   C4948810   0.085   5.507  13.888 -0.2595  1.0554  0.3483
    82BTZ   C5048811   0.078   5.559  13.761 -0.1873  0.7450  0.2143
    82BTZ   C5148812   0.324   5.514  13.739 -0.3133  0.0474  0.2017
    82BTZ   C5248813   0.198   5.564  13.682 -0.2121  0.2296  0.1369
    92RH    C5348814  -0.049   5.598  13.709 -0.0600  0.1537  0.1027
    82BTZ    N448815   0.431   5.522  13.659 -0.3309 -0.4371  0.1230
    82BTZ    N548816   0.204   5.613  13.558 -0.1483 -0.1086  0.0055
    82BTZ    S648817   0.375   5.595  13.506 -0.2163 -0.6861 -0.0413
    92RH    C5448818  -0.172   5.590  13.760 -0.0633 -0.0386  0.0656
    92RH     S748819  -0.219   5.526  13.925 -0.0137 -0.1128  0.0508
    92RH    C5548820  -0.294   5.634  13.687 -0.1094 -0.2271  0.0291
    92RH     O248821  -0.297   5.682  13.573 -0.1497 -0.2297  0.0291
    92RH     N648822  -0.411   5.614  13.765 -0.1024 -0.4090 -0.0063
    92RH    C5648823  -0.397   5.560  13.890 -0.0563 -0.3889 -0.0026
    92RH    C5748824  -0.534   5.676  13.719  0.6138 -0.9026 -0.0749
    92RH    C5848825  -0.617   5.591  13.625  0.0955  0.3027 -0.5223
    92RH     S848826  -0.519   5.526  14.002 -0.0383 -0.5796 -0.0396
    72IDQ   C5948827   0.979   5.346  13.849  0.8637 -0.1041 -0.0243
    72IDQ   C6048828   1.034   5.401  13.716 -1.3891  0.3458 -0.0262
    72IDQ   C6148829   1.137   5.518  13.715  1.3911 -0.0531  0.3019
    72IDQ   C6248830   1.216   5.504  13.591 -0.7165  0.2880 -0.5478
    72IDQ   C6348831   1.307   5.623  13.558 -0.1236 -0.4174 -0.1024
    72IDQ   C6448832   1.410   5.678  13.657  0.0363 -0.5553  0.9015
    72IDQ   C6548833   1.520   5.756  13.604 -0.2977  0.2284 -0.3307
    72IDQ   C6648834   0.628   4.949  13.930 -0.1107 -0.6329 -0.0469
    72IDQ   C6748835   0.644   4.809  13.888 -0.1417  0.6662 -0.6906
    72IDQ   C6848836   0.555   4.706  13.962  0.4456  0.8342 -0.5833
    72IDQ   C6948837   0.600   4.565  13.909 -0.1854 -0.4322  0.4245
    72IDQ   C7048838   0.506   4.451  13.928  0.3033 -0.4735  0.3284
    72IDQ   C7148839   0.492   4.409  14.070 -0.3822  0.7350  0.4912
    72IDQ   C7248840   0.352   4.352  14.080 -0.2147  0.3077 -0.3402
    11RH     C148841   1.916   4.108  27.212  0.3190  0.2967 -0.0224
    11RH     C248842   1.962   4.051  27.082  0.3163  0.2809 -0.0167
    11RH     N148843   1.821   4.210  27.192  0.0252  0.0259 -0.0203
    11RH     S148844   1.877   4.136  26.944 -0.0724 -0.0892 -0.0083
    11RH     C348845   1.785   4.242  27.063 -0.2126 -0.2050 -0.0129
    11RH     C448846   1.751   4.270  27.305 -0.1935  0.0882  0.6439
    11RH     S248847   1.674   4.359  27.013 -0.5816 -0.5480 -0.0086
    11RH     O148848   1.955   4.072  27.324  0.5468  0.5169 -0.0291
    11RH     C548849   2.053   3.953  27.073  0.5649  0.5074 -0.0173
    21BTZ    C648850   2.116   3.877  26.963  0.0454  0.3645  0.0462
    21BTZ    C748851   2.085   3.902  26.832 -0.2373  0.1078  0.0601
    21BTZ    C848852   2.204   3.768  26.993  0.0418  0.3694  0.0739
    21BTZ    C948853   2.139   3.823  26.724 -0.5359 -0.1556  0.1020
    21BTZ   C1048854   2.224   3.718  26.748 -0.5512 -0.1617  0.1293
    21BTZ   C1148855   2.259   3.687  26.884 -0.2615  0.1017  0.1168
    21BTZ    N248856   2.241   3.733  27.116  0.3014  0.6059  0.0639
    21BTZ    N348857   2.341   3.587  26.919 -0.2460  0.1231  0.1407
    21BTZ    S348858   2.351   3.593  27.098  0.1660  0.4942  0.1092
    31IDT   C1248859   2.268   3.630  26.636  0.7550 -0.3674 -0.1760
    31IDT   C1348860   2.373   3.542  26.634  0.7831 -0.3245 -0.9484
    31IDT   C1448861   2.391   3.481  26.506  0.1153 -0.0237 -1.1950
    31IDT   C1548862   2.300   3.522  26.410 -0.4250  0.1643 -0.6144
    31IDT    S448863   2.184   3.642  26.476 -0.1272 -0.0269  0.2989
    4IDB    C1648864   2.338   3.459  26.282  0.7825  0.1447  0.3087
    4IDB    C1748865   2.452   3.373  26.296  1.0778  0.4450 -0.2050
    51IDQ   C1848866   2.501   3.392  26.446 -0.4833 -0.1126  0.9063
    4IDB    C1948867   2.500   3.301  26.187  0.6559  0.4281 -0.3876
    51IDQ   C2048868   2.499   3.245  26.493 -0.1188  0.6516 -1.3584
    51IDQ   C2148869   2.643   3.459  26.454 -0.0365  0.4557 -0.6603
    51IDQ   C2248870   2.745   3.454  26.354 -0.8712 -0.2503  0.2833
    51IDQ   C2348871   2.396   3.176  26.603 -0.0824 -0.6408 -0.4175
    51IDQ   C2448872   2.812   3.316  26.336  0.9308  1.3315  0.1832
    51IDQ   C2548873   2.960   3.314  26.302 -0.3959 -0.1470  0.9479
    51IDQ   C2648874   3.043   3.190  26.270 -0.1299  0.9476  1.7302
    51IDQ   C2748875   3.196   3.208  26.238  1.0804 -0.5982  0.8327
    51IDQ   C2848876   3.303   3.123  26.321 -0.2764 -0.4044 -0.1214
    51IDQ   C2948877   3.304   2.970  26.324 -0.8182  0.3699  0.1803
    51IDQ   C3048878   2.456   3.060  26.669 -0.4483  0.0099 -0.2224
    51IDQ   C3148879   2.349   2.976  26.717 -0.1335  0.0505 -0.6364
    51IDQ   C3248880   2.398   2.848  26.787  1.4971  0.6895 -0.3917
    51IDQ   C3348881   2.464   2.743  26.709  0.2457 -0.4707  0.8556
    51IDQ   C3448882   2.525   2.631  26.790  0.5924 -0.1304  0.5029
    51IDQ   C3548883   2.457   2.548  26.897  0.8119  0.8414 -0.3519
    4IDB    C3648884   2.272   3.473  26.159  0.0586 -0.1763  0.6456
    4IDB    C3748885   2.324   3.399  26.049 -0.3644 -0.1887  0.4530
    11RH    C3848886   1.651   4.181  27.378  0.0294  0.2815 -0.4572
    4IDB    C3948887   2.435   3.316  26.064 -0.0679  0.1071 -0.0503
    62IDT   C4048888   2.453   3.250  25.932 -0.2027 -0.0183  0.4084
    72IDQ   C4148889   2.269   3.394  25.903 -0.1278  0.0889  0.9253
    62IDT   C4248890   2.368   3.298  25.835 -0.1506  0.0979  0.4196
    72IDQ   C4348891   2.253   3.530  25.830 -0.7987 -0.4333  0.2794
    72IDQ   C4448892   2.134   3.327  25.878  0.9338 -0.2830 -0.3025
    62IDT    S548893   2.566   3.126  25.867 -0.1073  0.1251  0.2989
    62IDT   C4548894   2.487   3.147  25.704  0.0035  0.3456  0.2731
    62IDT   C4648895   2.387   3.240  25.706 -0.0340  0.3038  0.3433
    82BTZ   C4748896   2.499   3.032  25.602 -0.9133 -0.2922  0.0008
    82BTZ   C4848897   2.495   2.905  25.653 -0.9352 -0.3663 -0.1864
    82BTZ   C4948898   2.488   2.789  25.567 -0.6476 -0.2530 -0.3662
    82BTZ   C5048899   2.484   2.801  25.430 -0.3386 -0.0658 -0.3586
    82BTZ   C5148900   2.496   3.050  25.460 -0.5951 -0.0968  0.0162
    82BTZ   C5248901   2.489   2.932  25.373 -0.3028  0.0184 -0.1664
    92RH    C5348902   2.461   2.680  25.345  0.0036  0.0695  0.1183
    82BTZ    N448903   2.500   3.168  25.399 -0.5422 -0.0086  0.1893
    82BTZ    N548904   2.486   2.957  25.241 -0.0150  0.1991 -0.1402
    82BTZ    S648905   2.494   3.134  25.223 -0.1075  0.2304  0.1255
    92RH    C5448906   2.442   2.550  25.370 -0.0033  0.0558  0.0410
    92RH     S748907   2.457   2.465  25.532  0.0164 -0.0456 -0.0134
    92RH    C5548908   2.406   2.451  25.266 -0.0288  0.1231 -0.0143
    92RH     O248909   2.388   2.476  25.145 -0.0464  0.1987  0.0038
    92RH     N648910   2.393   2.321  25.320 -0.0309  0.0909 -0.0923
    92RH    C5648911   2.414   2.304  25.455 -0.0101  0.0059 -0.1054
    92RH    C5748912   2.366   2.205  25.234 -1.1915 -0.5611  0.0374
    92RH    C5848913   2.237   2.175  25.156 -0.1908 -0.1933 -0.2943
    92RH     S848914   2.406   2.160  25.543 -0.0075 -0.0479 -0.1922
    72IDQ   C5948915   2.064   3.246  25.993 -0.1627 -0.1007  0.3837
    72IDQ   C6048916   2.074   3.098  25.994 -0.1583 -0.4983  0.3952
    72IDQ   C6148917   1.976   3.041  26.098 -0.8954 -0.0539  0.5957
    72IDQ   C6248918   1.931   2.898  26.085  0.4068 -0.1876  0.2483
    72IDQ   C6348919   2.034   2.784  26.102 -0.3165 -0.8155 -0.7538
    72IDQ   C6448920   2.007   2.658  26.023 -0.3968  0.4643  0.4756
    72IDQ   C6548921   2.119   2.556  26.012 -0.3953 -0.0887 -0.5449
    72IDQ   C6648922   2.379   3.617  25.783 -0.4308  0.4305  0.1486
    72IDQ   C6748923   2.370   3.706  25.657 -0.0964  0.3259  0.1094
    72IDQ   C6848924   2.302   3.832  25.681  0.8539 -0.2816 -0.2143
    72IDQ   C6948925   2.365   3.960  25.624 -0.5128  0.0889  1.2129
    72IDQ   C7048926   2.515   3.989  25.631 -0.9879 -0.3609 -0.4666
    72IDQ   C7148927   2.588   4.050  25.502 -0.3123 -0.6037  0.1614
    72IDQ   C7248928   2.590   3.977  25.368 -0.0208  0.7043 -0.3715
    11RH     C148929   0.866   4.782  22.765  0.2660  0.0433 -0.0548
    11RH     C248930   0.861   4.929  22.746  0.1740  0.0412 -0.0434
    11RH     N148931   0.751   4.719  22.714  0.3485 -0.0346 -0.1469
    11RH     S148932   0.703   4.975  22.663  0.2020 -0.0631 -0.1539
    11RH     C348933   0.653   4.797  22.657  0.3339 -0.0989 -0.2108
    11RH     C448934   0.728   4.572  22.749  0.2817 -1.0729 -0.0765
    11RH     S248935   0.507   4.747  22.590  0.4192 -0.1973 -0.3238
    11RH     O148936   0.960   4.720  22.818  0.2720  0.1049  0.0072
    11RH     C548937   0.957   5.013  22.785  0.0854  0.1070  0.0372
    21BTZ    C648938   0.993   5.150  22.780 -0.0215 -0.3786  0.5012
    21BTZ    C748939   0.922   5.253  22.724 -0.0797 -0.4578  0.4287
    21BTZ    C848940   1.121   5.177  22.838  0.0669 -0.3099  0.2718
    21BTZ    C948941   0.975   5.387  22.721 -0.0543 -0.4730  0.1287
    21BTZ   C1048942   1.097   5.418  22.774  0.0293 -0.4093 -0.0974
    21BTZ   C1148943   1.174   5.314  22.835  0.0927 -0.3254 -0.0324
    21BTZ    N248944   1.199   5.085  22.895  0.1295 -0.2303  0.3147
    21BTZ    N348945   1.295   5.331  22.890  0.1760 -0.2583 -0.2341
    21BTZ    S348946   1.346   5.171  22.949  0.2261 -0.1707 -0.0382
    31IDT   C1248947   1.150   5.559  22.751  0.4284  0.3438 -0.3501
    31IDT   C1348948   1.279   5.601  22.766  0.3786  0.5096 -0.3815
    31IDT   C1448949   1.302   5.730  22.711  0.1007  0.7163 -0.0210
    31IDT   C1548950   1.190   5.788  22.653 -0.0629  0.7098  0.2868
    31IDT    S448951   1.046   5.681  22.665  0.1241  0.4386  0.1424
    4IDB    C1648952   1.231   5.926  22.617  0.3826 -0.1497 -0.5125
    4IDB    C1748953   1.367   5.946  22.655  0.1573  0.1539  0.1526
    51IDQ   C1848954   1.427   5.810  22.681 -0.9717  1.5133  0.3264
    4IDB    C1948955   1.424   6.072  22.654  0.0192  0.2145 -0.0363
    51IDQ   C2048956   1.509   5.756  22.552 -0.4443  0.0166 -0.1485
    51IDQ   C2148957   1.522   5.795  22.809  0.4720  0.1525  0.0278
    51IDQ   C2248958   1.539   5.897  22.923 -0.5781  0.0674  0.1737
    51IDQ   C2348959   1.442   5.645  22.460 -0.8201  0.3487 -1.3765
    51IDQ   C2448960   1.671   5.886  23.008 -0.6473  0.1878 -0.1651
    51IDQ   C2548961   1.690   6.012  23.090 -1.2471  0.7337  0.0485
    51IDQ   C2648962   1.810   5.993  23.176  0.6577  0.2682 -0.2281
    51IDQ   C2748963   1.838   6.105  23.278  0.6949 -0.3495 -0.0155
    51IDQ   C2848964   1.953   6.061  23.380  1.0375 -0.4121  0.2761
    51IDQ   C2948965   2.083   6.024  23.323 -0.1388  0.7245 -0.2965
    51IDQ   C3048966   1.544   5.547  22.403  0.1659  1.0546 -0.3567
    51IDQ   C3148967   1.496   5.425  22.337 -0.0645  0.4900 -0.8956
    51IDQ   C3248968   1.401   5.440  22.226 -0.2252  0.6791  0.6893
    51IDQ   C3348969   1.353   5.305  22.175 -0.3253  0.1683  0.0391
    51IDQ   C3448970   1.204   5.282  22.166  0.3384 -0.2772 -0.3617
    51IDQ   C3548971   1.162   5.131  22.163 -0.1389 -0.1931 -0.9075
    4IDB    C3648972   1.150   6.033  22.576  0.4716 -0.3959 -1.3752
    4IDB    C3748973   1.210   6.162  22.575  0.3279 -0.3295 -1.5559
    11RH    C3848974   0.710   4.469  22.642 -0.9673  0.2187  0.1033
    4IDB    C3948975   1.343   6.180  22.613  0.1081 -0.0316 -0.8994
    62IDT   C4048976   1.383   6.314  22.604  1.0599 -0.3818 -1.0025
    72IDQ   C4148977   1.157   6.298  22.522  0.1613 -0.4279 -0.4200
    62IDT   C4248978   1.279   6.384  22.546  1.0202 -0.9143 -1.5922
    72IDQ   C4348979   1.018   6.355  22.573  0.5381 -0.4361  0.1519
    72IDQ   C4448980   1.149   6.303  22.367  0.4901 -0.7122 -0.0639
    62IDT    S548981   1.516   6.423  22.657 -0.0154  0.3777  0.2810
    62IDT   C4548982   1.420   6.564  22.594 -0.4848 -0.0877 -0.0632
    62IDT   C4648983   1.300   6.525  22.540  0.1470 -0.7490 -1.0619
    82BTZ   C4748984   1.455   6.708  22.634 -0.2725  0.0570  0.0540
    82BTZ   C4848985   1.585   6.721  22.674 -0.1858 -0.0343 -0.1912
    82BTZ   C4948986   1.650   6.849  22.683 -0.0696 -0.0818 -0.3386
    82BTZ   C5048987   1.584   6.965  22.651 -0.0404 -0.0377 -0.2396
    82BTZ   C5148988   1.382   6.826  22.599 -0.2462  0.1061  0.1659
    82BTZ   C5248989   1.447   6.957  22.608 -0.1281  0.0578  0.0162
    92RH    C5348990   1.639   7.096  22.667 -0.2044  0.0950  0.1069
    82BTZ    N448991   1.255   6.827  22.558 -0.3232  0.1953  0.4029
    82BTZ    N548992   1.373   7.063  22.575 -0.1101  0.1081  0.1326
    82BTZ    S648993   1.212   6.998  22.529 -0.2464  0.2216  0.4453
    92RH    C5448994   1.759   7.144  22.701 -0.1685  0.1091 -0.0372
    92RH     S748995   1.901   7.049  22.768 -0.0228  0.1003 -0.3565
    92RH    C5548996   1.796   7.287  22.690 -0.2441  0.1349  0.0448
    92RH     O248997   1.722   7.378  22.649 -0.3476  0.1466  0.2522
    92RH     N648998   1.928   7.310  22.733 -0.1837  0.1455 -0.1426
    92RH    C5648999   2.002   7.202  22.778 -0.0689  0.1311 -0.3662
    92RH    C5749000   1.983   7.449  22.719 -0.1408  1.0115  0.2904
    92RH    C5849001   2.079   7.461  22.602 -0.1754 -0.5338  0.1165
    92RH     S849002   2.161   7.202  22.834  0.0219  0.1390 -0.6189
    72IDQ   C5949003   1.029   6.252  22.279 -0.4539  0.6762 -0.2888
    72IDQ   C6049004   1.008   6.092  22.260 -0.0207  0.1469 -0.6105
    72IDQ   C6149005   1.083   6.033  22.144  0.4941  0.0354  0.0253
    72IDQ   C6249006   1.234   6.042  22.140  0.3580 -0.8999  0.5852
    72IDQ   C6349007   1.270   6.077  21.999  0.4425 -0.5602  0.6669
    72IDQ   C6449008   1.427   6.106  21.990  0.8370  0.5570  0.1940
    72IDQ   C6549009   1.466   6.148  21.846  0.3063  0.1216 -0.1917
    72IDQ   C6649010   0.996   6.357  22.732 -0.1558 -0.1856  0.0764
    72IDQ   C6749011   1.110   6.399  22.816  0.0464 -0.6922 -0.4072
    72IDQ   C6849012   1.147   6.282  22.902  0.2984  0.8993 -0.0325
    72IDQ   C6949013   1.256   6.301  23.013 -0.0499 -0.6369 -0.2045
    72IDQ   C7049014   1.395   6.313  22.973 -0.3602 -0.0805  1.2182
    72IDQ   C7149015   1.494   6.357  23.078 -1.3315 -0.2739 -0.1722
    72IDQ   C7249016   1.631   6.382  23.028 -0.2169  0.2293  1.2857
    11RH     C149017   7.063   0.465  22.568  0.0188 -0.0935 -0.1001
    11RH     C249018   7.188   0.475  22.647  0.0522 -0.2044 -0.1378
    11RH     N149019   7.027   0.589  22.511 -0.0419  0.0012  0.1441
    11RH     S149020   7.250   0.647  22.642  0.0015 -0.1769  0.1506
    11RH     C349021   7.108   0.698  22.536 -0.0615 -0.0203  0.3066
    11RH     C449022   6.899   0.609  22.439 -0.0733  1.2081 -0.5599
    11RH     S249023   7.089   0.856  22.480 -0.1311  0.0764  0.6051
    11RH     O149024   6.996   0.361  22.551  0.0404 -0.0826 -0.2594
    11RH     C549025   7.243   0.371  22.711  0.1105 -0.3072 -0.3524
    21BTZ    C649026   7.365   0.340  22.782 -0.1304 -0.3929 -0.5402
    21BTZ    C749027   7.466   0.430  22.795 -0.4073 -0.0805 -0.5207
    21BTZ    C849028   7.380   0.209  22.839  0.1266 -0.2402 -0.2565
    21BTZ    C949029   7.588   0.397  22.866 -0.4456  0.3946 -0.2236
    21BTZ   C1049030   7.607   0.274  22.922 -0.2070  0.5565  0.0535
    21BTZ   C1149031   7.504   0.176  22.910  0.0875  0.2427  0.0458
    21BTZ    N249032   7.288   0.113  22.832  0.4073 -0.5117 -0.2446
    21BTZ    N349033   7.511   0.052  22.961  0.3371  0.3593  0.2999
    21BTZ    S349034   7.357  -0.028  22.918  0.6390 -0.1541  0.1605
    31IDT   C1249035   7.747   0.242  22.960  0.3659 -0.4065  0.3052
    31IDT   C1349036   7.803   0.139  23.030  0.8336 -0.5422 -0.2513
    31IDT   C1449037   7.940   0.161  23.063  0.8874 -0.3447 -0.5994
    31IDT   C1549038   7.990   0.282  23.019  0.4621 -0.0579 -0.3108
    31IDT    S449039   7.866   0.377  22.931 -0.0441 -0.0151  0.4304
    4IDB    C1649040   8.124   0.295  23.055  0.4222 -0.3412 -0.0168
    4IDB    C1749041   8.164   0.180  23.129  0.5683 -0.6312 -0.5350
    51IDQ   C1849042   8.046   0.079  23.135 -0.3173  0.4198  0.9422
    4IDB    C1949043   8.293   0.167  23.179  0.4455 -0.4484 -0.1597
    51IDQ   C2049044   8.103  -0.067  23.076  0.1038 -0.9707 -0.0563
    51IDQ   C2149045   7.995   0.042  23.276  1.1577  0.1017 -0.9083
    51IDQ   C2249046   8.051   0.098  23.402 -1.1763 -0.4377  0.1442
    51IDQ   C2349047   8.073  -0.124  22.937 -0.8626  0.7798  0.1595
    51IDQ   C2449048   8.068   0.243  23.414  0.2041  0.5211 -0.3707
    51IDQ   C2549049   8.118   0.296  23.554  0.3970 -0.4138 -0.0971
    51IDQ   C2649050   8.059   0.426  23.580 -0.3787 -0.8821  0.1466
    51IDQ   C2749051   8.108   0.463  23.720  0.0473 -0.3133 -1.3759
    51IDQ   C2849052   8.065   0.615  23.754  0.5097  0.3838 -0.0607
    51IDQ   C2949053   8.188   0.708  23.781  0.2168 -0.1546  0.2450
    51IDQ   C3049054   8.134  -0.269  22.933 -0.0702 -0.8691  0.6704
    51IDQ   C3149055   8.149  -0.316  22.787 -0.5769  0.2024  0.4557
    51IDQ   C3249056   8.154  -0.472  22.784 -0.2725 -0.1432  0.2091
    51IDQ   C3349057   8.103  -0.558  22.661  0.0778 -0.4588 -0.9331
    51IDQ   C3449058   8.176  -0.694  22.668 -0.3232 -0.0045 -0.3766
    51IDQ   C3549059   8.134  -0.790  22.554  0.9270 -0.0737 -0.7201
    4IDB    C3649060   8.215   0.399  23.029  0.1507  0.1362  0.8855
    4IDB    C3749061   8.346   0.385  23.081  0.0285  0.3169  1.2579
    11RH    C3849062   6.867   0.567  22.299 -0.6471 -0.8198 -0.1237
    4IDB    C3949063   8.383   0.271  23.153  0.1740  0.0291  0.7432
    62IDT   C4049064   8.525   0.271  23.182  0.0567 -0.5146  0.2964
    72IDQ   C4149065   8.468   0.484  23.073 -0.3498  1.5442  1.1742
    62IDT   C4249066   8.576   0.391  23.137 -0.0837 -0.5223  0.1163
    72IDQ   C4349067   8.455   0.612  23.165 -0.9249  1.3556  0.5276
    72IDQ   C4449068   8.504   0.529  22.924  0.2194 -0.0416  0.8685
    62IDT    S549069   8.651   0.170  23.261  0.1811 -0.2603  0.4249
    62IDT   C4549070   8.772   0.302  23.227  0.0294 -0.1736  0.2184
    62IDT   C4649071   8.716   0.409  23.162 -0.0993 -0.3296  0.0720
    82BTZ   C4749072   8.903   0.286  23.294  0.3714 -0.5006  0.2162
    82BTZ   C4849073   8.923   0.182  23.381  0.7078 -0.3459  0.3247
    82BTZ   C4949074   9.054   0.153  23.435  0.8357  0.0239  0.2184
    82BTZ   C5049075   9.164   0.228  23.402  0.6270  0.2385  0.0042
    82BTZ   C5149076   9.014   0.367  23.256  0.1428 -0.2869 -0.0076
    82BTZ   C5249077   9.147   0.338  23.311  0.2728  0.0889 -0.1159
    92RH    C5349078   9.291   0.207  23.468 -0.1363 -0.0522  0.1025
    82BTZ    N449079   9.007   0.471  23.172 -0.1899 -0.4072 -0.1302
    82BTZ    N549080   9.246   0.418  23.272  0.0446  0.2708 -0.3247
    82BTZ    S649081   9.173   0.537  23.160 -0.3545 -0.0371 -0.3940
    92RH    C5449082   9.340   0.127  23.564  0.0140 -0.1609 -0.0634
    92RH     S749083   9.247   0.003  23.662  0.2056 -0.3995 -0.1820
    92RH    C5549084   9.482   0.128  23.606  0.0488 -0.1019 -0.1807
    92RH     O249085   9.571   0.201  23.559 -0.0547  0.0519 -0.1397
    92RH     N649086   9.506   0.034  23.709  0.2177 -0.2440 -0.3479
    92RH    C5649087   9.400  -0.042  23.754  0.3223 -0.4097 -0.3796
    92RH    C5749088   9.637   0.035  23.771 -1.4384  1.0051 -0.2341
    92RH    C5849089   9.727  -0.069  23.700  0.0837  0.3123 -0.1809
    92RH     S849090   9.402  -0.160  23.874  0.5273 -0.5997 -0.5660
    72IDQ   C5949091   8.399   0.628  22.864 -0.2684 -0.3835 -0.7624
    72IDQ   C6049092   8.455   0.742  22.776  0.3299  0.1637  0.4753
    72IDQ   C6149093   8.542   0.697  22.654 -0.5668 -0.4152  0.3786
    72IDQ   C6249094   8.469   0.612  22.549  0.1602 -0.2411 -0.5342
    72IDQ   C6349095   8.563   0.546  22.452  1.0092  0.9414  0.7690
    72IDQ   C6449096   8.492   0.475  22.334  1.2318  0.4442  0.4085
    72IDQ   C6549097   8.563   0.380  22.244 -0.3339 -0.7459 -0.0566
    72IDQ   C6649098   8.410   0.622  23.315 -0.7930 -0.0363  0.0442
    72IDQ   C6749099   8.403   0.764  23.364 -0.7699 -0.6757  0.0485
    72IDQ   C6849100   8.540   0.819  23.410  0.1076  1.0086 -0.5087
    72IDQ   C6949101   8.578   0.963  23.375 -0.7342 -0.0299 -0.2053
    72IDQ   C7049102   8.494   1.082  23.395  0.7240 -0.5598  0.1167
    72IDQ   C7149103   8.411   1.081  23.528  1.0802 -0.6337  0.1598
    72IDQ   C7249104   8.336   1.213  23.552  0.8130  0.0083 -0.3817
    11RH     C149105   3.125   6.070  21.337  0.2745 -0.5242  0.1078
    11RH     C249106   3.013   6.019  21.420  0.1691 -0.4319  0.0234
    11RH     N149107   3.155   6.205  21.369  0.3859 -0.5602  0.1550
    11RH     S149108   2.955   6.150  21.534  0.2233 -0.3982  0.0126
    11RH     C349109   3.081   6.267  21.467  0.3827 -0.5077  0.1192
    11RH     C449110   3.260   6.277  21.284 -0.4739  0.2683 -0.2815
    11RH     S249111   3.097   6.425  21.523  0.5013 -0.5345  0.1616
    11RH     O149112   3.186   6.006  21.251  0.2685 -0.5664  0.1340
    11RH     C549113   2.965   5.894  21.410  0.0532 -0.3827 -0.0340
    21BTZ    C649114   2.851   5.822  21.476 -0.1126 -0.0848  0.4825
    21BTZ    C749115   2.764   5.876  21.567 -0.2762 -0.1791  0.3848
    21BTZ    C849116   2.842   5.681  21.447 -0.0290 -0.0658  0.3595
    21BTZ    C949117   2.666   5.796  21.635 -0.3653 -0.2590  0.1631
    21BTZ   C1049118   2.653   5.662  21.611 -0.2906 -0.2444  0.0395
    21BTZ   C1149119   2.742   5.600  21.516 -0.1194 -0.1470  0.1340
    21BTZ    N249120   2.920   5.617  21.361  0.1300  0.0230  0.4368
    21BTZ    N349121   2.739   5.470  21.485 -0.0333 -0.1236  0.0300
    21BTZ    S349122   2.868   5.446  21.363  0.1717  0.0059  0.2192
    31IDT   C1249123   2.565   5.590  21.703 -0.8269 -0.7250 -0.5267
    31IDT   C1349124   2.583   5.465  21.756 -0.6904 -0.4779  0.0248
    31IDT   C1449125   2.491   5.435  21.860 -0.2384  0.1212  0.6118
    31IDT   C1549126   2.402   5.536  21.888 -0.0277  0.3344  0.5112
    31IDT    S449127   2.429   5.679  21.782 -0.3889 -0.2122 -0.3425
    4IDB    C1649128   2.321   5.496  21.990 -0.4452 -0.0701 -0.0863
    4IDB    C1749129   2.354   5.362  22.027 -0.1907  0.0284  0.0539
    51IDQ   C1849130   2.472   5.300  21.950  0.4680 -1.1724  0.1183
    4IDB    C1949131   2.280   5.295  22.124 -0.1396 -0.0504  0.0388
    51IDQ   C2049132   2.600   5.256  22.035  0.8734 -0.5876 -0.3860
    51IDQ   C2149133   2.435   5.180  21.856 -0.4720 -0.0446  0.3569
    51IDQ   C2249134   2.284   5.143  21.828 -0.4080 -0.9563 -0.2462
    51IDQ   C2349135   2.710   5.367  22.052  1.0247 -0.0111  0.0759
    51IDQ   C2449136   2.257   5.046  21.712 -0.1988 -0.2898 -0.2121
    51IDQ   C2549137   2.109   5.034  21.676 -0.7198  0.7817  0.2865
    51IDQ   C2649138   2.003   5.093  21.766  0.4355  1.1746 -0.0987
    51IDQ   C2749139   1.895   5.166  21.692  0.8440  0.2926  0.1600
    51IDQ   C2849140   1.811   5.099  21.578  0.2060  1.7903  0.5144
    51IDQ   C2949141   1.720   4.982  21.605  0.4823 -0.9134  0.1651
    51IDQ   C3049142   2.743   5.365  22.199 -0.6398 -0.0008 -0.5649
    51IDQ   C3149143   2.828   5.488  22.228  0.5252 -1.0777 -0.8434
    51IDQ   C3249144   2.837   5.498  22.388 -0.0514 -1.0097  0.0382
    51IDQ   C3349145   2.887   5.646  22.441  0.1522  0.0722  0.4228
    51IDQ   C3449146   2.852   5.692  22.588 -0.7622  0.0404  0.8310
    51IDQ   C3549147   2.881   5.843  22.599 -0.0241 -0.6817 -0.0144
    4IDB    C3649148   2.215   5.564  22.051 -0.6513 -0.2490 -0.2437
    4IDB    C3749149   2.141   5.494  22.150 -0.5955 -0.3271 -0.2570
    11RH    C3849150   3.402   6.284  21.329 -0.6300 -1.2385  0.5490
    4IDB    C3949151   2.174   5.363  22.185 -0.3457 -0.2293 -0.1183
    62IDT   C4049152   2.105   5.329  22.305  0.2051  0.3897  0.6965
    72IDQ   C4149153   2.015   5.545  22.227 -0.3509  0.4705 -0.9541
    62IDT   C4249154   2.021   5.434  22.336  0.0154  0.2240  0.7510
    72IDQ   C4349155   1.888   5.518  22.126  0.2221 -0.1347  0.8421
    72IDQ   C4449156   2.023   5.690  22.269 -0.2086 -0.9029 -0.2138
    62IDT    S549157   2.090   5.195  22.424 -0.4853 -0.2266 -0.0635
    62IDT   C4549158   1.966   5.293  22.513 -1.0203 -0.6987 -0.2774
    62IDT   C4649159   1.943   5.414  22.454 -0.6776 -0.3915  0.2007
    82BTZ   C4749160   1.921   5.239  22.641  0.1777  0.0723  0.1183
    82BTZ   C4849161   1.993   5.135  22.693  0.3288  0.2865  0.3443
    82BTZ   C4949162   1.955   5.072  22.817  0.4216  0.5012  0.4821
    82BTZ   C5049163   1.846   5.114  22.889  0.3630  0.5010  0.3937
    82BTZ   C5149164   1.807   5.287  22.712  0.1111  0.0631  0.0176
    82BTZ   C5249165   1.768   5.223  22.839  0.2054  0.2813  0.1574
    92RH    C5349166   1.796   5.042  23.010  0.0366  0.3530 -0.0348
    82BTZ    N449167   1.729   5.388  22.671 -0.0347 -0.1348 -0.2007
    82BTZ    N549168   1.660   5.272  22.899  0.1353  0.2586  0.0520
    82BTZ    S649169   1.601   5.406  22.795 -0.0582 -0.0490 -0.2366
    92RH    C5449170   1.833   4.928  23.069 -0.0030  0.3278 -0.0582
    92RH     S749171   1.949   4.803  23.003  0.0940  0.3888 -0.0033
    92RH    C5549172   1.783   4.885  23.202 -0.1360  0.2438 -0.1349
    92RH     O249173   1.702   4.948  23.273 -0.2250  0.1880 -0.1860
    92RH     N649174   1.838   4.761  23.240 -0.1509  0.2342 -0.1448
    92RH    C5649175   1.926   4.699  23.154 -0.0460  0.3003 -0.0849
    92RH    C5749176   1.787   4.703  23.364 -0.1424 -0.0144 -1.2656
    92RH    C5849177   1.668   4.609  23.345  0.4866 -0.1210  0.1218
    92RH     S849178   2.006   4.552  23.175 -0.0383  0.3049 -0.0806
    72IDQ   C5949179   1.933   5.743  22.383 -0.3069 -0.5315 -1.0233
    72IDQ   C6049180   1.963   5.889  22.424  0.1089  0.8936  0.4313
    72IDQ   C6149181   1.864   5.938  22.518  0.7292 -0.2878  0.0197
    72IDQ   C6249182   1.892   6.078  22.571 -0.3156 -0.4027  0.4848
    72IDQ   C6349183   1.837   6.096  22.707  0.2693  0.4652 -1.1630
    72IDQ   C6449184   1.882   6.231  22.777 -1.4248  1.1325  0.1597
    72IDQ   C6549185   2.036   6.250  22.831  0.8611  0.4478 -0.3287
    72IDQ   C6649186   1.892   5.523  21.967 -0.0567  0.2740 -1.4971
    72IDQ   C6749187   1.755   5.503  21.906 -0.1229  0.5091  0.3607
    72IDQ   C6849188   1.758   5.468  21.760  0.4946 -0.5966  0.3580
    72IDQ   C6949189   1.631   5.477  21.678  0.3036 -0.7243  0.4194
    72IDQ   C7049190   1.521   5.376  21.722 -0.1218 -0.2593 -0.1057
    72IDQ   C7149191   1.395   5.377  21.635 -0.1356 -0.1441  0.2497
    72IDQ   C7249192   1.283   5.297  21.711  0.0771 -0.0723 -0.5165
    11RH     C149193   7.051   5.929  25.601 -0.2230  0.0838  0.0272
    11RH     C249194   6.947   5.905  25.498  0.0097  0.1594 -0.2246
    11RH     N149195   7.046   6.063  25.648 -0.2785  0.0704  0.0600
    11RH     S149196   6.851   6.058  25.468  0.1404  0.2079 -0.4024
    11RH     C349197   6.952   6.148  25.594 -0.1187  0.1260 -0.1349
    11RH     C449198   7.121   6.102  25.773  1.0212 -0.5312 -0.1060
    11RH     S249199   6.926   6.310  25.632 -0.1419  0.1242 -0.1431
    11RH     O149200   7.132   5.846  25.644 -0.3560  0.0370  0.1922
    11RH     C549201   6.930   5.787  25.437  0.1037  0.1860 -0.3044
    21BTZ    C649202   6.828   5.733  25.341 -0.0228  0.1404 -0.4045
    21BTZ    C749203   6.715   5.798  25.298  0.0350  0.1909 -0.4802
    21BTZ    C849204   6.859   5.604  25.286 -0.0926  0.0851 -0.3147
    21BTZ    C949205   6.628   5.739  25.199  0.0272  0.1893 -0.4721
    21BTZ   C1049206   6.653   5.617  25.144 -0.0386  0.1374 -0.3880
    21BTZ   C1149207   6.770   5.545  25.186 -0.1006  0.0836 -0.3066
    21BTZ    N249208   6.966   5.532  25.320 -0.1529  0.0331 -0.2346
    21BTZ    N349209   6.806   5.425  25.139 -0.1674  0.0304 -0.2208
    21BTZ    S349210   6.957   5.382  25.223 -0.2240 -0.0210 -0.1452
    31IDT   C1249211   6.541   5.556  25.063  0.1101 -0.3586 -0.7125
    31IDT   C1349212   6.484   5.432  25.077  0.0666 -0.3872 -1.1153
    31IDT   C1449213   6.374   5.411  24.988 -0.3121  0.1644 -0.7901
    31IDT   C1549214   6.347   5.519  24.905 -0.5592  0.6160 -0.1389
    31IDT    S449215   6.460   5.656  24.934 -0.3293  0.3755  0.1165
    4IDB    C1649216   6.231   5.480  24.824 -0.3423  0.1283 -0.4431
    4IDB    C1749217   6.177   5.361  24.881 -0.0983 -0.0770 -0.6385
    51IDQ   C1849218   6.274   5.301  24.983 -0.0560  0.4856 -0.7896
    4IDB    C1949219   6.062   5.302  24.829 -0.0765 -0.1317 -0.6255
    51IDQ   C2049220   6.208   5.244  25.118  0.1455 -0.7145 -0.3336
    51IDQ   C2149221   6.352   5.180  24.907  0.8976  0.7413 -0.9460
    51IDQ   C2249222   6.395   5.038  24.958  0.3965 -0.1365  0.0299
    51IDQ   C2349223   6.238   5.328  25.244  0.0258  0.7389 -0.4310
    51IDQ   C2449224   6.460   4.937  24.869  0.3554 -0.0417  0.8143
    51IDQ   C2549225   6.345   4.864  24.790 -0.3827  0.7334 -0.6919
    51IDQ   C2649226   6.403   4.766  24.679 -0.8160  0.0626 -0.3634
    51IDQ   C2749227   6.520   4.670  24.725 -0.4464  0.6505 -0.2634
    51IDQ   C2849228   6.568   4.557  24.622 -0.4115 -0.2222  0.2975
    51IDQ   C2949229   6.488   4.459  24.543 -0.6844 -0.7504  0.1132
    51IDQ   C3049230   6.226   5.236  25.369  0.1274 -0.6372 -0.9598
    51IDQ   C3149231   6.257   5.323  25.498  0.4267  0.1341 -1.0890
    51IDQ   C3249232   6.253   5.247  25.629  0.2183  0.4572  0.1477
    51IDQ   C3349233   6.293   5.332  25.751 -0.0300 -1.0363 -0.1035
    51IDQ   C3449234   6.248   5.277  25.890 -0.2594  0.3776 -0.5116
    51IDQ   C3549235   6.249   5.381  26.003  0.2880 -0.2252  0.7762
    4IDB    C3649236   6.169   5.542  24.714 -0.5672  0.2809 -0.2317
    4IDB    C3749237   6.051   5.481  24.663 -0.5411  0.2220 -0.2217
    11RH    C3849238   7.052   6.107  25.908 -0.7603  1.2225 -0.3433
    4IDB    C3949239   6.000   5.365  24.720 -0.3014  0.0206 -0.4151
    62IDT   C4049240   5.880   5.323  24.650  0.1985 -0.0129  0.0481
    72IDQ   C4149241   5.966   5.526  24.544  1.1537  0.4740  0.3438
    62IDT   C4249242   5.854   5.416  24.551  0.3217  0.0098  0.0372
    72IDQ   C4349243   6.057   5.539  24.412 -0.7361 -0.1756  0.6416
    72IDQ   C4449244   5.938   5.670  24.569  0.0904 -0.6216  0.1041
    62IDT    S549245   5.755   5.194  24.654  0.2341 -0.0566 -0.1880
    62IDT   C4549246   5.671   5.277  24.516  0.4226 -0.0406 -0.2946
    62IDT   C4649247   5.736   5.390  24.475  0.4485 -0.0057 -0.1574
    82BTZ   C4749248   5.550   5.214  24.453 -0.2070  0.1220 -0.0719
    82BTZ   C4849249   5.478   5.115  24.515 -0.2074  0.0420 -0.1993
    82BTZ   C4949250   5.360   5.059  24.455 -0.0337 -0.0958 -0.4134
    82BTZ   C5049251   5.314   5.101  24.333  0.1400 -0.1536 -0.4991
    82BTZ   C5149252   5.506   5.262  24.325 -0.0285  0.0660 -0.1550
    82BTZ   C5249253   5.386   5.204  24.264  0.1481 -0.0741 -0.3724
    92RH    C5349254   5.199   5.053  24.255 -0.1530 -0.0214 -0.1511
    82BTZ    N449255   5.568   5.357  24.256 -0.0099  0.1338 -0.0458
    82BTZ    N549256   5.352   5.254  24.145  0.3085 -0.1191 -0.4377
    82BTZ    S649257   5.474   5.379  24.105  0.2395  0.0189 -0.2204
    92RH    C5449258   5.103   4.964  24.282 -0.1192 -0.0278 -0.0496
    92RH     S749259   5.096   4.849  24.425  0.0299 -0.0149 -0.0320
    92RH    C5549260   4.984   4.944  24.196 -0.2006 -0.0471  0.0677
    92RH     O249261   4.959   5.006  24.092 -0.3077 -0.0591  0.0854
    92RH     N649262   4.899   4.844  24.248 -0.1414 -0.0501  0.1591
    92RH    C5649263   4.936   4.781  24.365 -0.0223 -0.0355  0.1302
    92RH    C5749264   4.768   4.805  24.174 -0.3218  0.5676 -0.6299
    92RH    C5849265   4.631   4.838  24.233  0.7284 -0.6933  0.5664
    92RH     S849266   4.853   4.659  24.447  0.0682 -0.0358  0.2217
    72IDQ   C5949267   5.848   5.752  24.479  0.2788  0.3138  0.0948
    72IDQ   C6049268   5.829   5.894  24.534  0.6221  0.2230  0.2758
    72IDQ   C6149269   5.703   5.952  24.471 -0.5146  0.3514 -0.3222
    72IDQ   C6249270   5.707   6.107  24.515 -0.4917  0.1701  0.2279
    72IDQ   C6349271   5.657   6.151  24.654  0.7616  1.4473  0.2184
    72IDQ   C6449272   5.683   6.296  24.703 -0.2726  0.3530  0.4899
    72IDQ   C6549273   5.729   6.315  24.844 -0.6765  0.9920 -0.4281
    72IDQ   C6649274   5.994   5.525  24.277  0.3391  0.0559  1.0586
    72IDQ   C6749275   6.086   5.566  24.165 -0.2565 -0.3651  0.1429
    72IDQ   C6849276   6.034   5.541  24.030 -0.4020 -0.2296  0.7306
    72IDQ   C6949277   6.131   5.535  23.911 -0.1282  0.4965  0.9503
    72IDQ   C7049278   6.179   5.675  23.871  1.1070  0.5396  0.1630
    72IDQ   C7149279   6.235   5.686  23.729  0.2995 -0.0662  0.1556
    72IDQ   C7249280   6.262   5.830  23.681  0.2296 -0.8435  0.3358
    11RH     C149281   0.332   6.046  27.449  0.0395 -0.3688 -0.2041
    11RH     C249282   0.458   6.003  27.384  0.0501 -0.3972 -0.1650
    11RH     N149283   0.222   6.032  27.361  0.0405 -0.4937 -0.1850
    11RH     S149284   0.424   5.947  27.213  0.0606 -0.5860 -0.1052
    11RH     C349285   0.245   5.983  27.235  0.0505 -0.6185 -0.1349
    11RH     C449286   0.088   6.070  27.413 -0.1989 -0.0885 -0.2625
    11RH     S249287   0.132   5.956  27.112  0.0538 -0.7806 -0.1035
    11RH     O149288   0.321   6.090  27.564  0.0308 -0.2517 -0.2484
    11RH     C549289   0.577   6.007  27.445  0.0515 -0.2971 -0.1735
    21BTZ    C649290   0.714   5.986  27.403  0.0472 -0.0825  0.0196
    21BTZ    C749291   0.750   5.955  27.275  0.0502 -0.0727  0.0176
    21BTZ    C849292   0.817   6.009  27.500  0.0449 -0.0592  0.0157
    21BTZ    C949293   0.889   5.945  27.236  0.0511 -0.0398  0.0134
    21BTZ   C1049294   0.991   5.967  27.325  0.0490 -0.0169  0.0100
    21BTZ   C1149295   0.958   6.000  27.460  0.0458 -0.0260  0.0114
    21BTZ    N249296   0.794   6.040  27.628  0.0419 -0.0660  0.0176
    21BTZ    N349297   1.048   6.023  27.556  0.0436 -0.0058  0.0091
    21BTZ    S349298   0.955   6.059  27.704  0.0402 -0.0291  0.0118
    31IDT   C1249299   1.129   5.971  27.267 -0.2830 -0.9437 -0.0069
    31IDT   C1349300   1.240   5.920  27.329 -0.3912 -1.3843 -0.1640
    31IDT   C1449301   1.347   5.894  27.239 -0.3518 -1.0675 -0.2122
    31IDT   C1549302   1.320   5.924  27.108 -0.2136 -0.3849 -0.0930
    31IDT    S449303   1.153   5.989  27.087 -0.1219 -0.0876  0.0926
    4IDB    C1649304   1.423   5.888  27.021 -0.1492 -0.4621  0.0850
    4IDB    C1749305   1.517   5.818  27.101  0.0114 -0.0311  0.2789
    51IDQ   C1849306   1.479   5.827  27.244 -0.2239 -0.2547 -0.9039
    4IDB    C1949307   1.622   5.747  27.044  0.2185  0.1151  0.4748
    51IDQ   C2049308   1.465   5.682  27.299  0.3737  0.2381  0.1967
    51IDQ   C2149309   1.587   5.898  27.337 -0.1835  0.0666 -0.6486
    51IDQ   C2249310   1.732   5.927  27.290 -0.4271  0.2693 -1.0285
    51IDQ   C2349311   1.335   5.603  27.299  1.2449  0.0333  0.3444
    51IDQ   C2449312   1.823   5.995  27.398  0.3126 -0.7210 -0.6691
    51IDQ   C2549313   1.953   6.064  27.353 -0.7959  0.5242  0.1764
    51IDQ   C2649314   2.058   5.977  27.271  0.1676  0.4116 -0.4906
    51IDQ   C2749315   2.093   6.021  27.132  0.2027 -0.1044  0.2948
    51IDQ   C2849316   2.132   5.896  27.066 -0.1136  0.1037 -0.2112
    51IDQ   C2949317   2.280   5.849  27.082 -0.0765 -0.2623  0.4426
    51IDQ   C3049318   1.350   5.461  27.344  0.3397  0.0480  0.2889
    51IDQ   C3149319   1.236   5.371  27.301 -0.5659  0.5543  1.0176
    51IDQ   C3249320   1.246   5.243  27.387 -0.4366  1.1202  0.3668
    51IDQ   C3349321   1.147   5.217  27.504 -0.4366 -0.5687  0.2935
    51IDQ   C3449322   1.165   5.083  27.565  1.0269 -0.0177 -1.0537
    51IDQ   C3549323   1.270   5.074  27.673 -0.0284  0.7561 -0.0587
    4IDB    C3649324   1.433   5.888  26.881 -0.1031 -0.7511  0.0863
    4IDB    C3749325   1.541   5.816  26.823  0.1093 -0.5959  0.2885
    11RH    C3849326   0.014   5.953  27.471 -0.2970  0.3567  0.9629
    4IDB    C3949327   1.633   5.748  26.904  0.2645 -0.1738  0.4763
    62IDT   C4049328   1.740   5.684  26.820 -0.0941 -0.1256  0.3025
    72IDQ   C4149329   1.576   5.798  26.673 -0.0868  0.4309 -0.3187
    62IDT   C4249330   1.706   5.704  26.688 -0.3063 -0.2586  0.3352
    72IDQ   C4349331   1.583   5.919  26.583  0.8517  0.1400 -0.6484
    72IDQ   C4449332   1.500   5.683  26.597 -0.0791 -0.5065 -0.1353
    62IDT    S549333   1.897   5.600  26.838  0.1420  0.2791  0.1425
    62IDT   C4549334   1.910   5.596  26.656 -0.0690  0.2454  0.1271
    62IDT   C4649335   1.802   5.654  26.595 -0.2924 -0.0489  0.2365
    82BTZ   C4749336   2.031   5.539  26.589 -0.1487  0.1024  0.0579
    82BTZ   C4849337   2.100   5.435  26.645 -0.0233  0.2190  0.1197
    82BTZ   C4949338   2.219   5.381  26.583 -0.0201  0.2538  0.0958
    82BTZ   C5049339   2.268   5.432  26.465 -0.1423  0.1721  0.0109
    82BTZ   C5149340   2.078   5.595  26.466 -0.2795  0.0137 -0.0329
    82BTZ   C5249341   2.198   5.541  26.403 -0.2763  0.0492 -0.0572
    92RH    C5349342   2.388   5.378  26.409 -0.2298 -0.4126 -0.0962
    82BTZ    N449343   2.018   5.697  26.403 -0.4082 -0.1025 -0.0997
    82BTZ    N549344   2.236   5.598  26.289 -0.4023 -0.0386 -0.1431
    82BTZ    S649345   2.116   5.727  26.256 -0.5333 -0.1730 -0.1983
    92RH    C5449346   2.474   5.280  26.437 -0.1160 -0.2594  0.0944
    92RH     S749347   2.474   5.173  26.587  0.2119  0.2506  0.4649
    92RH    C5549348   2.586   5.241  26.349 -0.2433 -0.4888  0.0310
    92RH     O249349   2.613   5.294  26.240 -0.4659 -0.8426 -0.2017
    92RH     N649350   2.661   5.135  26.403 -0.0788 -0.2536  0.2703
    92RH    C5649351   2.622   5.083  26.525  0.1647  0.1363  0.5183
    92RH    C5749352   2.779   5.089  26.328  1.0006 -0.2658  0.1048
    92RH    C5849353   2.906   5.162  26.345 -0.4096 -0.9119 -0.7380
    92RH     S849354   2.694   4.957  26.611  0.3964  0.4770  0.8311
    72IDQ   C5949355   1.351   5.704  26.584  0.5791 -0.8211  0.1272
    72IDQ   C6049356   1.300   5.659  26.450  0.4916 -0.0748  0.8045
    72IDQ   C6149357   1.154   5.700  26.437 -0.5612 -1.4579  0.2105
    72IDQ   C6249358   1.091   5.663  26.304 -0.2832  0.0346 -0.4144
    72IDQ   C6349359   0.964   5.733  26.255  0.4353 -0.6694 -0.2749
    72IDQ   C6449360   0.913   5.654  26.125  0.0654  0.3248  0.5802
    72IDQ   C6549361   0.845   5.520  26.156  0.5387  0.1759 -0.1937
    72IDQ   C6649362   1.616   6.063  26.632  0.4750  0.4575 -0.2950
    72IDQ   C6749363   1.763   6.062  26.679  0.5595 -0.4263  1.0388
    72IDQ   C6849364   1.781   6.186  26.775  1.1225  1.1143 -0.3360
    72IDQ   C6949365   1.731   6.168  26.924 -1.1401 -0.0378 -0.5624
    72IDQ   C7049366   1.714   6.282  27.027  0.2550  0.1141 -0.8304
    72IDQ   C7149367   1.631   6.389  26.972  1.3076 -1.2587 -0.1130
    72IDQ   C7249368   1.624   6.531  27.028  0.7150 -0.6867 -0.3078
    11RH     C149369   6.723   5.918  15.777 -0.3557 -0.2998 -0.2155
    11RH     C249370   6.629   6.010  15.709 -0.1533 -0.0137 -0.1113
    11RH     N149371   6.844   5.906  15.704 -0.2251 -0.1666 -0.0219
    11RH     S149372   6.705   6.075  15.555  0.1954  0.4119  0.2351
    11RH     C349373   6.858   5.977  15.587  0.0570  0.1912  0.2248
    11RH     C449374   6.952   5.817  15.754  0.3881  0.6704  1.0208
    11RH     S249375   6.990   5.980  15.483  0.2611  0.4153  0.4890
    11RH     O149376   6.701   5.857  15.883 -0.6088 -0.6182 -0.4437
    11RH     C549377   6.507   6.039  15.757 -0.2231 -0.0690 -0.2546
    21BTZ    C649378   6.400   6.114  15.706 -0.0276 -0.8502  0.0793
    21BTZ    C749379   6.410   6.186  15.590  0.1817 -0.9097  0.0606
    21BTZ    C849380   6.272   6.106  15.770 -0.0812 -0.5771  0.0093
    21BTZ    C949381   6.297   6.254  15.532  0.3474 -0.7056 -0.0272
    21BTZ   C1049382   6.173   6.249  15.590  0.3038 -0.4420 -0.0960
    21BTZ   C1149383   6.156   6.175  15.711  0.0873 -0.3697 -0.0796
    21BTZ    N249384   6.249   6.038  15.883 -0.2787 -0.4944  0.0193
    21BTZ    N349385   6.041   6.163  15.777  0.0249 -0.1200 -0.1414
    21BTZ    S349386   6.075   6.060  15.920 -0.2577 -0.1403 -0.0872
    31IDT   C1249387   6.076   6.353  15.548 -0.7694  0.0339  0.0392
    31IDT   C1349388   5.987   6.416  15.632 -1.2887 -0.0538 -0.4320
    31IDT   C1449389   5.931   6.534  15.575 -0.8521  0.0695 -0.6146
    31IDT   C1549390   5.976   6.563  15.448  0.0006  0.2516 -0.2851
    31IDT    S449391   6.094   6.440  15.390  0.3202  0.2814  0.2879
    4IDB    C1649392   5.922   6.690  15.410  0.5097  0.3643 -0.4561
    4IDB    C1749393   5.836   6.740  15.512  0.6695 -0.1060 -0.0837
    51IDQ   C1849394   5.837   6.639  15.630  0.0429  0.9902  0.5959
    4IDB    C1949395   5.774   6.864  15.499  0.1168 -0.3364  0.2838
    51IDQ   C2049396   5.892   6.725  15.740  0.4297  0.5018 -0.0979
    51IDQ   C2149397   5.701   6.577  15.655  0.6914  0.1450 -0.2787
    51IDQ   C2249398   5.565   6.625  15.602  0.5926 -0.1365 -0.0236
    51IDQ   C2349399   6.043   6.726  15.787  0.1892 -0.5180 -0.0593
    51IDQ   C2449400   5.456   6.530  15.656 -0.1332  0.1085  0.1648
    51IDQ   C2549401   5.385   6.436  15.552 -0.2788 -0.2665 -0.1687
    51IDQ   C2649402   5.258   6.364  15.609 -1.1961 -0.1902  0.5076
    51IDQ   C2749403   5.241   6.246  15.515 -0.7100  0.3890  0.7656
    51IDQ   C2849404   5.122   6.168  15.565  1.4336 -0.0306 -0.4550
    51IDQ   C2949405   5.101   6.042  15.483  0.9073  0.3823 -0.3458
    51IDQ   C3049406   6.043   6.798  15.918  0.4725  0.3415  0.5506
    51IDQ   C3149407   6.172   6.828  15.977  0.2819  0.8441 -0.3564
    51IDQ   C3249408   6.250   6.711  16.036  1.1020 -0.7068  1.5510
    51IDQ   C3349409   6.308   6.734  16.169  0.1889 -0.0022 -0.4677
    51IDQ   C3449410   6.216   6.707  16.288  0.1924 -0.2282 -1.1376
    51IDQ   C3549411   6.281   6.703  16.431  0.2129 -0.3319  0.4041
    4IDB    C3649412   5.946   6.764  15.293 -0.2085  0.6081 -0.4632
    4IDB    C3749413   5.882   6.890  15.281 -0.7662  0.3670 -0.0849
    11RH    C3849414   7.071   5.858  15.833 -0.9285  0.6464 -0.6266
    4IDB    C3949415   5.798   6.937  15.382 -0.6013 -0.0925  0.2769
    62IDT   C4049416   5.755   7.069  15.352  0.2589  0.3386  0.1378
    72IDQ   C4149417   5.898   6.994  15.163  0.2898  0.3323 -0.0065
    62IDT   C4249418   5.816   7.116  15.237  0.2221  0.5726  0.2117
    72IDQ   C4349419   5.817   6.939  15.036 -0.6390 -0.1764  0.8738
    72IDQ   C4449420   6.050   7.015  15.133 -0.0048  0.1191 -0.0240
    62IDT    S549421   5.651   7.194  15.429 -0.0433  0.0513  0.2013
    62IDT   C4549422   5.697   7.308  15.295 -0.2118  0.2735  0.3312
    62IDT   C4649423   5.783   7.251  15.205 -0.0442  0.5358  0.3211
    82BTZ   C4749424   5.633   7.433  15.278  0.0106 -0.0019  0.2767
    82BTZ   C4849425   5.526   7.457  15.359 -0.0043  0.0826  0.2325
    82BTZ   C4949426   5.458   7.585  15.360 -0.0099  0.0807  0.0813
    82BTZ   C5049427   5.498   7.688  15.279 -0.0009 -0.0056 -0.0251
    82BTZ   C5149428   5.679   7.538  15.192  0.0205 -0.0942  0.1693
    82BTZ   C5249429   5.610   7.668  15.192  0.0147 -0.0961  0.0157
    92RH    C5349430   5.417   7.808  15.266 -0.0094 -0.6086  0.0054
    82BTZ    N449431   5.783   7.527  15.108  0.0350 -0.1813  0.1988
    82BTZ    N549432   5.659   7.761  15.109  0.0246 -0.1847 -0.0780
    82BTZ    S649433   5.797   7.685  15.025  0.0421 -0.2714  0.0279
    92RH    C5449434   5.290   7.832  15.303  0.0588 -0.2409  0.0062
    92RH     S749435   5.172   7.712  15.374 -0.2791  0.1133  0.0506
    92RH    C5549436   5.226   7.965  15.292  0.4319 -0.0595 -0.0293
    92RH     O249437   5.279   8.068  15.247  0.7199 -0.2225 -0.0641
    92RH     N649438   5.092   7.962  15.338  0.4232  0.3307 -0.0200
    92RH    C5649439   5.042   7.843  15.385  0.0888  0.4840  0.0198
    92RH    C5749440   5.004   8.081  15.329  0.7111 -0.1151 -1.2048
    92RH    C5849441   5.020   8.204  15.434  0.3988  0.9087 -1.2870
    92RH     S849442   4.888   7.812  15.446  0.0037  0.9373  0.0391
    72IDQ   C5949443   6.106   7.144  15.180 -1.4218 -0.2642  0.2533
    72IDQ   C6049444   6.247   7.202  15.132 -0.1120 -0.3463 -0.6375
    72IDQ   C6149445   6.370   7.120  15.173  0.2881  0.3166  0.9839
    72IDQ   C6249446   6.381   6.998  15.082 -0.8764 -0.0190  0.4470
    72IDQ   C6349447   6.515   6.935  15.081 -1.1558 -0.3897  0.3402
    72IDQ   C6449448   6.531   6.782  15.103  0.7713  0.3718  0.3584
    72IDQ   C6549449   6.454   6.726  15.227  1.1467  0.1555  0.7253
    72IDQ   C6649450   5.669   6.919  15.019  0.4573  0.5580  0.1330
    72IDQ   C6749451   5.619   6.920  14.871 -0.4885 -0.5134 -1.0825
    72IDQ   C6849452   5.475   6.900  14.844  0.9380 -0.4372 -1.6735
    72IDQ   C6949453   5.377   7.006  14.906 -0.0974 -0.2708 -0.4344
    72IDQ   C7049454   5.230   6.965  14.879 -0.0260 -0.3194 -0.2905
    72IDQ   C7149455   5.172   6.847  14.939  0.0657  0.4484 -0.0474
    72IDQ   C7249456   5.148   6.879  15.085  0.5524 -0.2330 -0.0963
    11RH     C149457   6.956   5.742  24.959 -0.1121 -0.1633 -0.0925
    11RH     C249458   7.058   5.635  24.968 -0.0257 -0.0830 -0.1130
    11RH     N149459   6.985   5.849  25.047 -0.1605 -0.1255 -0.1219
    11RH     S149460   7.186   5.681  25.091 -0.0137  0.0369 -0.1704
    11RH     C349461   7.098   5.840  25.126 -0.1234 -0.0247 -0.1640
    11RH     C449462   6.899   5.976  25.049 -0.1612  0.5378 -0.8186
    11RH     S249463   7.156   5.952  25.238 -0.1669  0.0386 -0.2055
    11RH     O149464   6.856   5.741  24.885 -0.1401 -0.2531 -0.0539
    11RH     C549465   7.053   5.523  24.895  0.0329 -0.0989 -0.0927
    21BTZ    C649466   7.131   5.399  24.900  0.0221  0.3759 -0.3357
    21BTZ    C749467   7.225   5.375  24.997  0.0043  0.4700 -0.2947
    21BTZ    C849468   7.124   5.310  24.788 -0.0134  0.2179 -0.2079
    21BTZ    C949469   7.315   5.263  24.989 -0.0492  0.4141 -0.1283
    21BTZ   C1049470   7.312   5.175  24.884 -0.0848  0.2641 -0.0019
    21BTZ   C1149471   7.216   5.196  24.780 -0.0677  0.1611 -0.0381
    21BTZ    N249472   7.037   5.323  24.687 -0.0006  0.1149 -0.2322
    21BTZ    N349473   7.203   5.117  24.672 -0.0986  0.0125  0.0739
    21BTZ    S349474   7.070   5.187  24.575 -0.0588 -0.0625 -0.0356
    31IDT   C1249475   7.413   5.068  24.874 -0.1670  0.3896 -0.1886
    31IDT   C1349476   7.411   4.959  24.791 -0.3228  0.3909 -0.1869
    31IDT   C1449477   7.509   4.861  24.826 -0.5349  0.1997 -0.1159
    31IDT   C1549478   7.587   4.896  24.935 -0.5422  0.0516 -0.0640
    31IDT    S449479   7.541   5.055  25.002 -0.2786  0.1436 -0.1004
    4IDB    C1649480   7.672   4.786  24.977  0.1886  0.5103 -0.0432
    4IDB    C1749481   7.680   4.695  24.868  0.0488  0.4342  0.0110
    51IDQ   C1849482   7.553   4.726  24.770 -0.7027  0.0334 -0.7374
    4IDB    C1949483   7.767   4.587  24.872 -0.1081  0.3083  0.0691
    51IDQ   C2049484   7.619   4.722  24.623 -0.4367 -0.9256 -0.4913
    51IDQ   C2149485   7.417   4.640  24.778 -0.3810  0.0095 -0.2428
    51IDQ   C2249486   7.396   4.527  24.884 -0.2653 -0.4430  0.0383
    51IDQ   C2349487   7.658   4.848  24.536  0.1593 -0.2977  0.6542
    51IDQ   C2449488   7.339   4.584  25.014 -1.1547  0.2909 -0.2499
    51IDQ   C2549489   7.432   4.576  25.140  0.3879 -0.0204 -0.2183
    51IDQ   C2649490   7.467   4.440  25.175  0.2963 -0.5239 -0.5544
    51IDQ   C2749491   7.482   4.414  25.329 -0.4860 -0.0029 -0.1885
    51IDQ   C2849492   7.512   4.259  25.358  0.3072 -1.3974  0.0672
    51IDQ   C2949493   7.478   4.230  25.503 -0.4645  0.4488 -1.3240
    51IDQ   C3049494   7.769   4.926  24.595  0.0118 -0.4803 -0.4034
    51IDQ   C3149495   7.832   5.046  24.531  0.8712 -0.8731 -0.1403
    51IDQ   C3249496   7.931   5.046  24.421 -0.6601  0.1365 -0.4355
    51IDQ   C3349497   7.884   5.065  24.275 -0.5480  0.0380 -0.2596
    51IDQ   C3449498   7.848   4.942  24.188  0.9676  0.2720  0.8259
    51IDQ   C3549499   7.787   4.997  24.060  0.4097  0.7058 -0.2039
    4IDB    C3649500   7.753   4.770  25.091  0.1722  0.4607 -0.0391
    4IDB    C3749501   7.841   4.659  25.093  0.0110  0.3318  0.0210
    11RH    C3849502   6.933   6.071  24.938  0.5898  0.5479 -0.5144
    4IDB    C3949503   7.848   4.571  24.986 -0.1245  0.2586  0.0730
    62IDT   C4049504   7.942   4.463  25.026  0.0736 -0.1106  0.4190
    72IDQ   C4149505   7.939   4.619  25.207 -0.4752  0.2888 -0.1864
    62IDT   C4249506   8.017   4.504  25.134  0.2350 -0.1739  0.3314
    72IDQ   C4349507   7.856   4.568  25.331  0.6833 -0.2063  0.1222
    72IDQ   C4449508   8.030   4.734  25.264  0.4979 -0.0620 -0.1786
    62IDT    S549509   8.006   4.312  24.953  0.1824  0.1297  0.0098
    62IDT   C4549510   8.138   4.312  25.079  0.4535  0.1323 -0.2719
    62IDT   C4649511   8.127   4.419  25.164  0.4500 -0.0365 -0.0591
    82BTZ   C4749512   8.257   4.238  25.071 -0.2645 -0.2616 -0.1405
    82BTZ   C4849513   8.293   4.169  25.184 -0.3387 -0.4500 -0.2303
    82BTZ   C4949514   8.407   4.081  25.186 -0.2743 -0.3676 -0.2723
    82BTZ   C5049515   8.485   4.062  25.075 -0.1359 -0.0970 -0.2239
    82BTZ   C5149516   8.336   4.221  24.952 -0.1193  0.0242 -0.0868
    82BTZ   C5249517   8.452   4.131  24.954 -0.0538  0.1080 -0.1287
    92RH    C5349518   8.615   3.985  25.076  0.2790 -0.2372 -0.6056
    82BTZ    N449519   8.311   4.282  24.836 -0.0362  0.2267  0.0014
    82BTZ    N549520   8.520   4.121  24.839  0.0819  0.3778 -0.0749
    82BTZ    S649521   8.437   4.227  24.722  0.1327  0.5396  0.0349
    92RH    C5449522   8.684   3.915  25.166  0.1878 -0.0631 -0.3996
    92RH     S749523   8.660   3.916  25.348 -0.1086  0.1590 -0.4379
    92RH    C5549524   8.796   3.823  25.131  0.3183 -0.0229 -0.0978
    92RH     O249525   8.837   3.801  25.016  0.5233 -0.1431 -0.0019
    92RH     N649526   8.851   3.763  25.246  0.1798  0.1728  0.0743
    92RH    C5649527   8.798   3.795  25.369 -0.0458  0.2943 -0.0539
    92RH    C5749528   8.947   3.652  25.219  0.3924 -0.1346  0.0565
    92RH    C5849529   9.091   3.697  25.220  0.6493  0.7519  0.9779
    92RH     S849530   8.846   3.738  25.520 -0.2455  0.5317  0.1011
    72IDQ   C5949531   8.124   4.794  25.155  0.2442 -0.0343 -0.0374
    72IDQ   C6049532   8.153   4.951  25.165 -0.5075  0.2783  0.2032
    72IDQ   C6149533   8.038   5.049  25.138  0.3812  0.3770 -0.8423
    72IDQ   C6249534   7.929   5.061  25.251  0.2209  0.0619  0.2202
    72IDQ   C6349535   7.980   5.093  25.379  0.5084 -0.4251 -0.3093
    72IDQ   C6449536   7.877   5.117  25.485  0.6178 -0.0930 -0.3126
    72IDQ   C6549537   7.951   5.113  25.617 -0.1185 -0.2985 -0.5478
    72IDQ   C6649538   7.903   4.469  25.441  0.0393 -0.0864 -0.2031
    72IDQ   C6749539   7.795   4.430  25.539  0.7559  0.3201 -0.9727
    72IDQ   C6849540   7.839   4.339  25.656 -0.1537  0.6060  0.4074
    72IDQ   C6949541   7.867   4.195  25.625 -0.6643  0.1198  0.1860
    72IDQ   C7049542   7.914   4.124  25.755  0.2767 -0.2302  0.5698
    72IDQ   C7149543   7.789   4.091  25.847 -0.3148 -0.7415  0.0413
    72IDQ   C7249544   7.694   3.981  25.800 -0.3842  0.4951 -0.1116
    11RH     C149545   6.426   5.843  24.658  0.1851  0.1060 -0.4559
    11RH     C249546   6.573   5.828  24.658  0.1683 -0.0702 -0.3061
    11RH     N149547   6.383   5.926  24.764  0.1809  0.2068 -0.5366
    11RH     S149548   6.646   5.924  24.797  0.1481 -0.0915 -0.2808
    11RH     C349549   6.478   5.979  24.848  0.1630  0.1332 -0.4697
    11RH     C449550   6.245   5.959  24.780  0.8266  0.7787 -0.3594
    11RH     S249551   6.453   6.080  24.981  0.1545  0.2247 -0.5407
    11RH     O149552   6.348   5.791  24.577  0.2009  0.1613 -0.5069
    11RH     C549553   6.640   5.755  24.568  0.1685 -0.1914 -0.2076
    21BTZ    C649554   6.781   5.737  24.527 -0.1207 -0.0737  0.1605
    21BTZ    C749555   6.884   5.813  24.577 -0.2118  0.1854 -0.0405
    21BTZ    C849556   6.812   5.623  24.447  0.0131 -0.0792  0.2193
    21BTZ    C949557   7.022   5.780  24.550 -0.1760  0.4505 -0.1926
    21BTZ   C1049558   7.057   5.671  24.474 -0.0494  0.4560 -0.1429
    21BTZ   C1149559   6.952   5.589  24.420  0.0495  0.1901  0.0653
    21BTZ    N249560   6.720   5.542  24.393  0.1105 -0.3179  0.4091
    21BTZ    N349561   6.973   5.481  24.344  0.1763  0.1681  0.1316
    21BTZ    S349562   6.811   5.416  24.304  0.2559 -0.2060  0.3995
    31IDT   C1249563   7.198   5.643  24.445 -0.1220  0.1203 -0.4657
    31IDT   C1349564   7.262   5.522  24.435 -0.1580  0.1076 -0.5412
    31IDT   C1449565   7.404   5.534  24.439 -0.1597  0.0330 -0.2017
    31IDT   C1549566   7.450   5.663  24.452 -0.1251 -0.0117  0.1330
    31IDT    S449567   7.314   5.781  24.461 -0.0875  0.0379  0.0437
    4IDB    C1649568   7.594   5.681  24.455  0.3744  0.8422 -0.4465
    4IDB    C1749569   7.642   5.546  24.447 -0.1578  0.5857  0.4458
    51IDQ   C1849570   7.526   5.442  24.446 -0.1752  0.0953  0.0365
    4IDB    C1949571   7.778   5.519  24.446 -0.2602  0.0567  0.3337
    51IDQ   C2049572   7.555   5.349  24.327 -0.5022 -0.4765  0.9431
    51IDQ   C2149573   7.514   5.350  24.581 -0.9500 -0.7748 -0.9124
    51IDQ   C2249574   7.576   5.382  24.719 -0.1066 -0.0948 -0.3599
    51IDQ   C2349575   7.486   5.382  24.190 -0.4084  0.5053  0.1532
    51IDQ   C2449576   7.529   5.518  24.779  0.0403  0.0024  0.6010
    51IDQ   C2549577   7.591   5.573  24.904 -0.1948 -0.1228  0.1424
    51IDQ   C2649578   7.526   5.708  24.941  0.6621  0.8521 -0.0366
    51IDQ   C2749579   7.569   5.828  24.860  0.4011  0.2262  0.0927
    51IDQ   C2849580   7.486   5.959  24.888 -0.3606  0.1889  0.0200
    51IDQ   C2949581   7.380   5.993  24.785  0.4212  0.1647  0.0390
    51IDQ   C3049582   7.525   5.276  24.084 -0.1090 -0.3595 -0.3513
    51IDQ   C3149583   7.463   5.295  23.953  0.6320  1.1281  0.4127
    51IDQ   C3249584   7.498   5.184  23.851  0.0647  0.0590  0.9561
    51IDQ   C3349585   7.460   5.046  23.880  0.3002 -0.6930  0.3829
    51IDQ   C3449586   7.459   4.962  23.747 -0.3019  0.1861 -0.2862
    51IDQ   C3549587   7.362   4.850  23.778 -0.1397  0.0018 -0.7545
    4IDB    C3649588   7.683   5.789  24.461  0.8098  0.5693 -1.4625
    4IDB    C3749589   7.822   5.759  24.460  0.6974  0.0290 -1.5626
    11RH    C3849590   6.188   6.066  24.693  0.3597  0.1891 -0.0034
    4IDB    C3949591   7.867   5.628  24.453  0.1752 -0.2161 -0.6829
    62IDT   C4049592   8.005   5.616  24.452  0.0798 -0.3879  0.2744
    72IDQ   C4149593   7.942   5.841  24.495 -0.8928  0.5494 -0.5200
    62IDT   C4249594   8.063   5.739  24.475 -0.2686 -0.1833  0.0710
    72IDQ   C4349595   7.946   5.913  24.634  0.4865  0.4614  1.1273
    72IDQ   C4449596   7.989   5.940  24.377 -0.4387  0.2730 -0.4591
    62IDT    S549597   8.128   5.488  24.422  0.4318  0.0229 -0.0575
    62IDT   C4549598   8.257   5.615  24.444  0.0716  0.4712 -0.4728
    62IDT   C4649599   8.205   5.738  24.471 -0.2738  0.3026 -0.3514
    82BTZ   C4749600   8.398   5.575  24.455  0.0612 -0.0281  0.1116
    82BTZ   C4849601   8.416   5.440  24.472  0.1034 -0.0329  0.0305
    82BTZ   C4949602   8.548   5.382  24.482  0.1220 -0.0002 -0.0257
    82BTZ   C5049603   8.661   5.459  24.474  0.0984  0.0371 -0.0015
    82BTZ   C5149604   8.513   5.660  24.446  0.0351  0.0105  0.1402
    82BTZ   C5249605   8.647   5.601  24.456  0.0540  0.0436  0.0825
    92RH    C5349606   8.796   5.405  24.504 -0.0844 -0.0922 -0.1419
    82BTZ    N449607   8.508   5.792  24.429 -0.0063  0.0191  0.2174
    82BTZ    N549608   8.750   5.686  24.447  0.0278  0.0787  0.1135
    82BTZ    S649609   8.678   5.848  24.425 -0.0233  0.0707  0.2197
    92RH    C5449610   8.840   5.286  24.547 -0.0914 -0.1053 -0.1698
    92RH     S749611   8.740   5.135  24.573 -0.0811 -0.1359 -0.3083
    92RH    C5549612   8.981   5.259  24.582 -0.1090 -0.0966 -0.0911
    92RH     O249613   9.074   5.341  24.576 -0.1194 -0.0765  0.0081
    92RH     N649614   8.999   5.126  24.625 -0.1131 -0.1141 -0.1435
    92RH    C5649615   8.889   5.043  24.629 -0.1007 -0.1357 -0.2546
    92RH    C5749616   9.136   5.079  24.672 -0.2042  0.1585 -0.0477
    92RH    C5849617   9.207   4.991  24.579 -0.1467 -0.3158  0.2814
    92RH     S849618   8.884   4.881  24.676 -0.1023 -0.1595 -0.3362
    72IDQ   C5949619   8.100   6.047  24.399 -0.2495  1.0746 -0.5159
    72IDQ   C6049620   8.157   6.120  24.278  0.6956 -0.1397  0.8399
    72IDQ   C6149621   8.215   6.252  24.304  0.5226 -0.4647 -0.4168
    72IDQ   C6249622   8.239   6.344  24.186  0.2061  0.0721 -0.7810
    72IDQ   C6349623   8.263   6.494  24.231 -0.1506  0.0542 -0.7497
    72IDQ   C6449624   8.256   6.602  24.121  0.6931 -0.4530  0.2912
    72IDQ   C6549625   8.104   6.654  24.098 -0.7224 -0.0584 -0.8306
    72IDQ   C6649626   7.997   5.844  24.756  0.3377  0.0955 -0.4550
    72IDQ   C6749627   7.940   5.907  24.884 -0.7995  0.7139  0.2311
    72IDQ   C6849628   7.994   5.853  25.017 -1.4523  0.7068 -0.7623
    72IDQ   C6949629   8.007   5.698  25.032  0.5299 -0.1233  0.5389
    72IDQ   C7049630   8.059   5.665  25.168 -1.1640  0.7078  0.0624
    72IDQ   C7149631   8.048   5.513  25.218  0.9688  0.1332 -0.9439
    72IDQ   C7249632   8.116   5.467  25.348 -0.5989 -0.0296 -0.0535
    11RH     C149633   3.034   2.232  22.942 -0.1814  0.0374  0.1202
    11RH     C249634   3.076   2.098  22.990 -0.1288  0.1260  0.3223
    11RH     N149635   2.905   2.227  22.883 -0.0392 -0.1650 -0.1801
    11RH     S149636   2.945   1.975  22.954  0.1043 -0.0627  0.1045
    11RH     C349637   2.840   2.106  22.878  0.1211 -0.2495 -0.2427
    11RH     C449638   2.848   2.342  22.809 -0.4588 -0.5292 -0.3138
    11RH     S249639   2.687   2.073  22.814  0.3101 -0.4859 -0.5794
    11RH     O149640   3.100   2.336  22.951 -0.3305  0.1262  0.1979
    11RH     C549641   3.194   2.075  23.049 -0.2389  0.3157  0.6176
    21BTZ    C649642   3.251   1.947  23.095 -0.3184 -0.0664  0.1223
    21BTZ    C749643   3.194   1.823  23.082 -0.1857 -0.1227  0.0792
    21BTZ    C849644   3.377   1.958  23.161 -0.3783  0.0586  0.2160
    21BTZ    C949645   3.259   1.704  23.133 -0.1057 -0.0595  0.1249
    21BTZ   C1049646   3.379   1.710  23.197 -0.1583  0.0599  0.2141
    21BTZ   C1149647   3.443   1.838  23.213 -0.2968  0.1229  0.2623
    21BTZ    N249648   3.442   2.073  23.180 -0.5063  0.1233  0.2651
    21BTZ    N349649   3.560   1.856  23.274 -0.3594  0.2392  0.3490
    21BTZ    S349650   3.593   2.032  23.267 -0.5287  0.2720  0.3747
    31IDT   C1249651   3.446   1.586  23.233  0.3016 -0.1322 -0.8427
    31IDT   C1349652   3.569   1.542  23.191 -0.2601 -1.2623 -1.4048
    31IDT   C1449653   3.610   1.422  23.256 -0.8131 -1.3273 -1.1630
    31IDT   C1549654   3.519   1.373  23.348 -0.6768 -0.2500 -0.4164
    31IDT    S449655   3.373   1.477  23.359  0.1700  0.9414  0.0425
    4IDB    C1649656   3.570   1.256  23.404 -0.2815 -0.0517 -0.4549
    4IDB    C1749657   3.698   1.221  23.350 -0.1987 -0.1888 -0.1755
    51IDQ   C1849658   3.744   1.334  23.256 -0.8858 -0.7860 -0.4871
    4IDB    C1949659   3.756   1.099  23.378 -0.3041 -0.1750  0.1097
    51IDQ   C2049660   3.855   1.408  23.340 -0.4961 -0.6861 -0.4053
    51IDQ   C2149661   3.799   1.304  23.111  0.2721 -0.9410  0.8450
    51IDQ   C2249662   3.785   1.164  23.039 -0.2594 -0.5532 -1.0088
    51IDQ   C2349663   3.849   1.553  23.386  0.3070  0.0619 -0.2054
    51IDQ   C2449664   3.647   1.097  23.014  0.0051 -0.2940 -0.8678
    51IDQ   C2549665   3.572   1.191  22.909  0.1598  0.6667 -0.1526
    51IDQ   C2649666   3.417   1.181  22.915 -0.0971  0.4356 -0.1769
    51IDQ   C2749667   3.344   1.235  23.044 -0.4458  0.7321 -0.8010
    51IDQ   C2849668   3.205   1.259  23.017 -0.2137 -0.4113 -0.6030
    51IDQ   C2949669   3.139   1.278  23.152 -0.0946 -0.4882 -0.8802
    51IDQ   C3049670   3.986   1.602  23.427 -0.1144  0.1276  0.2566
    51IDQ   C3149671   4.015   1.743  23.496 -0.1009  0.6114  1.4527
    51IDQ   C3249672   3.948   1.863  23.429 -0.4492 -0.5418 -1.4583
    51IDQ   C3349673   3.973   2.013  23.490 -0.8950  0.4602 -0.5513
    51IDQ   C3449674   3.853   2.109  23.480  0.0949 -0.8000 -0.1364
    51IDQ   C3549675   3.890   2.251  23.508  0.3104 -0.3960  0.2931
    4IDB    C3649676   3.500   1.167  23.487 -0.4712  0.1009 -0.4497
    4IDB    C3749677   3.562   1.042  23.515 -0.5767  0.1127 -0.1559
    11RH    C3849678   2.789   2.458  22.897  0.2599  0.7634  0.2963
    4IDB    C3949679   3.686   1.010  23.461 -0.4938 -0.0223  0.1140
    62IDT   C4049680   3.723   0.872  23.499  0.2091  0.1434 -0.8131
    72IDQ   C4149681   3.510   0.922  23.593 -0.1181 -0.6801 -0.9699
    62IDT   C4249682   3.624   0.825  23.581  0.0140  0.3669 -0.9179
    72IDQ   C4349683   3.367   0.866  23.545 -0.1468  0.9117  0.1634
    72IDQ   C4449684   3.512   0.957  23.754  0.1848  0.0328 -0.5354
    62IDT    S549685   3.853   0.750  23.472  0.2762  0.0716 -0.1758
    62IDT   C4549686   3.760   0.636  23.580  0.0247  0.3616 -0.0805
    62IDT   C4649687   3.644   0.692  23.627 -0.0905  0.4905 -0.5040
    82BTZ   C4749688   3.822   0.501  23.587 -0.2788 -0.3183 -0.5583
    82BTZ   C4849689   3.889   0.452  23.477  0.2018 -0.2293 -0.3119
    82BTZ   C4949690   3.953   0.323  23.479  0.7259  0.0314  0.0591
    82BTZ   C5049691   3.951   0.243  23.591  0.7687  0.2026  0.1835
    82BTZ   C5149692   3.818   0.421  23.706 -0.2557 -0.1464 -0.4411
    82BTZ   C5249693   3.883   0.290  23.708  0.2770  0.1185 -0.0639
    92RH    C5349694   4.027   0.114  23.604 -0.2162 -0.8271  0.1022
    82BTZ    N449695   3.756   0.458  23.818 -0.6953 -0.2106 -0.6557
    82BTZ    N549696   3.875   0.221  23.822  0.2656  0.2673  0.0248
    82BTZ    S649697   3.780   0.324  23.934 -0.4412  0.0708 -0.3776
    92RH    C5449698   4.095   0.039  23.517  0.0578 -0.6369  0.1512
    92RH     S749699   4.126   0.076  23.339  0.5547 -0.2843  0.3061
    92RH    C5549700   4.159  -0.090  23.552 -0.0031 -0.6856  0.0834
    92RH     O249701   4.156  -0.143  23.664 -0.3084 -0.9035 -0.0229
    92RH     N649702   4.224  -0.148  23.441  0.3344 -0.4498  0.1567
    92RH    C5649703   4.221  -0.081  23.321  0.6579 -0.2183  0.2742
    92RH    C5749704   4.310  -0.270  23.453 -0.6028  0.0482  1.6568
    92RH    C5849705   4.232  -0.397  23.435 -0.1871  0.5629  0.2061
    92RH     S849706   4.290  -0.128  23.175  1.0934  0.0870  0.3791
    72IDQ   C5949707   3.390   1.043  23.809 -0.5154 -0.3792 -0.1440
    72IDQ   C6049708   3.401   1.074  23.950 -0.0163  0.0944 -0.5085
    72IDQ   C6149709   3.294   1.166  23.984  1.0671 -0.3439  1.2785
    72IDQ   C6249710   3.149   1.121  24.026  0.0206 -0.1766  0.3796
    72IDQ   C6349711   3.150   1.042  24.152  0.0556  0.1223 -0.0667
    72IDQ   C6449712   3.018   0.964  24.169  0.0914 -0.0819 -0.0883
    72IDQ   C6549713   3.007   0.862  24.285 -0.0531 -0.2024  0.7850
    72IDQ   C6649714   3.362   0.853  23.389  0.2456  0.1772 -1.2128
    72IDQ   C6749715   3.252   0.936  23.320 -0.9497  0.2882 -0.8528
    72IDQ   C6849716   3.109   0.883  23.329 -0.2689  0.2067  1.2321
    72IDQ   C6949717   3.012   0.962  23.260  0.0663 -1.9710 -0.0887
    72IDQ   C7049718   2.868   0.958  23.307  0.4298  0.9469 -0.1980
    72IDQ   C7149719   2.755   1.037  23.242  0.1643 -0.2602 -0.3971
    72IDQ   C7249720   2.607   1.030  23.287  0.2133  0.0726  0.6512
    11RH     C149721   0.146   1.321  28.567  0.3045 -0.1830  0.0987
    11RH     C249722   0.009   1.372  28.539  0.2482 -0.3940 -0.0153
    11RH     N149723   0.224   1.317  28.450  0.4264 -0.0114  0.1730
    11RH     S149724  -0.007   1.411  28.361  0.3594 -0.3530 -0.0162
    11RH     C349725   0.167   1.358  28.331  0.4747 -0.0591  0.1335
    11RH     C449726   0.366   1.262  28.461 -0.4246 -0.7900 -0.4693
    11RH     S249727   0.238   1.363  28.179  0.6168  0.1144  0.2046
    11RH     O149728   0.188   1.286  28.678  0.2528 -0.1558  0.1274
    11RH     C549729  -0.085   1.386  28.633  0.1333 -0.5825 -0.1011
    21BTZ    C649730  -0.217   1.432  28.634 -0.2529  0.1257 -0.4207
    21BTZ    C749731  -0.275   1.470  28.516 -0.4476  0.0377 -0.3548
    21BTZ    C849732  -0.291   1.449  28.755 -0.1168  0.0664 -0.3286
    21BTZ    C949733  -0.408   1.526  28.511 -0.5183 -0.1121 -0.1960
    21BTZ   C1049734  -0.482   1.545  28.624 -0.3937 -0.1735 -0.1039
    21BTZ   C1149735  -0.426   1.506  28.750 -0.1885 -0.0858 -0.1675
    21BTZ    N249736  -0.246   1.416  28.877  0.0763  0.1412 -0.3797
    21BTZ    N349737  -0.489   1.519  28.868 -0.0530 -0.1333 -0.0891
    21BTZ    S349738  -0.376   1.457  28.992  0.1766  0.0177 -0.2207
    31IDT   C1249739  -0.627   1.592  28.611  0.2032  0.3316 -0.0506
    31IDT   C1349740  -0.724   1.531  28.686  0.0985 -0.1955 -0.5965
    31IDT   C1449741  -0.856   1.578  28.656  0.0434 -0.6320 -1.0666
    31IDT   C1549742  -0.860   1.675  28.558  0.1062 -0.4412 -0.8820
    31IDT    S449743  -0.697   1.715  28.495  0.2405  0.3132 -0.0925
    4IDB    C1649744  -0.995   1.722  28.536 -0.2835 -0.4673  0.1560
    4IDB    C1749745  -1.085   1.644  28.614 -0.7218  0.1591  0.2933
    51IDQ   C1849746  -1.004   1.537  28.693  0.5979  0.0177  0.6824
    4IDB    C1949747  -1.222   1.660  28.601 -0.6493  0.3705 -0.2892
    51IDQ   C2049748  -1.056   1.529  28.842  0.8063 -0.1910  0.7840
    51IDQ   C2149749  -1.008   1.394  28.636 -0.9125  0.1820  0.5192
    51IDQ   C2249750  -1.085   1.352  28.503 -0.2075 -0.8074 -0.2809
    51IDQ   C2349751  -0.957   1.536  28.964  0.5324  0.5359  0.2482
    51IDQ   C2449752  -1.046   1.218  28.446  0.6202 -0.5323  0.4757
    51IDQ   C2549753  -0.903   1.200  28.395 -0.2189 -0.9029 -0.0591
    51IDQ   C2649754  -0.885   1.056  28.358 -0.3632  0.7300 -0.1932
    51IDQ   C2749755  -0.772   0.985  28.449 -0.0401 -0.1265 -0.1516
    51IDQ   C2849756  -0.820   0.934  28.579 -0.1868 -0.1191 -0.4680
    51IDQ   C2949757  -0.729   0.861  28.669  0.3125 -0.3265  0.2232
    51IDQ   C3049758  -1.016   1.551  29.099  0.0092  0.3150 -0.2445
    51IDQ   C3149759  -0.932   1.508  29.219  0.0176 -0.3721  0.1697
    51IDQ   C3249760  -0.794   1.571  29.224 -0.0750 -0.6061  0.3994
    51IDQ   C3349761  -0.683   1.521  29.316  0.5754  0.9052 -1.0145
    51IDQ   C3449762  -0.545   1.576  29.293 -0.5948 -0.9862  0.8916
    51IDQ   C3549763  -0.455   1.527  29.410 -0.1803  0.7622  0.0037
    4IDB    C3649764  -1.042   1.818  28.445  0.2325 -0.8881 -0.5698
    4IDB    C3749765  -1.182   1.833  28.433  0.2987 -0.6637 -1.1587
    11RH    C3849766   0.463   1.375  28.470 -1.2214 -0.3809  0.1571
    4IDB    C3949767  -1.269   1.755  28.510 -0.1334 -0.0503 -1.0150
    62IDT   C4049768  -1.411   1.802  28.500  0.1211 -0.1039  0.0578
    72IDQ   C4149769  -1.278   1.929  28.346 -0.0714  0.8824  0.8936
    62IDT   C4249770  -1.418   1.909  28.413  0.5999  0.6357  0.8974
    72IDQ   C4349771  -1.286   1.878  28.184 -0.9833 -1.8705 -0.7205
    72IDQ   C4449772  -1.260   2.080  28.364  0.8327 -0.1188  0.9177
    62IDT    S549773  -1.570   1.769  28.578 -0.0783 -0.1525 -0.3593
    62IDT   C4549774  -1.640   1.908  28.485  0.5255  0.8801  0.6739
    62IDT   C4649775  -1.547   1.969  28.405  0.8291  1.1930  1.2465
    82BTZ   C4749776  -1.789   1.936  28.489 -0.2879 -0.1898  0.0382
    82BTZ   C4849777  -1.871   1.839  28.541 -0.3459 -0.1386  0.0410
    82BTZ   C4949778  -2.015   1.851  28.535 -0.3396 -0.1258 -0.0978
    82BTZ   C5049779  -2.076   1.960  28.478 -0.2751 -0.1641 -0.2396
    82BTZ   C5149780  -1.848   2.051  28.428 -0.2192 -0.2314 -0.1073
    82BTZ   C5249781  -1.994   2.063  28.422 -0.2129 -0.2183 -0.2484
    92RH    C5349782  -2.218   1.970  28.463  0.1479  0.1905  0.4710
    82BTZ    N449783  -1.778   2.152  28.374 -0.1588 -0.2826 -0.1254
    82BTZ    N549784  -2.041   2.174  28.364 -0.1472 -0.2591 -0.3800
    82BTZ    S649785  -1.899   2.268  28.312 -0.0896 -0.3171 -0.3271
    92RH    C5449786  -2.319   1.884  28.484  0.1155  0.1368  0.1097
    92RH     S749787  -2.305   1.705  28.519  0.0654  0.0679 -0.2150
    92RH    C5549788  -2.462   1.924  28.481  0.1149  0.1249 -0.0892
    92RH     O249789  -2.504   2.038  28.460  0.1436  0.1623  0.0520
    92RH     N649790  -2.546   1.814  28.507  0.0765  0.0644 -0.4677
    92RH    C5649791  -2.488   1.691  28.529  0.0463  0.0266 -0.5970
    92RH    C5749792  -2.691   1.825  28.506  1.1872 -0.2359  0.3801
    92RH    C5849793  -2.763   1.865  28.635  0.1136  1.1649  0.6658
    92RH     S849794  -2.566   1.544  28.561 -0.0019 -0.0468 -1.0328
    72IDQ   C5949795  -1.156   2.151  28.285  0.0290 -0.1162 -1.2261
    72IDQ   C6049796  -1.105   2.285  28.342 -0.0916  0.2829  0.4903
    72IDQ   C6149797  -1.040   2.291  28.478 -0.6933  1.3431 -1.1914
    72IDQ   C6249798  -0.913   2.215  28.526 -0.2081 -1.1878  1.3159
    72IDQ   C6349799  -0.781   2.246  28.456  0.2733 -0.1056 -0.0061
    72IDQ   C6449800  -0.681   2.140  28.497  0.0840  1.0765 -0.1226
    72IDQ   C6549801  -0.535   2.191  28.496  0.0262  0.2842 -0.9850
    72IDQ   C6649802  -1.347   1.742  28.137  0.0228  0.9911 -0.7994
    72IDQ   C6749803  -1.270   1.616  28.170 -0.1883 -0.3322  0.2426
    72IDQ   C6849804  -1.184   1.593  28.047  0.3943 -0.8375 -0.1179
    72IDQ   C6949805  -1.130   1.450  28.060  0.2417  0.4245  0.4287
    72IDQ   C7049806  -0.977   1.449  28.057 -0.9278 -0.8113  0.3487
    72IDQ   C7149807  -0.925   1.305  28.039 -0.7558 -0.6938  0.0487
    72IDQ   C7249808  -0.856   1.281  27.901 -0.5301  0.1615 -0.6534
    11RH     C149809   5.122   4.334  18.615  0.5456  0.2440  0.0267
    11RH     C249810   5.226   4.359  18.718  0.5665  0.0486  0.0544
    11RH     N149811   5.097   4.196  18.599  0.3423  0.2857 -0.0312
    11RH     S149812   5.285   4.200  18.786  0.3172 -0.0673  0.0022
    11RH     C349813   5.170   4.108  18.676  0.1976  0.1477 -0.0534
    11RH     C449814   5.009   4.156  18.494 -1.0566 -0.1057  0.6681
    11RH     S249815   5.160   3.939  18.676 -0.0535  0.1612 -0.1206
    11RH     O149816   5.062   4.422  18.550  0.6863  0.3593  0.0505
    11RH     C549817   5.267   4.482  18.752  0.7433 -0.0263  0.1093
    21BTZ    C649818   5.381   4.535  18.831 -0.2179  0.0791  0.1721
    21BTZ    C749819   5.476   4.456  18.891 -0.1042  0.0517 -0.0396
    21BTZ    C849820   5.387   4.676  18.852 -0.1037  0.0819  0.1273
    21BTZ    C949821   5.579   4.511  18.974  0.1260  0.0257 -0.3052
    21BTZ   C1049822   5.588   4.646  18.997  0.2421  0.0273 -0.3579
    21BTZ   C1149823   5.492   4.733  18.936  0.1303  0.0556 -0.1426
    21BTZ    N249824   5.300   4.763  18.799 -0.1965  0.1073  0.3181
    21BTZ    N349825   5.490   4.866  18.951  0.2255  0.0596 -0.1688
    21BTZ    S349826   5.351   4.925  18.856  0.0156  0.0984  0.1570
    31IDT   C1249827   5.701   4.690  19.088 -0.1275  0.5728  0.2048
    31IDT   C1349828   5.708   4.810  19.154  0.4473  0.5220  0.2441
    31IDT   C1449829   5.815   4.815  19.248  0.6074  0.0558  0.0930
    31IDT   C1549830   5.890   4.700  19.254  0.1567 -0.2509 -0.0620
    31IDT    S449831   5.830   4.574  19.141 -0.5114  0.0293 -0.0282
    4IDB    C1649832   5.988   4.718  19.359 -0.2850  0.4374  0.1101
    4IDB    C1749833   5.988   4.853  19.405  0.0701  0.4939 -0.0491
    51IDQ   C1849834   5.880   4.929  19.331 -0.0344 -0.2274 -0.1490
    4IDB    C1949835   6.081   4.897  19.498  0.0649  0.3089  0.0437
    51IDQ   C2049836   5.795   4.999  19.449 -0.1822 -0.2482  1.4212
    51IDQ   C2149837   5.918   5.042  19.234  0.2789 -0.0007 -0.4562
    51IDQ   C2249838   6.052   5.085  19.188  0.0254 -0.4200  0.2649
    51IDQ   C2349839   5.658   4.948  19.471  0.2977  0.1653  0.8258
    51IDQ   C2449840   6.088   5.052  19.041 -0.3600  0.4237  1.2654
    51IDQ   C2549841   6.095   4.903  18.997  1.1704 -0.0123  0.2677
    51IDQ   C2649842   6.215   4.820  19.036 -0.1016 -0.8648 -0.1776
    51IDQ   C2749843   6.213   4.671  18.965  0.0355 -0.5996 -0.8425
    51IDQ   C2849844   6.359   4.612  18.966 -0.0966  0.1501 -0.4429
    51IDQ   C2949845   6.362   4.466  18.929  0.2572 -0.4454  0.5846
    51IDQ   C3049846   5.590   5.000  19.595  0.1098 -0.1437  0.4932
    51IDQ   C3149847   5.430   4.983  19.602 -0.5718 -0.6533  0.3632
    51IDQ   C3249848   5.350   5.074  19.700 -0.9921 -0.8956  0.9942
    51IDQ   C3349849   5.349   5.035  19.845  0.5655 -0.0262 -0.3245
    51IDQ   C3449850   5.302   5.150  19.939 -0.2345  0.3029 -0.3684
    51IDQ   C3549851   5.353   5.137  20.084  0.1653 -0.1342  0.1757
    4IDB    C3649852   6.082   4.625  19.407 -0.6497  0.1938  0.3643
    4IDB    C3749853   6.177   4.672  19.502 -0.6491  0.0072  0.4559
    11RH    C3849854   4.875   4.116  18.541  0.1351  0.4410  0.1447
    4IDB    C3949855   6.175   4.804  19.546 -0.2996  0.0654  0.2979
    62IDT   C4049856   6.282   4.829  19.643 -0.0941 -0.0988  0.8728
    72IDQ   C4149857   6.292   4.595  19.571 -0.1081 -0.6893  0.8383
    62IDT   C4249858   6.350   4.710  19.658 -0.0309 -0.0873  0.6809
    72IDQ   C4349859   6.394   4.526  19.472  0.0162  0.0572  0.0644
    72IDQ   C4449860   6.252   4.504  19.686  0.5965  0.7743 -0.3610
    62IDT    S549861   6.351   4.959  19.746  0.3721 -0.0038  0.4435
    62IDT   C4549862   6.475   4.841  19.806  0.6409  0.0492  0.0047
    62IDT   C4649863   6.459   4.716  19.750  0.3846 -0.0036  0.1898
    82BTZ   C4749864   6.567   4.889  19.905 -0.4239  0.6415  0.2254
    82BTZ   C4849865   6.586   5.024  19.918 -0.2142  0.5993  0.3633
    82BTZ   C4949866   6.676   5.078  20.017  0.1433  0.3450  0.1831
    82BTZ   C5049867   6.747   4.998  20.102  0.2905  0.1333 -0.1351
    82BTZ   C5149868   6.639   4.800  19.992 -0.2817  0.4259 -0.1082
    82BTZ   C5249869   6.731   4.856  20.092  0.0817  0.1675 -0.2913
    92RH    C5349870   6.846   5.052  20.197 -0.1992 -0.0068 -0.3532
    82BTZ    N449871   6.629   4.667  19.988 -0.4599  0.4425 -0.2694
    82BTZ    N549872   6.794   4.767  20.169  0.1955 -0.0237 -0.5999
    82BTZ    S649873   6.738   4.606  20.116 -0.1643  0.1215 -0.6709
    92RH    C5449874   6.890   5.173  20.235 -0.2106 -0.0188 -0.3018
    92RH     S749875   6.846   5.335  20.161 -0.0187 -0.0134 -0.4070
    92RH    C5549876   6.986   5.193  20.346 -0.3872 -0.0395 -0.1459
    92RH     O249877   7.035   5.103  20.417 -0.5423 -0.0474 -0.0472
    92RH     N649878   7.016   5.330  20.365 -0.3587 -0.0487 -0.1219
    92RH    C5649879   6.956   5.422  20.281 -0.1808 -0.0385 -0.2398
    92RH    C5749880   7.095   5.369  20.489 -1.3111  0.4186 -0.4115
    92RH    C5849881   7.249   5.380  20.458  0.6125 -0.3783 -0.0566
    92RH     S849882   6.974   5.589  20.282 -0.1100 -0.0463 -0.2413
    72IDQ   C5949883   6.148   4.393  19.678  0.6665  1.1188  0.1922
    72IDQ   C6049884   6.134   4.273  19.585  0.5478 -0.8841 -0.0214
    72IDQ   C6149885   6.055   4.301  19.460 -0.2286  0.6764  0.7405
    72IDQ   C6249886   6.043   4.168  19.370 -0.2249  0.4061  0.2327
    72IDQ   C6349887   6.170   4.124  19.299 -0.3767 -0.3968 -0.1103
    72IDQ   C6449888   6.173   4.214  19.173  0.3480 -0.1452  0.3563
    72IDQ   C6549889   6.264   4.161  19.073 -0.0769  0.1534 -0.0542
    72IDQ   C6649890   6.443   4.606  19.357 -0.7258 -0.1054  0.1087
    72IDQ   C6749891   6.585   4.667  19.369 -0.3746 -0.4680 -0.6809
    72IDQ   C6849892   6.634   4.743  19.238  1.9272  0.5379  0.6301
    72IDQ   C6949893   6.775   4.778  19.205 -0.2274 -0.4847  0.0195
    72IDQ   C7049894   6.815   4.772  19.059  0.6599 -0.0769  0.2826
    72IDQ   C7149895   6.718   4.817  18.959  0.4677 -0.1274 -0.4118
    72IDQ   C7249896   6.777   4.811  18.825 -0.3512  0.2294  0.1905
    11RH     C149897   4.562   0.995  22.284  0.0708 -0.0686  0.1116
    11RH     C249898   4.691   1.068  22.276  0.0305 -0.0212 -0.1264
    11RH     N149899   4.479   1.025  22.174 -0.0363 -0.3009  0.1273
    11RH     S149900   4.694   1.172  22.125 -0.1455 -0.2849 -0.3130
    11RH     C349901   4.525   1.113  22.079 -0.1575 -0.4452 -0.0687
    11RH     C449902   4.350   0.954  22.167 -0.1244 -0.4525  0.3324
    11RH     S249903   4.447   1.166  21.939 -0.2998 -0.7270 -0.0963
    11RH     O149904   4.529   0.916  22.374  0.1835  0.0740  0.2775
    11RH     C549905   4.788   1.057  22.368  0.1134  0.1854 -0.1879
    21BTZ    C649906   4.917   1.123  22.399  0.3328 -0.1381  0.0656
    21BTZ    C749907   4.966   1.221  22.316  0.3566 -0.1649  0.0477
    21BTZ    C849908   4.997   1.081  22.511  0.3378 -0.1619  0.0525
    21BTZ    C949909   5.094   1.282  22.339  0.3862 -0.2163  0.0167
    21BTZ   C1049910   5.174   1.245  22.444  0.3922 -0.2407  0.0036
    21BTZ   C1149911   5.128   1.143  22.533  0.3680 -0.2142  0.0215
    21BTZ    N249912   4.960   0.987  22.598  0.3165 -0.1398  0.0672
    21BTZ    N349913   5.196   1.099  22.639  0.3711 -0.2339  0.0114
    21BTZ    S349914   5.094   0.974  22.716  0.3344 -0.1856  0.0415
    31IDT   C1249915   5.297   1.317  22.460  0.5655 -0.3975 -0.0381
    31IDT   C1349916   5.389   1.323  22.561  1.2789 -0.8771 -0.6361
    31IDT   C1449917   5.487   1.425  22.541  1.3362 -0.9995 -0.9961
    31IDT   C1549918   5.471   1.497  22.425  0.6685 -0.6150 -0.6742
    31IDT    S449919   5.328   1.441  22.330 -0.0915 -0.0630  0.1160
    4IDB    C1649920   5.564   1.601  22.429 -0.4793  0.0500  0.4331
    4IDB    C1749921   5.653   1.592  22.540  0.1190 -0.1230 -0.0486
    51IDQ   C1849922   5.601   1.484  22.637  1.3538  1.0502  0.4050
    4IDB    C1949923   5.758   1.682  22.554  0.1858 -0.1325 -0.4604
    51IDQ   C2049924   5.712   1.386  22.662 -0.2125 -0.3261 -0.5568
    51IDQ   C2149925   5.534   1.534  22.775 -0.1363  0.6761 -0.2076
    51IDQ   C2249926   5.538   1.682  22.826  0.1133 -0.0258 -0.0014
    51IDQ   C2349927   5.728   1.245  22.605  0.0119 -0.6653 -0.2673
    51IDQ   C2449928   5.481   1.682  22.968  0.0571 -0.2908  0.3293
    51IDQ   C2549929   5.518   1.809  23.039 -0.1333 -0.7556  1.0004
    51IDQ   C2649930   5.544   1.804  23.184 -0.3284 -0.4877  0.0306
    51IDQ   C2749931   5.561   1.936  23.253  0.7174  0.4920  0.6470
    51IDQ   C2849932   5.601   1.924  23.402  0.2321  0.6697 -0.4000
    51IDQ   C2949933   5.753   1.927  23.415 -0.5064 -0.2569  0.2130
    51IDQ   C3049934   5.877   1.218  22.622  1.1149  0.8102 -0.0888
    51IDQ   C3149935   5.912   1.071  22.590  0.0948 -0.4626  0.6602
    51IDQ   C3249936   6.055   1.038  22.541  0.3552  0.4194 -0.0553
    51IDQ   C3349937   6.149   1.119  22.452  0.4376 -0.3454  0.0829
    51IDQ   C3449938   6.113   1.104  22.307  1.1847  0.0693  0.5860
    51IDQ   C3549939   6.202   1.171  22.200  0.1348 -0.2416  0.6588
    4IDB    C3649940   5.580   1.700  22.330 -1.0176  0.2155  0.5050
    4IDB    C3749941   5.688   1.791  22.347 -0.9402  0.2031  0.0796
    11RH    C3849942   4.341   0.834  22.082 -0.6514  1.7124  0.1909
    4IDB    C3949943   5.774   1.781  22.456 -0.3524  0.0330 -0.3880
    62IDT   C4049944   5.878   1.874  22.448 -0.1572 -0.3827  0.0803
    72IDQ   C4149945   5.722   1.915  22.265  0.1649  1.0839 -0.3570
    62IDT   C4249946   5.854   1.954  22.338 -0.3378 -0.4690  0.0539
    72IDQ   C4349947   5.617   2.027  22.262  0.4907 -0.8037 -0.1614
    72IDQ   C4449948   5.793   1.889  22.120 -0.0748  0.3829 -0.5680
    62IDT    S549949   6.016   1.933  22.546 -0.0287 -0.2750 -0.1646
    62IDT   C4549950   6.036   2.070  22.428 -0.2358 -0.3565 -0.2953
    62IDT   C4649951   5.944   2.065  22.326 -0.3825 -0.4543 -0.1578
    82BTZ   C4749952   6.159   2.159  22.441  0.2249  0.1744 -0.0406
    82BTZ   C4849953   6.233   2.137  22.554  0.1693  0.1615 -0.0057
    82BTZ   C4949954   6.344   2.223  22.590  0.1073  0.1992  0.0963
    82BTZ   C5049955   6.379   2.330  22.513  0.1011  0.2497  0.1639
    82BTZ   C5149956   6.192   2.271  22.358  0.2209  0.2267  0.0272
    82BTZ   C5249957   6.304   2.358  22.394  0.1581  0.2651  0.1311
    92RH    C5349958   6.478   2.432  22.545 -0.1365  0.2822  0.1569
    82BTZ    N449959   6.127   2.302  22.245  0.2716  0.2440  0.0024
    82BTZ    N549960   6.329   2.459  22.311  0.1581  0.3132  0.1893
    82BTZ    S649961   6.208   2.448  22.180  0.2403  0.3114  0.1140
    92RH    C5449962   6.551   2.463  22.652  0.0097  0.0551  0.1240
    92RH     S749963   6.557   2.372  22.812  0.1633 -0.2344 -0.0443
    92RH    C5549964   6.643   2.579  22.658  0.0712  0.0024  0.2222
    92RH     O249965   6.662   2.661  22.566 -0.0037  0.1588  0.3443
    92RH     N649966   6.708   2.588  22.783  0.2290 -0.2528  0.1597
    92RH    C5649967   6.680   2.493  22.878  0.3014 -0.4109  0.0238
    92RH    C5749968   6.794   2.698  22.807  0.2253 -0.5204  0.2563
    92RH    C5849969   6.944   2.678  22.760  0.5793 -0.1000  1.0245
    92RH     S849970   6.743   2.480  23.034  0.4871 -0.7206 -0.0744
    72IDQ   C5949971   5.751   1.805  21.999  0.0790  0.5218 -0.0452
    72IDQ   C6049972   5.608   1.782  21.963 -0.1216  0.0216  0.0700
    72IDQ   C6149973   5.584   1.644  21.911  0.3968  0.0685 -0.8035
    72IDQ   C6249974   5.431   1.630  21.904 -0.2659 -0.9948 -0.1206
    72IDQ   C6349975   5.371   1.501  21.845 -0.1633 -0.4344 -0.9979
    72IDQ   C6449976   5.223   1.501  21.811  0.4153  0.1343  0.1234
    72IDQ   C6549977   5.179   1.356  21.796  0.1647 -0.0432 -0.4728
    72IDQ   C6649978   5.469   2.011  22.314 -0.2881 -0.6363  0.3703
    72IDQ   C6749979   5.340   2.020  22.223  0.8632 -0.4235 -0.0962
    72IDQ   C6849980   5.341   1.941  22.088  0.0341 -1.0366 -0.5211
    72IDQ   C6949981   5.234   1.995  21.988 -0.6213 -0.5258 -0.5103
    72IDQ   C7049982   5.264   2.137  21.926  0.2021  0.9302  0.9174
    72IDQ   C7149983   5.151   2.172  21.826 -0.4179  0.0496 -0.0068
    72IDQ   C7249984   5.185   2.267  21.710  0.5173 -0.3644  0.3808
    11RH     C149985   5.628   5.135  27.963  0.0303 -0.4679 -0.0381
    11RH     C249986   5.495   5.157  28.023  0.0834 -0.1934 -0.0167
    11RH     N149987   5.618   5.088  27.830 -0.0870 -0.4732 -0.0273
    11RH     S149988   5.364   5.114  27.901 -0.0240  0.0398  0.0152
    11RH     C349989   5.493   5.069  27.776 -0.1343 -0.2364 -0.0005
    11RH     C449990   5.749   5.082  27.744  1.0822  0.8154 -0.1494
    11RH     S249991   5.453   5.014  27.622 -0.2711 -0.1882  0.0172
    11RH     O149992   5.737   5.155  28.019  0.0801 -0.6709 -0.0615
    11RH     C549993   5.476   5.202  28.147  0.1938 -0.1337 -0.0218
    21BTZ    C649994   5.357   5.222  28.237 -0.0249 -0.4203  0.2227
    21BTZ    C749995   5.229   5.203  28.194 -0.0480 -0.1743  0.1802
    21BTZ    C849996   5.379   5.269  28.370  0.0185 -0.4013  0.2084
    21BTZ    C949997   5.115   5.229  28.279 -0.0302  0.1007  0.1230
    21BTZ   C1049998   5.131   5.274  28.408  0.0111  0.1292  0.1079
    21BTZ   C1149999   5.264   5.296  28.457  0.0368 -0.1218  0.1502
    21BTZ    N250000   5.499   5.292  28.424  0.0445 -0.6253  0.2460
    21BTZ    N350001   5.292   5.339  28.581  0.0775 -0.1211  0.1416
    21BTZ    S350002   5.470   5.349  28.591  0.0944 -0.4855  0.2079
    31IDT   C1250003   5.012   5.292  28.492 -0.4191  0.3007 -0.0059
    31IDT   C1350004   4.988   5.401  28.571 -1.0865  0.3579 -0.2699
    31IDT   C1450005   4.861   5.396  28.636 -1.1214 -0.1920 -0.3725
    31IDT   C1550006   4.787   5.283  28.607 -0.4824 -0.6712 -0.1870
    31IDT    S450007   4.873   5.173  28.494  0.2194 -0.4608  0.1344
    4IDB    C1650008   4.659   5.285  28.676 -0.7702 -0.8752 -0.0762
    4IDB    C1750009   4.652   5.407  28.750  0.1405 -0.8490 -0.0124
    51IDQ   C1850010   4.787   5.492  28.731  0.0168  0.1908  0.2191
    4IDB    C1950011   4.545   5.433  28.835  0.3990 -0.1544  0.1125
    51IDQ   C2050012   4.745   5.634  28.669 -0.8136  0.6072 -1.2550
    51IDQ   C2150013   4.874   5.527  28.861  0.2636  0.3892  0.3269
    51IDQ   C2250014   4.835   5.511  29.008 -0.3241  0.8579 -0.4935
    51IDQ   C2350015   4.777   5.669  28.522 -0.5979  0.5410 -0.5116
    51IDQ   C2450016   4.820   5.360  29.045 -0.4139 -0.4402 -1.3289
    51IDQ   C2550017   4.759   5.344  29.185  0.4907 -1.0247 -0.0605
    51IDQ   C2650018   4.653   5.239  29.175  0.8755  0.9039  0.7807
    51IDQ   C2750019   4.586   5.205  29.319 -0.1753 -0.3360  0.4480
    51IDQ   C2850020   4.672   5.148  29.430 -0.2248 -0.6078  0.1123
    51IDQ   C2950021   4.596   5.097  29.545 -0.8502 -0.0681  0.3240
    51IDQ   C3050022   4.722   5.789  28.445  0.2394  0.2087 -0.0456
    51IDQ   C3150023   4.756   5.774  28.298 -0.0839 -0.4896  1.1408
    51IDQ   C3250024   4.746   5.906  28.205 -0.6290 -0.4944  0.2217
    51IDQ   C3350025   4.818   6.030  28.253  0.0106 -0.7675 -0.7527
    51IDQ   C3450026   4.863   6.138  28.158  0.1600  0.4144 -0.3766
    51IDQ   C3550027   4.917   6.266  28.218 -0.0063  1.1501 -0.5662
    4IDB    C3650028   4.558   5.188  28.687 -1.4316 -0.2022 -0.0152
    4IDB    C3750029   4.450   5.216  28.774 -1.1550  0.5025  0.1124
    11RH    C3850030   5.809   5.201  27.680 -0.3699 -0.4991 -0.4265
    4IDB    C3950031   4.445   5.336  28.846 -0.2624  0.5186  0.1735
    62IDT   C4050032   4.320   5.344  28.920 -0.2210  0.2495 -0.2593
    72IDQ   C4150033   4.324   5.131  28.812  0.9521 -1.3606 -0.6839
    62IDT   C4250034   4.241   5.234  28.893  0.0073 -0.0168  0.1290
    72IDQ   C4350035   4.334   4.994  28.893  0.8643  0.0496 -0.5965
    72IDQ   C4450036   4.240   5.098  28.685 -0.3723 -0.0950 -1.3104
    62IDT    S550037   4.234   5.466  29.019 -0.1984  0.0277  0.0372
    62IDT   C4550038   4.088   5.357  29.019  0.1343 -0.4356  0.7030
    62IDT   C4650039   4.110   5.242  28.949  0.2084 -0.4042  0.6736
    82BTZ   C4750040   3.963   5.389  29.099  0.2893  0.1253  0.1822
    82BTZ   C4850041   3.967   5.495  29.185  0.2630  0.1768  0.1192
    82BTZ   C4950042   3.857   5.525  29.274  0.2603  0.1962  0.1095
    82BTZ   C5050043   3.744   5.448  29.278  0.2840  0.1641  0.1627
    82BTZ   C5150044   3.847   5.305  29.099  0.3148  0.0901  0.2395
    82BTZ   C5250045   3.736   5.335  29.190  0.3120  0.1097  0.2296
    92RH    C5350046   3.630   5.481  29.363  0.1184  0.0551  0.2860
    82BTZ    N450047   3.831   5.198  29.020  0.3416  0.0390  0.3032
    82BTZ    N550048   3.631   5.252  29.184  0.3366  0.0746  0.2854
    82BTZ    S650049   3.671   5.130  29.060  0.3649  0.0135  0.3544
    92RH    C5450050   3.597   5.571  29.456  0.2438  0.0644  0.3223
    92RH     S750051   3.709   5.693  29.537  0.3300  0.1474  0.0790
    92RH    C5550052   3.460   5.586  29.510  0.3349  0.0068  0.5744
    92RH     O250053   3.361   5.519  29.476  0.3067 -0.0559  0.7779
    92RH     N650054   3.453   5.689  29.607  0.4611  0.0314  0.5571
    92RH    C5650055   3.568   5.757  29.637  0.4823  0.1019  0.3220
    92RH    C5750056   3.331   5.726  29.675 -0.2830  0.5920  0.4487
    92RH    C5850057   3.294   5.628  29.789  0.5188  0.2469  0.0961
    92RH     S850058   3.588   5.883  29.748  0.6224  0.1445  0.2501
    72IDQ   C5950059   4.224   5.191  28.571 -0.3071 -0.1856  0.3879
    72IDQ   C6050060   4.203   5.124  28.434 -0.5245 -0.4205 -0.2861
    72IDQ   C6150061   4.330   5.062  28.363  1.4726 -0.7421  0.0895
    72IDQ   C6250062   4.446   5.161  28.330  0.6961 -0.3963 -0.1362
    72IDQ   C6350063   4.418   5.303  28.274  0.2976  0.9299  0.0001
    72IDQ   C6450064   4.531   5.389  28.234 -1.0082  0.7175 -0.3482
    72IDQ   C6550065   4.487   5.523  28.179  0.3225 -0.0216 -0.2604
    72IDQ   C6650066   4.474   4.941  28.933  0.2958 -0.2201 -0.4661
    72IDQ   C6750067   4.496   4.799  28.993 -0.1212 -0.5111 -0.4645
    72IDQ   C6850068   4.397   4.735  29.084 -0.4847  0.6570 -0.6508
    72IDQ   C6950069   4.264   4.698  29.030  0.8934 -1.0217 -1.0290
    72IDQ   C7050070   4.162   4.662  29.138 -0.2309 -0.6647 -0.5238
    72IDQ   C7150071   4.010   4.656  29.095  0.2288 -0.4109 -0.4048
    72IDQ   C7250072   3.942   4.782  29.045  0.3520  0.4189  0.2227
    11RH     C150073   6.580   6.260  23.455 -0.1940  0.0180  0.0768
    11RH     C250074   6.614   6.403  23.476 -0.0008 -0.0041 -0.0858
    11RH     N150075   6.680   6.175  23.506 -0.2344 -0.0564  0.0330
    11RH     S150076   6.777   6.415  23.561  0.1150 -0.1209 -0.2883
    11RH     C350077   6.791   6.231  23.565 -0.0975 -0.1353 -0.1469
    11RH     C450078   6.666   6.024  23.484  0.3035 -0.4264  0.5226
    11RH     S250079   6.924   6.153  23.633 -0.1100 -0.2331 -0.2356
    11RH     O150080   6.477   6.218  23.400 -0.3084  0.0917  0.2351
    11RH     C550081   6.536   6.504  23.437  0.0727  0.0548 -0.0809
    21BTZ    C650082   6.545   6.652  23.440  0.2147  0.0270 -0.1439
    21BTZ    C750083   6.656   6.711  23.496  0.0619  0.0224  0.1655
    21BTZ    C850084   6.431   6.734  23.411  0.2109 -0.0130 -0.2437
    21BTZ    C950085   6.660   6.852  23.526 -0.1012 -0.0210  0.3915
    21BTZ   C1050086   6.553   6.934  23.501 -0.1113 -0.0599  0.3074
    21BTZ   C1150087   6.435   6.878  23.442  0.0451 -0.0570 -0.0138
    21BTZ    N250088   6.318   6.689  23.357  0.3510 -0.0129 -0.5388
    21BTZ    N350089   6.325   6.947  23.413  0.0519 -0.0923 -0.1240
    21BTZ    S350090   6.209   6.831  23.342  0.2751 -0.0705 -0.5344
    31IDT   C1250091   6.566   7.071  23.555  0.4483  1.0033 -1.0550
    31IDT   C1350092   6.469   7.168  23.559  0.7508  1.3320 -1.5001
    31IDT   C1450093   6.515   7.290  23.619  0.7643  1.0180 -0.8483
    31IDT   C1550094   6.647   7.286  23.660  0.4731  0.4495  0.0946
    31IDT    S450095   6.724   7.127  23.627  0.1559  0.2657  0.2329
    4IDB    C1650096   6.686   7.410  23.708  0.2077 -0.3215  0.3441
    4IDB    C1750097   6.576   7.500  23.704  0.2363 -0.3017 -0.0801
    51IDQ   C1850098   6.446   7.426  23.651 -0.4169  0.0192  0.6520
    4IDB    C1950099   6.587   7.628  23.758  0.1118 -0.2339 -0.2145
    51IDQ   C2050100   6.340   7.450  23.763  0.3476  0.7738  0.7268
    51IDQ   C2150101   6.380   7.477  23.508  0.0228 -1.5227  0.1212
    51IDQ   C2250102   6.485   7.545  23.406  1.3299  0.4753  0.0138
    51IDQ   C2350103   6.317   7.338  23.853  0.2342  0.4175 -1.8044
    51IDQ   C2450104   6.422   7.601  23.282  1.0211  0.7433  0.2443
    51IDQ   C2550105   6.514   7.662  23.172 -0.0597 -1.0395  0.0474
    51IDQ   C2650106   6.564   7.563  23.067 -0.5074 -0.4559 -0.0590
    51IDQ   C2750107   6.689   7.603  22.985 -0.3096  0.3332 -0.4380
    51IDQ   C2850108   6.813   7.628  23.075  0.0869  0.6608 -0.5860
    51IDQ   C2950109   6.930   7.667  22.994 -0.5338 -0.3842  0.7848
    51IDQ   C3050110   6.226   7.373  23.974  1.0148  0.2179  1.3998
    51IDQ   C3150111   6.262   7.483  24.071  0.8336 -0.6314  0.5276
    51IDQ   C3250112   6.409   7.534  24.091 -0.6892  0.8821  0.2776
    51IDQ   C3350113   6.456   7.644  24.193  0.3685  0.0227 -0.0548
    51IDQ   C3450114   6.399   7.788  24.185 -0.2690  0.1421 -0.0473
    51IDQ   C3550115   6.452   7.901  24.270 -1.1211 -0.1303 -0.2090
    4IDB    C3650116   6.808   7.446  23.767  0.0536 -0.2733  0.6385
    4IDB    C3750117   6.817   7.577  23.821 -0.0718 -0.2042  0.4959
    11RH    C3850118   6.605   5.961  23.613  0.2066 -0.5730  0.6353
    4IDB    C3950119   6.709   7.665  23.817 -0.0421 -0.1856  0.0802
    62IDT   C4050120   6.743   7.789  23.878  0.4067 -0.2431  0.4471
    72IDQ   C4150121   6.934   7.648  23.891  0.7128  0.5845  0.4897
    62IDT   C4250122   6.871   7.780  23.928  0.5803  0.2429  0.1078
    72IDQ   C4350123   7.060   7.660  23.795 -0.4324 -0.1880 -0.7070
    72IDQ   C4450124   6.967   7.588  24.027 -0.5738  0.5293 -0.3895
    62IDT    S550125   6.667   7.947  23.914  0.0253 -0.4040  0.3611
    62IDT   C4550126   6.820   7.996  24.001  0.1256  0.2250 -0.1531
    62IDT   C4650127   6.915   7.897  23.998  0.4216  0.5082 -0.2317
    82BTZ   C4750128   6.839   8.138  24.037  0.1440  0.2254 -0.0375
    82BTZ   C4850129   6.740   8.227  24.006  0.0702  0.1407 -0.0463
    82BTZ   C4950130   6.746   8.365  24.049 -0.0315  0.1558 -0.0806
    82BTZ   C5050131   6.851   8.413  24.123 -0.0592  0.2555 -0.1059
    82BTZ   C5150132   6.951   8.183  24.115  0.1187  0.3314 -0.0625
    82BTZ   C5250133   6.957   8.323  24.159  0.0155  0.3467 -0.0973
    92RH    C5350134   6.868   8.552  24.162  0.2821 -0.1734 -0.3522
    82BTZ    N450135   7.053   8.106  24.152  0.1839  0.4201 -0.0567
    82BTZ    N550136   7.064   8.358  24.231 -0.0025  0.4477 -0.1197
    82BTZ    S650137   7.164   8.211  24.246  0.1145  0.5292 -0.0960
    92RH    C5450138   6.806   8.666  24.129  0.2065 -0.1590 -0.1645
    92RH     S750139   6.656   8.683  24.026  0.2463 -0.0818 -0.2093
    92RH    C5550140   6.852   8.800  24.173  0.0743 -0.2052  0.1192
    92RH     O250141   6.951   8.822  24.244  0.0187 -0.2615  0.2151
    92RH     N650142   6.768   8.902  24.124  0.0165 -0.1772  0.2739
    92RH    C5650143   6.661   8.866  24.045  0.0864 -0.1142  0.1483
    92RH    C5750144   6.798   9.047  24.144  0.1585 -0.0781 -0.1196
    92RH    C5850145   6.760   9.082  24.284 -0.1617  0.2223 -0.3250
    92RH     S850146   6.546   8.968  23.975  0.0404 -0.0699  0.2851
    72IDQ   C5950147   7.039   7.461  24.042 -0.8836  0.0256 -0.1994
    72IDQ   C6050148   6.986   7.354  24.131  0.2075  0.1023  0.1558
    72IDQ   C6150149   7.058   7.220  24.100 -1.1309 -0.7427  0.4276
    72IDQ   C6250150   7.047   7.127  24.215 -0.1357 -0.4254  0.2062
    72IDQ   C6350151   7.118   6.995  24.179 -0.4019  0.0403  0.4611
    72IDQ   C6450152   7.085   6.898  24.292 -0.3302 -0.3848  1.4138
    72IDQ   C6550153   7.115   6.760  24.235  0.1096  0.3998 -0.0876
    72IDQ   C6650154   7.176   7.754  23.842  0.2871  0.6744  0.0275
    72IDQ   C6750155   7.283   7.761  23.734 -0.4120  0.8163 -0.2338
    72IDQ   C6850156   7.406   7.825  23.796 -0.4611 -0.0943  1.0638
    72IDQ   C6950157   7.527   7.856  23.700 -0.0153  0.0001 -0.0135
    72IDQ   C7050158   7.572   7.756  23.585  0.4217 -0.6082 -0.4257
    72IDQ   C7150159   7.491   7.794  23.460 -0.4801 -0.7672 -0.4988
    72IDQ   C7250160   7.451   7.673  23.375  0.4684 -0.6950 -0.2922
    11RH     C150161   1.095   4.492   0.773  0.5409  0.0759  0.2963
    11RH     C250162   1.065   4.638   0.767  0.2950  0.0159  0.0577
    11RH     N150163   1.049   4.435   0.894  0.2644  0.1144  0.2108
    11RH     S150164   0.978   4.690   0.920 -0.2837  0.0141 -0.2636
    11RH     C350165   0.986   4.517   0.985 -0.1730  0.0927 -0.0671
    11RH     C450166   1.049   4.285   0.902 -1.2557  0.3083 -0.7729
    11RH     S250167   0.922   4.474   1.135 -0.5687  0.1290 -0.2219
    11RH     O150168   1.153   4.427   0.685  0.9390  0.0917  0.5421
    11RH     C550169   1.098   4.715   0.663  0.4800 -0.0289  0.0820
    21BTZ    C650170   1.067   4.850   0.618  0.5484 -0.1238  0.4752
    21BTZ    C750171   0.974   4.929   0.680  0.3064 -0.3141  0.3573
    21BTZ    C850172   1.141   4.905   0.508  0.3499 -0.0710  0.3658
    21BTZ    C950173   0.949   5.065   0.639 -0.1398 -0.4609  0.1275
    21BTZ   C1050174   1.018   5.122   0.535 -0.3432 -0.4174  0.0160
    21BTZ   C1150175   1.116   5.043   0.466 -0.1036 -0.2202  0.1322
    21BTZ    N250176   1.234   4.839   0.440  0.5519  0.1092  0.4629
    21BTZ    N350177   1.189   5.088   0.364 -0.2661 -0.1599  0.0416
    21BTZ    S350178   1.296   4.952   0.316  0.1629  0.0954  0.2556
    31IDT   C1250179   0.989   5.268   0.494  1.0233  0.4981  0.3559
    31IDT   C1350180   0.998   5.324   0.370  1.6403  0.9898  0.6051
    31IDT   C1450181   0.938   5.453   0.362  1.1191  0.7567  0.6769
    31IDT   C1550182   0.883   5.497   0.481  0.1039  0.0875  0.4835
    31IDT    S450183   0.904   5.377   0.613 -0.2744 -0.3032  0.1927
    4IDB    C1650184   0.839   5.638   0.467  0.2770  0.3478  0.4557
    4IDB    C1750185   0.865   5.680   0.333  0.5202  0.2813  0.4819
    51IDQ   C1850186   0.933   5.568   0.258  0.1825  1.4556 -0.0678
    4IDB    C1950187   0.822   5.804   0.288  0.5321  0.2258  0.3170
    51IDQ   C2050188   0.841   5.531   0.130  0.2653  0.0500  0.0336
    51IDQ   C2150189   1.084   5.593   0.217 -0.5344 -0.6598  0.1756
    51IDQ   C2250190   1.174   5.716   0.239 -0.2922  0.2558 -0.2460
    51IDQ   C2350191   0.740   5.413   0.130 -0.9681 -1.0946 -0.3574
    51IDQ   C2450192   1.261   5.714   0.376  0.6867  0.8389  0.4218
    51IDQ   C2550193   1.298   5.577   0.436  0.3267  0.6589  0.0611
    51IDQ   C2650194   1.352   5.595   0.570 -0.1664  0.1205 -0.3977
    51IDQ   C2750195   1.366   5.464   0.641 -0.2063  0.1905 -0.7868
    51IDQ   C2850196   1.496   5.459   0.726 -0.5260  0.5548  0.2660
    51IDQ   C2950197   1.508   5.330   0.798  0.4566 -0.0957  0.8354
    51IDQ   C3050198   0.621   5.452   0.209  0.3097  0.1427 -0.2931
    51IDQ   C3150199   0.506   5.354   0.181  0.7294  1.2704  0.0542
    51IDQ   C3250200   0.378   5.389   0.263 -0.3657  0.2476 -0.2707
    51IDQ   C3350201   0.382   5.422   0.408 -0.0845 -0.7514 -0.0031
    51IDQ   C3450202   0.254   5.477   0.473  0.5916 -0.1965 -0.5382
    51IDQ   C3550203   0.138   5.374   0.481 -0.8305  1.1118  0.3617
    4IDB    C3650204   0.768   5.719   0.556  0.0428  0.3589  0.2631
    4IDB    C3750205   0.725   5.846   0.508  0.0587  0.3014  0.0964
    11RH    C3850206   0.918   4.219   0.854 -1.2515  0.4843 -0.5305
    4IDB    C3950207   0.752   5.886   0.377  0.2979  0.2368  0.1245
    62IDT   C4050208   0.689   6.011   0.351  0.4558  0.0726  0.1124
    72IDQ   C4150209   0.619   5.947   0.572 -0.1128  0.2198  1.3685
    62IDT   C4250210   0.604   6.048   0.454  1.3028  0.4576  0.6961
    72IDQ   C4350211   0.682   6.027   0.699 -0.4551 -0.4043 -0.0805
    72IDQ   C4450212   0.474   5.890   0.601  0.3208 -0.1763  1.1380
    62IDT    S550213   0.687   6.130   0.217 -0.3471 -0.2215 -0.1527
    62IDT   C4550214   0.567   6.229   0.311  0.5482  0.2128  0.5751
    62IDT   C4650215   0.535   6.171   0.431  1.3562  0.5373  0.9585
    82BTZ   C4750216   0.519   6.358   0.262 -0.1824 -0.0693 -0.0539
    82BTZ   C4850217   0.412   6.372   0.178 -0.3133 -0.0032  0.1220
    82BTZ   C4950218   0.367   6.501   0.133 -0.3441  0.0283  0.2434
    82BTZ   C5050219   0.428   6.617   0.173 -0.2440 -0.0062  0.1888
    82BTZ   C5150220   0.587   6.476   0.307 -0.0740 -0.1075 -0.1175
    82BTZ   C5250221   0.541   6.608   0.261 -0.1053 -0.0755  0.0059
    92RH    C5350222   0.389   6.756   0.136  0.1611 -0.0152 -0.0142
    82BTZ    N450223   0.693   6.476   0.389  0.0575 -0.1720 -0.2858
    82BTZ    N550224   0.610   6.713   0.306  0.0009 -0.1144 -0.0632
    82BTZ    S650225   0.739   6.648   0.411  0.1487 -0.1953 -0.2936
    92RH    C5450226   0.284   6.808   0.071  0.2276  0.0358 -0.0823
    92RH     S750227   0.157   6.715  -0.024  0.2537  0.0984 -0.1784
    92RH    C5550228   0.253   6.953   0.067  0.2922  0.0492 -0.0902
    92RH     O250229   0.320   7.042   0.122  0.2927  0.0159 -0.0359
    92RH     N650230   0.136   6.979  -0.008  0.3552  0.1059 -0.1685
    92RH    C5650231   0.070   6.872  -0.065  0.3488  0.1396 -0.2243
    92RH    C5750232   0.089   7.120  -0.027  0.0257  0.0285 -0.3914
    92RH    C5850233   0.123   7.178  -0.159  1.2326 -0.7968  0.4363
    92RH     S850234  -0.070   6.876  -0.158  0.4148  0.2079 -0.3204
    72IDQ   C5950235   0.426   5.771   0.691  0.0798 -0.1666 -0.1357
    72IDQ   C6050236   0.275   5.747   0.672 -0.2659 -0.6049 -0.8807
    72IDQ   C6150237   0.203   5.661   0.777  0.3380  0.7120 -0.4610
    72IDQ   C6250238   0.115   5.730   0.883 -0.1420  0.9716  0.4279
    72IDQ   C6350239   0.045   5.632   0.974  0.9142  0.6362 -0.3778
    72IDQ   C6450240   0.000   5.701   1.106 -0.3864 -0.1804  0.1824
    72IDQ   C6550241  -0.086   5.612   1.193 -0.5525  0.8146 -0.1055
    72IDQ   C6650242   0.695   5.953   0.841 -0.2549 -0.6210  0.0180
    72IDQ   C6750243   0.741   6.040   0.960 -0.1249  0.1466 -0.0634
    72IDQ   C6850244   0.777   5.990   1.101  0.2615  0.5624 -0.4752
    72IDQ   C6950245   0.803   6.114   1.188  0.4643  0.7613 -0.1708
    72IDQ   C7050246   0.749   6.115   1.333  0.4615  0.7887 -0.7581
    72IDQ   C7150247   0.765   5.988   1.422 -0.1036  0.2238  0.3839
    72IDQ   C7250248   0.643   5.967   1.510 -0.1920  0.9962  0.3639
    11RH     C150249   6.261   2.483  18.213 -0.0688  0.1319  0.2618
    11RH     C250250   6.383   2.562  18.182  0.0260  0.0262  0.3629
    11RH     N150251   6.168   2.560  18.287 -0.0538  0.2052  0.2044
    11RH     S150252   6.367   2.731  18.251  0.1281  0.0301  0.3766
    11RH     C350253   6.200   2.690  18.319  0.0409  0.1711  0.2475
    11RH     C450254   6.027   2.504  18.306 -0.1785 -1.1443  0.6431
    11RH     S250255   6.108   2.801  18.405  0.0782  0.2421  0.1950
    11RH     O150256   6.240   2.366  18.180 -0.1513  0.1553  0.2289
    11RH     C550257   6.486   2.513  18.113  0.0327 -0.0574  0.4324
    21BTZ    C650258   6.610   2.575  18.062 -0.0663 -0.2186  0.0671
    21BTZ    C750259   6.636   2.708  18.080 -0.1547 -0.2394  0.3481
    21BTZ    C850260   6.709   2.494  17.995  0.0597 -0.0476  0.0448
    21BTZ    C950261   6.759   2.768  18.035 -0.1241 -0.0944  0.6194
    21BTZ   C1050262   6.856   2.695  17.971 -0.0051  0.0713  0.6087
    21BTZ   C1150263   6.833   2.556  17.949  0.0910  0.0998  0.3200
    21BTZ    N250264   6.695   2.363  17.971  0.1539 -0.0108 -0.2160
    21BTZ    N350265   6.920   2.474  17.888  0.2100  0.2551  0.2813
    21BTZ    S350266   6.844   2.312  17.887  0.2893  0.2186 -0.1177
    31IDT   C1250267   6.985   2.771  17.930  0.4518  0.0505 -0.0564
    31IDT   C1350268   7.093   2.734  17.854  0.5921  0.1548  0.0896
    31IDT   C1450269   7.187   2.840  17.836  0.3818  0.3266 -0.0081
    31IDT   C1550270   7.152   2.958  17.897  0.0806  0.3544 -0.2291
    31IDT    S450271   6.995   2.945  17.984  0.0393  0.1632 -0.3316
    4IDB    C1650272   7.253   3.051  17.893 -0.3961 -0.4382  0.1472
    4IDB    C1750273   7.353   3.010  17.799 -0.7117 -0.0324 -0.3757
    51IDQ   C1850274   7.320   2.860  17.770 -0.2001 -0.4163  0.0719
    4IDB    C1950275   7.455   3.096  17.761 -0.8016  0.1115 -0.2938
    51IDQ   C2050276   7.344   2.839  17.622 -0.8016  0.0186 -0.3663
    51IDQ   C2150277   7.426   2.767  17.837  0.0937 -0.3626 -0.0399
    51IDQ   C2250278   7.552   2.815  17.897 -0.1663 -1.1117  1.0908
    51IDQ   C2350279   7.246   2.753  17.542  0.4113 -0.9182  0.1984
    51IDQ   C2450280   7.551   2.906  18.020 -0.0194 -0.4217  0.2932
    51IDQ   C2550281   7.539   2.847  18.154 -0.3040  0.2223  0.5343
    51IDQ   C2650282   7.535   2.959  18.263  0.5580  0.8916  0.5371
    51IDQ   C2750283   7.668   3.026  18.293 -0.3998  1.5589  0.8022
    51IDQ   C2850284   7.639   3.111  18.416  0.9848 -0.0664  0.0549
    51IDQ   C2950285   7.770   3.139  18.479 -0.3741 -0.9305  0.6269
    51IDQ   C3050286   7.204   2.804  17.395  0.8539 -1.3161 -0.7358
    51IDQ   C3150287   7.124   2.711  17.312  0.0424  0.1751  0.3296
    51IDQ   C3250288   7.212   2.652  17.194  0.2977  0.5527 -0.4230
    51IDQ   C3350289   7.133   2.552  17.110 -0.3606  0.3255 -0.4049
    51IDQ   C3450290   7.170   2.564  16.962  0.4027 -0.5442  0.5150
    51IDQ   C3550291   7.275   2.481  16.893  0.3944 -0.5078  0.9227
    4IDB    C3650292   7.256   3.179  17.950 -0.1675 -0.7041  0.7591
    4IDB    C3750293   7.361   3.266  17.910 -0.2637 -0.5518  0.8340
    11RH    C3850294   5.936   2.519  18.173 -0.2656 -0.0425 -0.6052
    4IDB    C3950295   7.457   3.224  17.818 -0.5730 -0.1544  0.3180
    62IDT   C4050296   7.547   3.339  17.777 -0.0764  0.2230  0.0916
    72IDQ   C4150297   7.387   3.414  17.951  0.8919 -0.4082 -0.6565
    62IDT   C4250298   7.502   3.445  17.852  0.1304  0.4611 -0.1140
    72IDQ   C4350299   7.442   3.418  18.105 -0.0240  0.0624  0.8881
    72IDQ   C4450300   7.246   3.489  17.956  0.3373  0.3243  0.4539
    62IDT    S550301   7.686   3.386  17.672 -0.0529 -0.2243 -0.0808
    62IDT   C4550302   7.675   3.554  17.739  0.2500 -0.0577 -0.4389
    62IDT   C4650303   7.574   3.567  17.831  0.3152  0.3028 -0.4144
    82BTZ   C4750304   7.756   3.664  17.684  0.2760  0.2834 -0.3837
    82BTZ   C4850305   7.776   3.665  17.548  0.1780  0.6837 -0.3958
    82BTZ   C4950306   7.858   3.766  17.485 -0.0629  1.0149 -0.1893
    82BTZ   C5050307   7.920   3.864  17.558 -0.2054  0.9455  0.0294
    82BTZ   C5150308   7.819   3.764  17.764  0.1340  0.1948 -0.1597
    82BTZ   C5250309   7.902   3.866  17.700 -0.1109  0.5315  0.0505
    92RH    C5350310   7.999   3.972  17.497 -0.0846 -0.2359 -0.1343
    82BTZ    N450311   7.806   3.773  17.897  0.2095 -0.1823 -0.1259
    82BTZ    N550312   7.957   3.957  17.781 -0.2322  0.4250  0.2532
    82BTZ    S650313   7.903   3.915  17.946 -0.0343 -0.1216  0.1825
    92RH    C5450314   8.028   4.014  17.374 -0.0568 -0.2037 -0.1168
    92RH     S750315   7.955   3.953  17.217 -0.2889  0.0906 -0.1263
    92RH    C5550316   8.127   4.121  17.345  0.1747 -0.4092 -0.0873
    92RH     O250317   8.194   4.182  17.430  0.3666 -0.6312 -0.0749
    92RH     N650318   8.138   4.145  17.206  0.1522 -0.3221 -0.0736
    92RH    C5650319   8.059   4.071  17.120 -0.0690 -0.0721 -0.0892
    92RH    C5750320   8.240   4.243  17.143 -0.6249  0.5051 -0.2454
    92RH    C5850321   8.182   4.385  17.115 -0.7310  0.5054 -0.4217
    92RH     S850322   8.053   4.080  16.952 -0.1432  0.0780 -0.0796
    72IDQ   C5950323   7.245   3.611  17.876 -0.0899  0.3678 -0.1868
    72IDQ   C6050324   7.098   3.656  17.873  0.1401 -0.8571 -1.2055
    72IDQ   C6150325   7.072   3.784  17.797 -0.1141  0.4391 -0.0181
    72IDQ   C6250326   6.965   3.755  17.697 -0.2566 -0.2094  0.0704
    72IDQ   C6350327   7.008   3.772  17.552  0.4912 -0.2981  0.4706
    72IDQ   C6450328   6.936   3.697  17.440 -0.5298  0.7083  0.1100
    72IDQ   C6550329   7.009   3.701  17.307 -0.0154  0.3836 -0.2793
    72IDQ   C6650330   7.358   3.378  18.216 -0.0799  0.1255 -0.1350
    72IDQ   C6750331   7.425   3.394  18.346 -0.2057 -0.8858  0.1882
    72IDQ   C6850332   7.492   3.521  18.400  0.9024 -0.9934 -0.8578
    72IDQ   C6950333   7.400   3.642  18.413  1.3018  1.1353 -0.0407
    72IDQ   C7050334   7.446   3.769  18.441 -0.8598 -0.4297 -0.2723
    72IDQ   C7150335   7.541   3.824  18.330  0.0445  0.2579 -0.0070
    72IDQ   C7250336   7.585   3.973  18.358 -0.0902  1.2793 -0.2674
    11RH     C150337   7.310   2.481  23.089  0.0333  0.3847 -0.0362
    11RH     C250338   7.203   2.421  23.006  0.1067  0.1308  0.0491
    11RH     N150339   7.410   2.540  23.009  0.0569  0.2233 -0.1277
    11RH     S150340   7.240   2.447  22.828  0.2019 -0.3035  0.0021
    11RH     C350341   7.396   2.536  22.872  0.1401 -0.1289 -0.1268
    11RH     C450342   7.536   2.587  23.072 -0.2267 -1.2278 -0.4515
    11RH     S250343   7.500   2.599  22.756  0.1842 -0.3817 -0.2260
    11RH     O150344   7.315   2.480  23.213 -0.0403  0.7002 -0.0286
    11RH     C550345   7.096   2.359  23.057  0.1017  0.2165  0.1441
    21BTZ    C650346   6.991   2.275  22.996 -0.0813 -0.2169  0.2614
    21BTZ    C750347   6.986   2.249  22.862 -0.1186 -0.0725  0.2356
    21BTZ    C850348   6.904   2.202  23.083 -0.1559 -0.2105  0.1922
    21BTZ    C950349   6.896   2.152  22.807 -0.2306  0.0843  0.1407
    21BTZ   C1050350   6.810   2.080  22.886 -0.3048  0.0966  0.0717
    21BTZ   C1150351   6.812   2.103  23.027 -0.2697 -0.0511  0.0954
    21BTZ    N250352   6.900   2.218  23.216 -0.1293 -0.3427  0.2093
    21BTZ    N350353   6.733   2.040  23.115 -0.3344 -0.0551  0.0353
    21BTZ    S350354   6.775   2.105  23.276 -0.2509 -0.2672  0.1008
    31IDT   C1250355   6.710   1.988  22.821 -0.3471 -0.3283  0.2768
    31IDT   C1350356   6.618   1.906  22.882 -0.6704 -0.2650 -0.1168
    31IDT   C1450357   6.543   1.828  22.790 -0.4528 -0.0804 -0.4530
    31IDT   C1550358   6.577   1.849  22.658  0.0369 -0.0020 -0.3191
    31IDT    S450359   6.708   1.970  22.640  0.2625 -0.1573  0.2497
    4IDB    C1650360   6.481   1.785  22.574  0.4584 -0.4928 -0.3749
    4IDB    C1750361   6.392   1.703  22.650  0.3107 -0.0893 -0.1097
    51IDQ   C1850362   6.416   1.741  22.795  0.7098 -0.4301 -0.0560
    4IDB    C1950363   6.288   1.635  22.589 -0.0371  0.1852  0.1634
    51IDQ   C2050364   6.294   1.827  22.852  0.5990  0.2174  0.3965
    51IDQ   C2150365   6.434   1.632  22.905 -0.9678 -0.2124  0.5451
    51IDQ   C2250366   6.411   1.484  22.870  0.2683 -0.6111 -0.4699
    51IDQ   C2350367   6.303   1.978  22.884 -0.0847 -0.1784 -0.3551
    51IDQ   C2450368   6.463   1.378  22.974  0.0883 -0.5553 -0.1072
    51IDQ   C2550369   6.399   1.396  23.116 -1.3318 -0.4618 -0.3777
    51IDQ   C2650370   6.467   1.298  23.220  0.5567 -0.0401  0.3327
    51IDQ   C2750371   6.370   1.267  23.328 -0.9222  0.4091 -0.4481
    51IDQ   C2850372   6.442   1.206  23.458 -0.3093 -0.5344  0.3939
    51IDQ   C2950373   6.358   1.178  23.572  0.5444  0.2634 -0.7393
    51IDQ   C3050374   6.184   2.056  22.954 -0.2695 -0.9806 -0.3791
    51IDQ   C3150375   6.220   2.122  23.088  1.0139 -0.0651 -0.1585
    51IDQ   C3250376   6.087   2.158  23.155  0.4318 -0.2539  0.6449
    51IDQ   C3350377   6.089   2.279  23.244  0.9401 -0.5071 -0.5578
    51IDQ   C3450378   6.112   2.254  23.392  0.7203  0.9589 -0.6431
    51IDQ   C3550379   5.998   2.191  23.475  0.3389 -0.9028  0.2285
    4IDB    C3650380   6.467   1.798  22.435  0.2580 -0.6245 -0.3676
    4IDB    C3750381   6.360   1.727  22.374 -0.0970 -0.3397 -0.0863
    11RH    C3850382   7.530   2.736  23.107  0.4101 -1.3401 -0.4593
    4IDB    C3950383   6.273   1.648  22.450 -0.2378  0.0535  0.1703
    62IDT   C4050384   6.177   1.589  22.358  0.0014 -0.1458 -0.2358
    72IDQ   C4150385   6.335   1.707  22.223  0.8392 -0.1386 -0.0268
    62IDT   C4250386   6.208   1.613  22.226 -0.3070 -0.1936 -0.3200
    72IDQ   C4350387   6.464   1.632  22.161  0.7043  0.2028  0.4508
    72IDQ   C4450388   6.309   1.839  22.134 -0.2261 -0.5329 -0.9116
    62IDT    S550389   6.021   1.502  22.375 -0.2952  0.4553  0.1908
    62IDT   C4550390   6.005   1.503  22.194 -0.8475  0.6183  0.2355
    62IDT   C4650391   6.111   1.565  22.133 -0.7873  0.2384 -0.0529
    82BTZ   C4750392   5.908   1.421  22.119 -0.1772 -0.2501  0.0204
    82BTZ   C4850393   5.818   1.352  22.197 -0.3090 -0.3379 -0.2074
    82BTZ   C4950394   5.709   1.278  22.139 -0.1919 -0.3012 -0.4778
    82BTZ   C5050395   5.689   1.273  22.003  0.0567 -0.1769 -0.5204
    82BTZ   C5150396   5.891   1.420  21.977  0.0836 -0.1187 -0.0134
    82BTZ   C5250397   5.780   1.344  21.918  0.2027 -0.0815 -0.2880
    92RH    C5350398   5.593   1.175  21.940  0.1378 -0.1828 -0.1798
    82BTZ    N450399   5.971   1.483  21.891  0.2316 -0.0245  0.1926
    82BTZ    N550400   5.771   1.347  21.785  0.4462  0.0426 -0.3033
    82BTZ    S650401   5.907   1.449  21.728  0.5356  0.1187  0.0406
    92RH    C5450402   5.503   1.093  21.995  0.0743 -0.1023 -0.1621
    92RH     S750403   5.480   1.058  22.174 -0.1402  0.1682 -0.1364
    92RH    C5550404   5.406   1.014  21.916  0.1718 -0.2250 -0.1607
    92RH     O250405   5.396   1.015  21.792  0.3207 -0.4129 -0.1755
    92RH     N650406   5.323   0.935  21.999  0.0735 -0.1009 -0.1398
    92RH    C5650407   5.342   0.941  22.135 -0.0906  0.1062 -0.1245
    92RH    C5750408   5.210   0.857  21.931  0.2696 -0.6591 -0.3276
    92RH    C5850409   5.240   0.715  21.900  0.3103  0.9807  0.3577
    92RH     S850410   5.258   0.858  22.255 -0.2329  0.2863 -0.0992
    72IDQ   C5950411   6.172   1.896  22.096 -0.6466 -0.3918 -0.1509
    72IDQ   C6050412   6.184   2.047  22.062  0.3972 -0.0461  0.1324
    72IDQ   C6150413   6.079   2.105  21.974  1.0089 -0.6882 -0.0699
    72IDQ   C6250414   6.029   2.007  21.864 -0.3429 -0.0664  0.3249
    72IDQ   C6350415   6.112   1.984  21.728 -0.9150  0.0541 -0.6932
    72IDQ   C6450416   6.143   2.098  21.642 -0.6413  0.5364 -0.1116
    72IDQ   C6550417   6.253   2.058  21.538  0.4763 -0.2924  0.0794
    72IDQ   C6650418   6.482   1.549  22.039  0.0429  0.1760  0.8778
    72IDQ   C6750419   6.465   1.400  22.046 -0.1437 -0.1829 -0.0209
    72IDQ   C6850420   6.578   1.320  22.110  0.2544 -0.0534  0.1185
    72IDQ   C6950421   6.617   1.190  22.055  0.6355 -0.1353  0.4809
    72IDQ   C7050422   6.728   1.129  22.126 -0.1624 -0.8555 -0.2875
    72IDQ   C7150423   6.807   1.029  22.042  0.0056 -0.2367 -0.1159
    72IDQ   C7250424   6.879   0.932  22.136  0.1851 -0.3341 -0.4994
    11RH     C150425   6.401   0.249  14.430  0.0280  0.2463 -0.5007
    11RH     C250426   6.453   0.121  14.376  0.2147  0.1457 -0.0892
    11RH     N150427   6.260   0.249  14.434  0.0268  0.0583 -0.5190
    11RH     S150428   6.314   0.009  14.334  0.3766 -0.1893  0.2472
    11RH     C350429   6.193   0.137  14.389  0.1900 -0.1805 -0.1726
    11RH     C450430   6.174   0.366  14.483 -0.7346  0.7078 -0.3641
    11RH     S250431   6.026   0.112  14.383  0.2257 -0.4363 -0.1135
    11RH     O150432   6.469   0.345  14.468 -0.1122  0.4667 -0.7970
    11RH     C550433   6.584   0.095  14.362  0.2535  0.2849  0.0098
    21BTZ    C650434   6.668  -0.008  14.323 -0.0280 -0.3407  0.3825
    21BTZ    C750435   6.619  -0.129  14.281 -0.0756 -0.2686  0.2270
    21BTZ    C850436   6.810   0.013  14.321 -0.0347 -0.3040  0.1581
    21BTZ    C950437   6.706  -0.235  14.237 -0.1317 -0.1574 -0.1543
    21BTZ   C1050438   6.842  -0.220  14.234 -0.1401 -0.1185 -0.3793
    21BTZ   C1150439   6.898  -0.095  14.276 -0.0917 -0.1910 -0.2291
    21BTZ    N250440   6.870   0.126  14.359  0.0083 -0.3666  0.2780
    21BTZ    N350441   7.029  -0.068  14.278 -0.0945 -0.1627 -0.4208
    21BTZ    S350442   7.045   0.099  14.338 -0.0228 -0.2820 -0.1072
    31IDT   C1250443   6.919  -0.328  14.170 -0.3656 -0.0773  0.1188
    31IDT   C1350444   7.048  -0.357  14.206 -0.3315  0.1423  0.1771
    31IDT   C1450445   7.106  -0.461  14.126 -0.0712  0.3353  0.1116
    31IDT   C1550446   7.021  -0.511  14.030  0.0944  0.2639  0.0033
    31IDT    S450447   6.861  -0.431  14.032 -0.0679 -0.0558 -0.0242
    4IDB    C1650448   7.086  -0.623  13.945  0.2930 -0.2256  0.2192
    4IDB    C1750449   7.220  -0.626  13.994  0.1264 -0.6593  0.6590
    51IDQ   C1850450   7.242  -0.538  14.113  0.3022 -0.4389 -1.3872
    4IDB    C1950451   7.315  -0.710  13.935  0.2653 -0.3182  0.3919
    51IDQ   C2050452   7.282  -0.611  14.248  0.1237 -0.4342 -0.0593
    51IDQ   C2150453   7.354  -0.425  14.102  0.2516  0.9871  0.3192
    51IDQ   C2250454   7.419  -0.381  13.974 -1.1950  0.3574  0.4601
    51IDQ   C2350455   7.180  -0.655  14.356 -0.2521 -1.0322 -0.2167
    51IDQ   C2450456   7.536  -0.283  13.990  0.9025 -0.3471 -0.8198
    51IDQ   C2550457   7.616  -0.244  13.868 -0.2081 -0.1545  0.5512
    51IDQ   C2650458   7.562  -0.133  13.783  0.0149  0.0941 -0.7367
    51IDQ   C2750459   7.642  -0.084  13.666  0.1893  0.1215  0.3235
    51IDQ   C2850460   7.706   0.042  13.701 -0.6891  0.7670 -0.2694
    51IDQ   C2950461   7.757   0.088  13.573 -0.1711 -0.1392  1.4723
    51IDQ   C3050462   7.262  -0.740  14.463 -0.2280  1.0114  0.0080
    51IDQ   C3150463   7.177  -0.775  14.593  0.1949  0.5189 -0.0289
    51IDQ   C3250464   7.037  -0.849  14.566 -1.5330  0.4292 -0.0371
    51IDQ   C3350465   6.972  -0.890  14.696 -0.0523  0.3807 -1.5479
    51IDQ   C3450466   6.828  -0.923  14.690 -0.6082 -0.1743  0.1903
    51IDQ   C3550467   6.748  -0.922  14.823  0.1252  0.8800 -0.1850
    4IDB    C3650468   7.046  -0.702  13.836  0.6015  0.5573 -0.4959
    4IDB    C3750469   7.144  -0.787  13.778  0.7398  0.8963 -0.7601
    11RH    C3850470   6.170   0.377  14.642  0.6467  0.5540 -0.6276
    4IDB    C3950471   7.275  -0.789  13.827  0.5738  0.4648 -0.3232
    62IDT   C4050472   7.357  -0.882  13.749  0.0281  0.4117 -0.4579
    72IDQ   C4150473   7.138  -0.890  13.663 -0.3963  0.1010  0.5415
    62IDT   C4250474   7.278  -0.941  13.652  0.4162  0.7964 -1.0204
    72IDQ   C4350475   7.080  -0.814  13.529 -0.8670 -0.2345  0.5689
    72IDQ   C4450476   7.052  -1.011  13.708  0.6486  0.7902 -0.4541
    62IDT    S550477   7.525  -0.945  13.746 -0.0993  0.0091  0.3588
    62IDT   C4550478   7.478  -1.053  13.608  0.4030  0.4015 -0.1269
    62IDT   C4650479   7.346  -1.038  13.572  0.6286  0.7912 -0.8340
    82BTZ   C4750480   7.575  -1.144  13.536  0.0968  0.2123 -0.2341
    82BTZ   C4850481   7.707  -1.106  13.547  0.0855  0.2186 -0.1159
    82BTZ   C4950482   7.814  -1.193  13.504  0.1308  0.2018  0.0293
    82BTZ   C5050483   7.789  -1.316  13.450  0.1873  0.1790  0.0559
    82BTZ   C5150484   7.545  -1.272  13.481  0.1553  0.1886 -0.2120
    82BTZ   C5250485   7.653  -1.360  13.437  0.2013  0.1717 -0.0644
    92RH    C5350486   7.890  -1.395  13.385  0.0171  0.1364  0.4513
    82BTZ    N450487   7.421  -1.320  13.465  0.1717  0.1805 -0.3188
    82BTZ    N550488   7.617  -1.478  13.386  0.2547  0.1497 -0.0527
    82BTZ    S650489   7.438  -1.482  13.392  0.2482  0.1501 -0.2330
    92RH    C5450490   8.018  -1.386  13.350  0.0002 -0.0310  0.3414
    92RH     S750491   8.129  -1.241  13.374  0.1233 -0.0591 -0.0459
    92RH    C5550492   8.094  -1.496  13.286 -0.1253 -0.2255  0.5236
    92RH     O250493   8.048  -1.607  13.256 -0.2278 -0.2564  0.7942
    92RH     N650494   8.228  -1.459  13.261 -0.1153 -0.3767  0.3502
    92RH    C5650495   8.269  -1.333  13.297  0.0029 -0.3268  0.0515
    92RH    C5750496   8.328  -1.564  13.213  0.0109 -0.8413 -0.9665
    92RH    C5850497   8.424  -1.613  13.328 -0.0021  0.0510  0.7082
    92RH     S850498   8.422  -1.264  13.279  0.0405 -0.4774 -0.2019
    72IDQ   C5950499   6.922  -1.067  13.633  0.4466 -1.2265 -0.9201
    72IDQ   C6050500   6.840  -1.185  13.695 -0.0415  0.6262 -0.5002
    72IDQ   C6150501   6.808  -1.204  13.843 -0.1971  0.7286  0.8997
    72IDQ   C6250502   6.730  -1.078  13.901  0.5773  0.3924  0.0350
    72IDQ   C6350503   6.592  -1.043  13.851  0.3924  0.1316 -0.2582
    72IDQ   C6450504   6.490  -1.149  13.823  1.1936 -0.5403 -0.5191
    72IDQ   C6550505   6.355  -1.088  13.799 -0.2537 -0.8925 -0.2292
    72IDQ   C6650506   7.178  -0.708  13.453  0.3273 -0.3461  0.0047
    72IDQ   C6750507   7.223  -0.577  13.515  0.3736 -0.1406  0.0996
    72IDQ   C6850508   7.125  -0.479  13.530  0.3437 -1.1350  0.3924
    72IDQ   C6950509   7.170  -0.328  13.560  0.0112  0.0360  0.2383
    72IDQ   C7050510   7.051  -0.234  13.601 -0.8679 -0.1533 -0.6056
    72IDQ   C7150511   7.103  -0.130  13.713 -0.2620 -0.0800  0.2966
    72IDQ   C7250512   7.012  -0.017  13.743 -0.5264 -0.0627 -0.3100
    11RH     C150513   0.321   0.028  23.743 -0.0890  0.1522 -0.2556
    11RH     C250514   0.220  -0.044  23.662  0.0062  0.0291 -0.2656
    11RH     N150515   0.264   0.078  23.863 -0.1067 -0.1285 -0.1437
    11RH     S150516   0.058  -0.041  23.747  0.0662 -0.4474 -0.1269
    11RH     C350517   0.131   0.056  23.886 -0.0373 -0.4612 -0.0639
    11RH     C450518   0.364   0.151  23.955  0.3108  0.0568 -0.9928
    11RH     S250519   0.040   0.104  24.020 -0.0405 -0.8378  0.0749
    11RH     O150520   0.440   0.044  23.713 -0.1472  0.4607 -0.3333
    11RH     C550521   0.248  -0.101  23.544  0.0405  0.2425 -0.3621
    21BTZ    C650522   0.164  -0.168  23.448  0.0059 -0.5072  0.3175
    21BTZ    C750523   0.031  -0.196  23.467  0.0186 -0.5578  0.3319
    21BTZ    C850524   0.227  -0.212  23.327 -0.0387 -0.3113  0.2222
    21BTZ    C950525  -0.046  -0.268  23.369 -0.0117 -0.4196  0.2542
    21BTZ   C1050526   0.010  -0.312  23.252 -0.0547 -0.2309  0.1625
    21BTZ   C1150527   0.149  -0.285  23.227 -0.0696 -0.1706  0.1435
    21BTZ    N250528   0.356  -0.191  23.298 -0.0549 -0.2445  0.1984
    21BTZ    N350529   0.215  -0.323  23.117 -0.1106  0.0091  0.0563
    21BTZ    S350530   0.383  -0.265  23.137 -0.1115  0.0063  0.0724
    31IDT   C1250531  -0.072  -0.385  23.154  0.0552 -0.2298  0.2767
    31IDT   C1350532  -0.063  -0.390  23.018  0.5484 -0.1670  0.3061
    31IDT   C1450533  -0.173  -0.457  22.957  0.6102  0.1376 -0.1454
    31IDT   C1550534  -0.268  -0.503  23.046  0.1657  0.3086 -0.5214
    31IDT    S450535  -0.224  -0.465  23.216 -0.3707  0.0951 -0.3303
    4IDB    C1650536  -0.376  -0.572  22.978  0.3132 -0.3156 -0.1730
    4IDB    C1750537  -0.365  -0.548  22.837  0.1459 -0.3209 -0.1864
    51IDQ   C1850538  -0.225  -0.475  22.813  0.1346  0.4922  0.2538
    4IDB    C1950539  -0.465  -0.590  22.750 -0.0159 -0.2188 -0.0525
    51IDQ   C2050540  -0.142  -0.591  22.724  0.7066  0.4407  0.1436
    51IDQ   C2150541  -0.215  -0.340  22.723 -1.1453 -0.5106 -0.4645
    51IDQ   C2250542  -0.348  -0.274  22.695 -0.7455  0.5538 -0.6994
    51IDQ   C2350543  -0.007  -0.649  22.769  0.0939 -0.2063 -0.3760
    51IDQ   C2450544  -0.397  -0.177  22.802 -0.8837 -0.0869 -0.4458
    51IDQ   C2550545  -0.526  -0.098  22.776  0.7179 -0.2432  0.0204
    51IDQ   C2650546  -0.576  -0.050  22.633  0.1063  0.3692 -0.5848
    51IDQ   C2750547  -0.735  -0.055  22.623 -0.6290 -0.5792  0.7895
    51IDQ   C2850548  -0.811  -0.186  22.628  1.1050  1.0459 -0.3016
    51IDQ   C2950549  -0.801  -0.302  22.525 -0.0343  0.2410  0.0815
    51IDQ   C3050550   0.115  -0.553  22.746  0.2747  0.2781 -0.7534
    51IDQ   C3150551   0.260  -0.608  22.740 -0.5462  0.2767 -0.3922
    51IDQ   C3250552   0.325  -0.642  22.605 -0.3183  0.2433 -1.1832
    51IDQ   C3350553   0.317  -0.543  22.497  0.0945 -0.3260 -0.4227
    51IDQ   C3450554   0.386  -0.543  22.365 -0.8888  1.3900  0.1245
    51IDQ   C3550555   0.382  -0.418  22.275 -0.2516 -0.3842 -0.5241
    4IDB    C3650556  -0.487  -0.639  23.032  0.3198 -0.2072 -0.0238
    4IDB    C3750557  -0.588  -0.681  22.941  0.1529 -0.1037  0.1121
    11RH    C3850558   0.454   0.060  24.039 -0.2268 -0.2345 -1.0424
    4IDB    C3950559  -0.576  -0.657  22.804 -0.0095 -0.1104  0.0960
    62IDT   C4050560  -0.687  -0.710  22.735 -0.3488 -0.4942  0.2965
    72IDQ   C4150561  -0.715  -0.764  22.963  0.7745  0.2864  0.0458
    62IDT   C4250562  -0.764  -0.787  22.819 -0.7856 -0.3457  0.0334
    72IDQ   C4350563  -0.831  -0.712  23.066 -0.0430 -0.2853 -0.1384
    72IDQ   C4450564  -0.698  -0.921  22.977 -0.7139  0.5164  1.2450
    62IDT    S550565  -0.742  -0.720  22.564 -0.1750  0.1058  0.2016
    62IDT   C4550566  -0.875  -0.832  22.619 -0.7288  0.5472 -0.2089
    62IDT   C4650567  -0.871  -0.856  22.754 -1.0009  0.2432 -0.2522
    82BTZ   C4750568  -0.980  -0.869  22.522  0.3155 -0.0232  0.0211
    82BTZ   C4850569  -1.020  -0.769  22.437  0.2334  0.0101  0.0992
    82BTZ   C4950570  -1.132  -0.786  22.347  0.1930  0.0191  0.1478
    82BTZ   C5050571  -1.204  -0.903  22.343  0.2347 -0.0055  0.1193
    82BTZ   C5150572  -1.052  -0.993  22.521  0.3618 -0.0496 -0.0110
    82BTZ   C5250573  -1.166  -1.011  22.430  0.3207 -0.0407  0.0381
    92RH    C5350574  -1.330  -0.929  22.272 -0.3910  0.0177  0.1191
    82BTZ    N450575  -1.023  -1.098  22.599  0.4421 -0.0831 -0.0858
    82BTZ    N550576  -1.228  -1.129  22.435  0.3679 -0.0669  0.0038
    82BTZ    S650577  -1.142  -1.225  22.558  0.4688 -0.1048 -0.0962
    92RH    C5450578  -1.403  -0.836  22.208 -0.3005  0.0226  0.0229
    92RH     S750579  -1.395  -0.655  22.231 -0.1902  0.0337 -0.0996
    92RH    C5550580  -1.504  -0.869  22.105 -0.2755  0.0194 -0.0014
    92RH     O250581  -1.534  -0.984  22.067 -0.3340  0.0123  0.0644
    92RH     N650582  -1.566  -0.753  22.055 -0.1750  0.0262 -0.1096
    92RH    C5650583  -1.526  -0.631  22.104 -0.1162  0.0341 -0.1760
    92RH    C5750584  -1.662  -0.768  21.941 -0.3289 -0.0787  0.2301
    92RH    C5850585  -1.817  -0.762  21.966 -0.7501 -0.1911 -0.5332
    92RH     S850586  -1.583  -0.478  22.061  0.0052  0.0428 -0.3071
    72IDQ   C5950587  -0.638  -0.966  23.108  0.4574  0.5636  0.0821
    72IDQ   C6050588  -0.647  -1.118  23.151 -0.0451 -1.1003 -0.1931
    72IDQ   C6150589  -0.599  -1.222  23.046  1.5052 -0.1535 -0.4254
    72IDQ   C6250590  -0.587  -1.351  23.124  0.2776 -0.4007  0.3559
    72IDQ   C6350591  -0.585  -1.478  23.035 -0.2372 -0.3359 -0.2796
    72IDQ   C6450592  -0.451  -1.521  22.965  0.5929 -0.2061 -0.6467
    72IDQ   C6550593  -0.323  -1.538  23.058  0.6502 -0.8109  0.4791
    72IDQ   C6650594  -0.917  -0.585  23.051  0.8700 -0.5342 -0.3854
    72IDQ   C6750595  -0.853  -0.456  23.005 -1.2874 -0.3125  0.3022
    72IDQ   C6850596  -0.780  -0.390  23.124  0.7031 -0.2341 -0.7662
    72IDQ   C6950597  -0.729  -0.256  23.088 -0.9825 -0.6323  0.0902
    72IDQ   C7050598  -0.638  -0.196  23.201  0.0648 -0.6190  0.6160
    72IDQ   C7150599  -0.525  -0.100  23.149  1.4815  0.5378 -1.2367
    72IDQ   C7250600  -0.452  -0.048  23.272 -0.5822 -0.8805 -0.2137
    11RH     C150601   0.398   5.750   4.734  0.1509  0.0161 -0.1066
    11RH     C250602   0.526   5.824   4.721  0.2511 -0.1094  0.1456
    11RH     N150603   0.287   5.838   4.736  0.2294  0.1226 -0.3674
    11RH     S150604   0.492   6.004   4.712  0.4420 -0.0794  0.0234
    11RH     C350605   0.311   5.973   4.726  0.3802  0.0974 -0.3550
    11RH     C450606   0.148   5.788   4.766  0.0528  0.2330 -0.0955
    11RH     S250607   0.198   6.098   4.726  0.4986  0.2059 -0.6320
    11RH     O150608   0.386   5.627   4.743  0.0150  0.0290 -0.0963
    11RH     C550609   0.645   5.764   4.717  0.2048 -0.2249  0.4180
    21BTZ    C650610   0.782   5.819   4.686 -0.0387  0.2894  0.3657
    21BTZ    C750611   0.814   5.944   4.641  0.1393  0.2369  0.3462
    21BTZ    C850612   0.888   5.728   4.718 -0.1666  0.0975  0.2488
    21BTZ    C950613   0.951   5.986   4.627  0.2003 -0.0051  0.2118
    21BTZ   C1050614   1.056   5.903   4.656  0.0831 -0.1942  0.0972
    21BTZ   C1150615   1.027   5.771   4.703 -0.1047 -0.1484  0.1123
    21BTZ    N250616   0.869   5.603   4.763 -0.3434  0.1259  0.2549
    21BTZ    N350617   1.120   5.680   4.736 -0.2316 -0.3177  0.0087
    21BTZ    S350618   1.032   5.534   4.788 -0.4401 -0.1666  0.0826
    31IDT   C1250619   1.191   5.953   4.614  0.0309 -0.3787 -0.5522
    31IDT   C1350620   1.312   5.898   4.645  0.0926 -0.5043 -1.0016
    31IDT   C1450621   1.422   5.972   4.591 -0.0079 -0.2370 -0.8404
    31IDT   C1550622   1.385   6.084   4.519 -0.1464  0.0931 -0.2687
    31IDT    S450623   1.207   6.104   4.514 -0.1605  0.0913  0.1135
    4IDB    C1650624   1.509   6.148   4.473  0.3938  0.5391 -0.3559
    4IDB    C1750625   1.622   6.071   4.515  0.1251  0.1330 -0.3664
    51IDQ   C1850626   1.579   5.971   4.616  0.6493  0.5719  0.5001
    4IDB    C1950627   1.751   6.110   4.483  0.2818 -0.1445 -0.0893
    51IDQ   C2050628   1.645   5.829   4.583 -0.6886 -0.2233 -0.1429
    51IDQ   C2150629   1.608   6.003   4.773  0.4206  1.3527  0.0989
    51IDQ   C2250630   1.701   6.115   4.808 -1.3061 -0.1491  0.7668
    51IDQ   C2350631   1.565   5.710   4.523 -0.6246  1.9780 -0.5729
    51IDQ   C2450632   1.716   6.154   4.945  0.3298 -0.4942 -0.9188
    51IDQ   C2550633   1.819   6.262   4.967  0.4831 -0.3867  0.1418
    51IDQ   C2650634   1.969   6.238   4.948 -0.1874 -0.2542 -0.0166
    51IDQ   C2750635   2.030   6.130   5.032 -0.1535  0.1243 -0.5477
    51IDQ   C2850636   2.181   6.131   5.022 -0.4663  1.2176  0.4216
    51IDQ   C2950637   2.257   6.034   5.118  0.1855 -0.2122  1.1462
    51IDQ   C3050638   1.629   5.569   4.549 -0.2669  0.0882 -0.5927
    51IDQ   C3150639   1.745   5.517   4.462 -0.1877  1.0805 -0.4928
    51IDQ   C3250640   1.723   5.505   4.316 -0.0249 -0.0147 -0.3130
    51IDQ   C3350641   1.771   5.372   4.257  0.3641  0.0545 -0.3064
    51IDQ   C3450642   1.810   5.361   4.120 -0.4031 -0.0732  0.6075
    51IDQ   C3550643   1.824   5.226   4.049 -0.2409 -0.2313  0.2471
    4IDB    C3650644   1.525   6.265   4.398  0.8237  0.6707 -0.0664
    4IDB    C3750645   1.658   6.304   4.366  0.9784  0.3828  0.2145
    11RH    C3850646   0.057   5.742   4.645 -0.5065  0.8035 -0.0178
    4IDB    C3950647   1.767   6.228   4.407  0.7117 -0.0130  0.2003
    62IDT   C4050648   1.890   6.289   4.365  0.3506 -0.1181  0.3981
    72IDQ   C4150649   1.709   6.426   4.297 -1.4350 -0.1742  0.0212
    62IDT   C4250650   1.862   6.397   4.284  0.4980  0.0715  0.5976
    72IDQ   C4350651   1.689   6.556   4.394  0.0245 -0.3120  1.1326
    72IDQ   C4450652   1.655   6.437   4.153 -0.2851  0.1095  0.0288
    62IDT    S550653   2.067   6.260   4.380  0.3065 -0.4959  0.2049
    62IDT   C4550654   2.095   6.402   4.270  0.4990 -0.3717  0.4143
    62IDT   C4650655   1.978   6.461   4.230  0.5821 -0.0716  0.6070
    82BTZ   C4750656   2.231   6.447   4.238  0.2877  0.1884 -0.1127
    82BTZ   C4850657   2.319   6.347   4.208  0.2798  0.2147 -0.2259
    82BTZ   C4950658   2.459   6.374   4.184  0.2552  0.2478 -0.3326
    82BTZ   C5050659   2.510   6.501   4.189  0.2384  0.2542 -0.3257
    82BTZ   C5150660   2.279   6.582   4.245  0.2707  0.1937 -0.1009
    82BTZ   C5250661   2.421   6.609   4.220  0.2456  0.2272 -0.2093
    92RH    C5350662   2.649   6.535   4.164 -0.1556 -0.4409  0.0037
    82BTZ    N450663   2.202   6.687   4.273  0.2761  0.1700  0.0046
    82BTZ    N550664   2.458   6.737   4.229  0.2308  0.2306 -0.1911
    82BTZ    S650665   2.311   6.830   4.269  0.2488  0.1899 -0.0313
    92RH    C5450666   2.755   6.466   4.122 -0.0437 -0.2136 -0.0910
    92RH     S750667   2.760   6.287   4.079  0.3967 -0.2994  0.3020
    92RH    C5550668   2.889   6.525   4.102 -0.2686  0.1546 -0.5448
    92RH     O250669   2.919   6.644   4.122 -0.5808  0.2942 -0.8845
    92RH     N650670   2.982   6.429   4.056 -0.0833  0.3345 -0.5478
    92RH    C5650671   2.939   6.300   4.037  0.2626  0.1553 -0.1520
    92RH    C5750672   3.126   6.467   4.020 -0.8082 -0.6666 -0.8556
    92RH    C5850673   3.158   6.510   3.876  0.6878  1.3019  0.4804
    92RH     S850674   3.029   6.168   3.984  0.5398  0.3079 -0.0659
    72IDQ   C5950675   1.633   6.563   4.076  0.4662 -0.7838  0.5781
    72IDQ   C6050676   1.581   6.561   3.921 -0.3394  0.1478  0.2051
    72IDQ   C6150677   1.679   6.500   3.834  0.4346  0.5320  0.2999
    72IDQ   C6250678   1.658   6.500   3.685  0.4652  0.2262 -0.0840
    72IDQ   C6350679   1.785   6.477   3.605 -0.5954  1.1350 -1.0336
    72IDQ   C6450680   1.867   6.354   3.636  0.9314  0.0768 -0.8638
    72IDQ   C6550681   1.994   6.339   3.545 -1.2517 -0.0333  0.7840
    72IDQ   C6650682   1.759   6.608   4.520  0.5089  0.8567  0.5506
    72IDQ   C6750683   1.792   6.505   4.618 -0.4117 -0.3503  0.2414
    72IDQ   C6850684   1.885   6.546   4.727 -0.0786  0.4101 -0.7888
    72IDQ   C6950685   1.833   6.646   4.838 -0.1971 -0.2266  0.2237
    72IDQ   C7050686   1.884   6.633   4.983 -0.1982 -0.3534 -1.2442
    72IDQ   C7150687   1.856   6.727   5.098  1.2821  0.1299  0.5947
    72IDQ   C7250688   1.868   6.630   5.218  1.1615 -0.3565  0.0866
    11RH     C150689   0.205   1.124  22.915 -0.0092  0.1444  0.2036
    11RH     C250690   0.277   1.251  22.941  0.0849  0.1098  0.1130
    11RH     N150691   0.238   1.072  22.788 -0.0846  0.0545  0.2208
    11RH     S150692   0.384   1.292  22.798  0.0682 -0.0386  0.0571
    11RH     C350693   0.328   1.141  22.710 -0.0623 -0.0479  0.1554
    11RH     C450694   0.163   0.950  22.733 -0.3122 -0.2899 -0.2446
    11RH     S250695   0.384   1.100  22.556 -0.1382 -0.1675  0.1593
    11RH     O150696   0.125   1.069  22.992 -0.0223  0.2396  0.2575
    11RH     C550697   0.264   1.321  23.054  0.1679  0.1792  0.0798
    21BTZ    C650698   0.319   1.445  23.104  0.0250 -0.0625 -0.0129
    21BTZ    C750699   0.411   1.516  23.032 -0.0412  0.0256 -0.0114
    21BTZ    C850700   0.269   1.502  23.226 -0.0166 -0.1190 -0.0038
    21BTZ    C950701   0.458   1.645  23.076 -0.1509  0.0625 -0.0005
    21BTZ   C1050702   0.414   1.703  23.191 -0.1943  0.0112  0.0085
    21BTZ   C1150703   0.317   1.633  23.271 -0.1281 -0.0814  0.0072
    21BTZ    N250704   0.179   1.442  23.306  0.0400 -0.2058 -0.0043
    21BTZ    N350705   0.266   1.679  23.385 -0.1612 -0.1381  0.0157
    21BTZ    S350706   0.152   1.554  23.443 -0.0488 -0.2440  0.0090
    31IDT   C1250707   0.481   1.824  23.237 -0.2587  0.1214  0.0370
    31IDT   C1350708   0.463   1.888  23.356  0.0421  0.4475 -0.0896
    31IDT   C1450709   0.554   1.997  23.375  0.2438  0.3556 -0.5126
    31IDT   C1550710   0.642   2.016  23.270  0.0986 -0.0402 -0.7102
    31IDT    S450711   0.615   1.896  23.138 -0.3087 -0.3299 -0.3727
    4IDB    C1650712   0.729   2.123  23.301 -0.0757  0.1888  0.0258
    4IDB    C1750713   0.692   2.178  23.428 -0.0194  0.1429  0.0620
    51IDQ   C1850714   0.570   2.107  23.482  0.1660  1.8254 -0.3695
    4IDB    C1950715   0.758   2.289  23.480  0.1136  0.0239  0.1486
    51IDQ   C2050716   0.610   2.058  23.632 -0.2715  0.2678  0.0375
    51IDQ   C2150717   0.437   2.178  23.511  0.8156 -0.2637  0.1960
    51IDQ   C2250718   0.434   2.329  23.497  1.1078  0.5863 -0.0005
    51IDQ   C2350719   0.654   1.908  23.668  0.1972  0.2079 -0.2788
    51IDQ   C2450720   0.296   2.388  23.520 -0.4499  0.0486  0.2974
    51IDQ   C2550721   0.314   2.534  23.486 -0.2340 -0.4250  1.0312
    51IDQ   C2650722   0.176   2.616  23.488 -0.7109 -0.9881  0.7623
    51IDQ   C2750723   0.100   2.608  23.628 -0.2936  0.6497  0.2408
    51IDQ   C2850724  -0.010   2.715  23.650 -0.5872 -0.0467 -0.4064
    51IDQ   C2950725  -0.106   2.673  23.763  0.2019 -0.2980  1.6189
    51IDQ   C3050726   0.782   1.865  23.608 -0.2823 -0.4779 -0.0437
    51IDQ   C3150727   0.902   1.900  23.686  1.3503 -0.0828 -0.3737
    51IDQ   C3250728   0.994   2.001  23.636 -0.2339 -1.0995  0.3660
    51IDQ   C3350729   1.078   2.057  23.755  0.5177  0.4584  0.6576
    51IDQ   C3450730   1.162   2.165  23.708  0.3403 -0.8268  0.9568
    51IDQ   C3550731   1.243   2.251  23.796 -0.1353 -0.0178 -0.2240
    4IDB    C3650732   0.832   2.180  23.225  0.0011  0.1155  0.0758
    4IDB    C3750733   0.899   2.293  23.279  0.1369 -0.0060  0.1636
    11RH    C3850734   0.234   0.825  22.775 -0.1855  0.6469  1.1909
    4IDB    C3950735   0.862   2.345  23.403  0.1905 -0.0495  0.1983
    62IDT   C4050736   0.952   2.460  23.431 -0.5510 -0.0328  0.8831
    72IDQ   C4150737   1.035   2.354  23.237 -0.2239  0.9685  0.3775
    62IDT   C4250738   1.052   2.469  23.336 -0.4307 -0.6750  0.9418
    72IDQ   C4350739   1.047   2.426  23.096 -0.0603  0.3330 -0.1359
    72IDQ   C4450740   1.158   2.249  23.260  0.2207 -0.2774 -0.6848
    62IDT    S550741   0.949   2.604  23.539 -0.2633  0.3990  0.3270
    62IDT   C4550742   1.089   2.671  23.446  0.0182 -0.3479  0.1957
    62IDT   C4650743   1.129   2.588  23.345 -0.1088 -0.8540  0.5531
    82BTZ   C4750744   1.121   2.819  23.471  0.0925 -0.2304  0.1029
    82BTZ   C4850745   1.017   2.909  23.470  0.0680 -0.2587  0.1216
    82BTZ   C4950746   1.031   3.042  23.523  0.0409 -0.2546  0.1183
    82BTZ   C5050747   1.149   3.086  23.577  0.0384 -0.2222  0.0975
    82BTZ   C5150748   1.246   2.860  23.526  0.0910 -0.1959  0.0811
    82BTZ   C5250749   1.261   2.996  23.580  0.0634 -0.1917  0.0777
    92RH    C5350750   1.152   3.218  23.639 -0.0462 -0.1230 -0.1104
    82BTZ    N450751   1.355   2.783  23.533  0.1133 -0.1664  0.0629
    82BTZ    N550752   1.381   3.027  23.630  0.0637 -0.1589  0.0572
    82BTZ    S650753   1.482   2.881  23.610  0.0999 -0.1312  0.0402
    92RH    C5450754   1.070   3.324  23.648  0.0787 -0.0371  0.0167
    92RH     S750755   0.894   3.331  23.598  0.0766  0.2200  0.0607
    92RH    C5550756   1.113   3.455  23.701  0.2434 -0.1416  0.1440
    92RH     O250757   1.227   3.483  23.743  0.2847 -0.3172  0.1497
    92RH     N650758   1.007   3.548  23.699  0.3514 -0.0155  0.2627
    92RH    C5650759   0.885   3.508  23.650  0.2933  0.1771  0.2456
    92RH    C5750760   1.014   3.689  23.757  0.2245  0.1935 -0.9859
    92RH    C5850761   1.096   3.787  23.677  0.4210  0.5570  0.9351
    92RH     S850762   0.744   3.599  23.637  0.3960  0.3561  0.3691
    72IDQ   C5950763   1.159   2.122  23.170  1.0416 -1.1319  0.4582
    72IDQ   C6050764   1.276   2.045  23.194 -0.0432  1.0751  0.4149
    72IDQ   C6150765   1.293   1.900  23.121  0.2878 -0.2457 -0.8451
    72IDQ   C6250766   1.185   1.804  23.124 -0.5117 -0.2715 -0.8571
    72IDQ   C6350767   1.218   1.665  23.098  0.8332  0.5555  0.0071
    72IDQ   C6450768   1.119   1.561  23.132  0.0582 -0.0062  0.2762
    72IDQ   C6550769   1.161   1.409  23.114 -0.6018  0.4595  0.3595
    72IDQ   C6650770   0.921   2.437  23.014  0.0715  0.8943 -0.4163
    72IDQ   C6750771   0.942   2.472  22.871  0.0905 -0.5513  0.1144
    72IDQ   C6850772   0.827   2.499  22.785 -0.2098 -0.5671  0.3111
    72IDQ   C6950773   0.856   2.538  22.629 -0.4409 -0.1633 -0.2502
    72IDQ   C7050774   0.921   2.675  22.626  0.2398 -0.1201 -0.3154
    72IDQ   C7150775   0.996   2.724  22.506 -0.8606 -0.5569 -0.2470
    72IDQ   C7250776   1.127   2.649  22.479  0.2731  0.5500 -1.3753
    11RH     C150777   7.374   1.455   6.207  0.1645 -0.1403  0.1884
    11RH     C250778   7.282   1.549   6.138  0.2033 -0.2617 -0.0315
    11RH     N150779   7.422   1.510   6.328  0.0680  0.0609  0.1374
    11RH     S150780   7.265   1.703   6.237  0.1102 -0.1034 -0.2904
    11RH     C350781   7.380   1.636   6.365  0.0247  0.1155 -0.0961
    11RH     C450782   7.549   1.450   6.385  0.2577 -0.6930  0.0130
    11RH     S250783   7.422   1.722   6.503 -0.0888  0.3437 -0.2036
    11RH     O150784   7.407   1.343   6.165  0.2096 -0.2034  0.3930
    11RH     C550785   7.223   1.522   6.021  0.2930 -0.4570 -0.0327
    21BTZ    C650786   7.122   1.600   5.947 -0.2093 -0.6006  0.5664
    21BTZ    C750787   7.071   1.718   5.994 -0.2131 -0.6557  0.7012
    21BTZ    C850788   7.087   1.557   5.815 -0.0665 -0.3625  0.4492
    21BTZ    C950789   6.982   1.799   5.914 -0.0777 -0.4808  0.7269
    21BTZ   C1050790   6.945   1.762   5.788  0.0615 -0.2511  0.6184
    21BTZ   C1150791   6.996   1.640   5.734  0.0712 -0.1847  0.4755
    21BTZ    N250792   7.130   1.444   5.758 -0.0483 -0.2873  0.3133
    21BTZ    N350793   6.968   1.593   5.612  0.2002  0.0333  0.3608
    21BTZ    S350794   7.057   1.439   5.595  0.1496  0.0202  0.2115
    31IDT   C1250795   6.848   1.859   5.712 -0.7418 -0.2947 -0.4258
    31IDT   C1350796   6.816   1.871   5.579 -0.8099 -0.0566 -0.3886
    31IDT   C1450797   6.730   1.983   5.553 -0.2841  0.3913 -0.2421
    31IDT   C1550798   6.697   2.056   5.665  0.1870  0.4976 -0.1669
    31IDT    S450799   6.772   1.989   5.814 -0.0004  0.0342 -0.2768
    4IDB    C1650800   6.625   2.176   5.632 -0.6271 -0.2324 -0.1430
    4IDB    C1750801   6.619   2.188   5.490 -0.1009  0.0241 -0.1464
    51IDQ   C1850802   6.682   2.058   5.428 -0.2238 -0.8073 -0.8711
    4IDB    C1950803   6.556   2.296   5.429  0.1303  0.1376 -0.1852
    51IDQ   C2050804   6.581   1.967   5.340 -0.4721  0.2036 -0.0957
    51IDQ   C2150805   6.812   2.081   5.337  0.4171 -0.1348  0.4311
    51IDQ   C2250806   6.871   2.203   5.288  0.7150 -0.0681 -0.6826
    51IDQ   C2350807   6.570   1.814   5.372  0.4431  0.7519 -0.3698
    51IDQ   C2450808   7.016   2.183   5.260  0.3117  0.0650 -0.6452
    51IDQ   C2550809   7.088   2.314   5.210  0.2171  0.3996  0.3481
    51IDQ   C2650810   7.216   2.295   5.130 -0.2113  0.3827 -1.0409
    51IDQ   C2750811   7.217   2.189   5.024  0.8290  0.9134 -0.7388
    51IDQ   C2850812   7.331   2.204   4.930 -0.7722  0.5515  0.8011
    51IDQ   C2950813   7.340   2.102   4.813  0.7403 -0.0357  1.1933
    51IDQ   C3050814   6.475   1.715   5.295  0.0084 -0.6216 -0.4279
    51IDQ   C3150815   6.327   1.772   5.298 -0.9815  0.5944  0.0400
    51IDQ   C3250816   6.229   1.654   5.319 -0.0182 -0.3477 -0.3009
    51IDQ   C3350817   6.086   1.683   5.376 -0.3251  0.3300 -0.2954
    51IDQ   C3450818   6.004   1.805   5.337  0.0927 -0.6549  0.5553
    51IDQ   C3550819   5.868   1.819   5.402  0.4494  0.4868 -0.1510
    4IDB    C3650820   6.567   2.273   5.715 -0.9270 -0.3778 -0.1789
    4IDB    C3750821   6.503   2.384   5.651 -0.6841 -0.2586 -0.2184
    11RH    C3850822   7.544   1.336   6.473 -0.1084  0.9068 -0.3116
    4IDB    C3950823   6.499   2.394   5.512 -0.1696 -0.0078 -0.2213
    62IDT   C4050824   6.433   2.523   5.477 -0.2452 -0.0833 -0.4818
    72IDQ   C4150825   6.433   2.504   5.719  0.4606 -0.5058  0.8534
    62IDT   C4250826   6.387   2.585   5.591 -0.6068 -0.3064 -0.5040
    72IDQ   C4350827   6.526   2.585   5.821  1.0505  0.5901  0.6212
    72IDQ   C4450828   6.290   2.476   5.776  0.1476  0.6370  0.2585
    62IDT    S550829   6.424   2.631   5.333  0.2410  0.2091 -0.2975
    62IDT   C4550830   6.355   2.760   5.440 -0.0860  0.0044 -0.2581
    62IDT   C4650831   6.343   2.720   5.570 -0.5174 -0.2571 -0.3774
    82BTZ   C4750832   6.288   2.873   5.370 -0.6325 -0.0466 -0.6492
    82BTZ   C4850833   6.248   2.854   5.240 -0.6148  0.2158 -0.6940
    82BTZ   C4950834   6.185   2.960   5.164 -0.4239  0.4321 -0.5554
    82BTZ   C5050835   6.162   3.084   5.218 -0.2515  0.3857 -0.3719
    82BTZ   C5150836   6.266   3.001   5.431 -0.4562 -0.1054 -0.4590
    82BTZ   C5250837   6.202   3.108   5.353 -0.2624  0.1144 -0.3179
    92RH    C5350838   6.087   3.183   5.152 -0.2354 -0.6377  0.2395
    82BTZ    N450839   6.300   3.032   5.556 -0.4545 -0.3526 -0.3982
    82BTZ    N550840   6.185   3.225   5.416 -0.1049  0.0439 -0.1438
    82BTZ    S650841   6.251   3.202   5.581 -0.1999 -0.3140 -0.1530
    92RH    C5450842   6.007   3.175   5.045 -0.1785 -0.3594  0.1756
    92RH     S750843   5.965   3.024   4.951 -0.4396 -0.1750 -0.0045
    92RH    C5550844   5.939   3.292   4.985  0.1154 -0.1515  0.2434
    92RH     O250845   5.948   3.409   5.026  0.3394 -0.2088  0.3650
    92RH     N650846   5.861   3.255   4.874  0.1125  0.1271  0.1517
    92RH    C5650847   5.859   3.123   4.837 -0.1478  0.1678  0.0187
    92RH    C5750848   5.775   3.356   4.802 -0.3624  0.9337  0.1837
    92RH    C5850849   5.653   3.363   4.889  0.1174 -0.1208  0.1593
    92RH     S850850   5.775   3.053   4.708 -0.2100  0.4759 -0.1101
    72IDQ   C5950851   6.287   2.374   5.893 -0.0581 -0.1279  0.5041
    72IDQ   C6050852   6.144   2.326   5.921  0.2220 -0.1037  0.2952
    72IDQ   C6150853   6.144   2.280   6.058  0.2074  0.2348 -0.0061
    72IDQ   C6250854   6.015   2.218   6.107 -0.2566 -0.3233 -0.6837
    72IDQ   C6350855   6.012   2.105   6.218  0.0410 -0.5837 -0.3881
    72IDQ   C6450856   5.879   2.092   6.264  1.2416 -0.1719 -0.6453
    72IDQ   C6550857   5.869   2.020   6.398  0.4968 -1.2488 -0.0347
    72IDQ   C6650858   6.655   2.642   5.769  0.1074  0.4454  0.7814
    72IDQ   C6750859   6.738   2.726   5.877  0.2144  0.4824 -0.6137
    72IDQ   C6850860   6.887   2.747   5.855 -0.7994 -0.2198  0.3529
    72IDQ   C6950861   6.918   2.872   5.779 -0.1369 -0.4552  0.4588
    72IDQ   C7050862   7.061   2.897   5.731 -0.7931 -1.1429  0.4729
    72IDQ   C7150863   7.180   2.927   5.828  0.2888 -1.1634 -0.2465
    72IDQ   C7250864   7.173   3.052   5.912 -1.5601 -0.1007  0.1609
    11RH     C150865   3.621   1.411  23.791 -0.4320  0.3181  0.5302
    11RH     C250866   3.615   1.552  23.745 -0.3081  0.2650  0.3481
    11RH     N150867   3.754   1.370  23.816 -0.4337  0.1252  0.2389
    11RH     S150868   3.784   1.622  23.738 -0.2019 -0.0351 -0.1942
    11RH     C350869   3.855   1.462  23.796 -0.3263 -0.0759 -0.1545
    11RH     C450870   3.775   1.231  23.843  0.4919  0.5770  0.5108
    11RH     S250871   4.020   1.439  23.819 -0.3037 -0.3285 -0.5560
    11RH     O150872   3.523   1.335  23.806 -0.5242  0.5065  0.8917
    11RH     C550873   3.501   1.614  23.715 -0.2815  0.4179  0.5591
    21BTZ    C650874   3.462   1.743  23.662 -0.1063  0.3718  0.1331
    21BTZ    C750875   3.550   1.848  23.664 -0.2103  0.4612  0.0486
    21BTZ    C850876   3.331   1.764  23.607 -0.0988  0.1758  0.0372
    21BTZ    C950877   3.514   1.978  23.613 -0.3117  0.3633 -0.1326
    21BTZ   C1050878   3.390   2.003  23.560 -0.3087  0.1761 -0.2296
    21BTZ   C1150879   3.295   1.896  23.556 -0.2018  0.0763 -0.1473
    21BTZ    N250880   3.237   1.670  23.600 -0.0024  0.0735  0.1044
    21BTZ    N350881   3.171   1.908  23.507 -0.1882 -0.1060 -0.2284
    21BTZ    S350882   3.094   1.748  23.525 -0.0400 -0.1593 -0.0684
    31IDT   C1250883   3.354   2.144  23.533  0.3454  0.1209 -1.0274
    31IDT   C1350884   3.243   2.205  23.483  0.4413  0.1820 -1.1678
    31IDT   C1450885   3.248   2.348  23.493  0.1081  0.1450 -0.3080
    31IDT   C1550886   3.363   2.396  23.551 -0.2433  0.0558  0.4908
    31IDT    S450887   3.475   2.264  23.598 -0.1788  0.0113  0.2143
    4IDB    C1650888   3.360   2.543  23.561 -0.7671 -0.2445  0.1003
    4IDB    C1750889   3.242   2.594  23.501 -0.2701  0.2053 -0.5240
    51IDQ   C1850890   3.155   2.466  23.463  0.0506  0.0803 -1.1436
    4IDB    C1950891   3.220   2.731  23.490  0.0648  0.2890 -0.1605
    51IDQ   C2050892   3.029   2.482  23.553 -0.8262 -0.2343 -0.2955
    51IDQ   C2150893   3.107   2.460  23.313 -0.2283  0.0307  1.1315
    51IDQ   C2250894   3.162   2.550  23.199  0.3181 -0.5989  0.1548
    51IDQ   C2350895   2.996   2.387  23.666  0.0423 -0.5231  0.1610
    51IDQ   C2450896   3.304   2.537  23.150  0.0382 -0.0468 -0.4840
    51IDQ   C2550897   3.367   2.401  23.147  0.0798  0.3211  0.4466
    51IDQ   C2650898   3.519   2.384  23.109  0.1392  0.1177 -0.3602
    51IDQ   C2750899   3.616   2.480  23.153 -0.2842 -0.2962 -0.6997
    51IDQ   C2850900   3.756   2.436  23.160  0.0108  0.0170 -0.3328
    51IDQ   C2950901   3.838   2.432  23.037  0.6136  0.5441  1.4504
    51IDQ   C3050902   2.874   2.433  23.736 -0.4278 -0.2487 -1.7981
    51IDQ   C3150903   2.738   2.419  23.678  0.0615 -1.0628  0.9124
    51IDQ   C3250904   2.620   2.487  23.745 -0.8123  0.3902  0.2872
    51IDQ   C3350905   2.490   2.491  23.667 -0.4513  1.1462 -0.6198
    51IDQ   C3450906   2.369   2.539  23.739 -0.1641 -0.3662 -0.5525
    51IDQ   C3550907   2.332   2.473  23.868  1.2945  0.4298 -0.5660
    4IDB    C3650908   3.459   2.629  23.612 -0.9328 -0.6152  1.0977
    4IDB    C3750909   3.435   2.769  23.600 -0.5854 -0.5230  1.4563
    11RH    C3850910   3.798   1.198  23.996 -0.0899 -0.2088  0.5480
    4IDB    C3950911   3.319   2.817  23.541 -0.1009 -0.0816  0.8367
    62IDT   C4050912   3.326   2.959  23.526  0.4441  0.2623 -0.0453
    72IDQ   C4150913   3.525   2.891  23.642  1.0327 -0.1102  0.4908
    62IDT   C4250914   3.441   3.013  23.581  0.0185  0.7924  0.3457
    72IDQ   C4350915   3.674   2.891  23.586  0.6109  0.3861 -0.7818
    72IDQ   C4450916   3.517   2.922  23.793  0.3099  0.0495 -0.4824
    62IDT    S550917   3.221   3.086  23.454  0.1761 -0.2361 -0.5440
    62IDT   C4550918   3.344   3.210  23.504 -0.5317  0.3259 -0.1791
    62IDT   C4650919   3.451   3.155  23.569 -0.5337  0.8290  0.2708
    82BTZ   C4750920   3.332   3.361  23.467 -0.3207  0.5992  0.0488
    82BTZ   C4850921   3.264   3.396  23.353 -0.4613  0.6309  0.1411
    82BTZ   C4950922   3.237   3.533  23.319 -0.5431  0.6380  0.2351
    82BTZ   C5050923   3.277   3.636  23.400 -0.4839  0.6134  0.2371
    82BTZ   C5150924   3.376   3.466  23.555 -0.2539  0.5726  0.0467
    82BTZ   C5250925   3.349   3.606  23.520 -0.3369  0.5798  0.1426
    92RH    C5350926   3.248   3.775  23.359 -0.3326  0.5321 -0.1771
    82BTZ    N450927   3.443   3.445  23.668 -0.1177  0.5407 -0.0391
    82BTZ    N550928   3.393   3.697  23.607 -0.2674  0.5537  0.1340
    82BTZ    S650929   3.474   3.607  23.738 -0.0892  0.5181  0.0012
    92RH    C5450930   3.192   3.826  23.248 -0.3085  0.3234 -0.2871
    92RH     S750931   3.122   3.733  23.107 -0.1825  0.0557 -0.1740
    92RH    C5550932   3.179   3.972  23.223 -0.3828  0.2764 -0.5255
    92RH     O250933   3.217   4.062  23.300 -0.4745  0.4214 -0.6495
    92RH     N650934   3.117   3.998  23.099 -0.3365  0.0417 -0.5984
    92RH    C5650935   3.079   3.890  23.021 -0.2342 -0.1051 -0.4468
    92RH    C5750936   3.091   4.138  23.049 -0.2255 -0.0209 -0.6565
    92RH    C5850937   3.201   4.183  22.943  0.6774 -0.1298  0.7988
    92RH     S850938   3.004   3.894  22.871 -0.1613 -0.3903 -0.4907
    72IDQ   C5950939   3.545   2.803  23.895  0.7632  0.1284  0.3606
    72IDQ   C6050940   3.573   2.843  24.036  0.8048  1.5084 -1.0947
    72IDQ   C6150941   3.627   2.715  24.120 -0.1021 -0.5354 -0.7965
    72IDQ   C6250942   3.774   2.677  24.088  0.4359  0.4831 -0.5853
    72IDQ   C6350943   3.835   2.556  24.155  0.5315  0.0116  0.6986
    72IDQ   C6450944   3.783   2.422  24.123  0.8558  0.7861  0.4191
    72IDQ   C6550945   3.845   2.313  24.210  0.0678  0.2012  0.1622
    72IDQ   C6650946   3.709   2.794  23.477 -0.5578 -1.1394 -0.7628
    72IDQ   C6750947   3.852   2.745  23.485  0.2726  0.1703 -0.0090
    72IDQ   C6850948   3.891   2.639  23.386  0.0955  0.1742 -0.7090
    72IDQ   C6950949   4.042   2.643  23.378 -0.7319  0.5352 -0.6525
    72IDQ   C7050950   4.096   2.539  23.278  0.8434 -0.2118  0.4536
    72IDQ   C7150951   4.243   2.555  23.239  0.2758 -0.8521 -0.6853
    72IDQ   C7250952   4.264   2.502  23.106 -0.7790  0.5747  1.2326
    11RH     C150953   3.686   6.680  24.217 -0.5018  0.2035  0.3037
    11RH     C250954   3.617   6.646  24.090 -0.2745  0.2278  0.1726
    11RH     N150955   3.732   6.813  24.217 -0.4527  0.1866  0.3899
    11RH     S150956   3.618   6.792  23.979 -0.0109  0.2269  0.1731
    11RH     C350957   3.709   6.890  24.106 -0.2139  0.1944  0.3452
    11RH     C450958   3.807   6.855  24.327 -0.5862 -0.6655  0.1671
    11RH     S250959   3.753   7.051  24.080 -0.1070  0.1783  0.4272
    11RH     O150960   3.702   6.603  24.313 -0.7111  0.1979  0.3347
    11RH     C550961   3.564   6.526  24.065 -0.2702  0.2469  0.0726
    21BTZ    C650962   3.499   6.467  23.941  0.0746 -0.1332 -0.3647
    21BTZ    C750963   3.480   6.538  23.826  0.0280 -0.3026 -0.4625
    21BTZ    C850964   3.465   6.327  23.941  0.0461 -0.1262 -0.1364
    21BTZ    C950965   3.428   6.477  23.706 -0.0483 -0.4724 -0.3433
    21BTZ   C1050966   3.394   6.345  23.702 -0.0780 -0.4727 -0.1252
    21BTZ   C1150967   3.412   6.265  23.820 -0.0314 -0.2990 -0.0157
    21BTZ    N250968   3.479   6.247  24.047  0.0860  0.0300 -0.0224
    21BTZ    N350969   3.383   6.135  23.828 -0.0539 -0.2813  0.1960
    21BTZ    S350970   3.423   6.085  23.995  0.0248 -0.0382  0.2507
    31IDT   C1250971   3.355   6.284  23.576  0.3952  0.0776 -0.7048
    31IDT   C1350972   3.417   6.181  23.510  0.4553  0.3146 -1.0247
    31IDT   C1450973   3.360   6.154  23.382  0.2633  0.4689 -0.9727
    31IDT   C1550974   3.254   6.236  23.349  0.0561  0.3504 -0.6135
    31IDT    S450975   3.218   6.355  23.479  0.0882  0.0319 -0.3103
    4IDB    C1650976   3.208   6.211  23.217 -0.2193  0.4832  0.0014
    4IDB    C1750977   3.284   6.102  23.164  0.4697  0.9917 -0.0792
    51IDQ   C1850978   3.378   6.048  23.274  0.3427  1.7267  0.0227
    4IDB    C1950979   3.271   6.064  23.031  0.4784  0.8151 -0.0298
    51IDQ   C2050980   3.322   5.897  23.296 -0.0148 -0.0284 -0.0115
    51IDQ   C2150981   3.528   6.024  23.224 -1.2215  0.3432  0.3737
    51IDQ   C2250982   3.601   6.065  23.096  0.5431  0.5298 -0.2153
    51IDQ   C2350983   3.244   5.870  23.418  0.6378  0.8363  0.3006
    51IDQ   C2450984   3.576   5.969  22.979 -0.2190 -1.2288 -0.2159
    51IDQ   C2550985   3.597   5.819  22.983  0.0203  0.2670  0.6019
    51IDQ   C2650986   3.549   5.750  22.854 -0.1332  0.7609 -0.4096
    51IDQ   C2750987   3.527   5.593  22.864 -0.5061 -0.0738  0.2751
    51IDQ   C2850988   3.453   5.514  22.757  0.3640 -0.0348  0.3616
    51IDQ   C2950989   3.332   5.582  22.695 -0.4961  0.8308  0.1664
    51IDQ   C3050990   3.334   5.832  23.529  0.7686 -0.0726 -1.0856
    51IDQ   C3150991   3.220   5.791  23.637  0.1452 -0.7115 -0.6036
    51IDQ   C3250992   3.268   5.752  23.775  0.1500 -0.2326  0.9888
    51IDQ   C3350993   3.318   5.615  23.793  0.0128  0.1488 -0.2286
    51IDQ   C3450994   3.236   5.495  23.731 -0.3208 -0.6771  0.0509
    51IDQ   C3550995   3.313   5.361  23.744  0.4119 -0.0985  0.1972
    4IDB    C3650996   3.118   6.282  23.136 -0.9078 -0.2093  0.1326
    4IDB    C3750997   3.106   6.242  23.000 -0.8879 -0.3803  0.1817
    11RH    C3850998   3.718   6.920  24.440 -0.1300  1.1469  0.4119
    4IDB    C3950999   3.181   6.135  22.950 -0.2101  0.1226  0.1015
    62IDT   C4051000   3.156   6.122  22.812  0.2266  0.2101  0.2361
    72IDQ   C4151001   3.021   6.298  22.885  0.0535 -0.4453  0.9083
    62IDT   C4251002   3.072   6.217  22.759  0.5980  0.5722  0.2871
    72IDQ   C4351003   3.029   6.458  22.865 -0.1519  0.3698 -0.0026
    72IDQ   C4451004   2.872   6.287  22.908  0.1182  0.6826 -0.4824
    62IDT    S551005   3.239   6.026  22.685 -0.0921  0.0008  0.1845
    62IDT   C4551006   3.151   6.125  22.560  0.3134  0.4350  0.2368
    62IDT   C4651007   3.069   6.219  22.616  0.6475  0.6999  0.2875
    82BTZ   C4751008   3.139   6.077  22.416  0.0273  0.1682  0.0938
    82BTZ   C4851009   3.177   5.948  22.393  0.0704  0.1857  0.0653
    82BTZ   C4951010   3.187   5.894  22.260  0.0700  0.2123  0.0548
    82BTZ   C5051011   3.158   5.970  22.149  0.0265  0.2214  0.0722
    82BTZ   C5151012   3.108   6.161  22.304 -0.0191  0.1767  0.1125
    82BTZ   C5251013   3.117   6.106  22.168 -0.0196  0.2035  0.1020
    92RH    C5351014   3.160   5.902  22.019  0.0197  0.0605 -0.3204
    82BTZ    N451015   3.070   6.288  22.314 -0.0635  0.1613  0.1407
    82BTZ    N551016   3.086   6.190  22.069 -0.0643  0.2100  0.1221
    82BTZ    S651017   3.043   6.345  22.146 -0.1086  0.1811  0.1546
    92RH    C5451018   3.187   5.781  21.971 -0.0140  0.0267 -0.2546
    92RH     S751019   3.249   5.636  22.066 -0.0072  0.0750 -0.1857
    92RH    C5551020   3.171   5.743  21.829 -0.0638 -0.0581 -0.2270
    92RH     O251021   3.130   5.819  21.738 -0.0798 -0.1069 -0.2604
    92RH     N651022   3.207   5.609  21.806 -0.0916 -0.0775 -0.1554
    92RH    C5651023   3.251   5.534  21.913 -0.0703 -0.0190 -0.1230
    92RH    C5751024   3.198   5.542  21.680 -0.4551 -0.5245  0.6473
    92RH    C5851025   3.059   5.479  21.676  0.0333  0.1059 -0.8862
    92RH     S851026   3.299   5.372  21.913 -0.0954 -0.0268 -0.0391
    72IDQ   C5951027   2.782   6.219  22.804  0.0266 -1.0096 -1.1460
    72IDQ   C6051028   2.638   6.232  22.864 -0.1255 -0.6016 -0.6777
    72IDQ   C6151029   2.541   6.140  22.792  0.1387 -1.5551  0.7099
    72IDQ   C6251030   2.406   6.098  22.843 -0.0337 -0.0151 -0.1679
    72IDQ   C6351031   2.401   5.990  22.952 -0.3625  0.4801 -0.5491
    72IDQ   C6451032   2.252   5.953  22.975 -0.2566  0.5486  0.3889
    72IDQ   C6551033   2.207   5.810  22.962  0.1882 -0.0176 -0.5680
    72IDQ   C6651034   3.153   6.514  22.789 -0.3382  0.0360 -0.2622
    72IDQ   C6751035   3.284   6.520  22.857 -1.1659 -0.2564 -0.3050
    72IDQ   C6851036   3.296   6.624  22.968 -1.7725 -0.2596  0.3458
    72IDQ   C6951037   3.369   6.586  23.102  1.2260  0.4776  0.5314
    72IDQ   C7051038   3.506   6.532  23.091 -0.0625 -0.5830  0.0136
    72IDQ   C7151039   3.545   6.448  23.211 -0.2598  0.1143  0.3117
    72IDQ   C7251040   3.694   6.415  23.212  1.1084  0.0457  0.5798
    11RH     C151041   3.131   4.134   7.973  0.1592 -0.0925 -0.1577
    11RH     C251042   3.054   4.016   7.926  0.2269 -0.1650 -0.0877
    11RH     N151043   3.257   4.142   7.911  0.1439 -0.0422 -0.1825
    11RH     S151044   3.153   3.924   7.802  0.2657 -0.1620 -0.0585
    11RH     C351045   3.291   4.045   7.819  0.1909 -0.0654 -0.1405
    11RH     C451046   3.349   4.248   7.939 -0.5191 -1.0035  0.2930
    11RH     S251047   3.434   4.031   7.731  0.1851 -0.0168 -0.1575
    11RH     O151048   3.091   4.217   8.057  0.1201 -0.0767 -0.1917
    11RH     C551049   2.931   3.986   7.969  0.2534 -0.2223 -0.0525
    21BTZ    C651050   2.832   3.873   7.944 -0.0992  0.0334 -0.1427
    21BTZ    C751051   2.854   3.786   7.841 -0.0565 -0.0328 -0.0777
    21BTZ    C851052   2.717   3.853   8.027 -0.0500 -0.0036 -0.0832
    21BTZ    C951053   2.765   3.675   7.814  0.0360 -0.1380  0.0480
    21BTZ   C1051054   2.654   3.653   7.891  0.0856 -0.1768  0.1085
    21BTZ   C1151055   2.627   3.741   8.001  0.0440 -0.1106  0.0446
    21BTZ    N251056   2.685   3.932   8.131 -0.0841  0.0535 -0.1369
    21BTZ    N351057   2.522   3.729   8.082  0.0854 -0.1394  0.0935
    21BTZ    S351058   2.534   3.864   8.200  0.0042 -0.0288 -0.0241
    31IDT   C1251059   2.568   3.540   7.847 -0.1399 -0.1545  0.1108
    31IDT   C1351060   2.436   3.516   7.875 -0.0008 -0.4817  0.5088
    31IDT   C1451061   2.393   3.387   7.830  0.1529 -0.5420  0.5331
    31IDT   C1551062   2.491   3.313   7.769  0.1321 -0.2620  0.1543
    31IDT    S451063   2.648   3.401   7.762 -0.0858  0.1032 -0.2658
    4IDB    C1651064   2.432   3.186   7.730 -0.5615  0.2803 -0.8357
    4IDB    C1751065   2.291   3.178   7.754 -0.4219  0.0075 -0.0294
    51IDQ   C1851066   2.258   3.312   7.827 -1.0184 -1.1134  0.5546
    4IDB    C1951067   2.221   3.060   7.731 -0.3282 -0.1319  0.3832
    51IDQ   C2051068   2.142   3.387   7.747  0.2379 -0.2361 -0.0366
    51IDQ   C2151069   2.220   3.311   7.971  0.3397 -0.2819  0.1805
    51IDQ   C2251070   2.178   3.185   8.050  0.2530 -0.2905 -0.0160
    51IDQ   C2351071   2.149   3.515   7.662  0.2821  0.1081 -0.5475
    51IDQ   C2451072   2.264   3.155   8.173  0.1474  0.1203  1.3752
    51IDQ   C2551073   2.402   3.075   8.150  1.0768 -1.2739 -1.0037
    51IDQ   C2651074   2.448   3.035   8.290  0.3715 -0.1532 -0.1242
    51IDQ   C2751075   2.580   2.960   8.297  0.6703  0.9573 -0.8392
    51IDQ   C2851076   2.590   2.854   8.414  0.0185 -0.7999  1.1894
    51IDQ   C2951077   2.495   2.743   8.413 -0.3267 -0.1056  0.0221
    51IDQ   C3051078   2.230   3.497   7.530 -0.2578 -0.5244  0.0610
    51IDQ   C3151079   2.165   3.385   7.435  0.3107  0.3636 -0.3504
    51IDQ   C3251080   2.245   3.336   7.316  0.5966  0.6005 -0.7266
    51IDQ   C3351081   2.386   3.299   7.343 -0.6777  0.0182 -0.4492
    51IDQ   C3451082   2.486   3.399   7.300 -0.3531  0.1849  0.0514
    51IDQ   C3551083   2.633   3.353   7.344  0.0941 -1.6419 -0.6547
    4IDB    C3651084   2.504   3.075   7.683 -0.6081  0.4161 -1.2356
    4IDB    C3751085   2.430   2.955   7.660 -0.5108  0.2704 -0.8042
    11RH    C3851086   3.330   4.370   7.843  0.6036 -0.5605  0.3569
    4IDB    C3951087   2.293   2.949   7.684 -0.3748  0.0039 -0.0166
    62IDT   C4051088   2.236   2.830   7.628 -0.9705  0.9885 -1.1735
    72IDQ   C4151089   2.474   2.822   7.601 -0.3260  0.4310  0.0788
    62IDT   C4251090   2.339   2.747   7.592 -0.6984  1.3295 -1.1935
    72IDQ   C4351091   2.579   2.740   7.688 -0.1665  0.2340  0.9025
    72IDQ   C4451092   2.523   2.838   7.456 -0.5164 -1.0722  0.9523
    62IDT    S551093   2.076   2.750   7.614 -0.6126 -0.1261  0.4828
    62IDT   C4551094   2.161   2.600   7.556 -0.0885 -0.0696  1.0904
    62IDT   C4651095   2.297   2.617   7.551 -0.1994  0.7319  0.0862
    82BTZ   C4751096   2.081   2.483   7.497 -0.1345 -0.0316  0.1379
    82BTZ   C4851097   1.950   2.510   7.468 -0.1404  0.0628  0.2495
    82BTZ   C4951098   1.860   2.407   7.422 -0.2574  0.1248  0.3380
    82BTZ   C5051099   1.902   2.278   7.405 -0.3684  0.0924  0.3149
    82BTZ   C5151100   2.129   2.349   7.481 -0.2481 -0.0690  0.1093
    82BTZ   C5251101   2.038   2.245   7.434 -0.3671 -0.0060  0.1993
    92RH    C5351102   1.817   2.164   7.373  0.1806 -0.2574 -0.8042
    82BTZ    N451103   2.255   2.311   7.507 -0.2544 -0.1597  0.0038
    82BTZ    N551104   2.090   2.122   7.422 -0.4689 -0.0461  0.1662
    82BTZ    S651105   2.261   2.136   7.471 -0.4160 -0.1685  0.0153
    92RH    C5451106   1.689   2.153   7.336  0.0328 -0.2504 -0.3111
    92RH     S751107   1.578   2.288   7.281 -0.2752 -0.1940  0.4215
    92RH    C5551108   1.616   2.024   7.334  0.0992 -0.2887 -0.2843
    92RH     O251109   1.663   1.914   7.366  0.2954 -0.3310 -0.7063
    92RH     N651110   1.482   2.041   7.291 -0.0908 -0.2713  0.2903
    92RH    C5651111   1.440   2.168   7.258 -0.3013 -0.2236  0.7277
    92RH    C5751112   1.393   1.921   7.266 -0.4809 -0.2435  0.1744
    92RH    C5851113   1.324   1.874   7.390  0.3547  0.1731  0.4238
    92RH     S851114   1.287   2.215   7.204 -0.5529 -0.1943  1.4434
    72IDQ   C5951115   2.638   2.935   7.405 -0.1866 -0.1344  0.0978
    72IDQ   C6051116   2.781   2.888   7.436 -0.5098  0.1787  1.0222
    72IDQ   C6151117   2.875   3.008   7.450 -0.5469 -0.4507  0.4459
    72IDQ   C6251118   2.873   3.131   7.540 -0.2825 -0.0602  0.3746
    72IDQ   C6351119   2.873   3.124   7.702 -0.3752  0.3741  1.0837
    72IDQ   C6451120   2.969   3.023   7.768  0.5120 -0.0352 -0.1496
    72IDQ   C6551121   2.928   3.047   7.913  0.3630  0.6497  0.8166
    72IDQ   C6651122   2.634   2.797   7.827 -0.1999 -0.2644 -0.7809
    72IDQ   C6751123   2.728   2.711   7.920 -0.1811  0.6470 -0.7161
    72IDQ   C6851124   2.663   2.601   8.010 -0.5737  0.9251 -0.8402
    72IDQ   C6951125   2.530   2.630   8.073  0.5937  1.0138 -0.1773
    72IDQ   C7051126   2.452   2.501   8.101  0.5296 -0.0750 -0.1658
    72IDQ   C7151127   2.319   2.539   8.169  0.4252 -0.7377  1.0737
    72IDQ   C7251128   2.263   2.413   8.242 -0.7571 -0.0879  0.3632
    11RH     C151129   5.272   4.912  21.576  0.3493 -0.1453  0.2704
    11RH     C251130   5.180   4.806  21.531  0.2538  0.0434  0.0191
    11RH     N151131   5.372   4.860  21.662  0.0728 -0.3676  0.4651
    11RH     S151132   5.230   4.645  21.603 -0.1932 -0.0837  0.0547
    11RH     C351133   5.371   4.726  21.690 -0.2325 -0.3799  0.3996
    11RH     C451134   5.459   4.962  21.731  0.0730  1.2149 -0.4400
    11RH     S251135   5.478   4.640  21.788 -0.5981 -0.6212  0.5927
    11RH     O151136   5.265   5.032  21.545  0.6337 -0.1167  0.3114
    11RH     C551137   5.076   4.828  21.450  0.4688  0.2701 -0.1961
    21BTZ    C651138   4.979   4.736  21.391 -0.0491 -0.3674 -0.0876
    21BTZ    C751139   4.992   4.600  21.400 -0.1200 -0.3703 -0.0205
    21BTZ    C851140   4.868   4.790  21.318 -0.0423 -0.3452 -0.0820
    21BTZ    C951141   4.898   4.510  21.338 -0.1873 -0.3519  0.0544
    21BTZ   C1051142   4.791   4.557  21.267 -0.1837 -0.3303  0.0627
    21BTZ   C1151143   4.772   4.698  21.255 -0.1107 -0.3265 -0.0052
    21BTZ    N251144   4.843   4.920  21.302  0.0235 -0.3402 -0.1421
    21BTZ    N351145   4.671   4.755  21.189 -0.0999 -0.3064 -0.0048
    21BTZ    S351146   4.694   4.932  21.204  0.0004 -0.3106 -0.1036
    31IDT   C1251147   4.716   4.458  21.189  0.0381 -0.0269 -0.0950
    31IDT   C1351148   4.755   4.345  21.122  0.2420 -0.0603  0.0772
    31IDT   C1451149   4.646   4.276  21.062  0.3891 -0.2481  0.0262
    31IDT   C1551150   4.523   4.334  21.083  0.2984 -0.3587 -0.1854
    31IDT    S451151   4.536   4.484  21.182  0.0174 -0.2324 -0.3371
    4IDB    C1651152   4.422   4.259  21.023  0.1906  0.2606  0.0876
    4IDB    C1751153   4.485   4.152  20.951  0.0435 -0.2180  0.6561
    51IDQ   C1851154   4.634   4.147  20.974  0.1538  0.8987  0.5447
    4IDB    C1951155   4.410   4.066  20.872  0.0351  0.0506  0.3674
    51IDQ   C2051156   4.684   4.009  21.029  0.3179  1.0018 -0.0432
    51IDQ   C2151157   4.718   4.174  20.843  0.0890  1.0476  0.1545
    51IDQ   C2251158   4.661   4.194  20.715  0.8952  0.1430  0.5507
    51IDQ   C2351159   4.713   3.999  21.183  0.8305 -0.7644 -0.0637
    51IDQ   C2451160   4.750   4.234  20.595  0.0453  0.5636 -0.8141
    51IDQ   C2551161   4.662   4.238  20.465 -0.3022  0.3325  0.2349
    51IDQ   C2651162   4.709   4.329  20.359  0.8475 -0.0672 -0.7322
    51IDQ   C2751163   4.621   4.332  20.237  0.3456 -0.4154  0.0270
    51IDQ   C2851164   4.476   4.364  20.233 -0.7610  0.8757  0.4120
    51IDQ   C2951165   4.446   4.445  20.100  0.8543  0.5808  0.1384
    51IDQ   C3051166   4.740   3.855  21.237 -1.5785 -0.2988  0.6128
    51IDQ   C3151167   4.623   3.784  21.276 -0.0193  0.1414 -0.3256
    51IDQ   C3251168   4.663   3.659  21.345  1.4510  0.5814  0.4429
    51IDQ   C3351169   4.530   3.570  21.339 -0.4142  0.5177  0.4999
    51IDQ   C3451170   4.542   3.447  21.437  0.3227 -0.0439  0.4491
    51IDQ   C3551171   4.447   3.335  21.392 -0.6453 -0.1207 -1.3895
    4IDB    C3651172   4.283   4.279  21.015  0.3310  1.0157 -0.7777
    4IDB    C3751173   4.209   4.190  20.934  0.3202  1.2804 -1.0614
    11RH    C3851174   5.594   4.978  21.678 -0.6233 -0.4186 -0.3903
    4IDB    C3951175   4.271   4.086  20.864  0.1755  0.8057 -0.4985
    62IDT   C4051176   4.175   4.011  20.783 -0.5074  0.0798  1.1233
    72IDQ   C4151177   4.068   4.200  20.879  0.6661 -0.6252 -0.5592
    62IDT   C4251178   4.052   4.073  20.791 -0.6309 -0.1818  1.2732
    72IDQ   C4351179   4.034   4.332  20.788  0.9015  0.2872 -0.0900
    72IDQ   C4451180   3.967   4.197  21.010 -0.5777 -0.2011  0.0455
    62IDT    S551181   4.170   3.866  20.677 -0.1806  0.4137  0.6411
    62IDT   C4551182   3.994   3.898  20.648 -0.2305  0.1701  0.6693
    62IDT   C4651183   3.949   4.009  20.715 -0.4746 -0.1311  1.0171
    82BTZ   C4751184   3.922   3.799  20.571 -0.0245 -0.1640  0.0602
    82BTZ   C4851185   3.943   3.799  20.436  0.1776 -0.3238  0.0920
    82BTZ   C4951186   3.872   3.710  20.348  0.3455 -0.4630  0.0958
    82BTZ   C5051187   3.779   3.621  20.396  0.3111 -0.4421  0.0672
    82BTZ   C5151188   3.825   3.708  20.626 -0.0685 -0.1356  0.0305
    82BTZ   C5251189   3.753   3.618  20.537  0.1022 -0.2770  0.0339
    92RH    C5351190   3.707   3.521  20.314  0.1856 -0.1834  0.0603
    82BTZ    N451191   3.796   3.700  20.756 -0.2587  0.0142 -0.0014
    82BTZ    N551192   3.665   3.536  20.595  0.0492 -0.2409  0.0043
    82BTZ    S651193   3.671   3.572  20.770 -0.2270 -0.0198 -0.0294
    92RH    C5451194   3.716   3.495  20.183  0.0502 -0.0532  0.0262
    92RH     S751195   3.841   3.561  20.066  0.0401 -0.0835 -0.0018
    92RH    C5551196   3.621   3.406  20.111 -0.1179  0.1419  0.0038
    92RH     O251197   3.525   3.346  20.162 -0.1528  0.2069  0.0138
    92RH     N651198   3.654   3.397  19.974 -0.2373  0.2487 -0.0319
    92RH    C5651199   3.763   3.468  19.928 -0.1855  0.1631 -0.0415
    92RH    C5751200   3.575   3.322  19.872 -0.1589  0.9783  0.7156
    92RH    C5851201   3.642   3.185  19.831 -0.0168 -0.5159  0.7596
    92RH     S851202   3.822   3.474  19.770 -0.3020  0.2582 -0.0820
    72IDQ   C5951203   3.929   4.333  21.085 -1.2561  1.1350  0.3366
    72IDQ   C6051204   4.016   4.360  21.198 -0.7841 -1.3084 -1.2755
    72IDQ   C6151205   4.034   4.261  21.311 -0.7963  0.0782 -0.5698
    72IDQ   C6251206   3.905   4.213  21.379 -0.5100  0.6787 -0.0849
    72IDQ   C6351207   3.935   4.119  21.504  0.4126 -0.8114  0.4281
    72IDQ   C6451208   3.793   4.081  21.568 -1.0465  0.1098  0.1179
    72IDQ   C6551209   3.739   4.196  21.652 -0.4452  0.3121 -0.1465
    72IDQ   C6651210   4.136   4.421  20.718 -0.9338  0.7928  0.1274
    72IDQ   C6751211   4.097   4.452  20.574  0.4000 -0.8291  0.2369
    72IDQ   C6851212   4.073   4.322  20.495  0.5304  0.2813  0.6994
    72IDQ   C6951213   4.014   4.326  20.352  1.2817 -0.4866  0.4371
    72IDQ   C7051214   3.979   4.194  20.291 -0.3904  0.0463 -0.7826
    72IDQ   C7151215   4.098   4.102  20.257  0.7810  0.1135 -0.2077
    72IDQ   C7251216   4.183   4.131  20.137  0.2548 -0.1382 -0.7866
    11RH     C151217   6.377   0.140  21.330  0.1464  0.0650  0.6490
    11RH     C251218   6.510   0.202  21.309  0.0981  0.0857  0.4058
    11RH     N151219   6.273   0.233  21.309  0.0699 -0.1177  0.1991
    11RH     S151220   6.490   0.378  21.262 -0.0447 -0.1364 -0.3973
    11RH     C351221   6.306   0.362  21.273 -0.0340 -0.2459 -0.3738
    11RH     C451222   6.130   0.182  21.313 -0.6668 -0.4673 -0.1277
    11RH     S251223   6.203   0.491  21.242 -0.1396 -0.4709 -0.9861
    11RH     O151224   6.356   0.022  21.363  0.2415  0.1899  1.1773
    11RH     C551225   6.625   0.135  21.322  0.1535  0.2450  0.7389
    21BTZ    C651226   6.764   0.174  21.324 -0.1570  0.0519  0.0276
    21BTZ    C751227   6.804   0.304  21.310 -0.2520  0.1020  0.2160
    21BTZ    C851228   6.864   0.074  21.351 -0.0821  0.0828 -0.1335
    21BTZ    C951229   6.943   0.343  21.321 -0.2781  0.1846  0.2561
    21BTZ   C1051230   7.041   0.251  21.346 -0.2093  0.2168  0.1082
    21BTZ   C1151231   7.005   0.113  21.362 -0.1087  0.1667 -0.0925
    21BTZ    N251232   6.837  -0.056  21.366  0.0129  0.0398 -0.3242
    21BTZ    N351233   7.091   0.015  21.387 -0.0352  0.1913 -0.2499
    21BTZ    S351234   6.995  -0.135  21.397  0.0737  0.1063 -0.4618
    31IDT   C1251235   7.179   0.298  21.362  0.1105 -0.1700 -0.6495
    31IDT   C1351236   7.249   0.298  21.480 -0.0093 -0.1397 -0.5779
    31IDT   C1451237   7.383   0.345  21.466 -0.0896  0.1459 -0.3953
    31IDT   C1551238   7.416   0.382  21.337 -0.0316  0.3346 -0.3279
    31IDT    S451239   7.279   0.359  21.223  0.1305  0.1638 -0.4898
    4IDB    C1651240   7.544   0.445  21.343 -0.5674 -0.1552  0.2016
    4IDB    C1751241   7.604   0.444  21.473 -0.3428 -0.3806  0.0992
    51IDQ   C1851242   7.499   0.385  21.563  0.2676  0.0152  0.1660
    4IDB    C1951243   7.737   0.481  21.491 -0.3516 -0.2727 -0.0478
    51IDQ   C2051244   7.577   0.256  21.640 -0.7543 -0.8887  0.9349
    51IDQ   C2151245   7.452   0.471  21.682  0.3712 -1.1406  0.1916
    51IDQ   C2251246   7.527   0.599  21.726  0.0842 -0.0097 -0.4069
    51IDQ   C2351247   7.512   0.115  21.628 -0.3091 -0.4122 -0.0504
    51IDQ   C2451248   7.467   0.742  21.701 -0.6083 -0.3683  0.2523
    51IDQ   C2551249   7.425   0.777  21.561 -0.6243 -0.3477  1.5547
    51IDQ   C2651250   7.531   0.797  21.451  0.4555  1.1429  0.4916
    51IDQ   C2751251   7.597   0.930  21.441  0.0193 -1.3210  0.3859
    51IDQ   C2851252   7.508   1.053  21.390 -0.0899  0.5474  0.2251
    51IDQ   C2951253   7.590   1.173  21.347 -0.3135 -0.1498 -0.4874
    51IDQ   C3051254   7.574   0.029  21.747 -0.5082 -0.5164 -0.1206
    51IDQ   C3151255   7.536  -0.120  21.756 -0.1593  0.5115 -0.1125
    51IDQ   C3251256   7.538  -0.207  21.890  0.7625  0.0395 -0.0931
    51IDQ   C3351257   7.659  -0.221  21.977  0.6712 -0.1986 -0.0479
    51IDQ   C3451258   7.689  -0.088  22.053 -0.2599 -0.4723  0.3270
    51IDQ   C3551259   7.611  -0.045  22.186  1.2977  0.1423  0.6920
    4IDB    C3651260   7.618   0.483  21.230 -0.8036  0.1816  0.1574
    4IDB    C3751261   7.754   0.520  21.250 -0.8090  0.2874  0.0057
    11RH    C3851262   6.064   0.169  21.178  0.7679  0.5317  0.3048
    4IDB    C3951263   7.811   0.518  21.378 -0.5878  0.0641 -0.0926
    62IDT   C4051264   7.940   0.576  21.373 -0.5656  0.4812 -0.1875
    72IDQ   C4151265   7.863   0.567  21.153 -0.2198 -0.7401  1.0216
    62IDT   C4251266   7.955   0.635  21.249 -0.9408  1.1515  0.0777
    72IDQ   C4351267   7.823   0.675  21.047 -0.6587 -0.0382 -0.0208
    72IDQ   C4451268   7.950   0.453  21.073 -0.1909 -0.5901  0.6731
    62IDT    S551269   8.069   0.625  21.487 -0.1828 -0.1884 -0.3224
    62IDT   C4551270   8.141   0.728  21.356 -0.5690  0.5072  0.0033
    62IDT   C4651271   8.069   0.721  21.239 -0.9432  1.1672  0.1860
    82BTZ   C4751272   8.263   0.814  21.380  0.3423 -0.1799  0.2760
    82BTZ   C4851273   8.297   0.897  21.277  0.0977 -0.1494  0.2193
    82BTZ   C4951274   8.394   1.003  21.293 -0.0236 -0.0160  0.0782
    82BTZ   C5051275   8.456   1.026  21.413  0.0999  0.0868 -0.0046
    82BTZ   C5151276   8.325   0.834  21.508  0.4796 -0.0758  0.1941
    82BTZ   C5251277   8.424   0.941  21.525  0.3563  0.0599  0.0510
    92RH    C5351278   8.541   1.141  21.432  0.1337 -0.0672  0.1000
    82BTZ    N451279   8.300   0.759  21.616  0.7186 -0.0931  0.2384
    82BTZ    N551280   8.477   0.954  21.646  0.4962  0.1515 -0.0196
    82BTZ    S651281   8.404   0.825  21.747  0.7977  0.0666  0.0953
    92RH    C5451282   8.580   1.237  21.347 -0.0366 -0.1524 -0.0787
    92RH     S751283   8.547   1.245  21.167 -0.4102 -0.3303 -0.0193
    92RH    C5551284   8.660   1.354  21.389  0.0559 -0.1138 -0.3614
    92RH     O251285   8.700   1.378  21.504  0.2967 -0.0005 -0.4644
    92RH     N651286   8.688   1.439  21.280 -0.1668 -0.2235 -0.5038
    92RH    C5651287   8.640   1.404  21.155 -0.4262 -0.3451 -0.3705
    92RH    C5751288   8.758   1.570  21.312 -0.2468  0.7849  0.8299
    92RH    C5851289   8.672   1.695  21.350  0.9524  0.0841  0.9963
    92RH     S851290   8.659   1.487  21.010 -0.7238 -0.4903 -0.4945
    72IDQ   C5951291   7.881   0.322  21.020 -0.1243 -0.2007 -0.3235
    72IDQ   C6051292   7.749   0.342  20.945  0.5001 -1.0820  0.3213
    72IDQ   C6151293   7.693   0.248  20.842 -0.0489  0.6398 -0.2537
    72IDQ   C6251294   7.573   0.292  20.757  0.1458 -0.5099 -0.2250
    72IDQ   C6351295   7.451   0.355  20.818  0.5379  0.2043  0.4384
    72IDQ   C6451296   7.445   0.489  20.866  0.0026 -1.3170  0.7537
    72IDQ   C6551297   7.316   0.522  20.947 -0.1128  0.1022  0.8924
    72IDQ   C6651298   7.704   0.758  21.076 -0.3848  0.2304  0.2809
    72IDQ   C6751299   7.703   0.859  20.966  0.2575  0.0942 -0.1479
    72IDQ   C6851300   7.574   0.935  20.968  0.1732 -0.9325 -0.0722
    72IDQ   C6951301   7.581   1.065  20.881 -0.2187  1.0304  0.2162
    72IDQ   C7051302   7.442   1.111  20.853  1.0532 -0.0113  0.2321
    72IDQ   C7151303   7.421   1.258  20.817  0.3442  0.1625  1.0936
    72IDQ   C7251304   7.468   1.369  20.907 -0.4211  0.1693 -0.0442
    11RH     C151305   1.466   3.719  24.398  0.0494 -0.1366 -0.1068
    11RH     C251306   1.407   3.686  24.530  0.0457 -0.1389 -0.1092
    11RH     N151307   1.598   3.668  24.386  0.1011 -0.0173 -0.0506
    11RH     S151308   1.528   3.590  24.630  0.1104  0.0159 -0.0371
    11RH     C351309   1.651   3.598  24.492  0.1393  0.0761 -0.0086
    11RH     C451310   1.680   3.704  24.276  0.0656  0.2744  1.2826
    11RH     S251311   1.804   3.528  24.503  0.2035  0.2253  0.0610
    11RH     O151312   1.410   3.783  24.308  0.0125 -0.2266 -0.1478
    11RH     C551313   1.284   3.722  24.567  0.0009 -0.2405 -0.1565
    21BTZ    C651314   1.194   3.700  24.680 -0.0032  0.1176 -0.3622
    21BTZ    C751315   1.228   3.622  24.786  0.1435  0.3413 -0.2446
    21BTZ    C851316   1.074   3.779  24.688  0.0178  0.1488 -0.3548
    21BTZ    C951317   1.148   3.617  24.906  0.3169  0.6051 -0.1140
    21BTZ   C1051318   1.033   3.690  24.918  0.3435  0.6449 -0.1011
    21BTZ   C1151319   0.992   3.773  24.809  0.1940  0.4169 -0.2222
    21BTZ    N251320   1.030   3.859  24.590 -0.1149 -0.0536 -0.4621
    21BTZ    N351321   0.882   3.849  24.809  0.2031  0.4301 -0.2232
    21BTZ    S351322   0.878   3.932  24.651 -0.0181  0.0930 -0.3972
    31IDT   C1251323   0.952   3.655  25.037  0.5726  0.0787  0.4534
    31IDT   C1351324   0.914   3.750  25.128  1.0919 -0.2396  1.0242
    31IDT   C1451325   0.858   3.695  25.247  1.0257 -0.6518  0.8049
    31IDT   C1551326   0.853   3.557  25.248  0.4569 -0.6505  0.0677
    31IDT    S451327   0.920   3.486  25.097 -0.0435 -0.1224 -0.4106
    4IDB    C1651328   0.815   3.509  25.380  1.2246 -0.0423  0.7727
    4IDB    C1751329   0.781   3.622  25.461  1.6311 -0.0170  0.9112
    51IDQ   C1851330   0.805   3.751  25.378  1.6826 -0.4388  0.5295
    4IDB    C1951331   0.724   3.605  25.587  0.9964  0.0327  0.6383
    51IDQ   C2051332   0.662   3.823  25.374 -0.2506 -0.2180  0.2381
    51IDQ   C2151333   0.895   3.865  25.434 -0.5473  0.0724  0.2340
    51IDQ   C2251334   0.995   3.847  25.548  0.3026  0.5253 -0.1366
    51IDQ   C2351335   0.598   3.869  25.244 -0.2466  0.7530  0.6893
    51IDQ   C2451336   1.011   3.946  25.661  0.4788  0.7081 -0.4699
    51IDQ   C2551337   1.148   3.951  25.724  0.1789  0.3405 -0.6627
    51IDQ   C2651338   1.167   4.089  25.786  0.6348 -0.2392 -0.4975
    51IDQ   C2751339   1.311   4.079  25.855  0.3304  0.0740 -0.5420
    51IDQ   C2851340   1.337   4.071  26.004  1.3518  0.2757  0.2237
    51IDQ   C2951341   1.314   4.197  26.084 -0.1831 -0.6951  0.2355
    51IDQ   C3051342   0.488   3.966  25.236  0.0447 -0.2334 -0.1082
    51IDQ   C3151343   0.445   4.001  25.095  0.1809 -0.5365  0.1680
    51IDQ   C3251344   0.315   4.085  25.079 -0.1086  0.1897  0.0402
    51IDQ   C3351345   0.288   4.101  24.935 -0.4279 -0.0082  0.1619
    51IDQ   C3451346   0.152   4.135  24.899  0.0887 -0.4835 -0.7154
    51IDQ   C3551347   0.127   4.193  24.760 -0.4337 -0.5050  0.4526
    4IDB    C3651348   0.792   3.378  25.425  0.1742 -0.0176  0.3576
    4IDB    C3751349   0.734   3.363  25.554 -0.4627  0.0333  0.0834
    11RH    C3851350   1.662   3.614  24.145  1.1235 -0.8932 -0.0184
    4IDB    C3951351   0.701   3.474  25.632 -0.0540  0.0574  0.2235
    62IDT   C4051352   0.639   3.433  25.755 -0.2526  0.4140 -0.0429
    72IDQ   C4151353   0.698   3.232  25.629 -0.4185 -1.7445 -0.0415
    62IDT   C4251354   0.648   3.296  25.768  0.1498  0.4346 -0.0830
    72IDQ   C4351355   0.820   3.134  25.639 -0.6160  0.4060 -0.1903
    72IDQ   C4451356   0.597   3.148  25.549  0.8909 -0.3634  0.0412
    62IDT    S551357   0.571   3.510  25.902 -0.5185  0.1681 -0.0364
    62IDT   C4551358   0.557   3.345  25.977 -0.0486  0.1029 -0.0900
    62IDT   C4651359   0.602   3.246  25.893  0.2657  0.2587 -0.1097
    82BTZ   C4751360   0.515   3.344  26.115  0.0676 -0.0658  0.1420
    82BTZ   C4851361   0.526   3.464  26.181  0.0492 -0.0554  0.1264
    82BTZ   C4951362   0.451   3.493  26.300 -0.1008  0.0221  0.0134
    82BTZ   C5051363   0.364   3.402  26.354 -0.2321  0.0890 -0.0828
    82BTZ   C5151364   0.425   3.246  26.168 -0.0664  0.0025  0.0434
    82BTZ   C5251365   0.348   3.275  26.290 -0.2189  0.0812 -0.0710
    92RH    C5351366   0.282   3.429  26.474 -0.3561  0.2478 -0.0679
    82BTZ    N451367   0.405   3.125  26.114 -0.0633 -0.0001  0.0477
    82BTZ    N551368   0.267   3.178  26.333 -0.3383  0.1420 -0.1593
    82BTZ    S651369   0.285   3.043  26.218 -0.2592  0.1002 -0.0973
    92RH    C5451370   0.271   3.535  26.555 -0.2803  0.3337 -0.1688
    92RH     S751371   0.330   3.705  26.522 -0.3883  0.3196 -0.4399
    92RH    C5551372   0.208   3.529  26.689 -0.0907  0.4577 -0.0725
    92RH     O251373   0.158   3.428  26.741  0.0185  0.4961  0.1097
    92RH     N651374   0.210   3.655  26.753 -0.0466  0.5295 -0.2146
    92RH    C5651375   0.268   3.761  26.687 -0.1777  0.4781 -0.4134
    92RH    C5751376   0.136   3.668  26.888 -0.9806 -0.0758  0.9960
    92RH    C5851377  -0.014   3.677  26.883 -0.1427 -0.1387 -0.7711
    92RH     S851378   0.284   3.920  26.740 -0.1602  0.5435 -0.6108
    72IDQ   C5951379   0.462   3.098  25.614 -0.8916  0.2493 -0.1969
    72IDQ   C6051380   0.387   3.004  25.524 -0.2829  0.3840  0.1401
    72IDQ   C6151381   0.329   2.875  25.592 -1.4684 -0.7402 -0.5196
    72IDQ   C6251382   0.242   2.905  25.717 -0.0573 -0.1341 -0.0129
    72IDQ   C6351383   0.234   2.799  25.814 -0.6346  0.0227 -0.6510
    72IDQ   C6451384   0.148   2.832  25.926 -0.3877  0.6795 -0.3237
    72IDQ   C6551385   0.105   2.719  26.021  0.6172 -0.1802 -0.2658
    72IDQ   C6651386   0.938   3.171  25.718 -0.4023  0.0490  0.0211
    72IDQ   C6751387   1.038   3.068  25.779  0.5124  0.2092  0.5129
    72IDQ   C6851388   1.105   2.961  25.685  0.0480  0.7440 -0.5548
    72IDQ   C6951389   1.214   3.014  25.595  0.0031  0.0998 -0.3861
    72IDQ   C7051390   1.309   2.912  25.536 -0.3315  0.3206 -0.6645
    72IDQ   C7151391   1.456   2.935  25.583  0.7992  0.3824 -0.8285
    72IDQ   C7251392   1.546   2.827  25.516  0.1912  0.3268  0.0269
    11RH     C151393   7.332   1.041  28.344 -0.2648 -0.3420  0.1025
    11RH     C251394   7.359   1.026  28.489 -0.2165 -0.3370  0.0935
    11RH     N151395   7.450   1.030  28.268 -0.2533 -0.0815  0.0822
    11RH     S151396   7.538   1.000  28.516 -0.1592  0.0098  0.0594
    11RH     C351397   7.569   1.009  28.335 -0.2017  0.1315  0.0587
    11RH     C451398   7.453   1.047  28.119  0.6118  0.1899 -0.1936
    11RH     S251399   7.723   0.993  28.268 -0.1779  0.4593  0.0315
    11RH     O151400   7.220   1.060  28.293 -0.3099 -0.5460  0.1235
    11RH     C551401   7.264   1.032  28.583 -0.2163 -0.5570  0.1088
    21BTZ    C651402   7.266   1.030  28.730  0.1598  0.1722 -0.4645
    21BTZ    C751403   7.382   1.005  28.799  0.2892  0.0890 -0.7126
    21BTZ    C851404   7.146   1.052  28.805  0.3009  0.0886 -0.2104
    21BTZ    C951405   7.386   1.000  28.943  0.5618 -0.0795 -0.7235
    21BTZ   C1051406   7.274   1.021  29.018  0.7044 -0.1644 -0.4864
    21BTZ   C1151407   7.150   1.047  28.952  0.5779 -0.0826 -0.2215
    21BTZ    N251408   7.027   1.077  28.750  0.1965  0.1566  0.0437
    21BTZ    N351409   7.034   1.069  29.014  0.6961 -0.1523  0.0237
    21BTZ    S351410   6.912   1.096  28.886  0.4531  0.0014  0.2846
    31IDT   C1251411   7.292   1.005  29.168 -0.2706  0.2694  0.1919
    31IDT   C1351412   7.203   1.014  29.272 -0.1384  0.6177  0.2769
    31IDT   C1451413   7.265   0.998  29.400 -0.0939  0.2672  0.2123
    31IDT   C1551414   7.401   0.976  29.394 -0.1915 -0.3490  0.0780
    31IDT    S451415   7.462   0.975  29.225 -0.3489 -0.5350  0.0224
    4IDB    C1651416   7.452   0.950  29.531  0.4721  0.5725  0.0181
    4IDB    C1751417   7.341   0.954  29.621  0.5605  0.5091  0.1300
    51IDQ   C1851418   7.216   1.001  29.545  0.0360  0.7136  0.8341
    4IDB    C1951419   7.358   0.926  29.756  0.6509  0.1891  0.0533
    51IDQ   C2051420   7.120   0.872  29.573  0.0122  0.2530 -1.3338
    51IDQ   C2151421   7.132   1.127  29.589 -0.2127 -0.2645  0.6627
    51IDQ   C2251422   7.185   1.232  29.674 -1.2000 -0.9712 -0.0539
    51IDQ   C2351423   7.095   0.752  29.474 -0.9802 -0.0131 -0.5518
    51IDQ   C2451424   7.298   1.323  29.614 -0.9817  0.0292 -0.6274
    51IDQ   C2551425   7.286   1.361  29.463  0.4351  0.0035  0.2886
    51IDQ   C2651426   7.378   1.483  29.421  0.4232  0.7343  0.9224
    51IDQ   C2751427   7.314   1.620  29.470  0.2520  0.1633  0.1138
    51IDQ   C2851428   7.407   1.729  29.503  0.3111 -0.2737 -1.0184
    51IDQ   C2951429   7.532   1.711  29.604  0.0503 -0.1895  0.6275
    51IDQ   C3051430   7.000   0.641  29.505 -0.2311  0.0890 -0.1022
    51IDQ   C3151431   6.987   0.572  29.641 -0.4953  0.1754 -0.0222
    51IDQ   C3251432   7.105   0.483  29.700  0.4442 -0.0488  0.2036
    51IDQ   C3351433   7.142   0.360  29.618 -0.0307  0.4997  0.0158
    51IDQ   C3451434   7.246   0.260  29.673  0.2183  0.1548  0.3229
    51IDQ   C3551435   7.386   0.309  29.708  0.4886  0.1480  1.5901
    4IDB    C3651436   7.581   0.917  29.575  0.4734  0.3144 -0.1724
    4IDB    C3751437   7.596   0.888  29.714  0.5663 -0.0111 -0.2484
    11RH    C3851438   7.455   0.919  28.034  0.4308 -0.8883 -0.5679
    4IDB    C3951439   7.487   0.893  29.801  0.6522 -0.0690 -0.1372
    62IDT   C4051440   7.533   0.867  29.929  0.3921  0.9805 -0.4420
    72IDQ   C4151441   7.721   0.845  29.789  0.2546 -0.1511 -1.1170
    62IDT   C4251442   7.669   0.847  29.933  0.4532  1.3699 -0.5658
    72IDQ   C4351443   7.843   0.940  29.764  0.8646  0.0586 -1.3339
    72IDQ   C4451444   7.758   0.692  29.743  0.1783 -1.9516  0.5955
    62IDT    S551445   7.463   0.881  30.094  0.3580 -0.1290 -0.3444
    62IDT   C4551446   7.630   0.859  30.162  0.4318 -0.0016 -0.4829
    62IDT   C4651447   7.724   0.843  30.064  0.4757  0.8153 -0.5892
    82BTZ   C4751448   7.645   0.851  30.307  0.0914 -0.2579 -0.1246
    82BTZ   C4851449   7.529   0.864  30.379  0.1286  0.0289 -0.1149
    82BTZ   C4951450   7.525   0.841  30.521  0.1621  0.4111 -0.0503
    82BTZ   C5051451   7.637   0.805  30.591  0.1585  0.5059  0.0045
    82BTZ   C5151452   7.765   0.813  30.376  0.0861 -0.1730 -0.0688
    82BTZ   C5251453   7.761   0.790  30.520  0.1202  0.2155 -0.0031
    92RH    C5351454   7.640   0.790  30.734  0.0993  0.2947 -0.3215
    82BTZ    N451455   7.884   0.797  30.317  0.0514 -0.4280 -0.0719
    82BTZ    N551456   7.876   0.755  30.578  0.1129  0.2727  0.0465
    82BTZ    S651457   7.998   0.751  30.446  0.0610 -0.1769  0.0106
    92RH    C5451458   7.549   0.800  30.831  0.1383  0.2040 -0.2753
    92RH     S751459   7.369   0.830  30.810  0.1449  0.3173 -0.1701
    92RH    C5551460   7.581   0.787  30.975  0.1836 -0.0096 -0.3036
    92RH     O251461   7.694   0.766  31.022  0.1908 -0.1278 -0.3718
    92RH     N651462   7.466   0.802  31.055  0.2188 -0.0656 -0.2424
    92RH    C5651463   7.345   0.825  30.992  0.2071  0.0771 -0.1686
    92RH    C5751464   7.485   0.800  31.198 -1.1612  1.3534  0.6881
    92RH    C5851465   7.486   0.931  31.268 -0.4770  0.2826  0.8551
    92RH     S851466   7.194   0.846  31.064  0.2422  0.0493 -0.0862
    72IDQ   C5951467   7.800   0.595  29.841  0.3038 -0.2277  0.2284
    72IDQ   C6051468   7.690   0.501  29.875 -0.0179 -0.7013  0.0972
    72IDQ   C6151469   7.714   0.439  30.005 -1.1355  0.4008 -0.5442
    72IDQ   C6251470   7.633   0.314  30.054 -0.2980 -0.8213  0.6256
    72IDQ   C6351471   7.628   0.188  29.973 -0.1931  0.7889  0.8611
    72IDQ   C6451472   7.746   0.169  29.880 -0.3640  0.3774  0.4542
    72IDQ   C6551473   7.743   0.046  29.790 -0.0565  0.0953  0.0020
    72IDQ   C6651474   7.850   1.096  29.758 -0.5078  0.6772 -0.1312
    72IDQ   C6751475   7.795   1.184  29.863 -0.0623 -0.2408 -1.0035
    72IDQ   C6851476   7.755   1.327  29.831  0.1380 -0.1205  0.0831
    72IDQ   C6951477   7.651   1.399  29.920  0.6223 -0.2479 -0.3276
    72IDQ   C7051478   7.519   1.321  29.961 -0.9527 -0.6333  0.0857
    72IDQ   C7151479   7.417   1.425  30.012 -0.4373  0.1341  0.2266
    72IDQ   C7251480   7.283   1.359  30.030  0.5267 -0.1486 -0.9034
    11RH     C151481   1.032   6.673  25.575  0.0840  0.4195  0.0329
    11RH     C251482   1.137   6.644  25.475  0.0764  0.1907  0.0906
    11RH     N151483   0.907   6.623  25.535  0.0797  0.3330  0.1533
    11RH     S151484   1.064   6.552  25.334  0.0641 -0.1234  0.3012
    11RH     C351485   0.898   6.556  25.415  0.0696  0.0627  0.3014
    11RH     C451486   0.783   6.642  25.619 -0.0416  0.2366  0.6902
    11RH     S251487   0.762   6.487  25.344  0.0627 -0.0914  0.4644
    11RH     O151488   1.050   6.734  25.682  0.0931  0.6588 -0.1044
    11RH     C551489   1.265   6.680  25.489  0.0785  0.2179 -0.0006
    21BTZ    C651490   1.381   6.640  25.420 -0.3675 -0.3139 -0.1662
    21BTZ    C751491   1.374   6.555  25.313 -0.3353 -0.2228 -0.2408
    21BTZ    C851492   1.509   6.690  25.460 -0.3664 -0.4336 -0.0186
    21BTZ    C951493   1.492   6.516  25.240 -0.3006 -0.2444 -0.1736
    21BTZ   C1051494   1.616   6.561  25.274 -0.2981 -0.3572 -0.0322
    21BTZ   C1151495   1.629   6.650  25.386 -0.3311 -0.4556  0.0496
    21BTZ    N251496   1.528   6.773  25.563 -0.3959 -0.5294  0.0648
    21BTZ    N351497   1.745   6.701  25.429 -0.3322 -0.5692  0.1879
    21BTZ    S351498   1.704   6.804  25.570 -0.3794 -0.6548  0.2380
    31IDT   C1251499   1.728   6.513  25.188 -0.1333 -0.6957 -0.0117
    31IDT   C1351500   1.860   6.546  25.191 -0.1864 -0.4936  0.2151
    31IDT   C1451501   1.938   6.473  25.095  0.0410 -0.1752  0.1535
    31IDT   C1551502   1.864   6.385  25.019  0.2685 -0.1324 -0.1188
    31IDT    S451503   1.690   6.386  25.063  0.2117 -0.4955 -0.3210
    4IDB    C1651504   1.954   6.302  24.936  0.0674  0.4245  0.1953
    4IDB    C1751505   2.087   6.349  24.956  0.1051  0.3177  0.1998
    51IDQ   C1851506   2.083   6.473  25.048 -0.6030  0.2454  0.4185
    4IDB    C1951507   2.195   6.291  24.890  0.0321  0.3888  0.0149
    51IDQ   C2051508   2.200   6.445  25.148  0.4549  0.7361  0.4512
    51IDQ   C2151509   2.106   6.615  24.983  0.0201 -0.9612  0.0012
    51IDQ   C2251510   2.150   6.654  24.838  1.1441 -0.1323 -0.3911
    51IDQ   C2351511   2.173   6.471  25.300 -0.1394  0.4316  0.2001
    51IDQ   C2451512   2.032   6.619  24.738 -1.2647  0.0544  0.2200
    51IDQ   C2551513   2.081   6.597  24.594 -0.5766 -0.0296 -0.6234
    51IDQ   C2651514   2.183   6.706  24.546 -0.0386 -0.3365  0.5860
    51IDQ   C2751515   2.269   6.662  24.422  0.0359  0.4013 -0.3423
    51IDQ   C2851516   2.329   6.783  24.363  0.5844 -0.2911  0.4390
    51IDQ   C2951517   2.458   6.751  24.293  0.6720 -0.4638 -0.7520
    51IDQ   C3051518   2.180   6.606  25.355 -0.3364 -0.9571 -0.7003
    51IDQ   C3151519   2.176   6.588  25.501  0.0021  0.5081 -0.8485
    51IDQ   C3251520   2.183   6.727  25.561 -0.6044  0.5331 -0.6283
    51IDQ   C3351521   2.107   6.729  25.686  1.9137 -1.3616 -0.1719
    51IDQ   C3451522   2.130   6.863  25.753  0.5443 -0.9587  0.7244
    51IDQ   C3551523   2.123   6.869  25.907 -0.2384  0.0311 -0.1152
    4IDB    C3651524   1.928   6.195  24.849 -0.0442  0.6039  0.0043
    4IDB    C3751525   2.039   6.136  24.783 -0.1175  0.6741 -0.1826
    11RH    C3851526   0.783   6.550  25.739  0.4920 -0.0386  0.0446
    4IDB    C3951527   2.168   6.183  24.804 -0.0794  0.5682 -0.1750
    62IDT   C4051528   2.262   6.111  24.719  0.1589 -0.2580 -0.2155
    72IDQ   C4151529   2.042   6.023  24.677 -0.6556  0.4862  1.0541
    62IDT   C4251530   2.194   6.020  24.642  0.2624  0.0758 -0.7071
    72IDQ   C4351531   1.951   6.059  24.552  0.1925  0.7977 -0.1694
    72IDQ   C4451532   2.012   5.880  24.732 -0.3173  0.1626  0.4738
    62IDT    S551533   2.437   6.114  24.682  0.1618  0.1197 -0.1858
    62IDT   C4551534   2.408   5.985  24.557  0.3099  0.7393 -0.8726
    62IDT   C4651535   2.276   5.948  24.550  0.3479  0.6400 -1.0791
    82BTZ   C4751536   2.530   5.935  24.487  0.0018 -0.2728  0.1426
    82BTZ   C4851537   2.650   5.940  24.554  0.0225 -0.4733  0.1197
    82BTZ   C4951538   2.775   5.908  24.488 -0.0374 -0.6368  0.0844
    82BTZ   C5051539   2.780   5.872  24.356 -0.1180 -0.5996  0.0713
    82BTZ   C5151540   2.530   5.898  24.348 -0.0818 -0.2261  0.1307
    82BTZ   C5251541   2.657   5.866  24.282 -0.1428 -0.3924  0.0944
    92RH    C5351542   2.907   5.839  24.284 -0.1503 -0.1195  0.1607
    82BTZ    N451543   2.421   5.890  24.273 -0.1096 -0.0372  0.1497
    82BTZ    N551544   2.649   5.832  24.153 -0.2194 -0.3370  0.0844
    82BTZ    S651545   2.476   5.840  24.110 -0.2168 -0.0642  0.1220
    92RH    C5451546   3.033   5.853  24.325 -0.1668  0.0722  0.1483
    92RH     S751547   3.090   5.927  24.483 -0.2583  0.2584  0.0954
    92RH    C5551548   3.151   5.809  24.246 -0.1113  0.1658  0.1779
    92RH     O251549   3.146   5.755  24.134 -0.0443  0.0798  0.2165
    92RH     N651550   3.272   5.836  24.313 -0.1440  0.3695  0.1573
    92RH    C5651551   3.266   5.896  24.437 -0.2189  0.4507  0.1149
    92RH    C5751552   3.391   5.795  24.235  0.1932  0.8770 -1.2420
    92RH    C5851553   3.437   5.650  24.262  0.9243 -1.0827  0.5445
    92RH     S851554   3.395   5.938  24.537 -0.2709  0.6876  0.0825
    72IDQ   C5951555   1.973   5.750  24.646 -1.0466 -1.0342 -0.4564
    72IDQ   C6051556   2.021   5.631  24.731  0.6043  0.4251 -0.0901
    72IDQ   C6151557   1.907   5.517  24.739 -0.7390 -0.2673 -0.7043
    72IDQ   C6251558   1.962   5.389  24.785  0.3313  0.6017  0.0491
    72IDQ   C6351559   2.016   5.372  24.922  0.1486  1.0252 -0.8770
    72IDQ   C6451560   2.041   5.229  24.955  0.4881  1.5712  0.3166
    72IDQ   C6551561   1.925   5.126  24.982  0.1162  0.1135  0.9024
    72IDQ   C6651562   1.986   6.178  24.446 -0.1307  1.4166 -0.4975
    72IDQ   C6751563   1.869   6.203  24.337 -0.9407 -1.1376 -0.0038
    72IDQ   C6851564   1.722   6.196  24.361  0.5106  0.1653 -1.5169
    72IDQ   C6951565   1.636   6.249  24.478  0.1973 -0.1171  0.1253
    72IDQ   C7051566   1.651   6.193  24.618  0.3361  0.6688 -0.1858
    72IDQ   C7151567   1.609   6.052  24.629  0.4528  0.7008  0.2377
    72IDQ   C7251568   1.612   5.990  24.773  0.2733 -0.6771  0.2055
    11RH     C151569   1.886   5.899  25.965 -0.0130  0.1103 -0.4435
    11RH     C251570   1.862   6.007  26.064 -0.3053 -0.0956 -0.2866
    11RH     N151571   1.795   5.906  25.857  0.2007  0.2361 -0.6175
    11RH     S151572   1.722   6.111  26.008 -0.2802 -0.1097 -0.3766
    11RH     C351573   1.701   6.007  25.858  0.1152  0.1568 -0.6175
    11RH     C451574   1.820   5.823  25.734 -0.4231  0.2788 -0.3578
    11RH     S251575   1.582   6.037  25.742  0.3251  0.2738 -0.8044
    11RH     O151576   1.974   5.812  25.974  0.0433  0.1683 -0.4287
    11RH     C551577   1.935   6.023  26.175 -0.5457 -0.2441 -0.1076
    21BTZ    C651578   1.941   6.124  26.289  0.2900  0.3060  0.1824
    21BTZ    C751579   1.867   6.240  26.291  0.2134  0.2563  0.3333
    21BTZ    C851580   2.023   6.093  26.403  0.2954  0.2035  0.1507
    21BTZ    C951581   1.871   6.331  26.403  0.1387  0.1043  0.4592
    21BTZ   C1051582   1.948   6.305  26.513  0.1407  0.0023  0.4350
    21BTZ   C1151583   2.027   6.186  26.516  0.2195  0.0490  0.2794
    21BTZ    N251584   2.099   5.984  26.413  0.3663  0.2388  0.0091
    21BTZ    N351585   2.105   6.150  26.618  0.2294 -0.0401  0.2408
    21BTZ    S351586   2.180   5.994  26.572  0.3384  0.0724  0.0343
    31IDT   C1251587   1.962   6.408  26.612  0.2400  0.2682 -0.7473
    31IDT   C1351588   2.060   6.422  26.707  0.4057  0.2749 -0.9184
    31IDT   C1451589   2.062   6.551  26.767  0.3167  0.1857 -0.7205
    31IDT   C1551590   1.966   6.637  26.718  0.0831  0.1107 -0.3980
    31IDT    S451591   1.864   6.560  26.591 -0.0434  0.1475 -0.3190
    4IDB    C1651592   1.970   6.768  26.790  0.1536  0.2554 -0.4923
    4IDB    C1751593   2.082   6.764  26.879  0.3175  0.2310 -0.6995
    51IDQ   C1851594   2.150   6.624  26.877  1.2073 -0.3931  0.2663
    4IDB    C1951595   2.117   6.875  26.954  0.1484  0.0546 -0.3554
    51IDQ   C2051596   2.299   6.650  26.839  0.4530 -0.4207 -1.3179
    51IDQ   C2151597   2.157   6.531  27.012 -0.0688  0.4165  0.6379
    51IDQ   C2251598   2.099   6.566  27.151 -0.3059  0.3799  0.5035
    51IDQ   C2351599   2.347   6.629  26.704  0.2360 -0.4588  0.8346
    51IDQ   C2451600   2.165   6.486  27.259  1.0608 -0.0493  0.4514
    51IDQ   C2551601   2.108   6.545  27.396 -0.7747 -0.2542  0.0142
    51IDQ   C2651602   2.202   6.553  27.526 -0.2145 -0.4587 -0.4452
    51IDQ   C2751603   2.340   6.619  27.493  0.2295  0.4620  0.8343
    51IDQ   C2851604   2.435   6.675  27.616  0.0169 -0.1925 -0.1016
    51IDQ   C2951605   2.360   6.775  27.712  0.4798 -0.3466  0.4582
    51IDQ   C3051606   2.491   6.596  26.673  1.0664  0.1559  0.7402
    51IDQ   C3151607   2.524   6.453  26.704  0.0809 -0.6721  0.0160
    51IDQ   C3251608   2.457   6.370  26.605 -0.0757  1.4174  1.6076
    51IDQ   C3351609   2.535   6.322  26.476 -1.1851 -0.3106 -0.2519
    51IDQ   C3451610   2.473   6.203  26.399 -0.7135  0.0230 -0.0531
    51IDQ   C3551611   2.363   6.258  26.310  0.0577  1.0693 -0.2436
    4IDB    C3651612   1.892   6.884  26.777 -0.1825  0.1024  0.0629
    4IDB    C3751613   1.929   6.997  26.854 -0.3514 -0.0767  0.4077
    11RH    C3851614   1.926   5.866  25.642  0.5995 -0.1634  0.1104
    4IDB    C3951615   2.039   6.991  26.941 -0.1878 -0.0982  0.1994
    62IDT   C4051616   2.053   7.119  27.004  0.1775 -0.0958 -0.1349
    72IDQ   C4151617   1.858   7.135  26.865 -0.6346 -0.5214  0.9815
    62IDT   C4251618   1.942   7.196  26.979  0.2522 -0.0919 -0.4716
    72IDQ   C4351619   1.706   7.119  26.888 -0.2181 -0.0577 -0.5827
    72IDQ   C4451620   1.857   7.211  26.722  0.6716  0.0502 -0.1518
    62IDT    S551621   2.168   7.200  27.116  0.0121  0.0546 -0.0734
    62IDT   C4551622   2.053   7.341  27.124  0.0549  0.1178 -0.5281
    62IDT   C4651623   1.942   7.322  27.047  0.1830  0.0287 -0.6933
    82BTZ   C4751624   2.085   7.441  27.218  0.3372 -0.0736 -0.1051
    82BTZ   C4851625   2.213   7.449  27.267  0.2306 -0.1360  0.1898
    82BTZ   C4951626   2.248   7.541  27.372  0.0144 -0.2189  0.3357
    82BTZ   C5051627   2.156   7.625  27.428 -0.0946 -0.2392  0.1881
    82BTZ   C5151628   1.985   7.527  27.274  0.2299 -0.0918 -0.2694
    82BTZ   C5251629   2.021   7.620  27.381  0.0103 -0.1761 -0.1206
    92RH    C5351630   2.182   7.713  27.543 -0.3786  0.1463  0.3917
    82BTZ    N451631   1.857   7.528  27.235  0.3169 -0.0363 -0.5569
    82BTZ    N551632   1.922   7.697  27.427 -0.0793 -0.1883 -0.2885
    82BTZ    S651633   1.775   7.652  27.335  0.1176 -0.0906 -0.6518
    92RH    C5451634   2.288   7.737  27.621 -0.2019  0.1128  0.1621
    92RH     S751635   2.444   7.640  27.626 -0.2957 -0.0505 -0.0412
    92RH    C5551636   2.295   7.848  27.719  0.1076  0.2065  0.0348
    92RH     O251637   2.206   7.932  27.740  0.2376  0.3248  0.1230
    92RH     N651638   2.418   7.849  27.787  0.2421  0.1446 -0.2052
    92RH    C5651639   2.511   7.752  27.756  0.0784  0.0128 -0.2847
    92RH    C5751640   2.450   7.969  27.876  0.8383  0.1188  0.8566
    92RH    C5851641   2.438   7.971  28.025  0.2000  0.2066 -0.1640
    92RH     S851642   2.665   7.731  27.823  0.1856 -0.0834 -0.5593
    72IDQ   C5951643   1.981   7.257  26.660 -1.0528  0.5487  0.0258
    72IDQ   C6051644   1.987   7.288  26.514 -0.0066 -0.1217 -0.1548
    72IDQ   C6151645   1.924   7.209  26.401  0.0663  0.6629 -1.2379
    72IDQ   C6251646   1.933   7.247  26.260  0.4368 -0.5144 -0.1925
    72IDQ   C6351647   2.073   7.224  26.189  0.3959  0.7836  0.1823
    72IDQ   C6451648   2.092   7.238  26.046  0.6625  0.8787 -0.4578
    72IDQ   C6551649   2.225   7.262  25.985  0.4073  0.2148  1.0949
    72IDQ   C6651650   1.617   7.213  26.980 -0.2048  0.0499 -0.1521
    72IDQ   C6751651   1.482   7.142  27.009  0.0013  1.0496 -0.6375
    72IDQ   C6851652   1.389   7.253  27.059 -0.2822 -0.2172  0.1830
    72IDQ   C6951653   1.278   7.207  27.154  0.2322  1.0532 -0.9440
    72IDQ   C7051654   1.170   7.300  27.206 -0.3286 -0.1732  0.1498
    72IDQ   C7151655   1.102   7.229  27.323  1.0735  0.0044 -0.2185
    72IDQ   C7251656   0.985   7.294  27.382  0.5794 -0.0250 -0.8091
    11RH     C151657   2.446   2.612  11.794 -0.0367 -0.2904 -0.3085
    11RH     C251658   2.426   2.753  11.753  0.0078 -0.2372 -0.1512
    11RH     N151659   2.358   2.525  11.726 -0.2964 -0.1467 -0.1594
    11RH     S151660   2.293   2.762  11.627 -0.2947 -0.0016  0.1825
    11RH     C351661   2.270   2.579  11.636 -0.4654  0.0151  0.0973
    11RH     C451662   2.350   2.379  11.779  0.1393  0.2284  0.7466
    11RH     S251663   2.156   2.498  11.542 -0.7823  0.2061  0.3150
    11RH     O151664   2.529   2.573  11.878  0.1293 -0.4410 -0.5414
    11RH     C551665   2.497   2.856  11.802  0.2371 -0.3484 -0.2457
    21BTZ    C651666   2.495   3.000  11.798  0.0567 -0.1140 -0.0482
    21BTZ    C751667   2.408   3.065  11.714  0.2484 -0.1501 -0.2768
    21BTZ    C851668   2.588   3.078  11.874 -0.0735 -0.0862  0.0856
    21BTZ    C951669   2.409   3.208  11.700  0.3214 -0.1607 -0.3848
    21BTZ   C1051670   2.496   3.287  11.770  0.2027 -0.1352 -0.2640
    21BTZ   C1151671   2.589   3.224  11.860  0.0008 -0.0970 -0.0243
    21BTZ    N251672   2.678   3.026  11.958 -0.2631 -0.0503  0.3095
    21BTZ    N351673   2.679   3.290  11.933 -0.1290 -0.0696  0.1113
    21BTZ    S351674   2.769   3.165  12.025 -0.3566 -0.0280  0.3912
    31IDT   C1251675   2.492   3.431  11.735  0.2670  0.0603  0.6590
    31IDT   C1351676   2.595   3.520  11.752 -0.1103  0.4522  0.9477
    31IDT   C1451677   2.561   3.652  11.711 -0.4805  0.3145  0.8006
    31IDT   C1551678   2.432   3.665  11.663 -0.3882 -0.1820  0.3997
    31IDT    S451679   2.343   3.509  11.666  0.1801 -0.5168  0.1752
    4IDB    C1651680   2.412   3.801  11.609  0.0130  0.5127 -0.3596
    4IDB    C1751681   2.537   3.870  11.609  0.1178  0.3254 -0.6011
    51IDQ   C1851682   2.641   3.787  11.696  0.5092 -0.5781  0.5225
    4IDB    C1951683   2.553   3.988  11.538  0.1232  0.3635 -0.5367
    51IDQ   C2051684   2.777   3.769  11.628  0.1843 -0.2780  0.7112
    51IDQ   C2151685   2.680   3.839  11.837 -0.0547  0.7245 -0.1325
    51IDQ   C2251686   2.670   3.986  11.875  0.3259 -0.5405  0.5506
    51IDQ   C2351687   2.806   3.677  11.507 -0.3881  0.2688  0.1032
    51IDQ   C2451688   2.656   4.012  12.030  0.4306  0.3824  0.8111
    51IDQ   C2551689   2.647   4.154  12.075 -0.3618 -0.4077 -0.0262
    51IDQ   C2651690   2.615   4.168  12.219 -0.5416  0.4435 -0.5601
    51IDQ   C2751691   2.486   4.125  12.284 -0.3299  0.3008  0.4832
    51IDQ   C2851692   2.351   4.202  12.258 -0.3252  0.4086 -0.2269
    51IDQ   C2951693   2.244   4.166  12.360  0.5409 -0.4222 -0.0212
    51IDQ   C3051694   2.765   3.709  11.364 -0.3619 -0.5305 -0.2829
    51IDQ   C3151695   2.734   3.598  11.262 -0.5941  0.0459 -0.3537
    51IDQ   C3251696   2.625   3.491  11.284 -0.5002 -0.9349 -0.3711
    51IDQ   C3351697   2.487   3.555  11.291 -0.4453 -0.3964 -0.6271
    51IDQ   C3451698   2.375   3.464  11.294 -0.3890 -0.1873  1.0608
    51IDQ   C3551699   2.250   3.528  11.256  0.0861 -0.3575  0.1461
    4IDB    C3651700   2.302   3.850  11.538 -0.0877  0.7405 -0.0498
    4IDB    C3751701   2.320   3.971  11.466 -0.0806  0.7762  0.0119
    11RH    C3851702   2.420   2.291  11.683 -0.0515 -0.0902  0.4443
    4IDB    C3951703   2.443   4.038  11.467  0.0225  0.5914 -0.2269
    62IDT   C4051704   2.433   4.165  11.405  0.8092 -0.6556 -0.2181
    72IDQ   C4151705   2.220   4.048  11.379 -0.5342 -0.3818  0.5742
    62IDT   C4251706   2.302   4.181  11.365  0.8655 -1.3418 -0.7062
    72IDQ   C4351707   2.080   4.055  11.448 -0.1141 -0.6641  0.8916
    72IDQ   C4451708   2.214   3.970  11.241  0.4917  0.7234 -0.0241
    62IDT    S551709   2.533   4.309  11.364  0.1057  0.1092  0.6663
    62IDT   C4551710   2.384   4.386  11.292 -0.0845 -0.5724  0.3127
    62IDT   C4651711   2.274   4.305  11.302  0.3604 -1.2957 -0.4067
    82BTZ   C4751712   2.406   4.526  11.238  0.0262  0.2745 -0.1446
    82BTZ   C4851713   2.533   4.577  11.245 -0.0350  0.4081  0.0041
    82BTZ   C4951714   2.561   4.713  11.206 -0.1647  0.4967  0.2177
    82BTZ   C5051715   2.463   4.798  11.161 -0.2330  0.4518  0.2819
    82BTZ   C5151716   2.300   4.610  11.192 -0.0412  0.2223 -0.0846
    82BTZ   C5251717   2.329   4.748  11.153 -0.1730  0.3126  0.1326
    92RH    C5351718   2.499   4.919  11.105  0.1158 -0.3300  0.1353
    82BTZ    N451719   2.173   4.571  11.182  0.0080  0.0942 -0.2151
    82BTZ    N551720   2.225   4.820  11.111 -0.2296  0.2569  0.1764
    82BTZ    S651721   2.082   4.712  11.120 -0.1145  0.0831 -0.0624
    92RH    C5451722   2.605   4.994  11.072  0.0194 -0.1600  0.2091
    92RH     S751723   2.782   4.945  11.081  0.0983  0.1597  0.4324
    92RH    C5551724   2.594   5.133  11.021 -0.1727 -0.2074  0.1187
    92RH     O251725   2.488   5.195  11.003 -0.2654 -0.4060 -0.0336
    92RH     N651726   2.721   5.188  10.994 -0.2404  0.0041  0.2279
    92RH    C5651727   2.833   5.110  11.017 -0.1262  0.2152  0.3946
    92RH    C5751728   2.728   5.331  10.954  0.3995 -0.8750 -0.7334
    92RH    C5851729   2.738   5.428  11.072  0.3606  0.5911 -0.2691
    92RH     S851730   2.994   5.152  10.994 -0.1730  0.4900  0.5496
    72IDQ   C5951731   2.168   4.033  11.106 -0.5415  0.4940 -0.6128
    72IDQ   C6051732   2.268   4.112  11.027  0.4031 -0.0016  1.0778
    72IDQ   C6151733   2.224   4.168  10.896 -0.2573  0.0200  0.1064
    72IDQ   C6251734   2.319   4.265  10.829  0.5500 -0.1538  0.6030
    72IDQ   C6351735   2.406   4.373  10.895 -0.7702  0.0803 -1.7184
    72IDQ   C6451736   2.530   4.401  10.815  0.4369 -0.5777 -0.7685
    72IDQ   C6551737   2.615   4.503  10.885 -0.1014 -0.8879 -0.1909
    72IDQ   C6651738   1.955   4.127  11.387  0.1642 -1.1909  0.6586
    72IDQ   C6751739   1.831   4.046  11.400  0.9630  0.5463 -0.3739
    72IDQ   C6851740   1.697   4.123  11.359  0.3592  0.6382 -0.3316
    72IDQ   C6951741   1.559   4.076  11.418 -0.1445  0.1706  0.7027
    72IDQ   C7051742   1.554   4.048  11.562 -0.1380  0.6869 -0.0677
    72IDQ   C7151743   1.433   3.975  11.593  0.5397  0.1381  0.0597
    72IDQ   C7251744   1.401   3.973  11.738 -0.8006 -0.6631  0.5476
    11RH     C151745   5.946   7.357  24.313  0.7219 -0.0490 -0.1535
    11RH     C251746   5.898   7.440  24.200  0.3430 -0.0426  0.0076
    11RH     N151747   6.022   7.432  24.405  0.6012  0.0615 -0.1438
    11RH     S151748   5.957   7.613  24.222 -0.1475  0.1084  0.1609
    11RH     C351749   6.041   7.566  24.379  0.1718  0.1557  0.0052
    11RH     C451750   6.083   7.365  24.526  0.0426 -0.8401 -0.1702
    11RH     S251751   6.128   7.677  24.472 -0.0552  0.2956  0.0491
    11RH     O151752   5.923   7.235  24.328  1.1005 -0.1389 -0.2823
    11RH     C551753   5.824   7.393  24.099  0.3688 -0.1351  0.0310
    21BTZ    C651754   5.769   7.450  23.976 -0.3347  0.3950 -0.1172
    21BTZ    C751755   5.775   7.579  23.933 -0.3533  0.3488 -0.2594
    21BTZ    C851756   5.721   7.349  23.886 -0.2010  0.2693 -0.0491
    21BTZ    C951757   5.735   7.617  23.800 -0.2424  0.1780 -0.3405
    21BTZ   C1051758   5.690   7.524  23.710 -0.1130  0.0536 -0.2800
    21BTZ   C1151759   5.681   7.387  23.750 -0.0882  0.0957 -0.1316
    21BTZ    N251760   5.711   7.219  23.916 -0.1702  0.2989  0.0896
    21BTZ    N351761   5.638   7.288  23.671  0.0333 -0.0143 -0.0601
    21BTZ    S351762   5.647   7.139  23.770  0.0080  0.1017  0.1199
    31IDT   C1251763   5.661   7.573  23.574 -0.1702  0.5916 -0.0661
    31IDT   C1351764   5.612   7.497  23.471  0.0397  0.5127 -0.1082
    31IDT   C1451765   5.568   7.575  23.361  0.2178  0.4302 -0.2398
    31IDT   C1551766   5.582   7.711  23.379  0.1449  0.4457 -0.2986
    31IDT    S451767   5.653   7.751  23.538 -0.1577  0.5670 -0.1914
    4IDB    C1651768   5.567   7.775  23.247  0.1880  0.3137  0.4810
    4IDB    C1751769   5.525   7.678  23.152  0.9763 -0.1799  0.6180
    51IDQ   C1851770   5.502   7.544  23.218  1.6489  0.1528 -1.2745
    4IDB    C1951771   5.510   7.710  23.018  0.5335 -0.4358  0.6013
    51IDQ   C2051772   5.336   7.535  23.227 -0.1357  0.3601  0.0609
    51IDQ   C2151773   5.557   7.415  23.148  0.6840 -0.0422 -0.4401
    51IDQ   C2251774   5.622   7.418  23.009  0.0059  0.4223 -0.7076
    51IDQ   C2351775   5.274   7.530  23.375  0.2451 -0.4474  1.2518
    51IDQ   C2451776   5.759   7.477  22.981 -0.5306  0.0959 -0.3045
    51IDQ   C2551777   5.860   7.365  22.986 -0.5104  0.1891 -0.3252
    51IDQ   C2651778   6.012   7.415  22.989  1.3061  0.2152  0.4179
    51IDQ   C2751779   6.116   7.324  23.009  0.0496  0.7543 -0.3884
    51IDQ   C2851780   6.149   7.198  22.925 -0.1402 -1.3326  0.1753
    51IDQ   C2951781   6.165   7.206  22.778 -0.1134  0.5886  1.2940
    51IDQ   C3051782   5.118   7.524  23.380 -0.5010  0.0344 -0.3748
    51IDQ   C3151783   5.034   7.665  23.383 -0.7786  0.9171  1.0525
    51IDQ   C3251784   5.072   7.770  23.486  0.4139 -0.7276  0.1230
    51IDQ   C3351785   5.124   7.739  23.636  0.6390 -0.4913  0.2547
    51IDQ   C3451786   5.185   7.866  23.706 -0.2269 -0.2008 -0.4226
    51IDQ   C3551787   5.213   7.855  23.854 -0.0085  0.8902 -0.6160
    4IDB    C3651788   5.595   7.907  23.208 -1.0554  0.5555  0.3257
    4IDB    C3751789   5.579   7.939  23.071 -1.4917  0.2883  0.3114
    11RH    C3851790   5.981   7.352  24.644 -0.3819  0.1243 -0.3186
    4IDB    C3951791   5.538   7.842  22.979 -0.7099 -0.1939  0.4462
    62IDT   C4051792   5.543   7.889  22.843  0.5356 -0.2347 -0.2538
    72IDQ   C4151793   5.611   8.068  22.993  1.3755  0.8371 -0.0602
    62IDT   C4251794   5.574   8.023  22.852  0.2054 -0.1745  0.0725
    72IDQ   C4351795   5.757   8.115  23.003  0.0160 -0.1812  0.1042
    72IDQ   C4451796   5.492   8.176  23.034 -0.3073 -0.2893  0.9967
    62IDT    S551797   5.521   7.836  22.673  0.6158  0.1391 -0.3815
    62IDT   C4551798   5.558   8.006  22.620  0.1774  0.3681  0.0333
    62IDT   C4651799   5.583   8.089  22.726  0.0023  0.1663  0.2356
    82BTZ   C4751800   5.557   8.036  22.479  0.2049 -0.2756 -0.1883
    82BTZ   C4851801   5.650   8.126  22.432  0.3830 -0.4103 -0.0973
    82BTZ   C4951802   5.670   8.146  22.291  0.5105 -0.3965 -0.0772
    82BTZ   C5051803   5.598   8.077  22.197  0.4596 -0.2480 -0.1478
    82BTZ   C5151804   5.480   7.961  22.385  0.1451 -0.1173 -0.2646
    82BTZ   C5251805   5.500   7.982  22.241  0.2747 -0.1033 -0.2446
    92RH    C5351806   5.625   8.087  22.058  0.2791  0.1124 -0.1155
    82BTZ    N451807   5.387   7.872  22.418 -0.0246  0.0228 -0.3567
    82BTZ    N551808   5.424   7.909  22.159  0.2090  0.0481 -0.3190
    82BTZ    S651809   5.320   7.808  22.265 -0.0261  0.1819 -0.4213
    92RH    C5451810   5.708   8.171  21.995  0.2809  0.1251 -0.0963
    92RH     S751811   5.827   8.287  22.072  0.1132  0.2768 -0.0645
    92RH    C5551812   5.716   8.183  21.847  0.4243  0.0139 -0.0978
    92RH     O251813   5.648   8.118  21.766  0.5568 -0.1018 -0.1163
    92RH     N651814   5.812   8.279  21.808  0.3921  0.0554 -0.0743
    92RH    C5651815   5.882   8.345  21.906  0.2404  0.1861 -0.0548
    92RH    C5751816   5.821   8.319  21.662 -0.4058 -0.6517 -0.2965
    92RH    C5851817   5.709   8.400  21.600 -0.9740 -0.0942 -0.5231
    92RH     S851818   6.000   8.464  21.886  0.1717  0.2602 -0.0257
    72IDQ   C5951819   5.518   8.270  23.155  0.6769 -0.0989  0.0196
    72IDQ   C6051820   5.427   8.383  23.121  0.1844 -0.1079  0.1614
    72IDQ   C6151821   5.468   8.509  23.210 -0.4140  0.4487  0.4030
    72IDQ   C6251822   5.412   8.646  23.177 -0.2036  0.0038  0.6463
    72IDQ   C6351823   5.486   8.750  23.265  0.8691  0.2788  0.4190
    72IDQ   C6451824   5.420   8.753  23.398 -0.8529  0.4012 -0.3254
    72IDQ   C6551825   5.494   8.843  23.496  0.4952  0.3475 -0.1668
    72IDQ   C6651826   5.796   8.235  22.927 -0.3580 -0.0700  0.1548
    72IDQ   C6751827   5.947   8.244  22.965  0.0843  0.1603  0.0868
    72IDQ   C6851828   6.041   8.348  22.908  0.2931 -0.3296 -0.0618
    72IDQ   C6951829   6.176   8.337  22.979  0.2748 -0.6608 -0.7248
    72IDQ   C7051830   6.295   8.410  22.928 -0.0504 -0.9397  0.1647
    72IDQ   C7151831   6.328   8.379  22.784 -0.3587 -0.2851  0.8079
    72IDQ   C7251832   6.459   8.423  22.733 -0.5314 -0.3287 -0.1792
    11RH     C151833   4.039   0.628  23.937 -0.4194 -0.0402 -0.3567
    11RH     C251834   4.106   0.497  23.948 -0.1425  0.0872 -0.4873
    11RH     N151835   3.970   0.662  24.055 -0.2340 -0.1642 -0.2122
    11RH     S151836   4.073   0.425  24.114  0.3437  0.0356 -0.4103
    11RH     C351837   3.973   0.573  24.160  0.1576 -0.1518 -0.2098
    11RH     C451838   3.900   0.796  24.063 -0.7354  0.4971 -0.0689
    11RH     S251839   3.899   0.588  24.311  0.4453 -0.2821 -0.0534
    11RH     O151840   4.042   0.702  23.837 -0.7708 -0.0409 -0.3700
    11RH     C551841   4.179   0.442  23.850 -0.2438  0.2183 -0.6364
    21BTZ    C651842   4.254   0.315  23.843  0.1088 -0.1603  0.1456
    21BTZ    C751843   4.259   0.228  23.949 -0.0229 -0.2363  0.0877
    21BTZ    C851844   4.331   0.284  23.726  0.0417 -0.2120  0.1159
    21BTZ    C951845   4.337   0.107  23.944 -0.2255 -0.3660 -0.0014
    21BTZ   C1051846   4.412   0.074  23.834 -0.2962 -0.4195 -0.0329
    21BTZ   C1151847   4.410   0.162  23.721 -0.1643 -0.3438  0.0257
    21BTZ    N251848   4.334   0.361  23.617  0.1558 -0.1475  0.1655
    21BTZ    N351849   4.479   0.140  23.608 -0.2156 -0.3852  0.0024
    21BTZ    S351850   4.443   0.279  23.501  0.0016 -0.2547  0.0968
    31IDT   C1251851   4.508  -0.029  23.844  0.2163  0.9261  0.2026
    31IDT   C1351852   4.536  -0.121  23.747  0.3632  1.5697 -0.3753
    31IDT   C1451853   4.628  -0.221  23.790  0.3043  1.2808 -0.9036
    31IDT   C1551854   4.671  -0.206  23.920  0.1122  0.4173 -0.7319
    31IDT    S451855   4.596  -0.063  23.999 -0.0098 -0.1019  0.1194
    4IDB    C1651856   4.751  -0.321  23.957  0.0457  0.2155  0.4358
    4IDB    C1751857   4.771  -0.404  23.842  0.2183  0.4863  0.2656
    51IDQ   C1851858   4.675  -0.354  23.726 -1.3807  1.2332 -1.0250
    4IDB    C1951859   4.854  -0.515  23.848 -0.0378  0.2892  0.2250
    51IDQ   C2051860   4.765  -0.352  23.607 -0.4833 -0.6478  0.4806
    51IDQ   C2151861   4.563  -0.447  23.704  0.7022 -0.7931  0.7262
    51IDQ   C2251862   4.499  -0.554  23.800  0.5102 -0.0405 -0.0951
    51IDQ   C2351863   4.804  -0.234  23.515  0.3971 -0.1583  0.2185
    51IDQ   C2451864   4.452  -0.523  23.944  0.1318  0.3732  0.4814
    51IDQ   C2551865   4.353  -0.418  23.967  0.5051  0.3224  0.1073
    51IDQ   C2651866   4.320  -0.440  24.105  0.7069  0.7140 -0.4403
    51IDQ   C2751867   4.245  -0.324  24.155  0.3146 -0.1539  0.3645
    51IDQ   C2851868   4.184  -0.343  24.294 -0.5602 -1.3305 -1.0665
    51IDQ   C2951869   4.118  -0.208  24.325  0.5888 -0.6822  0.0064
    51IDQ   C3051870   4.689  -0.192  23.413 -0.5620 -0.0952 -0.4823
    51IDQ   C3151871   4.698  -0.041  23.376 -1.1945  0.4582  0.9384
    51IDQ   C3251872   4.626   0.018  23.252 -0.5458 -0.2628 -0.8046
    51IDQ   C3351873   4.672  -0.039  23.115 -1.0711  0.2427 -0.4598
    51IDQ   C3451874   4.563  -0.011  23.015  0.7045 -0.1758 -0.1574
    51IDQ   C3551875   4.601  -0.046  22.876 -0.0840 -0.7485  0.8276
    4IDB    C3651876   4.816  -0.349  24.078 -0.3870 -0.2565  0.5665
    4IDB    C3751877   4.901  -0.462  24.082 -0.6440 -0.4520  0.5221
    11RH    C3851878   3.988   0.908  24.125  0.4206  0.0248  1.5204
    4IDB    C3951879   4.919  -0.543  23.969 -0.4705 -0.1829  0.3557
    62IDT   C4051880   5.012  -0.646  24.002  0.2349 -0.0413 -0.4035
    72IDQ   C4151881   4.993  -0.503  24.196 -0.3094  0.2491 -0.6728
    62IDT   C4251882   5.059  -0.631  24.130  0.0787 -0.0201 -0.3486
    72IDQ   C4351883   4.910  -0.537  24.334  0.1608 -0.0860  0.4964
    72IDQ   C4451884   5.114  -0.413  24.223 -0.4250 -0.8487 -0.2338
    62IDT    S551885   5.077  -0.794  23.923  0.0969 -0.2135 -0.1950
    62IDT   C4551886   5.169  -0.830  24.076 -0.1778 -0.2496 -0.0376
    62IDT   C4651887   5.148  -0.735  24.172 -0.1547 -0.1379 -0.1407
    82BTZ   C4751888   5.260  -0.944  24.081  0.2945  0.1718 -0.0898
    82BTZ   C4851889   5.287  -1.004  23.961  0.1100  0.1080 -0.0997
    82BTZ   C4951890   5.364  -1.126  23.953 -0.1025 -0.0250 -0.1349
    82BTZ   C5051891   5.414  -1.187  24.064 -0.1302 -0.0942 -0.1605
    82BTZ   C5151892   5.310  -1.005  24.201  0.2738  0.1037 -0.1154
    82BTZ   C5251893   5.388  -1.128  24.192  0.0579 -0.0316 -0.1516
    92RH    C5351894   5.494  -1.309  24.040 -0.6040 -0.6901  0.2352
    82BTZ    N451895   5.290  -0.956  24.324  0.4414  0.1554 -0.1087
    82BTZ    N551896   5.432  -1.179  24.308  0.0519 -0.0886 -0.1736
    82BTZ    S651897   5.373  -1.068  24.436  0.3277  0.0307 -0.1498
    92RH    C5451898   5.523  -1.380  23.930 -0.3880 -0.2534  0.0052
    92RH     S751899   5.464  -1.347  23.760 -0.2914  0.2576  0.0670
    92RH    C5551900   5.610  -1.500  23.931 -0.1879 -0.1141 -0.3481
    92RH     O251901   5.665  -1.549  24.031 -0.1956 -0.3790 -0.4702
    92RH     N651902   5.623  -1.555  23.802  0.0189  0.3674 -0.5358
    92RH    C5651903   5.558  -1.494  23.697  0.0087  0.6306 -0.3762
    92RH    C5751904   5.684  -1.692  23.793 -0.5410 -0.0262  0.2179
    92RH    C5851905   5.834  -1.674  23.768 -0.0061 -0.4584 -0.4600
    92RH     S851906   5.557  -1.539  23.535  0.2284  1.2069 -0.5422
    72IDQ   C5951907   5.206  -0.425  24.352 -0.2796  0.8053  0.5989
    72IDQ   C6051908   5.317  -0.323  24.380  0.1984  0.4484  0.1043
    72IDQ   C6151909   5.414  -0.275  24.279 -0.6077  0.3708  0.3512
    72IDQ   C6251910   5.529  -0.382  24.254  0.2772  0.7828  0.6778
    72IDQ   C6351911   5.613  -0.453  24.358  0.8003 -0.1648 -1.3474
    72IDQ   C6451912   5.656  -0.593  24.336 -0.9513  0.1166  0.2002
    72IDQ   C6551913   5.728  -0.652  24.448 -1.3620 -0.0660 -0.2227
    72IDQ   C6651914   4.786  -0.622  24.315 -0.3658  0.1690  0.0079
    72IDQ   C6751915   4.716  -0.690  24.430 -1.0269  0.0686 -0.6972
    72IDQ   C6851916   4.648  -0.583  24.519  0.1240  0.5379  1.2071
    72IDQ   C6951917   4.599  -0.638  24.651  0.1733 -0.1768 -0.9004
    72IDQ   C7051918   4.536  -0.522  24.726 -0.1879 -0.9892 -0.7405
    72IDQ   C7151919   4.380  -0.530  24.744 -0.7155  0.0331  0.2165
    72IDQ   C7251920   4.313  -0.426  24.813 -1.1100 -1.4644  0.8451
    11RH     C151921   5.000   5.442  24.004 -0.1979  0.0257  0.4606
    11RH     C251922   4.892   5.538  23.967 -0.0364  0.1765  0.3757
    11RH     N151923   4.993   5.325  23.925 -0.2999  0.0356  0.4548
    11RH     S151924   4.789   5.467  23.833 -0.0295  0.3211  0.2932
    11RH     C351925   4.893   5.314  23.831 -0.2400  0.1756  0.3753
    11RH     C451926   5.105   5.229  23.937 -0.8607 -0.8823 -0.8420
    11RH     S251927   4.863   5.186  23.726 -0.3362  0.2179  0.3505
    11RH     O151928   5.086   5.460  24.091 -0.2414 -0.0956  0.5293
    11RH     C551929   4.876   5.657  24.026  0.0829  0.1986  0.3634
    21BTZ    C651930   4.786   5.765  24.008 -0.2557  0.2575  0.1427
    21BTZ    C751931   4.701   5.777  23.902 -0.3401  0.3189  0.2170
    21BTZ    C851932   4.779   5.862  24.114 -0.1636  0.2040  0.1979
    21BTZ    C951933   4.604   5.884  23.894 -0.3382  0.3308  0.3490
    21BTZ   C1051934   4.593   5.979  23.992 -0.2519  0.2813  0.4068
    21BTZ   C1151935   4.680   5.970  24.106 -0.1615  0.2161  0.3324
    21BTZ    N251936   4.856   5.861  24.222 -0.0765  0.1421  0.1354
    21BTZ    N351937   4.679   6.057  24.208 -0.0730  0.1638  0.3777
    21BTZ    S351938   4.806   6.002  24.321  0.0137  0.0955  0.2479
    31IDT   C1251939   4.495   6.080  23.971  0.3186 -0.0741 -0.1096
    31IDT   C1351940   4.460   6.173  24.066  0.5361 -0.2220  0.1178
    31IDT   C1451941   4.366   6.269  24.017  0.3415 -0.2078  0.5159
    31IDT   C1551942   4.329   6.250  23.886 -0.0247 -0.0496  0.5936
    31IDT    S451943   4.411   6.109  23.812 -0.1528  0.0952  0.1654
    4IDB    C1651944   4.233   6.353  23.848 -0.2661 -0.1354  0.0839
    4IDB    C1751945   4.220   6.446  23.955  0.0644 -0.2491  0.2236
    51IDQ   C1851946   4.287   6.387  24.077  0.9888 -0.2424 -0.4364
    4IDB    C1951947   4.152   6.566  23.938  0.0190 -0.2253  0.5586
    51IDQ   C2051948   4.365   6.501  24.151  0.3717  0.4063 -0.1153
    51IDQ   C2151949   4.195   6.330  24.193 -0.0654 -0.3393 -0.2291
    51IDQ   C2251950   4.049   6.312  24.178  0.5417 -0.5076  0.7934
    51IDQ   C2351951   4.520   6.506  24.173 -0.5319 -0.7169  1.6521
    51IDQ   C2451952   3.979   6.347  24.311 -0.2786  0.3120 -0.1427
    51IDQ   C2551953   3.829   6.292  24.317  0.0486  0.4813 -0.4754
    51IDQ   C2651954   3.746   6.265  24.440 -0.3713 -0.3227 -0.1374
    51IDQ   C2751955   3.803   6.178  24.560  0.0552 -0.2539 -0.7704
    51IDQ   C2851956   3.795   6.035  24.524 -0.0734  1.0183  0.8020
    51IDQ   C2951957   3.908   5.955  24.597 -0.2549  1.2663  0.2083
    51IDQ   C3051958   4.601   6.505  24.034  1.2012  0.0022 -0.1496
    51IDQ   C3151959   4.754   6.486  24.041  0.8205  0.4746 -0.2223
    51IDQ   C3251960   4.817   6.367  24.110 -1.0082  0.6527  0.3567
    51IDQ   C3351961   4.841   6.405  24.247 -0.8896 -0.4285 -0.7923
    51IDQ   C3451962   4.970   6.333  24.304  0.2878 -0.0413  0.4122
    51IDQ   C3551963   4.981   6.335  24.455  0.7774  0.1683  0.3781
    4IDB    C3651964   4.177   6.379  23.722 -0.6466  0.0038  0.2785
    4IDB    C3751965   4.108   6.502  23.706 -0.6874  0.0263  0.6204
    11RH    C3851966   5.229   5.227  23.847  0.0804  0.8118 -0.0153
    4IDB    C3951967   4.096   6.592  23.812 -0.3613 -0.0860  0.7531
    62IDT   C4051968   4.018   6.710  23.765 -0.1256 -0.1357 -0.3357
    72IDQ   C4151969   4.045   6.564  23.578  0.1672  0.2970 -0.8405
    62IDT   C4251970   4.002   6.702  23.628 -0.4419 -0.1798 -0.2975
    72IDQ   C4351971   3.933   6.463  23.544  0.6171 -0.0406 -1.2307
    72IDQ   C4451972   4.150   6.586  23.463 -1.3382 -0.1647  0.4714
    62IDT    S551973   3.955   6.864  23.832  0.0317 -0.1126 -0.2382
    62IDT   C4551974   3.908   6.912  23.663 -0.3578 -0.1665 -0.1471
    62IDT   C4651975   3.940   6.817  23.570 -0.5737 -0.1973 -0.1907
    82BTZ   C4751976   3.857   7.052  23.638 -0.2633 -0.6595 -0.4758
    82BTZ   C4851977   3.783   7.112  23.736 -0.1290 -0.6009 -0.4096
    82BTZ   C4951978   3.712   7.235  23.712  0.1806 -0.3921 -0.2618
    82BTZ   C5051979   3.716   7.298  23.590  0.3555 -0.2424 -0.1805
    82BTZ   C5151980   3.864   7.113  23.509 -0.0894 -0.5084 -0.3953
    82BTZ   C5251981   3.792   7.239  23.485  0.2252 -0.2962 -0.2451
    92RH    C5351982   3.649   7.431  23.557  0.4272  0.4821  0.2172
    82BTZ    N451983   3.933   7.064  23.406 -0.1950 -0.5471 -0.4482
    82BTZ    N551984   3.803   7.290  23.362  0.3726 -0.1642 -0.1774
    82BTZ    S651985   3.908   7.178  23.270  0.1099 -0.3084 -0.3050
    92RH    C5451986   3.565   7.513  23.621  0.1486  0.2352  0.1760
    92RH     S751987   3.502   7.494  23.792 -0.2442 -0.1912 -0.0119
    92RH    C5551988   3.510   7.637  23.560  0.1159  0.2721  0.2809
    92RH     O251989   3.533   7.678  23.445  0.3375  0.5304  0.4163
    92RH     N651990   3.425   7.704  23.650 -0.2046 -0.0277  0.2078
    92RH    C5651991   3.405   7.650  23.775 -0.4327 -0.3002  0.0572
    92RH    C5751992   3.356   7.833  23.607 -0.7241 -0.0151  0.4771
    92RH    C5851993   3.223   7.793  23.541  0.1125 -0.4065 -0.7013
    92RH     S851994   3.309   7.711  23.900 -0.8282 -0.6836 -0.0553
    72IDQ   C5951995   4.208   6.461  23.399 -0.1732  1.1637  0.5019
    72IDQ   C6051996   4.240   6.466  23.251  0.2382  0.4600  0.2432
    72IDQ   C6151997   4.131   6.494  23.155 -0.3075 -0.1981 -0.8749
    72IDQ   C6251998   4.182   6.545  23.020  0.3492 -0.9046 -0.0294
    72IDQ   C6351999   4.234   6.690  23.015  0.0416 -0.3489 -0.0703
    72IDQ   C6452000   4.159   6.803  23.090  0.2748  0.5551 -0.3834
    72IDQ   C6552001   4.257   6.923  23.085 -0.5779 -0.1334 -0.1626
    72IDQ   C6652002   3.801   6.461  23.639 -0.8842 -0.1719 -0.6591
    72IDQ   C6752003   3.818   6.375  23.763  1.1733  1.3255  1.0237
    72IDQ   C6852004   3.846   6.224  23.733  0.4744  0.1901  0.0425
    72IDQ   C6952005   3.901   6.144  23.852 -0.0022 -1.2015  0.5399
    72IDQ   C7052006   3.865   5.999  23.853  0.1191  0.1302 -0.7207
    72IDQ   C7152007   3.874   5.931  23.986  0.3838 -0.5018  0.0068
    72IDQ   C7252008   4.004   5.940  24.070 -0.1317 -0.8374 -0.5612
    11RH     C152009   4.640   1.684  25.146 -0.0963  0.0872  0.4554
    11RH     C252010   4.778   1.631  25.150  0.0292  0.3973  0.2966
    11RH     N152011   4.571   1.641  25.031 -0.2098 -0.2530  0.6476
    11RH     S152012   4.809   1.527  25.002 -0.0098  0.2212  0.4109
    11RH     C352013   4.638   1.559  24.942 -0.1904 -0.2534  0.6618
    11RH     C452014   4.440   1.696  25.001  0.8364 -1.5762 -1.4475
    11RH     S252015   4.579   1.494  24.798 -0.3073 -0.6185  0.8707
    11RH     O152016   4.588   1.757  25.232 -0.1040  0.1149  0.4268
    11RH     C552017   4.865   1.657  25.249  0.1508  0.7486  0.1018
    21BTZ    C652018   4.999   1.614  25.268  0.0195  0.1506 -0.0546
    21BTZ    C752019   5.069   1.539  25.178  0.1011  0.2720 -0.0939
    21BTZ    C852020   5.069   1.667  25.382 -0.0391  0.1609 -0.0238
    21BTZ    C952021   5.210   1.512  25.194  0.1291  0.4086 -0.1044
    21BTZ   C1052022   5.281   1.560  25.300  0.0755  0.4237 -0.0755
    21BTZ   C1152023   5.212   1.639  25.398 -0.0107  0.2998 -0.0339
    21BTZ    N252024   5.012   1.742  25.477 -0.1202  0.0504  0.0157
    21BTZ    N352025   5.270   1.692  25.507 -0.0688  0.3009 -0.0033
    21BTZ    S352026   5.142   1.781  25.594 -0.1644  0.1207  0.0416
    31IDT   C1252027   5.423   1.522  25.319 -0.1700 -0.3630 -0.5790
    31IDT   C1352028   5.517   1.597  25.384 -0.5014  0.3190 -0.8550
    31IDT   C1452029   5.640   1.526  25.404 -0.2164  0.9013 -0.4754
    31IDT   C1552030   5.640   1.397  25.354  0.3328  0.6677  0.0915
    31IDT    S452031   5.482   1.356  25.277  0.5338 -0.3169  0.1889
    4IDB    C1652032   5.766   1.330  25.372 -0.2026  0.1673 -0.3932
    4IDB    C1752033   5.859   1.424  25.426 -0.0623 -0.2512  0.1087
    51IDQ   C1852034   5.777   1.548  25.468 -0.9968  0.3709  0.0806
    4IDB    C1952035   5.995   1.394  25.435 -0.1518 -0.6213  0.2565
    51IDQ   C2052036   5.778   1.556  25.625  0.8387 -0.1104  0.0214
    51IDQ   C2152037   5.835   1.686  25.419  0.8481  0.6023  1.0269
    51IDQ   C2252038   5.942   1.701  25.306 -0.4585  0.0258  0.1274
    51IDQ   C2352039   5.648   1.552  25.698  0.1851  0.1039 -0.2770
    51IDQ   C2452040   5.904   1.652  25.164 -0.9039 -0.9368 -0.0070
    51IDQ   C2552041   5.985   1.720  25.054  0.0840  0.1984  0.4434
    51IDQ   C2652042   6.137   1.701  25.053 -0.8536 -0.6961  0.9079
    51IDQ   C2752043   6.186   1.557  25.040 -0.0890  0.2148  0.3944
    51IDQ   C2852044   6.328   1.541  25.081 -1.2316 -0.1267 -0.8642
    51IDQ   C2952045   6.392   1.420  25.028 -0.9600 -0.0217 -0.1762
    51IDQ   C3052046   5.656   1.590  25.850 -0.7016 -0.3102  0.2187
    51IDQ   C3152047   5.589   1.488  25.940  0.0438  0.2212 -0.3658
    51IDQ   C3252048   5.576   1.512  26.093 -0.1653 -1.0122 -1.0595
    51IDQ   C3352049   5.543   1.660  26.138 -1.2470 -0.3551  1.4443
    51IDQ   C3452050   5.535   1.703  26.279  0.3558 -0.9791 -0.0127
    51IDQ   C3552051   5.641   1.651  26.377  0.2243  0.1451 -0.2911
    4IDB    C3652052   5.809   1.204  25.326 -0.4345  0.2180 -0.7520
    4IDB    C3752053   5.948   1.175  25.336 -0.5230 -0.1639 -0.5941
    11RH    C3852054   4.329   1.598  25.020  0.2761  0.3061  0.5686
    4IDB    C3952055   6.037   1.268  25.389 -0.3835 -0.5706 -0.1025
    62IDT   C4052056   6.171   1.213  25.393  0.0875 -0.2884  0.5811
    72IDQ   C4152057   6.026   1.053  25.283  0.8133 -0.3644  1.5225
    62IDT   C4252058   6.168   1.085  25.341  0.3716 -0.3582  0.7291
    72IDQ   C4352059   6.013   1.059  25.123 -0.0616  0.4944 -0.5486
    72IDQ   C4452060   5.967   0.918  25.335  0.5204  0.6156 -0.2511
    62IDT    S552061   6.336   1.258  25.449  0.1511  0.4173 -0.1431
    62IDT   C4552062   6.394   1.094  25.396  0.5792  0.5892 -0.2135
    62IDT   C4652063   6.294   1.018  25.342  0.6502  0.1378  0.2794
    82BTZ   C4752064   6.535   1.054  25.403 -0.1866  0.0333 -0.4371
    82BTZ   C4852065   6.625   1.157  25.412 -0.1408 -0.0102 -0.3958
    82BTZ   C4952066   6.766   1.132  25.429 -0.1881 -0.0761 -0.0744
    82BTZ   C5052067   6.817   1.005  25.436 -0.2811 -0.0984  0.2038
    82BTZ   C5152068   6.583   0.919  25.411 -0.2836  0.0122 -0.1531
    82BTZ   C5252069   6.726   0.894  25.427 -0.3316 -0.0548  0.1731
    92RH    C5352070   6.954   0.964  25.472 -0.0636 -0.2948  0.2082
    82BTZ    N452071   6.505   0.811  25.403 -0.3353  0.0500 -0.1621
    82BTZ    N552072   6.764   0.766  25.433 -0.4221 -0.0708  0.4263
    82BTZ    S652073   6.614   0.670  25.417 -0.4502  0.0006  0.2550
    92RH    C5452074   7.066   1.030  25.504 -0.1125 -0.2261  0.2379
    92RH     S752075   7.088   1.212  25.509 -0.1413 -0.2134 -0.0529
    92RH    C5552076   7.193   0.963  25.541 -0.1523 -0.1471  0.5221
    92RH     O252077   7.210   0.840  25.547 -0.1452 -0.1353  0.7620
    92RH     N652078   7.294   1.057  25.569 -0.2005 -0.0849  0.4903
    92RH    C5652079   7.264   1.191  25.560 -0.2043 -0.1044  0.2151
    92RH    C5752080   7.437   1.009  25.612  1.7547  0.4755  0.1263
    92RH    C5852081   7.471   0.992  25.760 -0.3697 -0.4523 -0.0021
    92RH     S852082   7.366   1.322  25.588 -0.2569 -0.0421  0.1178
    72IDQ   C5952083   6.045   0.791  25.286 -1.6099  0.1002  0.1784
    72IDQ   C6052084   5.974   0.661  25.325  0.9961  0.6391  0.3162
    72IDQ   C6152085   6.005   0.533  25.247  0.0438  0.0187 -0.2767
    72IDQ   C6252086   5.937   0.534  25.108 -0.3081  0.4024  1.3292
    72IDQ   C6352087   5.949   0.419  25.003  0.0070 -0.1416  0.0256
    72IDQ   C6452088   6.069   0.333  25.003 -0.7370  0.3303 -0.1146
    72IDQ   C6552089   6.077   0.214  24.909 -0.7032  0.0897  1.3564
    72IDQ   C6652090   6.128   1.063  25.030 -0.9659 -0.2465 -1.4034
    72IDQ   C6752091   6.118   1.083  24.880  0.0550  0.5492 -0.1493
    72IDQ   C6852092   6.046   0.972  24.809  0.1484 -1.3022  0.6191
    72IDQ   C6952093   6.053   0.975  24.656  0.2112  0.1795 -0.7991
    72IDQ   C7052094   5.996   0.853  24.587 -0.7751 -0.6377  0.2461
    72IDQ   C7152095   6.055   0.729  24.646  0.5030  0.4116 -1.1265
    72IDQ   C7252096   5.948   0.617  24.615 -0.0651 -0.1752 -0.3371
    11RH     C152097   6.516   5.668  22.079 -0.0688 -0.0618  0.2089
    11RH     C252098   6.626   5.732  22.156  0.0129 -0.0567  0.0892
    11RH     N152099   6.403   5.645  22.160  0.0412 -0.1185  0.3466
    11RH     S152100   6.573   5.756  22.330  0.2290 -0.1269  0.1646
    11RH     C352101   6.409   5.681  22.293  0.2012 -0.1595  0.3519
    11RH     C452102   6.295   5.563  22.102  0.0738  0.8810 -0.1128
    11RH     S252103   6.289   5.665  22.410  0.3556 -0.2297  0.5002
    11RH     O152104   6.520   5.638  21.958 -0.2151 -0.0219  0.1936
    11RH     C552105   6.744   5.764  22.102 -0.0641 -0.0078 -0.0522
    21BTZ    C652106   6.871   5.808  22.157  0.2189  0.0334  0.1420
    21BTZ    C752107   6.891   5.807  22.293  0.2183  0.2186  0.1435
    21BTZ    C852108   6.953   5.894  22.077  0.2446 -0.1043  0.0210
    21BTZ    C952109   6.991   5.889  22.356  0.2428  0.2774  0.0281
    21BTZ   C1052110   7.072   5.973  22.283  0.2679  0.1509 -0.0893
    21BTZ   C1152111   7.055   5.978  22.141  0.2695 -0.0446 -0.0968
    21BTZ    N252112   6.943   5.904  21.944  0.2476 -0.2886  0.0062
    21BTZ    N352113   7.128   6.055  22.059  0.2925 -0.1810 -0.2055
    21BTZ    S352114   7.067   6.023  21.894  0.2832 -0.3960 -0.1614
    31IDT   C1252115   7.184   6.044  22.352 -0.1469 -0.7135 -0.1799
    31IDT   C1352116   7.269   6.141  22.306 -0.1040 -0.8858 -0.4706
    31IDT   C1452117   7.358   6.189  22.408  0.0172 -0.7253 -0.6514
    31IDT   C1552118   7.340   6.130  22.531  0.0673 -0.4303 -0.5001
    31IDT    S452119   7.209   6.007  22.528 -0.0360 -0.3319 -0.1134
    4IDB    C1652120   7.438   6.192  22.624 -0.2945  0.1942 -0.1840
    4IDB    C1752121   7.516   6.292  22.558 -0.5264  0.5213  0.0267
    51IDQ   C1852122   7.474   6.287  22.411 -0.3946 -0.7444 -0.0190
    4IDB    C1952123   7.628   6.347  22.620 -0.3726  0.2934 -0.0410
    51IDQ   C2052124   7.423   6.436  22.389 -0.1794 -0.1444  0.2642
    51IDQ   C2152125   7.594   6.260  22.304 -0.5140  1.2471  0.7115
    51IDQ   C2252126   7.746   6.256  22.336  0.3414  0.9332 -0.7703
    51IDQ   C2352127   7.274   6.479  22.385 -0.1057 -0.8047 -0.4062
    51IDQ   C2452128   7.824   6.125  22.371  0.5871  0.4799  0.9716
    51IDQ   C2552129   7.967   6.186  22.401 -0.8131 -0.0803  1.0429
    51IDQ   C2652130   8.081   6.109  22.474 -0.3143  1.0344 -0.2082
    51IDQ   C2752131   8.067   5.955  22.441  0.5640  1.0317 -0.7218
    51IDQ   C2852132   8.190   5.875  22.494  0.8809  1.0280  0.1092
    51IDQ   C2952133   8.189   5.727  22.450  0.5801  0.5963  1.2215
    51IDQ   C3052134   7.264   6.632  22.374 -0.4119  0.4560  0.4345
    51IDQ   C3152135   7.118   6.654  22.393 -0.2946 -0.5490 -0.7493
    51IDQ   C3252136   7.105   6.804  22.398  0.4101  0.2822 -0.5121
    51IDQ   C3352137   6.958   6.855  22.418 -0.8335 -0.8628 -0.0813
    51IDQ   C3452138   6.851   6.846  22.306 -0.0498 -0.0436  0.4214
    51IDQ   C3552139   6.879   6.949  22.190  0.1451  0.3642 -0.5600
    4IDB    C3652140   7.470   6.148  22.753  0.0951 -0.3661 -0.4659
    4IDB    C3752141   7.584   6.206  22.815  0.2474 -0.5919 -0.5312
    11RH    C3852142   6.169   5.646  22.049 -0.8720  0.4106 -0.3831
    4IDB    C3952143   7.660   6.303  22.749  0.0170 -0.2670 -0.3234
    62IDT   C4052144   7.765   6.357  22.837  0.8915 -0.8704 -0.1814
    72IDQ   C4152145   7.636   6.197  22.957  0.0385  0.4843  0.0167
    62IDT   C4252146   7.747   6.307  22.965  1.2028 -1.2162 -0.2699
    72IDQ   C4352147   7.702   6.056  23.000 -1.4659 -0.9336  0.2675
    72IDQ   C4452148   7.540   6.248  23.070  0.8948 -0.7567 -0.5142
    62IDT    S552149   7.906   6.469  22.828  0.2345 -0.0041  0.0017
    62IDT   C4552150   7.934   6.441  23.006  0.4247 -0.1627 -0.0527
    62IDT   C4652151   7.843   6.354  23.060  0.9394 -0.8166 -0.1974
    82BTZ   C4752152   8.042   6.499  23.074  0.1083 -0.2725 -0.1509
    82BTZ   C4852153   8.133   6.565  22.996 -0.1192 -0.0257 -0.2089
    82BTZ   C4952154   8.243   6.639  23.053 -0.3242  0.3351 -0.2761
    82BTZ   C5052155   8.261   6.646  23.189 -0.3014  0.4485 -0.2849
    82BTZ   C5152156   8.057   6.503  23.217  0.1414 -0.1668 -0.1578
    82BTZ   C5252157   8.169   6.578  23.275 -0.0669  0.1999 -0.2255
    92RH    C5352158   8.368   6.705  23.260  0.2191 -0.3911 -0.1792
    82BTZ    N452159   7.976   6.443  23.303  0.3539 -0.3828 -0.1063
    82BTZ    N552160   8.177   6.578  23.408 -0.0218  0.2786 -0.2284
    82BTZ    S652161   8.039   6.480  23.466  0.2954 -0.1210 -0.1419
    92RH    C5452162   8.473   6.779  23.222  0.1401 -0.1700  0.0215
    92RH     S752163   8.538   6.797  23.051  0.5839 -0.2438  0.1790
    92RH    C5552164   8.555   6.859  23.315 -0.3361  0.1804  0.1483
    92RH     O252165   8.537   6.868  23.438 -0.7112  0.3086  0.0873
    92RH     N652166   8.660   6.926  23.248 -0.3156  0.3574  0.3534
    92RH    C5652167   8.671   6.909  23.111  0.1189  0.1918  0.4058
    92RH    C5752168   8.769   7.005  23.320  0.4578 -0.8149 -0.1996
    92RH    C5852169   8.886   6.931  23.369 -0.3161  0.0568 -0.3277
    92RH     S852170   8.785   6.977  23.008  0.2393  0.3443  0.6380
    72IDQ   C5952171   7.466   6.137  23.153 -0.5233 -0.1517  0.0593
    72IDQ   C6052172   7.333   6.167  23.224 -0.7574 -0.7694 -0.4356
    72IDQ   C6152173   7.363   6.239  23.352 -0.9377 -0.3162  0.0007
    72IDQ   C6252174   7.245   6.276  23.431 -0.7890  0.6803  0.0879
    72IDQ   C6352175   7.113   6.351  23.384 -0.1247 -0.4557  0.2212
    72IDQ   C6452176   7.130   6.471  23.293 -0.0498  1.0921 -1.1079
    72IDQ   C6552177   7.042   6.585  23.342  1.0976 -0.3903  0.5164
    72IDQ   C6652178   7.732   5.957  22.901 -0.0728 -0.5017  0.0278
    72IDQ   C6752179   7.883   5.917  22.889  0.8207 -0.6202 -0.2252
    72IDQ   C6852180   7.918   5.821  22.779 -0.7087 -0.0791  0.0078
    72IDQ   C6952181   7.881   5.672  22.770 -0.0338  0.6003 -1.0357
    72IDQ   C7052182   7.945   5.583  22.670  1.3378  0.5309  0.4954
    72IDQ   C7152183   7.874   5.439  22.662  0.5461  0.2466  0.9723
    72IDQ   C7252184   7.932   5.375  22.528  0.4695  0.1949 -0.7477
    11RH     C152185   0.514   5.371   6.357  0.2852 -0.1022  0.4450
    11RH     C252186   0.610   5.429   6.455  0.2129  0.3378  0.2588
    11RH     N152187   0.562   5.382   6.225  0.1141 -0.1608  0.3777
    11RH     S152188   0.756   5.495   6.366 -0.0754  0.6461  0.0073
    11RH     C352189   0.684   5.443   6.204 -0.0864  0.1788  0.1602
    11RH     C452190   0.480   5.345   6.112 -0.5963  0.1158 -0.2404
    11RH     S252191   0.763   5.469   6.058 -0.3154  0.1929  0.0389
    11RH     O152192   0.405   5.318   6.386  0.4713 -0.3893  0.6374
    11RH     C552193   0.588   5.431   6.587  0.3434  0.4764  0.2782
    21BTZ    C652194   0.669   5.465   6.699  0.4543 -0.0184 -0.0327
    21BTZ    C752195   0.803   5.492   6.695  0.4299  0.1245  0.0832
    21BTZ    C852196   0.602   5.466   6.826  0.3543 -0.1403 -0.0848
    21BTZ    C952197   0.878   5.519   6.816  0.3068  0.1543  0.1535
    21BTZ   C1052198   0.818   5.521   6.939  0.2084  0.0415  0.1075
    21BTZ   C1152199   0.678   5.494   6.948  0.2293 -0.1098 -0.0134
    21BTZ    N252200   0.471   5.442   6.842  0.3665 -0.2840 -0.1967
    21BTZ    N352201   0.609   5.492   7.062  0.1410 -0.2291 -0.0679
    21BTZ    S352202   0.440   5.454   7.017  0.2155 -0.3887 -0.2159
    31IDT   C1252203   0.908   5.541   7.057  0.1840 -0.0752 -0.6833
    31IDT   C1352204   1.010   5.456   7.092 -0.2429 -0.6120 -0.7051
    31IDT   C1452205   1.061   5.481   7.223 -0.4884 -1.2872 -0.4706
    31IDT   C1552206   0.998   5.585   7.289 -0.2509 -1.2698 -0.2692
    31IDT    S452207   0.868   5.659   7.189  0.3072 -0.3888 -0.3616
    4IDB    C1652208   1.045   5.613   7.427 -0.6251  0.7000  0.2976
    4IDB    C1752209   1.142   5.511   7.452 -0.0838  1.0346 -0.3695
    51IDQ   C1852210   1.159   5.431   7.320 -0.9391 -0.0820  0.0104
    4IDB    C1952211   1.189   5.488   7.581  0.4100  0.7700 -0.5939
    51IDQ   C2052212   1.313   5.457   7.270 -0.6582 -0.2584 -0.7081
    51IDQ   C2152213   1.142   5.277   7.327 -0.3501  0.0427  0.3118
    51IDQ   C2252214   1.122   5.201   7.458  0.2048  0.0681  0.5581
    51IDQ   C2352215   1.346   5.516   7.132 -0.5444 -0.1461 -0.0119
    51IDQ   C2452216   0.989   5.216   7.520  0.5977  0.2597 -1.1311
    51IDQ   C2552217   0.984   5.156   7.668 -0.9429  0.9370  0.0080
    51IDQ   C2652218   0.865   5.164   7.757 -0.9204 -1.0986  0.1762
    51IDQ   C2752219   0.878   5.100   7.895  0.9518 -0.7704  0.4336
    51IDQ   C2852220   0.760   5.124   7.985  1.0053 -0.1804 -0.5111
    51IDQ   C2952221   0.711   5.008   8.077 -0.1621 -0.4564  0.6168
    51IDQ   C3052222   1.472   5.452   7.051  0.0564  0.5438 -0.0783
    51IDQ   C3152223   1.452   5.449   6.896  0.4788  0.0272  0.6039
    51IDQ   C3252224   1.459   5.587   6.823  0.2667 -0.4019 -0.6642
    51IDQ   C3352225   1.581   5.572   6.740 -0.4711  0.4134 -0.0713
    51IDQ   C3452226   1.586   5.684   6.630 -0.0620  0.6351 -0.0734
    51IDQ   C3552227   1.612   5.828   6.685  0.2284  0.1657  0.4894
    4IDB    C3652228   0.994   5.692   7.531 -0.6757  0.0948  0.7465
    4IDB    C3752229   1.044   5.667   7.662 -0.1664 -0.1681  0.5083
    11RH    C3852230   0.499   5.196   6.072  0.2329  1.3484 -0.4312
    4IDB    C3952231   1.139   5.567   7.685  0.3594  0.1647 -0.1450
    62IDT   C4052232   1.176   5.570   7.825  0.2932 -0.6884 -0.0115
    72IDQ   C4152233   1.009   5.735   7.794  1.1161 -0.3809  0.3898
    62IDT   C4252234   1.102   5.666   7.891  0.0751 -0.6295 -0.3352
    72IDQ   C4352235   0.857   5.719   7.842 -0.2242  0.1742 -0.0089
    72IDQ   C4452236   1.076   5.874   7.813  0.4968 -0.0563  0.3152
    62IDT    S552237   1.279   5.475   7.937  0.2083 -0.3432  0.3632
    62IDT   C4552238   1.214   5.575   8.074 -0.1343 -0.1269  0.0466
    62IDT   C4652239   1.123   5.668   8.032 -0.1669 -0.3121 -0.3028
    82BTZ   C4752240   1.244   5.538   8.216 -0.0241  0.2976 -0.0823
    82BTZ   C4852241   1.348   5.451   8.234  0.1643  0.5014 -0.1757
    82BTZ   C4952242   1.385   5.403   8.365  0.3647  0.5599 -0.2105
    82BTZ   C5052243   1.319   5.443   8.478  0.3765  0.4149 -0.1520
    82BTZ   C5152244   1.171   5.582   8.331 -0.0201  0.1398 -0.0181
    82BTZ   C5252245   1.209   5.534   8.464  0.1836  0.1994 -0.0534
    92RH    C5352246   1.340   5.405   8.622  0.0359 -0.3217  0.6520
    82BTZ    N452247   1.068   5.667   8.326 -0.1928 -0.0635  0.0741
    82BTZ    N552248   1.136   5.580   8.566  0.1746  0.0439  0.0105
    82BTZ    S652249   1.013   5.689   8.495 -0.1004 -0.1903  0.1208
    92RH    C5452250   1.429   5.333   8.691  0.2679 -0.3182  0.3653
    92RH     S752251   1.563   5.229   8.624  0.0913 -0.2655 -0.0729
    92RH    C5552252   1.431   5.328   8.840  0.7189 -0.3579  0.3598
    92RH     O252253   1.353   5.387   8.915  0.9316 -0.3984  0.6144
    92RH     N652254   1.535   5.244   8.887  0.8847 -0.3444  0.0231
    92RH    C5652255   1.616   5.182   8.794  0.6218 -0.2986 -0.2418
    92RH    C5752256   1.556   5.226   9.029  0.0782 -0.1845 -0.7563
    92RH    C5852257   1.606   5.351   9.106 -0.8271 -0.3663  0.1446
    92RH     S852258   1.746   5.079   8.824  0.7402 -0.2736 -0.6630
    72IDQ   C5952259   0.999   5.996   7.788  1.0702 -0.1493 -0.3662
    72IDQ   C6052260   0.979   6.053   7.648 -0.0963 -0.2472 -0.0125
    72IDQ   C6152261   1.114   6.098   7.595 -0.0473 -0.4999  0.3870
    72IDQ   C6252262   1.112   6.190   7.473 -0.1943  0.4040  0.6857
    72IDQ   C6352263   1.237   6.216   7.386  0.1313 -0.7514  0.7064
    72IDQ   C6452264   1.340   6.307   7.441 -0.9930 -1.0387 -0.5366
    72IDQ   C6552265   1.440   6.341   7.333 -0.4064 -0.0771  0.2004
    72IDQ   C6652266   0.787   5.583   7.837 -0.7535  0.7641  0.9111
    72IDQ   C6752267   0.666   5.542   7.920 -1.3058 -0.0560 -0.4183
    72IDQ   C6852268   0.668   5.591   8.066 -0.2037  0.3833  0.4041
    72IDQ   C6952269   0.571   5.519   8.151 -0.7042  0.4546  0.3227
    72IDQ   C7052270   0.543   5.508   8.296 -0.0701 -0.6249 -0.5024
    72IDQ   C7152271   0.659   5.459   8.386 -1.0357 -0.6971 -0.6642
    72IDQ   C7252272   0.753   5.331   8.353 -0.9033 -0.3743  1.2704
    11RH     C152273   3.450   4.493  25.670  0.2721 -0.2631  0.0081
    11RH     C252274   3.396   4.451  25.538  0.2347 -0.1142 -0.0243
    11RH     N152275   3.587   4.464  25.681  0.3082 -0.1456 -0.1196
    11RH     S152276   3.530   4.376  25.437  0.2494  0.1701 -0.2197
    11RH     C352277   3.650   4.403  25.574  0.3043  0.0788 -0.2494
    11RH     C452278   3.669   4.521  25.792 -0.1124  0.2879 -0.0223
    11RH     S252279   3.812   4.358  25.562  0.3421  0.2555 -0.4163
    11RH     O152280   3.384   4.547  25.760  0.2726 -0.4654  0.1307
    11RH     C552281   3.268   4.468  25.501  0.1964 -0.1837  0.0775
    21BTZ    C652282   3.198   4.426  25.381  0.0909 -0.3313  0.1919
    21BTZ    C752283   3.242   4.330  25.293 -0.0225 -0.3113  0.1116
    21BTZ    C852284   3.069   4.485  25.359  0.1512 -0.1752  0.2522
    21BTZ    C952285   3.162   4.288  25.181 -0.0820 -0.1382  0.0882
    21BTZ   C1052286   3.038   4.341  25.156 -0.0280  0.0146  0.1435
    21BTZ   C1152287   2.988   4.441  25.245  0.0907  0.0006  0.2279
    21BTZ    N252288   3.015   4.579  25.438  0.2616 -0.1776  0.3319
    21BTZ    N352289   2.868   4.501  25.232  0.1525  0.1397  0.2875
    21BTZ    S352290   2.855   4.616  25.367  0.2936  0.0497  0.3790
    31IDT   C1252291   2.964   4.269  25.054  0.0775  0.0893  0.0916
    31IDT   C1352292   2.827   4.258  25.046  0.0799  0.2460 -0.1936
    31IDT   C1452293   2.784   4.176  24.937  0.2146  0.2487 -0.2489
    31IDT   C1552294   2.888   4.124  24.861  0.3158  0.0937 -0.0077
    31IDT    S452295   3.048   4.176  24.923  0.2475 -0.0685  0.3125
    4IDB    C1652296   2.831   4.037  24.761  0.2582 -0.7405 -0.4200
    4IDB    C1752297   2.689   4.042  24.767  0.2679 -0.3262 -0.4802
    51IDQ   C1852298   2.644   4.126  24.891 -0.2646  0.7658  0.6780
    4IDB    C1952299   2.610   3.983  24.668  0.1383 -0.1312 -0.4942
    51IDQ   C2052300   2.536   4.232  24.834  0.7671 -0.0611 -0.5795
    51IDQ   C2152301   2.589   4.041  25.005  0.3521 -0.0883 -0.8548
    51IDQ   C2252302   2.550   3.889  25.015  0.6204 -0.0022 -0.4755
    51IDQ   C2352303   2.571   4.377  24.830  0.8788 -0.4502  0.1482
    51IDQ   C2452304   2.424   3.842  24.929  0.2257  0.6962  0.1347
    51IDQ   C2552305   2.406   3.693  24.923 -0.5834 -1.0154  0.3984
    51IDQ   C2652306   2.270   3.647  24.879  0.4331 -0.3891 -0.7707
    51IDQ   C2752307   2.255   3.493  24.899 -0.1280 -0.0267 -0.1974
    51IDQ   C2852308   2.152   3.427  24.823  0.6496 -0.9711  0.0285
    51IDQ   C2952309   2.129   3.290  24.879 -0.3045 -0.5553 -0.2736
    51IDQ   C3052310   2.455   4.482  24.801 -1.6170  0.0195  0.7099
    51IDQ   C3152311   2.358   4.496  24.918 -0.1144  0.1489 -0.6193
    51IDQ   C3252312   2.246   4.604  24.910 -0.2745 -0.7649 -0.0261
    51IDQ   C3352313   2.130   4.596  25.007 -0.3426 -0.2198  0.3541
    51IDQ   C3452314   2.115   4.695  25.132  0.7413 -0.2018 -0.0844
    51IDQ   C3552315   1.973   4.707  25.173  0.2570  0.8570 -0.5267
    4IDB    C3652316   2.897   3.973  24.655  0.1181 -0.9639 -0.3729
    4IDB    C3752317   2.815   3.914  24.554 -0.0131 -0.7597 -0.3886
    11RH    C3852318   3.741   4.659  25.784 -0.3209  0.1093  0.8407
    4IDB    C3952319   2.676   3.919  24.562 -0.0018 -0.3544 -0.4485
    62IDT   C4052320   2.620   3.868  24.445 -0.2599 -0.5841  0.5278
    72IDQ   C4152321   2.856   3.826  24.436 -0.5774  0.1569  0.7019
    62IDT   C4252322   2.720   3.830  24.358 -0.0432 -0.2425  0.6251
    72IDQ   C4352323   2.917   3.676  24.455  0.2069  0.7888 -0.3393
    72IDQ   C4452324   2.954   3.901  24.323  0.6686 -0.4846  0.1956
    62IDT    S552325   2.457   3.851  24.372 -0.0656 -0.0584 -0.0347
    62IDT   C4552326   2.537   3.792  24.219  0.3169  0.6289 -0.1122
    62IDT   C4652327   2.673   3.787  24.230  0.2831  0.4436  0.2632
    82BTZ   C4752328   2.458   3.729  24.109 -0.6736 -0.3750  0.1145
    82BTZ   C4852329   2.323   3.712  24.130 -0.6828 -0.6109 -0.1268
    82BTZ   C4952330   2.237   3.656  24.029 -0.4318 -0.6176 -0.3386
    82BTZ   C5052331   2.285   3.618  23.906 -0.1719 -0.3886 -0.3093
    82BTZ   C5152332   2.513   3.691  23.982 -0.4064 -0.1298  0.1554
    82BTZ   C5252333   2.425   3.635  23.879 -0.1512 -0.1367 -0.0601
    92RH    C5352334   2.209   3.559  23.791 -0.0725 -0.0809 -0.0907
    82BTZ    N452335   2.642   3.703  23.950 -0.3705  0.1122  0.3800
    82BTZ    N552336   2.484   3.601  23.764  0.0899  0.0997 -0.0076
    82BTZ    S652337   2.657   3.642  23.782 -0.0012  0.3462  0.3257
    92RH    C5452338   2.083   3.514  23.781 -0.0497 -0.1532 -0.0591
    92RH     S752339   1.967   3.480  23.918  0.0864 -0.4552 -0.0196
    92RH    C5552340   2.017   3.486  23.651 -0.1345  0.0067 -0.0525
    92RH     O252341   2.069   3.499  23.539 -0.2347  0.2221 -0.0739
    92RH     N652342   1.885   3.440  23.670 -0.0874 -0.1166 -0.0171
    92RH    C5652343   1.837   3.429  23.798  0.0247 -0.3557  0.0052
    92RH    C5752344   1.810   3.427  23.545 -0.6758 -0.4463 -0.1224
    92RH    C5852345   1.786   3.278  23.510 -0.1294 -0.5408  0.3647
    92RH     S852346   1.684   3.377  23.847  0.1006 -0.5420  0.0482
    72IDQ   C5952347   3.102   3.870  24.314 -0.2959  0.6057 -0.1069
    72IDQ   C6052348   3.194   3.889  24.435 -0.4763 -0.2250  0.2980
    72IDQ   C6152349   3.331   3.828  24.434  0.1501  0.4088  0.0376
    72IDQ   C6252350   3.430   3.877  24.333  0.6356 -0.4713  0.4820
    72IDQ   C6352351   3.519   3.775  24.274  0.0214 -0.4053  0.0032
    72IDQ   C6452352   3.567   3.820  24.137  0.0935 -0.4050 -0.6054
    72IDQ   C6552353   3.636   3.715  24.046 -0.1217  0.8345 -0.3154
    72IDQ   C6652354   2.825   3.553  24.470  0.4291  0.1124 -0.0627
    72IDQ   C6752355   2.795   3.519  24.616  0.4907 -0.6220  0.5537
    72IDQ   C6852356   2.661   3.449  24.643  0.0861  0.6835 -0.2492
    72IDQ   C6952357   2.652   3.308  24.578 -0.2999 -0.4872 -0.3148
    72IDQ   C7052358   2.555   3.209  24.646 -0.2506  0.1058 -0.0693
    72IDQ   C7152359   2.513   3.090  24.564 -0.0851 -1.0007  0.9920
    72IDQ   C7252360   2.391   3.009  24.603  0.4946 -0.1774 -0.3143
    11RH     C152361   7.181   1.615   8.094 -0.0644  0.1888 -0.0653
    11RH     C252362   7.083   1.531   8.167  0.1321 -0.1150 -0.1462
    11RH     N152363   7.133   1.653   7.967 -0.3324  0.5659  0.1475
    11RH     S152364   6.933   1.508   8.064 -0.0484  0.1150  0.0630
    11RH     C352365   7.007   1.610   7.929 -0.3746  0.6014  0.2471
    11RH     C452366   7.205   1.744   7.868  0.1058 -0.6018  0.1030
    11RH     S252367   6.926   1.641   7.785 -0.6716  1.0140  0.4981
    11RH     O152368   7.293   1.649   8.136 -0.0066  0.1281 -0.1681
    11RH     C552369   7.105   1.482   8.289  0.3993 -0.4964 -0.3427
    21BTZ    C652370   7.032   1.403   8.387  0.4536 -0.3704 -0.0108
    21BTZ    C752371   6.904   1.360   8.366  0.3809 -0.1106 -0.1171
    21BTZ    C852372   7.095   1.376   8.513  0.1711 -0.2035  0.1674
    21BTZ    C952373   6.831   1.287   8.467  0.0296  0.3233 -0.0541
    21BTZ   C1052374   6.887   1.259   8.589 -0.2487  0.4967  0.1149
    21BTZ   C1152375   7.021   1.303   8.616 -0.1860  0.2375  0.2310
    21BTZ    N252376   7.219   1.413   8.545  0.2086 -0.4252  0.2832
    21BTZ    N352377   7.085   1.281   8.731 -0.4355  0.3704  0.3982
    21BTZ    S352378   7.247   1.355   8.712 -0.2197 -0.0721  0.4828
    31IDT   C1252379   6.796   1.194   8.681  0.3513 -0.0538 -0.2824
    31IDT   C1352380   6.800   1.182   8.818  0.9022 -0.5971 -0.3390
    31IDT   C1452381   6.682   1.120   8.871  1.1367 -0.8516 -0.1118
    31IDT   C1552382   6.589   1.085   8.776  0.7668 -0.5050  0.1189
    31IDT    S452383   6.642   1.128   8.610  0.0869  0.1770  0.0658
    4IDB    C1652384   6.474   1.017   8.833 -0.6292  0.4504  0.1497
    4IDB    C1752385   6.500   0.994   8.971 -0.7215  0.6498  0.2015
    51IDQ   C1852386   6.639   1.065   9.006  0.3442 -0.5513 -0.1144
    4IDB    C1952387   6.409   0.923   9.050 -0.5533  0.3463  0.1280
    51IDQ   C2052388   6.632   1.167   9.127  0.1477 -0.1769  0.2881
    51IDQ   C2152389   6.758   0.967   9.051 -0.2761  0.2708  0.1714
    51IDQ   C2252390   6.757   0.821   9.014  1.3664  0.7175  0.4895
    51IDQ   C2352391   6.692   1.301   9.111 -0.6551  0.2025 -0.1848
    51IDQ   C2452392   6.807   0.795   8.865  0.2476 -0.1642 -0.0849
    51IDQ   C2552393   6.961   0.819   8.846 -0.5086  0.7423  0.1710
    51IDQ   C2652394   7.011   0.831   8.700  0.7964  0.2847  0.7277
    51IDQ   C2752395   6.980   0.727   8.592 -0.5083  0.1579  0.0609
    51IDQ   C2852396   7.026   0.587   8.621  0.0495 -0.3894  0.1233
    51IDQ   C2952397   6.976   0.494   8.516 -1.3265 -0.3133  0.2896
    51IDQ   C3052398   6.684   1.389   9.237  0.3620  1.1080 -0.3329
    51IDQ   C3152399   6.784   1.494   9.269 -0.0194 -0.1014 -0.4019
    51IDQ   C3252400   6.804   1.608   9.175 -0.5581  0.1396 -0.8228
    51IDQ   C3352401   6.932   1.582   9.086  0.1076  0.3818  0.6188
    51IDQ   C3452402   7.066   1.600   9.156 -0.0605 -0.4717 -0.3204
    51IDQ   C3552403   7.187   1.566   9.062 -0.2294  0.3353 -0.1607
    4IDB    C3652404   6.357   0.970   8.772 -0.3667 -0.0569  0.0236
    4IDB    C3752405   6.265   0.899   8.854 -0.1975 -0.3613 -0.0503
    11RH    C3852406   7.193   1.891   7.884  0.1303  0.0808 -0.2072
    4IDB    C3952407   6.292   0.876   8.989 -0.2904 -0.1610  0.0015
    62IDT   C4052408   6.189   0.809   9.047  0.2066 -0.4246 -0.0002
    72IDQ   C4152409   6.132   0.821   8.812 -0.0728 -0.3356 -0.8114
    62IDT   C4252410   6.088   0.781   8.957  0.7398 -0.7046 -0.5307
    72IDQ   C4352411   6.159   0.692   8.729  0.4901  0.6107 -0.0353
    72IDQ   C4452412   6.028   0.916   8.745 -0.4270 -1.3097  0.7809
    62IDT    S552413   6.151   0.749   9.212 -0.7398  0.0012 -0.0513
    62IDT   C4552414   5.992   0.686   9.148 -0.3454 -0.2332 -0.8245
    62IDT   C4652415   5.976   0.712   9.014  0.4287 -0.5968 -0.9973
    82BTZ   C4752416   5.906   0.609   9.244 -0.0709 -0.1293  0.4742
    82BTZ   C4852417   5.958   0.582   9.368 -0.3221 -0.1764  0.5705
    82BTZ   C4952418   5.881   0.515   9.469 -0.5707 -0.1054  0.4306
    82BTZ   C5052419   5.752   0.474   9.447 -0.5678  0.0126  0.1946
    82BTZ   C5152420   5.771   0.569   9.215 -0.0569 -0.0061  0.2277
    82BTZ   C5252421   5.693   0.500   9.318 -0.3096  0.0660  0.0854
    92RH    C5352422   5.670   0.416   9.555  0.2786  0.5203 -0.0747
    82BTZ    N452423   5.710   0.590   9.099  0.1756  0.0498  0.1137
    82BTZ    N552424   5.569   0.466   9.285 -0.2801  0.1799 -0.1431
    82BTZ    S652425   5.546   0.521   9.116  0.0794  0.2002 -0.1866
    92RH    C5452426   5.682   0.404   9.688  0.2489  0.4772 -0.0761
    92RH     S752427   5.814   0.475   9.793  0.3108  0.3141 -0.0423
    92RH    C5552428   5.586   0.328   9.772  0.1582  0.5585 -0.1054
    92RH     O252429   5.485   0.268   9.731  0.1001  0.6736 -0.1321
    92RH     N652430   5.623   0.332   9.908  0.1450  0.4884 -0.1001
    92RH    C5652431   5.736   0.401   9.943  0.2140  0.3610 -0.0694
    92RH    C5752432   5.556   0.249  10.010 -0.3498  0.4403 -0.3217
    92RH    C5852433   5.429   0.313  10.069  0.4937 -0.3317  0.0264
    92RH     S852434   5.801   0.421  10.097  0.2154  0.2569 -0.0565
    72IDQ   C5952435   5.886   0.861   8.700  0.0117 -0.3268 -0.2477
    72IDQ   C6052436   5.784   0.905   8.806 -1.1791 -0.7072 -0.3596
    72IDQ   C6152437   5.655   0.830   8.815 -0.7289  0.3692  0.4242
    72IDQ   C6252438   5.567   0.871   8.925  0.4064  0.5062 -0.2639
    72IDQ   C6352439   5.424   0.808   8.912 -0.2265 -0.0976 -0.3292
    72IDQ   C6452440   5.304   0.851   8.994 -0.1435 -0.6516  1.1695
    72IDQ   C6552441   5.176   0.766   8.953 -0.9210  0.4966 -1.1223
    72IDQ   C6652442   6.250   0.699   8.603  0.2259 -0.0946 -0.0084
    72IDQ   C6752443   6.282   0.564   8.524  0.8182  0.5576 -0.5737
    72IDQ   C6852444   6.151   0.488   8.491  0.1675  0.3355 -0.1847
    72IDQ   C6952445   6.154   0.359   8.401  0.6214  0.3130 -0.9221
    72IDQ   C7052446   6.014   0.305   8.361  0.1347 -0.2942 -1.1464
    72IDQ   C7152447   6.039   0.202   8.252 -0.0940 -0.5049  0.6984
    72IDQ   C7252448   5.911   0.138   8.209 -0.0834 -0.6531  0.9012
    11RH     C152449   0.559   7.177  28.547 -0.0055  0.2055 -0.1564
    11RH     C252450   0.661   7.094  28.615 -0.0764  0.1479 -0.1197
    11RH     N152451   0.553   7.307  28.602 -0.0163  0.1799 -0.0974
    11RH     S152452   0.743   7.192  28.747 -0.1527  0.0642 -0.0094
    11RH     C352453   0.639   7.338  28.706 -0.0871  0.1092 -0.0173
    11RH     C452454   0.455   7.412  28.551  0.1312  0.7078  0.3581
    11RH     S252455   0.652   7.484  28.789 -0.1148  0.0654  0.0644
    11RH     O152456   0.486   7.140  28.454  0.0563  0.2685 -0.2298
    11RH     C552457   0.687   6.967  28.582 -0.0817  0.1581 -0.1625
    21BTZ    C652458   0.779   6.870  28.624 -0.1330  0.1580  0.0328
    21BTZ    C752459   0.869   6.896  28.724 -0.0798  0.1745 -0.0189
    21BTZ    C852460   0.761   6.735  28.581 -0.1936  0.1450  0.1006
    21BTZ    C952461   0.945   6.791  28.787 -0.0835  0.1791 -0.0068
    21BTZ   C1052462   0.930   6.660  28.750 -0.1404  0.1671  0.0568
    21BTZ   C1152463   0.837   6.628  28.645 -0.1974  0.1495  0.1126
    21BTZ    N252464   0.676   6.697  28.485 -0.2487  0.1284  0.1550
    21BTZ    N352465   0.815   6.504  28.600 -0.2555  0.1366  0.1769
    21BTZ    S352466   0.692   6.519  28.471 -0.3090  0.1178  0.2261
    31IDT   C1252467   1.023   6.563  28.801  0.1585 -0.1623 -0.7233
    31IDT   C1352468   0.996   6.431  28.823  0.0486 -0.0842 -0.3809
    31IDT   C1452469   1.108   6.361  28.879 -0.0938  0.0219  0.0457
    31IDT   C1552470   1.219   6.439  28.899 -0.0936  0.0253  0.0314
    31IDT    S452471   1.192   6.609  28.849  0.0888 -0.1067 -0.5286
    4IDB    C1652472   1.326   6.352  28.960  0.3045  0.0617 -0.0412
    4IDB    C1752473   1.276   6.218  28.968 -0.1287  0.1872 -0.5865
    51IDQ   C1852474   1.127   6.214  28.927 -0.8300 -0.5066  0.1167
    4IDB    C1952475   1.360   6.112  28.999 -0.6138 -0.1171 -0.2962
    51IDQ   C2052476   1.098   6.092  28.822 -0.6576 -1.2538  0.0631
    51IDQ   C2152477   1.030   6.188  29.046 -0.1089 -0.1077 -0.1061
    51IDQ   C2252478   1.077   6.187  29.197  0.6834  0.1905  0.7484
    51IDQ   C2352479   1.049   6.119  28.682 -0.0977  0.5371 -0.6073
    51IDQ   C2452480   1.099   6.316  29.273  0.3253 -0.2932 -1.0766
    51IDQ   C2552481   0.974   6.395  29.295  0.0882 -0.9940  0.9028
    51IDQ   C2652482   0.975   6.527  29.379 -0.0663  0.4684  0.1013
    51IDQ   C2752483   0.839   6.561  29.456 -0.4222 -0.3496 -0.1901
    51IDQ   C2852484   0.781   6.469  29.562  0.5109  0.1975 -0.2312
    51IDQ   C2952485   0.787   6.500  29.706  0.5357 -0.3606 -0.1043
    51IDQ   C3052486   0.968   6.007  28.607  0.1425  0.2372  0.0014
    51IDQ   C3152487   1.040   5.881  28.558 -0.4222 -0.9269  0.2219
    51IDQ   C3252488   1.140   5.877  28.441 -1.2286  0.6535 -0.5860
    51IDQ   C3352489   1.070   5.880  28.304  0.8253  0.4773  0.2969
    51IDQ   C3452490   1.155   5.938  28.189 -0.1290  0.2793 -0.1699
    51IDQ   C3552491   1.177   6.094  28.192  0.0496 -0.0910 -0.0228
    4IDB    C3652492   1.461   6.380  28.985  0.2543 -0.3721  0.8031
    4IDB    C3752493   1.545   6.270  29.017 -0.2443 -0.6784  1.0888
    11RH    C3852494   0.501   7.489  28.433 -0.4510 -0.2589 -0.2643
    4IDB    C3952495   1.495   6.140  29.024 -0.6639 -0.5508  0.5481
    62IDT   C4052496   1.598   6.045  29.077  0.4699  0.2091  0.9002
    72IDQ   C4152497   1.700   6.261  29.045  0.3054  0.7917  0.0241
    62IDT   C4252498   1.709   6.117  29.113  0.4214  0.0856  1.2990
    72IDQ   C4352499   1.754   6.370  29.140 -0.5178 -0.1976 -0.9244
    72IDQ   C4452500   1.797   6.237  28.919  1.2415  0.1537 -0.2217
    62IDT    S552501   1.613   5.871  29.119  0.4247  0.0548  0.2962
    62IDT   C4552502   1.778   5.907  29.187  0.3384 -0.1802  0.6310
    62IDT   C4652503   1.811   6.039  29.176  0.3470 -0.1348  1.1474
    82BTZ   C4752504   1.870   5.797  29.234  0.0881  0.1173 -0.2177
    82BTZ   C4852505   1.880   5.682  29.161 -0.0862  0.0302 -0.1074
    82BTZ   C4952506   1.965   5.573  29.202 -0.2431 -0.0565 -0.0085
    82BTZ   C5052507   2.040   5.580  29.316 -0.2254 -0.0558 -0.0200
    82BTZ   C5152508   1.946   5.809  29.355  0.1137  0.1217 -0.2344
    82BTZ   C5252509   2.033   5.698  29.397 -0.0458  0.0336 -0.1338
    92RH    C5352510   2.116   5.463  29.385  0.3342  0.2291  0.2420
    82BTZ    N452511   1.944   5.916  29.435  0.2766  0.2023 -0.3376
    82BTZ    N552512   2.101   5.717  29.510 -0.0110  0.0436 -0.1562
    82BTZ    S652513   2.056   5.879  29.570  0.2320  0.1683 -0.3099
    92RH    C5452514   2.135   5.333  29.364  0.1465  0.1992  0.2526
    92RH     S752515   2.065   5.232  29.227 -0.3532  0.1937  0.5104
    92RH    C5552516   2.220   5.247  29.450  0.3220  0.1645  0.0496
    92RH     O252517   2.281   5.285  29.551  0.6568  0.1591 -0.1504
    92RH     N652518   2.222   5.114  29.405  0.0589  0.1375  0.1106
    92RH    C5652519   2.150   5.082  29.292 -0.3061  0.1460  0.3376
    92RH    C5752520   2.304   5.009  29.474 -0.8048  0.4011  0.4057
    92RH    C5852521   2.237   4.923  29.594 -1.0740  0.4924  0.4636
    92RH     S852522   2.136   4.931  29.217 -0.6711  0.1190  0.4544
    72IDQ   C5952523   1.845   6.365  28.853  0.2150  0.7471  0.8339
    72IDQ   C6052524   1.734   6.438  28.771  0.6099 -0.3436 -0.5770
    72IDQ   C6152525   1.755   6.573  28.715 -0.6508 -1.0014 -0.2950
    72IDQ   C6252526   1.792   6.708  28.805 -0.4729  0.8942 -0.0645
    72IDQ   C6352527   1.702   6.734  28.931  0.0994  0.3132  0.2918
    72IDQ   C6452528   1.736   6.859  29.015 -1.2066 -0.0109 -0.9000
    72IDQ   C6552529   1.752   6.987  28.946 -0.2193 -0.0737 -0.3755
    72IDQ   C6652530   1.672   6.436  29.257 -0.6052  0.5034 -0.4703
    72IDQ   C6752531   1.616   6.353  29.374  0.0553 -0.0205  0.5102
    72IDQ   C6852532   1.720   6.272  29.455 -0.2002 -0.0521  0.7375
    72IDQ   C6952533   1.815   6.346  29.550 -0.4236  0.4737  1.3140
    72IDQ   C7052534   1.882   6.257  29.655  0.0293  0.5073 -0.3801
    72IDQ   C7152535   1.773   6.223  29.761 -0.5616  0.2748  0.5145
    72IDQ   C7252536   1.826   6.132  29.866 -0.5652  0.7680  0.0281
    11RH     C152537   7.351   3.775  25.047  0.0274  0.1009  0.0205
    11RH     C252538   7.491   3.732  25.022  0.0492  0.2123 -0.0482
    11RH     N152539   7.325   3.788  25.185  0.0509 -0.0319  0.0387
    11RH     S152540   7.579   3.712  25.182  0.0992  0.1353 -0.0847
    11RH     C352541   7.427   3.761  25.274  0.0889 -0.0404 -0.0072
    11RH     C452542   7.187   3.821  25.229  0.0613  0.3983 -0.1427
    11RH     S252543   7.422   3.769  25.442  0.1228 -0.1848  0.0014
    11RH     O152544   7.265   3.797  24.960 -0.0073  0.1189  0.0587
    11RH     C552545   7.541   3.712  24.900  0.0336  0.3475 -0.0769
    21BTZ    C652546   7.665   3.667  24.845  0.1903  0.5997  0.0585
    21BTZ    C752547   7.775   3.639  24.923  0.1768  0.3349 -0.0148
    21BTZ    C852548   7.680   3.669  24.703  0.0749  0.4449  0.0429
    21BTZ    C952549   7.904   3.613  24.865  0.0501 -0.0921 -0.1073
    21BTZ   C1052550   7.923   3.614  24.729 -0.0629 -0.2540 -0.1261
    21BTZ   C1152551   7.812   3.642  24.644 -0.0539  0.0108 -0.0510
    21BTZ    N252552   7.581   3.695  24.617  0.0755  0.6723  0.1092
    21BTZ    N352553   7.818   3.646  24.510 -0.1568 -0.1107 -0.0596
    21BTZ    S352554   7.653   3.686  24.454 -0.0920  0.3341  0.0537
    31IDT   C1252555   8.063   3.573  24.685 -0.1927 -0.5826 -0.2830
    31IDT   C1352556   8.109   3.579  24.556  0.1807 -0.4364 -0.1431
    31IDT   C1452557   8.234   3.511  24.539  0.5173  0.0715  0.2642
    31IDT   C1552558   8.283   3.454  24.655  0.4031  0.3153  0.4356
    31IDT    S452559   8.174   3.480  24.795 -0.1447 -0.0831  0.0932
    4IDB    C1652560   8.403   3.379  24.620 -0.3415 -0.0591  0.1661
    4IDB    C1752561   8.446   3.409  24.488 -0.1867  0.2442  0.2828
    51IDQ   C1852562   8.339   3.485  24.428  1.0630 -0.5877  1.5618
    4IDB    C1952563   8.570   3.364  24.441 -0.1649  0.2867  0.2992
    51IDQ   C2052564   8.406   3.620  24.373 -0.1915 -0.2570 -0.0529
    51IDQ   C2152565   8.263   3.417  24.301  0.6381  1.3509 -0.7566
    51IDQ   C2252566   8.265   3.262  24.291 -0.1329  0.2396  0.3379
    51IDQ   C2352567   8.414   3.665  24.228  1.2812 -0.2986  0.4371
    51IDQ   C2452568   8.217   3.165  24.390 -0.5410 -0.2440 -0.1605
    51IDQ   C2552569   8.233   3.023  24.336 -0.1751 -0.6627 -0.6682
    51IDQ   C2652570   8.286   2.938  24.461  0.1421 -0.7080 -0.4856
    51IDQ   C2752571   8.186   2.915  24.573  0.1827 -0.8876 -0.1261
    51IDQ   C2852572   8.264   2.819  24.665  0.7734 -1.2190 -0.5596
    51IDQ   C2952573   8.191   2.684  24.681  0.5283  0.7616  0.7085
    51IDQ   C3052574   8.495   3.800  24.211 -0.4562  0.6348 -0.1736
    51IDQ   C3152575   8.434   3.921  24.265 -0.7626 -0.7356  0.0426
    51IDQ   C3252576   8.521   4.041  24.224  0.3082 -1.0820  1.4323
    51IDQ   C3352577   8.510   4.161  24.303  0.4579  0.1282 -0.1788
    51IDQ   C3452578   8.381   4.242  24.279  1.1067 -0.1568 -0.9934
    51IDQ   C3552579   8.420   4.393  24.300 -0.0466  0.9195  0.4089
    4IDB    C3652580   8.483   3.304  24.708 -0.4762 -0.3234  0.0648
    4IDB    C3752581   8.608   3.259  24.659 -0.4517 -0.2755  0.0839
    11RH    C3852582   7.178   3.966  25.259 -0.2014  0.6326  0.0039
    4IDB    C3952583   8.649   3.289  24.529 -0.2997  0.0224  0.1981
    62IDT   C4052584   8.774   3.222  24.496 -0.2821  0.1625 -0.6539
    72IDQ   C4152585   8.729   3.194  24.728 -0.5362  0.1469  0.9347
    62IDT   C4252586   8.839   3.181  24.610 -0.2591  0.6717 -0.4764
    72IDQ   C4352587   8.679   3.058  24.782 -0.0856  0.2550 -0.0716
    72IDQ   C4452588   8.810   3.290  24.827 -0.5601 -0.7203  0.9146
    62IDT    S552589   8.869   3.187  24.348 -0.1865 -0.2525 -0.4956
    62IDT   C4552590   8.998   3.114  24.453 -0.1171  0.3118 -0.1835
    62IDT   C4652591   8.966   3.120  24.586 -0.1658  0.7567 -0.2108
    82BTZ   C4752592   9.126   3.082  24.387 -0.5203 -0.1166 -0.1783
    82BTZ   C4852593   9.167   3.159  24.280 -0.2818 -0.0315 -0.0291
    82BTZ   C4952594   9.285   3.126  24.205  0.0429  0.1881  0.3777
    82BTZ   C5052595   9.363   3.018  24.236  0.1288  0.3221  0.6354
    82BTZ   C5152596   9.205   2.968  24.423 -0.4424  0.0173  0.0792
    82BTZ   C5252597   9.325   2.936  24.346 -0.1124  0.2405  0.4930
    92RH    C5352598   9.476   2.977  24.148 -0.1628 -0.1268  0.0027
    82BTZ    N452599   9.176   2.886  24.525 -0.6537 -0.0471 -0.0315
    82BTZ    N552600   9.393   2.828  24.386 -0.0583  0.3554  0.7148
    82BTZ    S652601   9.304   2.762  24.527 -0.4349  0.1794  0.3979
    92RH    C5452602   9.518   3.003  24.024 -0.2306 -0.0907 -0.0129
    92RH     S752603   9.460   3.139  23.914 -0.4534 -0.1969 -0.0276
    92RH    C5552604   9.622   2.924  23.955 -0.1313  0.0457 -0.0205
    92RH     O252605   9.681   2.825  24.002  0.0231  0.1410 -0.0138
    92RH     N652606   9.648   2.974  23.825 -0.2348  0.0558 -0.0369
    92RH    C5652607   9.577   3.084  23.782 -0.4047 -0.0560 -0.0434
    92RH    C5752608   9.735   2.902  23.722  0.4643  0.3431  0.3599
    92RH    C5852609   9.890   2.919  23.732 -0.1356  0.1275 -0.0460
    92RH     S852610   9.588   3.162  23.633 -0.5543 -0.0705 -0.0629
    72IDQ   C5952611   8.758   3.312  24.974  0.2968 -0.7098  0.1783
    72IDQ   C6052612   8.770   3.201  25.067  1.3704 -0.3206 -0.6670
    72IDQ   C6152613   8.682   3.216  25.198 -0.4720 -0.3602 -0.1283
    72IDQ   C6252614   8.695   3.348  25.283 -0.1275 -0.8259 -0.0357
    72IDQ   C6352615   8.622   3.335  25.414 -0.8847  0.0533 -0.1416
    72IDQ   C6452616   8.576   3.463  25.486 -0.3640 -0.4982 -0.6524
    72IDQ   C6552617   8.514   3.440  25.622 -0.7576  0.0637 -0.2893
    72IDQ   C6652618   8.775   2.933  24.801  0.5101  0.1845  0.7095
    72IDQ   C6752619   8.707   2.803  24.849  0.1272  0.0777 -0.0930
    72IDQ   C6852620   8.797   2.673  24.836  0.0779 -0.4889  0.6813
    72IDQ   C6952621   8.931   2.669  24.913  1.1798 -1.0301  0.0662
    72IDQ   C7052622   8.919   2.703  25.061 -0.5535  0.0086  0.0370
    72IDQ   C7152623   9.038   2.652  25.138 -0.1363 -0.1709  0.0285
    72IDQ   C7252624   9.077   2.510  25.153 -0.3932  0.8454  0.5466
    11RH     C152625   0.022   4.038  27.781 -0.0655 -0.1605  0.0925
    11RH     C252626   0.146   4.053  27.700 -0.1248 -0.1531  0.0019
    11RH     N152627  -0.004   3.902  27.811 -0.0875 -0.1704  0.0288
    11RH     S152628   0.220   3.888  27.670 -0.2056 -0.1596 -0.1606
    11RH     C352629   0.084   3.807  27.764 -0.1572 -0.1718 -0.1011
    11RH     C452630  -0.132   3.863  27.873 -0.6797 -0.0540 -0.1919
    11RH     S252631   0.076   3.640  27.786 -0.1966 -0.1828 -0.1979
    11RH     O152632  -0.051   4.131  27.818 -0.0039 -0.1584  0.2093
    11RH     C552633   0.193   4.171  27.659 -0.1181 -0.1433  0.0376
    21BTZ    C652634   0.296   4.217  27.567 -0.4057  0.2655 -0.2858
    21BTZ    C752635   0.382   4.139  27.494 -0.5268  0.1550 -0.3119
    21BTZ    C852636   0.289   4.357  27.540 -0.1766  0.2879 -0.2303
    21BTZ    C952637   0.465   4.196  27.390 -0.4298  0.0616 -0.2851
    21BTZ   C1052638   0.462   4.329  27.361 -0.2117  0.0790 -0.2324
    21BTZ   C1152639   0.374   4.415  27.435 -0.0780  0.1931 -0.2027
    21BTZ    N252640   0.209   4.443  27.605 -0.0417  0.3918 -0.1998
    21BTZ    N352641   0.362   4.546  27.415  0.1362  0.2207 -0.1507
    21BTZ    S352642   0.240   4.604  27.532  0.2226  0.3723 -0.1344
    31IDT   C1252643   0.558   4.387  27.259  0.2189 -0.2266  0.5250
    31IDT   C1352644   0.591   4.518  27.236  0.4353 -0.2015  0.9484
    31IDT   C1452645   0.684   4.534  27.130  0.2072  0.0074  0.7772
    31IDT   C1552646   0.724   4.416  27.071 -0.1836  0.1422  0.2223
    31IDT    S452647   0.645   4.274  27.147 -0.2941  0.0143 -0.1284
    4IDB    C1652648   0.794   4.442  26.948 -0.5436  0.0852 -0.1555
    4IDB    C1752649   0.827   4.580  26.935  0.3195 -0.0621  0.3552
    51IDQ   C1852650   0.751   4.650  27.050 -0.9779 -0.7351 -0.9860
    4IDB    C1952651   0.908   4.625  26.830  0.5091 -0.1597  0.4587
    51IDQ   C2052652   0.847   4.745  27.135  0.6450 -0.9412 -0.3017
    51IDQ   C2152653   0.631   4.746  27.003  0.4662 -0.0515  0.2870
    51IDQ   C2252654   0.585   4.876  27.069 -0.2014 -0.2094 -1.0298
    51IDQ   C2352655   0.892   4.703  27.268  0.4479 -0.4197 -0.5822
    51IDQ   C2452656   0.501   4.957  26.982 -0.2591  0.0312 -0.6634
    51IDQ   C2552657   0.466   5.095  27.026  0.1441  0.1037 -0.2458
    51IDQ   C2652658   0.405   5.100  27.172  0.7267  0.9927 -0.2538
    51IDQ   C2752659   0.419   5.247  27.215 -0.2462 -0.3421  0.5882
    51IDQ   C2852660   0.443   5.269  27.359  0.8901  0.2709 -0.5433
    51IDQ   C2952661   0.327   5.253  27.456 -0.5863  0.4923 -0.4461
    51IDQ   C3052662   0.905   4.829  27.351  0.8502 -0.3654 -0.2705
    51IDQ   C3152663   0.843   4.864  27.485 -0.1069 -0.0366  0.0182
    51IDQ   C3252664   0.694   4.841  27.506  0.9703  1.0915  0.2431
    51IDQ   C3352665   0.628   4.895  27.637 -0.7749 -0.3007 -0.4021
    51IDQ   C3452666   0.687   4.851  27.778  0.2857 -0.6207  0.0380
    51IDQ   C3552667   0.711   4.698  27.785 -0.2262 -1.1988 -0.3104
    4IDB    C3652668   0.841   4.347  26.855 -1.2260  0.1360 -0.5689
    4IDB    C3752669   0.923   4.395  26.749 -1.0199  0.0348 -0.4563
    11RH    C3852670  -0.135   3.857  28.025 -0.4906 -0.2183 -0.5044
    4IDB    C3952671   0.955   4.530  26.738 -0.1733 -0.1088  0.0454
    62IDT   C4052672   1.013   4.558  26.608  0.1322  0.1251 -0.1605
    72IDQ   C4152673   0.997   4.321  26.635  0.3187  0.0484  0.9578
    62IDT   C4252674   1.044   4.439  26.545  0.1264  0.2183 -0.3409
    72IDQ   C4352675   0.922   4.199  26.563 -1.0060 -0.1376 -0.4409
    72IDQ   C4452676   1.135   4.276  26.671  0.6361  1.0145  0.1501
    62IDT    S552677   1.052   4.701  26.505  0.0988  0.2775  0.0371
    62IDT   C4552678   1.110   4.586  26.376  0.0778  0.4686 -0.1426
    62IDT   C4652679   1.098   4.455  26.413  0.0956  0.4127 -0.3309
    82BTZ   C4752680   1.154   4.640  26.250 -0.4662 -0.3349 -0.3674
    82BTZ   C4852681   1.073   4.734  26.192 -0.5307 -0.4001 -0.3839
    82BTZ   C4952682   1.115   4.808  26.075 -0.4717 -0.2012 -0.2375
    82BTZ   C5052683   1.237   4.788  26.017 -0.3483  0.0623 -0.0757
    82BTZ   C5152684   1.283   4.615  26.192 -0.3367 -0.0616 -0.2003
    82BTZ   C5252685   1.325   4.690  26.074 -0.2767  0.1405 -0.0515
    92RH    C5352686   1.279   4.850  25.887  0.3328  0.2681 -0.1604
    82BTZ    N452687   1.370   4.525  26.240 -0.2642  0.0263 -0.1683
    82BTZ    N552688   1.446   4.661  26.026 -0.1560  0.3908  0.1001
    82BTZ    S652689   1.513   4.534  26.132 -0.1129  0.3787  0.0592
    92RH    C5452690   1.222   4.933  25.800  0.1379  0.2064 -0.0935
    92RH     S752691   1.043   4.969  25.783  0.0845  0.0674  0.1678
    92RH    C5552692   1.299   5.011  25.699 -0.0713  0.2428 -0.2246
    92RH     O252693   1.422   5.009  25.685 -0.0909  0.3331 -0.4091
    92RH     N652694   1.213   5.091  25.620 -0.2512  0.1615 -0.1139
    92RH    C5652695   1.078   5.086  25.644 -0.2117  0.0643  0.0906
    92RH    C5752696   1.262   5.160  25.505 -1.1228  0.7094 -0.4240
    92RH    C5852697   1.270   5.087  25.367 -0.1460 -0.6510 -0.3241
    92RH     S852698   0.955   5.169  25.564 -0.3957 -0.0452  0.2561
    72IDQ   C5952699   1.180   4.242  26.815  0.0180  0.0409  1.2413
    72IDQ   C6052700   1.329   4.205  26.825  0.0659  0.3704  0.6837
    72IDQ   C6152701   1.382   4.208  26.971 -0.3902 -0.1370  0.0837
    72IDQ   C6252702   1.446   4.082  27.035 -0.1171 -0.7778 -1.0856
    72IDQ   C6352703   1.550   3.984  26.957  0.3658 -0.6705 -0.0283
    72IDQ   C6452704   1.620   3.873  27.033 -0.1588 -1.1790  0.7581
    72IDQ   C6552705   1.526   3.769  27.086  0.0464  0.0244 -0.1604
    72IDQ   C6652706   0.801   4.233  26.480  0.0228  0.6226 -0.4477
    72IDQ   C6752707   0.692   4.331  26.534 -0.0340 -0.9499 -0.3656
    72IDQ   C6852708   0.578   4.369  26.444 -0.5134 -0.4356  0.4830
    72IDQ   C6952709   0.494   4.485  26.510 -0.5997 -0.6843 -0.7654
    72IDQ   C7052710   0.542   4.618  26.569  0.7347  0.0743  0.1308
    72IDQ   C7152711   0.628   4.688  26.467 -0.5440 -0.4360 -0.4565
    72IDQ   C7252712   0.545   4.725  26.343 -0.4726 -0.7267  0.5981
    11RH     C152713   1.478   1.038  25.058  0.2010  0.1559 -0.2089
    11RH     C252714   1.436   0.949  24.947  0.1794 -0.0749 -0.0186
    11RH     N152715   1.616   1.068  25.051  0.1994  0.1428 -0.2976
    11RH     S152716   1.580   0.911  24.841  0.1585 -0.2940  0.0305
    11RH     C352717   1.689   1.014  24.948  0.1792 -0.0702 -0.2022
    11RH     C452718   1.685   1.152  25.154 -1.3542 -0.7624  0.3658
    11RH     S252719   1.854   1.034  24.917  0.1730 -0.1326 -0.2756
    11RH     O152720   1.403   1.082  25.148  0.2185  0.3400 -0.2842
    11RH     C552721   1.310   0.906  24.931  0.1764 -0.1105  0.0954
    21BTZ    C652722   1.246   0.822  24.826 -0.1440  0.4206 -0.6611
    21BTZ    C752723   1.312   0.771  24.717 -0.1467  0.4585 -0.6809
    21BTZ    C852724   1.107   0.792  24.842 -0.0369  0.0450 -0.4287
    21BTZ    C952725   1.245   0.688  24.620 -0.0451  0.1315 -0.4749
    21BTZ   C1052726   1.112   0.656  24.632  0.0592 -0.2328 -0.2496
    21BTZ   C1152727   1.039   0.707  24.744  0.0664 -0.2874 -0.2198
    21BTZ    N252728   1.032   0.835  24.944 -0.0234 -0.0285 -0.3867
    21BTZ    N352729   0.909   0.683  24.766  0.1630 -0.6280 -0.0095
    21BTZ    S352730   0.868   0.769  24.917  0.1251 -0.5362 -0.0718
    31IDT   C1252731   1.051   0.576  24.524 -0.7019 -0.4961  0.1012
    31IDT   C1352732   0.922   0.537  24.503 -0.6868 -0.3761 -0.2346
    31IDT   C1452733   0.903   0.471  24.377 -0.5060  0.0024 -0.4621
    31IDT   C1552734   1.017   0.460  24.302 -0.3824  0.1731 -0.3025
    31IDT    S452735   1.160   0.533  24.384 -0.4863 -0.1352  0.1527
    4IDB    C1652736   0.986   0.405  24.172 -0.0515 -0.1615 -0.0375
    4IDB    C1752737   0.852   0.356  24.178  0.0381 -0.3942  0.0734
    51IDQ   C1852738   0.785   0.417  24.305  0.1118  0.1650  0.5076
    4IDB    C1952739   0.803   0.268  24.082  0.0137 -0.2313 -0.0640
    51IDQ   C2052740   0.668   0.507  24.255 -0.5125  0.3294 -0.9948
    51IDQ   C2152741   0.714   0.310  24.400 -0.3142  0.7875  0.8374
    51IDQ   C2252742   0.716   0.154  24.379  0.5878 -0.6893 -0.4940
    51IDQ   C2352743   0.667   0.663  24.272  1.0976 -0.0038 -0.0547
    51IDQ   C2452744   0.601   0.080  24.448  0.5458 -0.3964 -0.6860
    51IDQ   C2552745   0.462   0.118  24.407  0.1599 -0.2338 -0.3525
    51IDQ   C2652746   0.344   0.056  24.482 -1.0397  1.0157 -0.0231
    51IDQ   C2752747   0.307   0.152  24.595  0.2055  0.9343  0.0999
    51IDQ   C2852748   0.167   0.137  24.649 -0.0808 -0.1505  0.5262
    51IDQ   C2952749   0.128   0.001  24.695  0.3697  0.5147 -0.5288
    51IDQ   C3052750   0.643   0.733  24.409  0.5639 -1.0268 -0.2464
    51IDQ   C3152751   0.613   0.877  24.395  0.9383 -0.4363  0.1982
    51IDQ   C3252752   0.726   0.976  24.441  0.4667  0.3277 -0.9241
    51IDQ   C3352753   0.742   0.995  24.594 -0.7858 -0.5492 -0.7939
    51IDQ   C3452754   0.872   1.080  24.618  0.1358  0.2458 -0.1064
    51IDQ   C3552755   0.896   1.104  24.763  0.1839 -0.3551  0.0664
    4IDB    C3652756   1.072   0.366  24.068 -0.1668  0.2381 -0.2885
    4IDB    C3752757   1.021   0.276  23.971 -0.1902  0.3996 -0.4268
    11RH    C3852758   1.676   1.302  25.144  0.1290 -0.1972 -0.1556
    4IDB    C3952759   0.889   0.229  23.979 -0.1016  0.1683 -0.3153
    62IDT   C4052760   0.872   0.129  23.874 -0.4339 -0.0836 -0.3177
    72IDQ   C4152761   1.085   0.216  23.839  0.9784 -0.4470  1.2282
    62IDT   C4252762   0.977   0.123  23.785 -0.3385 -0.1677 -0.2007
    72IDQ   C4352763   1.225   0.153  23.849 -0.3927 -0.1982 -1.0323
    72IDQ   C4452764   1.096   0.318  23.713  0.0477 -0.4914 -0.8739
    62IDT    S552765   0.747   0.005  23.839 -0.3848 -0.1326 -0.3202
    62IDT   C4552766   0.848  -0.051  23.698 -0.2304 -0.2710 -0.1554
    62IDT   C4652767   0.964   0.022  23.685 -0.2234 -0.2739 -0.1092
    82BTZ   C4752768   0.803  -0.154  23.614 -0.1748  0.2492  0.1477
    82BTZ   C4852769   0.692  -0.223  23.654 -0.2229  0.3071  0.1168
    82BTZ   C4952770   0.634  -0.328  23.574 -0.2729  0.3574  0.0873
    82BTZ   C5052771   0.688  -0.363  23.453 -0.2749  0.3493  0.0889
    82BTZ   C5152772   0.862  -0.187  23.487 -0.1748  0.2383  0.1507
    82BTZ   C5252773   0.804  -0.294  23.406 -0.2257  0.2893  0.1206
    92RH    C5352774   0.618  -0.456  23.360 -0.0779 -0.2590  0.5552
    82BTZ    N452775   0.970  -0.126  23.437 -0.1307  0.1839  0.1798
    82BTZ    N552776   0.865  -0.319  23.289 -0.2224  0.2759  0.1259
    82BTZ    S652777   1.002  -0.205  23.279 -0.1527  0.1957  0.1690
    92RH    C5452778   0.504  -0.524  23.369 -0.1051 -0.2592  0.2317
    92RH     S752779   0.378  -0.511  23.501 -0.5078 -0.2204 -0.1515
    92RH    C5552780   0.461  -0.626  23.269  0.1984 -0.2923  0.1316
    92RH     O252781   0.524  -0.658  23.167  0.5075 -0.3232  0.3314
    92RH     N652782   0.336  -0.682  23.304  0.0941 -0.2848 -0.2255
    92RH    C5652783   0.274  -0.639  23.419 -0.2559 -0.2497 -0.4249
    92RH    C5752784   0.273  -0.794  23.217  0.1329  0.0638 -0.0669
    92RH    C5852785   0.138  -0.761  23.139 -0.9472 -0.3046  0.1497
    92RH     S852786   0.126  -0.690  23.482 -0.4471 -0.2337 -0.8535
    72IDQ   C5952787   1.108   0.471  23.723 -0.7287 -0.0768  0.2567
    72IDQ   C6052788   1.237   0.514  23.791  0.2356  0.2780  0.6412
    72IDQ   C6152789   1.217   0.620  23.883  1.4164  0.1973 -0.5542
    72IDQ   C6252790   1.339   0.701  23.901  0.4451 -0.2080  1.0247
    72IDQ   C6352791   1.309   0.822  23.972 -0.2149 -0.1346 -0.2562
    72IDQ   C6452792   1.322   0.940  23.872  0.1077  0.0743 -0.6174
    72IDQ   C6552793   1.458   1.010  23.876 -0.7689  0.0187  0.1674
    72IDQ   C6652794   1.292   0.083  23.728 -0.7732 -0.3004  0.0703
    72IDQ   C6752795   1.429   0.021  23.771  0.0854  0.2993 -1.1104
    72IDQ   C6852796   1.442  -0.121  23.727 -1.2004  0.8510 -0.0862
    72IDQ   C6952797   1.574  -0.175  23.785  1.0139  0.3760  0.0556
    72IDQ   C7052798   1.602  -0.307  23.725 -0.1038  0.3793  0.2393
    72IDQ   C7152799   1.741  -0.368  23.747 -0.8613 -0.7454 -0.1787
    72IDQ   C7252800   1.768  -0.432  23.882 -0.0244  0.4702  0.0763
    11RH     C152801   2.486   4.934  20.198  0.3955 -0.0170 -0.3352
    11RH     C252802   2.376   4.893  20.108  0.1281  0.1805 -0.1006
    11RH     N152803   2.525   5.067  20.175  0.2832  0.0539 -0.1149
    11RH     S152804   2.330   5.033  19.999 -0.2537  0.4469  0.3952
    11RH     C352805   2.459   5.139  20.078 -0.0416  0.2843  0.2685
    11RH     C452806   2.638   5.129  20.257  0.6498  0.2517 -0.5201
    11RH     S252807   2.485   5.299  20.031 -0.2358  0.4127  0.5918
    11RH     O152808   2.540   4.861  20.284  0.6837 -0.2209 -0.6828
    11RH     C552809   2.320   4.771  20.109  0.1694  0.1601 -0.2406
    21BTZ    C652810   2.232   4.699  20.018 -0.3278  0.0087 -0.4151
    21BTZ    C752811   2.187   4.754  19.901 -0.5268 -0.1261 -0.4034
    21BTZ    C852812   2.180   4.571  20.059 -0.1864  0.0089 -0.2294
    21BTZ    C952813   2.090   4.687  19.818 -0.5966 -0.2663 -0.2103
    21BTZ   C1052814   2.038   4.565  19.852 -0.4672 -0.2716 -0.0297
    21BTZ   C1152815   2.081   4.503  19.974 -0.2573 -0.1335 -0.0329
    21BTZ    N252816   2.216   4.508  20.171  0.0111  0.1329 -0.2203
    21BTZ    N352817   2.038   4.385  20.018 -0.1169 -0.1241  0.1330
    21BTZ    S352818   2.123   4.355  20.173  0.1169  0.0713  0.0436
    31IDT   C1252819   1.945   4.493  19.766  0.1683  0.2963 -0.3031
    31IDT   C1352820   1.820   4.454  19.804  0.1824  0.6214  0.0873
    31IDT   C1452821   1.755   4.372  19.706 -0.1773  0.4548  0.4616
    31IDT   C1552822   1.830   4.348  19.594 -0.4673  0.0026  0.3584
    31IDT    S452823   1.991   4.428  19.602 -0.3058 -0.2497 -0.2258
    4IDB    C1652824   1.755   4.267  19.505  0.4271 -0.4962  0.3236
    4IDB    C1752825   1.638   4.214  19.567  0.0540  0.2058  0.2418
    51IDQ   C1852826   1.625   4.278  19.704 -0.1563 -0.1609  0.7345
    4IDB    C1952827   1.549   4.134  19.496 -0.3002  0.6083  0.2230
    51IDQ   C2052828   1.486   4.356  19.682  0.4425 -0.7580  0.2328
    51IDQ   C2152829   1.624   4.176  19.820  0.3589 -0.7586  0.2016
    51IDQ   C2252830   1.652   4.032  19.808  0.1320  0.1455 -0.9056
    51IDQ   C2352831   1.472   4.503  19.681  0.1843 -0.3443 -0.6545
    51IDQ   C2452832   1.782   3.982  19.871  0.1442 -0.5490  1.1528
    51IDQ   C2552833   1.852   3.878  19.784  1.0007 -0.0464  0.7613
    51IDQ   C2652834   1.881   3.905  19.630  0.5187  1.0662 -0.0068
    51IDQ   C2752835   1.926   3.771  19.565  0.1115 -1.1065  0.2608
    51IDQ   C2852836   1.975   3.811  19.428  0.3319  0.7023 -0.5000
    51IDQ   C2952837   1.992   3.688  19.343  0.1156 -0.1888  0.4916
    51IDQ   C3052838   1.396   4.545  19.557  0.4948  0.8837 -0.5798
    51IDQ   C3152839   1.455   4.674  19.501 -0.3241 -0.4256  0.8530
    51IDQ   C3252840   1.606   4.712  19.471  0.6110  0.0160  0.4872
    51IDQ   C3352841   1.665   4.652  19.340 -0.8208  0.0946 -0.2143
    51IDQ   C3452842   1.811   4.679  19.317 -0.0110 -0.0053  1.2855
    51IDQ   C3552843   1.870   4.599  19.203  0.2190  0.6412  0.2896
    4IDB    C3652844   1.784   4.241  19.370  0.4479 -0.8012  0.3877
    4IDB    C3752845   1.692   4.159  19.299  0.0829 -0.3819  0.3672
    11RH    C3852846   2.584   5.211  20.383  0.1444  0.6519 -0.6377
    4IDB    C3952847   1.578   4.107  19.361 -0.2794  0.3032  0.2867
    62IDT   C4052848   1.511   4.012  19.271 -0.5692  0.4587  0.0920
    72IDQ   C4152849   1.699   4.106  19.154 -0.3347  0.0415  0.1363
    62IDT   C4252850   1.573   4.012  19.147 -0.6985  0.2065  0.0262
    72IDQ   C4352851   1.823   4.015  19.117  0.2426 -0.4366 -0.3626
    72IDQ   C4452852   1.686   4.231  19.054  0.2678 -0.4460 -0.1364
    62IDT    S552853   1.382   3.887  19.282 -0.2356  0.1519  0.6408
    62IDT   C4552854   1.420   3.840  19.110 -0.2914 -0.3245  0.7585
    62IDT   C4652855   1.521   3.915  19.056 -0.5416 -0.2367  0.4025
    82BTZ   C4752856   1.343   3.732  19.048  0.2585  0.4388 -0.2531
    82BTZ   C4852857   1.279   3.644  19.131  0.2395  0.6984  0.0143
    82BTZ   C4952858   1.191   3.542  19.079  0.1149  0.6432  0.3300
    82BTZ   C5052859   1.168   3.528  18.945  0.0096  0.3283  0.3778
    82BTZ   C5152860   1.322   3.722  18.907  0.1511  0.1045 -0.2151
    82BTZ   C5252861   1.233   3.619  18.854  0.0245  0.0483  0.1059
    92RH    C5352862   1.071   3.436  18.884 -0.0567  0.0922  0.1847
    82BTZ    N452863   1.379   3.802  18.817  0.1575 -0.1685 -0.4568
    82BTZ    N552864   1.218   3.616  18.722 -0.0708 -0.2698  0.1216
    82BTZ    S652865   1.319   3.748  18.657 -0.0013 -0.5162 -0.2809
    92RH    C5452866   0.987   3.346  18.936 -0.0286  0.0712  0.1945
    92RH     S752867   0.958   3.314  19.114 -0.0798  0.1383  0.1982
    92RH    C5552868   0.902   3.256  18.854  0.0512 -0.0125  0.2027
    92RH     O252869   0.899   3.253  18.730  0.1005 -0.0720  0.2022
    92RH     N652870   0.823   3.172  18.935  0.0653 -0.0171  0.2119
    92RH    C5652871   0.835   3.183  19.072  0.0066  0.0525  0.2112
    92RH    C5752872   0.726   3.084  18.873  0.1390 -0.0013  0.3037
    92RH    C5852873   0.793   2.945  18.856 -0.4655 -0.5501  0.0135
    92RH     S852874   0.753   3.095  19.190  0.0085  0.0632  0.2208
    72IDQ   C5952875   1.591   4.357  19.040  0.2477  0.1887  0.3656
    72IDQ   C6052876   1.452   4.324  19.047  0.7324  0.5174 -0.5952
    72IDQ   C6152877   1.353   4.432  19.044  0.4832 -0.9213 -0.5818
    72IDQ   C6252878   1.353   4.519  19.176  0.0368 -0.0442  0.1031
    72IDQ   C6352879   1.267   4.652  19.191 -0.0068  0.3584 -0.6284
    72IDQ   C6452880   1.283   4.757  19.092  0.4457 -0.2450  0.2363
    72IDQ   C6552881   1.416   4.825  19.075 -0.2902 -0.1140 -0.7372
    72IDQ   C6652882   1.957   4.075  19.071 -0.0651 -1.0538 -1.3274
    72IDQ   C6752883   2.058   3.973  19.047 -0.9042  0.2598  0.6664
    72IDQ   C6852884   2.199   4.005  18.982  0.4435  0.3128  0.0954
    72IDQ   C6952885   2.208   4.079  18.854 -0.7417 -0.4941  1.8872
    72IDQ   C7052886   2.351   4.121  18.828 -0.3239 -0.2496 -1.3482
    72IDQ   C7152887   2.386   4.192  18.696 -0.3975  0.1450  0.6057
    72IDQ   C7252888   2.534   4.205  18.666 -0.9282 -0.3579  0.9027
    11RH     C152889   0.680   0.908   9.744  0.3659  0.0896 -0.5543
    11RH     C252890   0.780   0.823   9.814  0.2244  0.1618 -0.2625
    11RH     N152891   0.718   1.044   9.745  0.2597  0.1185 -0.4347
    11RH     S152892   0.917   0.928   9.877 -0.0390  0.2631  0.1510
    11RH     C352893   0.836   1.079   9.807  0.0505  0.2050 -0.0818
    11RH     C452894   0.625   1.148   9.709  0.7203 -0.8659  0.6050
    11RH     S252895   0.904   1.232   9.823 -0.1108  0.2557  0.1266
    11RH     O152896   0.576   0.868   9.690  0.5542  0.0129 -0.8669
    11RH     C552897   0.768   0.691   9.827  0.2859  0.1519 -0.3046
    21BTZ    C652898   0.847   0.588   9.883 -0.4270  0.0065 -0.2369
    21BTZ    C752899   0.964   0.614   9.948 -0.5121  0.1591 -0.1435
    21BTZ    C852900   0.809   0.451   9.861 -0.2579 -0.0432 -0.2227
    21BTZ    C952901   1.050   0.508   9.995 -0.4359  0.2698 -0.0319
    21BTZ   C1052902   1.018   0.376   9.977 -0.2748  0.2278 -0.0142
    21BTZ   C1152903   0.896   0.343   9.909 -0.1805  0.0694 -0.1092
    21BTZ    N252904   0.697   0.413   9.799 -0.1623 -0.1885 -0.3071
    21BTZ    N352905   0.854   0.219   9.886 -0.0226  0.0146 -0.1028
    21BTZ    S352906   0.698   0.234   9.800  0.0349 -0.1876 -0.2441
    31IDT   C1252907   1.111   0.267  10.038  0.0901 -0.1412 -0.1219
    31IDT   C1352908   1.087   0.132  10.042  0.2649 -0.1699 -0.0131
    31IDT   C1452909   1.183   0.061  10.121  0.1921  0.0538  0.2835
    31IDT   C1552910   1.280   0.141  10.177 -0.0379  0.2541  0.4027
    31IDT    S452911   1.258   0.314  10.135 -0.1817  0.1741  0.1458
    4IDB    C1652912   1.366   0.062  10.250  0.0477 -0.3052 -0.5466
    4IDB    C1752913   1.342  -0.078  10.233  0.0583 -0.3282 -0.3738
    51IDQ   C1852914   1.216  -0.091  10.140  0.1775  0.4587 -0.6196
    4IDB    C1952915   1.429  -0.172  10.287 -0.0736 -0.2597 -0.0328
    51IDQ   C2052916   1.246  -0.175  10.003 -0.1552 -0.2244  0.0632
    51IDQ   C2152917   1.080  -0.144  10.202  0.0230  0.2433  0.5098
    51IDQ   C2252918   1.079  -0.162  10.355  0.2750  0.2552 -0.4755
    51IDQ   C2352919   1.250  -0.112   9.859  0.4242  0.3866  0.1756
    51IDQ   C2452920   0.936  -0.141  10.427 -1.2104 -0.6243  0.3782
    51IDQ   C2552921   0.942  -0.089  10.569  0.0358 -0.0328 -1.4063
    51IDQ   C2652922   1.039   0.023  10.614 -0.6489 -0.6373 -0.7989
    51IDQ   C2752923   1.007   0.160  10.558 -0.0176  0.0528  0.5716
    51IDQ   C2852924   1.094   0.279  10.604  0.4678 -0.7921  0.1942
    51IDQ   C2952925   1.200   0.277  10.702 -0.3680  0.3320 -0.1166
    51IDQ   C3052926   1.296  -0.217   9.760  0.4754 -0.0202  0.1810
    51IDQ   C3152927   1.207  -0.333   9.737  0.1252  0.4648 -0.5360
    51IDQ   C3252928   1.287  -0.440   9.657  0.8053 -0.1786  0.3243
    51IDQ   C3352929   1.375  -0.539   9.736  0.3330 -0.0040 -0.6251
    51IDQ   C3452930   1.486  -0.633   9.683  0.5090 -0.6297 -0.3043
    51IDQ   C3552931   1.441  -0.776   9.666  0.2204  0.1767 -0.1205
    4IDB    C3652932   1.477   0.108  10.321 -0.0958 -0.2133 -0.3786
    4IDB    C3752933   1.565   0.011  10.375 -0.2294 -0.1445 -0.0303
    11RH    C3852934   0.628   1.199   9.556 -0.3052  0.3685  0.5230
    4IDB    C3952935   1.541  -0.126  10.357 -0.2172 -0.1679  0.1354
    62IDT   C4052936   1.647  -0.206  10.415  0.4418  0.3214  0.0712
    72IDQ   C4152937   1.698   0.025  10.454  0.5916  0.1588  0.3935
    62IDT   C4252938   1.747  -0.123  10.462  0.5174  0.0727  0.3548
    72IDQ   C4352939   1.678   0.105  10.591 -0.3493  0.6208 -0.5997
    72IDQ   C4452940   1.805   0.100  10.359  0.4801 -0.1446  0.0147
    62IDT    S552941   1.692  -0.379  10.431  0.0114  0.2116  0.0900
    62IDT   C4552942   1.850  -0.328  10.504 -0.0466 -0.1839  0.5004
    62IDT   C4652943   1.861  -0.192  10.513  0.2414 -0.2133  0.5982
    82BTZ   C4752944   1.958  -0.427  10.520 -0.2494 -0.1437  0.2068
    82BTZ   C4852945   1.924  -0.559  10.510 -0.2964 -0.1360  0.2663
    82BTZ   C4952946   2.022  -0.664  10.514 -0.3229 -0.1637  0.2091
    82BTZ   C5052947   2.156  -0.637  10.529 -0.3023 -0.1990  0.0922
    82BTZ   C5152948   2.097  -0.393  10.536 -0.2263 -0.1804  0.0844
    82BTZ   C5252949   2.197  -0.500  10.541 -0.2532 -0.2085  0.0262
    92RH    C5352950   2.258  -0.742  10.539 -0.1782 -0.0333 -0.0621
    82BTZ    N452951   2.143  -0.268  10.547 -0.1805 -0.1913  0.0174
    82BTZ    N552952   2.324  -0.461  10.556 -0.2291 -0.2420 -0.0877
    82BTZ    S652953   2.321  -0.282  10.564 -0.1699 -0.2389 -0.1263
    92RH    C5452954   2.257  -0.876  10.541 -0.0481 -0.0335  0.0391
    92RH     S752955   2.112  -0.984  10.513  0.0636 -0.1970  0.0924
    92RH    C5552956   2.377  -0.958  10.568  0.0276  0.1041  0.1268
    92RH     O252957   2.491  -0.915  10.591 -0.0193  0.2329  0.1171
    92RH     N652958   2.347  -1.096  10.564  0.1629  0.0713  0.2257
    92RH    C5652959   2.217  -1.134  10.538  0.2049 -0.0757  0.2279
    92RH    C5752960   2.449  -1.194  10.620 -0.0995 -0.1894  0.2375
    92RH    C5852961   2.554  -1.247  10.517  0.2664 -0.4872  0.5206
    92RH     S852962   2.155  -1.290  10.528  0.3595 -0.1441  0.3345
    72IDQ   C5952963   1.840   0.037  10.226 -0.6932  0.6738  0.7498
    72IDQ   C6052964   1.972   0.093  10.175  0.2226  0.6250  0.3004
    72IDQ   C6152965   2.018   0.074  10.028 -0.3697  0.7554 -0.1502
    72IDQ   C6252966   2.170   0.094   9.983 -0.1857  0.1842  0.1024
    72IDQ   C6352967   2.265  -0.018  10.033  0.2354  0.4047 -0.2939
    72IDQ   C6452968   2.244  -0.168  10.010  0.6042 -0.5228  1.3646
    72IDQ   C6552969   2.372  -0.226   9.947  0.1559 -1.3401 -0.3337
    72IDQ   C6652970   1.595   0.026  10.691  0.7880  0.3747  0.4137
    72IDQ   C6752971   1.638   0.032  10.837 -0.4486 -0.5767  0.2393
    72IDQ   C6852972   1.771  -0.035  10.880 -0.1344  0.5619  0.0794
    72IDQ   C6952973   1.784  -0.007  11.029 -0.1685 -0.7436 -1.0984
    72IDQ   C7052974   1.914  -0.074  11.087 -1.4839  0.2346 -0.2772
    72IDQ   C7152975   1.921  -0.089  11.245 -0.4984 -0.0693 -1.1400
    72IDQ   C7252976   1.900   0.041  11.328 -0.7447 -0.1268  0.3042
    11RH     C152977   0.375   3.535   3.154  0.1106  0.1157  0.0282
    11RH     C252978   0.233   3.572   3.135  0.1602  0.3144  0.0395
    11RH     N152979   0.388   3.403   3.201 -0.0690  0.0863 -0.0033
    11RH     S152980   0.125   3.430   3.181 -0.0325  0.4496  0.0081
    11RH     C352981   0.274   3.329   3.223 -0.1693  0.2371 -0.0184
    11RH     C452982   0.530   3.349   3.236 -0.0678 -0.5961  0.5565
    11RH     S252983   0.262   3.170   3.278 -0.3847  0.2397 -0.0556
    11RH     O152984   0.472   3.609   3.132  0.2112 -0.0117  0.0437
    11RH     C552985   0.193   3.692   3.091  0.3226  0.3796  0.0684
    21BTZ    C652986   0.068   3.764   3.074  0.2267  0.1567  0.2881
    21BTZ    C752987  -0.048   3.698   3.104  0.2012  0.1447  0.1633
    21BTZ    C852988   0.061   3.904   3.042  0.2306  0.1284  0.1609
    21BTZ    C952989  -0.176   3.765   3.104  0.1783  0.1044 -0.0908
    21BTZ   C1052990  -0.187   3.898   3.074  0.1813  0.0764 -0.2199
    21BTZ   C1152991  -0.068   3.972   3.043  0.2074  0.0876 -0.0973
    21BTZ    N252992   0.167   3.979   3.012  0.2544  0.1366  0.2626
    21BTZ    N352993  -0.067   4.102   3.012  0.2127  0.0629 -0.2034
    21BTZ    S352994   0.105   4.144   2.981  0.2480  0.0916  0.0273
    31IDT   C1252995  -0.329   3.954   3.090 -0.1727 -0.5024 -0.2387
    31IDT   C1352996  -0.377   4.070   3.035  0.0753 -0.6118 -0.7030
    31IDT   C1452997  -0.517   4.086   3.055  0.1701 -0.0634 -0.4403
    31IDT   C1552998  -0.578   3.983   3.123 -0.0047  0.4660  0.2244
    31IDT    S452999  -0.460   3.856   3.170 -0.3057  0.3099  0.5724
    4IDB    C1653000  -0.718   4.008   3.145  0.3355  0.0285 -0.7593
    4IDB    C1753001  -0.747   4.139   3.098 -0.0486 -0.1234 -0.9552
    51IDQ   C1853002  -0.628   4.200   3.031 -0.5957 -0.9806 -0.5072
    4IDB    C1953003  -0.873   4.195   3.115  0.0335 -0.1366 -0.2558
    51IDQ   C2053004  -0.674   4.242   2.883 -0.9812  0.7633  0.4979
    51IDQ   C2153005  -0.562   4.338   3.100 -0.3265 -0.2631 -0.6573
    51IDQ   C2253006  -0.601   4.379   3.240  0.3490 -0.8247  0.9113
    51IDQ   C2353007  -0.619   4.163   2.760 -0.6497 -0.2540  0.3493
    51IDQ   C2453008  -0.539   4.318   3.359 -0.5549 -0.5028 -0.0178
    51IDQ   C2553009  -0.574   4.350   3.504 -0.0581  0.0827 -0.3913
    51IDQ   C2653010  -0.726   4.331   3.522  0.0767 -0.2802  0.3202
    51IDQ   C2753011  -0.781   4.384   3.655  0.4807  0.4366  1.4202
    51IDQ   C2853012  -0.919   4.451   3.629 -0.4103 -0.7362  0.4510
    51IDQ   C2953013  -0.970   4.491   3.764  0.6384  0.1362 -0.3723
    51IDQ   C3053014  -0.711   4.055   2.713  0.0489  0.7485  0.0271
    51IDQ   C3153015  -0.645   3.942   2.621  0.1665 -0.0412 -0.1986
    51IDQ   C3253016  -0.500   3.896   2.634 -0.0729 -0.2484 -0.6780
    51IDQ   C3353017  -0.450   3.808   2.520  0.6704 -1.1249  1.3463
    51IDQ   C3453018  -0.303   3.789   2.499  0.3328 -0.7842  0.2243
    51IDQ   C3553019  -0.247   3.659   2.445  0.8752  0.2799 -0.0933
    4IDB    C3653020  -0.816   3.931   3.210  0.8072  0.1693  0.1434
    4IDB    C3753021  -0.944   3.990   3.227  0.8843  0.1535  0.8494
    11RH    C3853022   0.600   3.267   3.125 -0.9811  0.6007  0.2902
    4IDB    C3953023  -0.971   4.118   3.180  0.5050  0.0042  0.6471
    62IDT   C4053024  -1.105   4.157   3.226  0.3299  0.5013 -0.0908
    72IDQ   C4153025  -1.061   3.938   3.319 -0.4414 -0.2215 -0.6322
    62IDT   C4253026  -1.155   4.061   3.311  0.6368  0.4055 -0.0138
    72IDQ   C4353027  -1.003   3.895   3.463  0.1200  0.4124  0.4887
    72IDQ   C4453028  -1.126   3.811   3.262 -0.4916 -0.2840  1.4537
    62IDT    S553029  -1.222   4.290   3.199 -0.1712  0.0163 -0.3464
    62IDT   C4553030  -1.339   4.205   3.309  0.0725 -0.3063 -0.3350
    62IDT   C4653031  -1.288   4.088   3.358  0.4915 -0.0513 -0.1516
    82BTZ   C4753032  -1.479   4.250   3.320  0.2296 -0.4250  0.2799
    82BTZ   C4853033  -1.530   4.323   3.217  0.3324 -0.6131  0.0948
    82BTZ   C4953034  -1.661   4.383   3.223  0.3701 -0.5071 -0.0988
    82BTZ   C5053035  -1.741   4.369   3.333  0.3053 -0.2130 -0.1070
    82BTZ   C5153036  -1.559   4.232   3.438  0.1585 -0.1150  0.2795
    82BTZ   C5253037  -1.693   4.293   3.445  0.1969 -0.0074  0.0827
    92RH    C5353038  -1.874   4.426   3.325 -0.2714  0.3470  0.2870
    82BTZ    N453039  -1.521   4.163   3.546  0.0570  0.0899  0.4497
    82BTZ    N553040  -1.761   4.272   3.558  0.1262  0.2842  0.0947
    82BTZ    S653041  -1.656   4.172   3.662  0.0049  0.4367  0.3636
    92RH    C5453042  -1.951   4.488   3.234 -0.2908  0.2248  0.2204
    92RH     S753043  -1.907   4.525   3.060 -0.3437 -0.0476  0.1470
    92RH    C5553044  -2.089   4.536   3.263 -0.2718  0.2947  0.1957
    92RH     O253045  -2.148   4.525   3.371 -0.2360  0.4710  0.2326
    92RH     N653046  -2.147   4.596   3.149 -0.2992  0.1338  0.1233
    92RH    C5653047  -2.072   4.603   3.033 -0.3378 -0.0563  0.0871
    92RH    C5753048  -2.286   4.644   3.162 -0.2547 -0.6597  0.1700
    92RH    C5853049  -2.294   4.791   3.213  0.2974  0.5426  0.5187
    92RH     S853050  -2.118   4.669   2.885 -0.3762 -0.2717  0.0012
    72IDQ   C5953051  -1.196   3.797   3.121  0.7925 -0.5724  0.1039
    72IDQ   C6053052  -1.107   3.800   3.002 -0.5818 -0.1286  0.4325
    72IDQ   C6153053  -1.151   3.892   2.895  1.2550 -0.0219 -0.3500
    72IDQ   C6253054  -1.071   3.880   2.766 -0.5727 -0.2503  0.1309
    72IDQ   C6353055  -1.096   3.755   2.675  0.3943  1.0972 -0.9243
    72IDQ   C6453056  -0.992   3.735   2.564  0.7284 -0.0574  1.1709
    72IDQ   C6553057  -1.048   3.673   2.431 -0.2555 -0.0036 -0.5017
    72IDQ   C6653058  -1.021   3.983   3.586 -0.1422 -0.6174  0.0144
    72IDQ   C6753059  -1.108   3.913   3.700 -0.7682  0.0673 -0.0012
    72IDQ   C6853060  -1.132   3.979   3.826  0.3766 -0.5937 -0.8664
    72IDQ   C6953061  -1.187   4.127   3.851 -0.4132 -0.1603 -0.9657
    72IDQ   C7053062  -1.335   4.156   3.853  0.5880 -0.3255 -1.0909
    72IDQ   C7153063  -1.376   4.305   3.885 -0.1276  0.8757  0.0729
    72IDQ   C7253064  -1.345   4.404   3.781  0.1244  0.2808  0.1581
    11RH     C153065   5.170   5.896  23.946  0.1287 -0.0211 -0.0672
    11RH     C253066   5.237   5.816  24.052  0.1456 -0.0532 -0.1016
    11RH     N153067   5.174   5.830  23.821 -0.4352 -0.2670  0.0397
    11RH     S153068   5.300   5.659  23.980 -0.5811 -0.4046  0.0086
    11RH     C353069   5.235   5.707  23.814 -0.8720 -0.4919  0.0958
    11RH     C453070   5.125   5.892  23.697  0.3891  0.1776  0.3208
    11RH     S253071   5.253   5.608  23.678 -1.5762 -0.8068  0.2241
    11RH     O153072   5.117   6.007  23.963  0.5497  0.1920 -0.1240
    11RH     C553073   5.247   5.855  24.179  0.6275  0.1489 -0.2002
    21BTZ    C653074   5.314   5.807  24.304 -0.5633 -0.1944  0.0314
    21BTZ    C753075   5.405   5.706  24.316 -0.4561 -0.1053 -0.0262
    21BTZ    C853076   5.283   5.886  24.419 -0.3831 -0.0674 -0.0048
    21BTZ    C953077   5.470   5.677  24.441 -0.1686  0.1117 -0.1216
    21BTZ   C1053078   5.443   5.749  24.555  0.0113  0.2391 -0.1593
    21BTZ   C1153079   5.348   5.856  24.547 -0.0908  0.1531 -0.1020
    21BTZ    N253080   5.196   5.987  24.420 -0.4631 -0.1361  0.0443
    21BTZ    N353081   5.314   5.934  24.650  0.0641  0.2614 -0.1302
    21BTZ    S353082   5.194   6.050  24.587 -0.1619  0.0823 -0.0329
    31IDT   C1253083   5.510   5.711  24.687  0.2792 -0.3982 -0.2133
    31IDT   C1353084   5.555   5.789  24.790  0.8985 -0.2354 -0.5965
    31IDT   C1453085   5.618   5.712  24.893  1.1148 -0.1223 -0.6428
    31IDT   C1553086   5.621   5.576  24.869  0.6628 -0.1977 -0.2961
    31IDT    S453087   5.543   5.534  24.712 -0.0788 -0.4198  0.1193
    4IDB    C1653088   5.677   5.499  24.975  0.2947 -0.6326  0.0983
    4IDB    C1753089   5.703   5.593  25.079  0.2160 -0.5600  0.0534
    51IDQ   C1853090   5.691   5.739  25.026  0.5536 -1.0822 -0.2144
    4IDB    C1953091   5.740   5.550  25.206  0.1822 -0.4703  0.0946
    51IDQ   C2053092   5.603   5.818  25.132 -0.9318 -0.1147  0.1336
    51IDQ   C2153093   5.810   5.831  24.989  0.5419 -0.9561  0.9331
    51IDQ   C2253094   5.948   5.764  25.000 -0.1020 -0.1374 -0.9962
    51IDQ   C2353095   5.462   5.861  25.137  0.1285 -0.1848 -0.0882
    51IDQ   C2453096   6.066   5.855  25.029  0.5006 -0.0919  0.6503
    51IDQ   C2553097   6.191   5.795  25.102  0.1121  1.2265  0.2401
    51IDQ   C2653098   6.176   5.732  25.246 -0.3545  0.8823 -0.1468
    51IDQ   C2753099   6.167   5.853  25.336 -0.0674 -0.3256 -0.5684
    51IDQ   C2853100   6.184   5.841  25.492  0.3542 -0.1025  0.9774
    51IDQ   C2953101   6.146   5.970  25.550 -0.1019 -0.3956  0.7315
    51IDQ   C3053102   5.397   5.902  25.278 -0.2407  0.1346  0.4336
    51IDQ   C3153103   5.260   5.985  25.289  0.5261 -0.1822 -0.7683
    51IDQ   C3253104   5.232   6.053  25.425 -0.3626 -0.4458  1.0355
    51IDQ   C3353105   5.221   5.950  25.530  0.1138 -0.7333  0.3033
    51IDQ   C3453106   5.224   6.012  25.664  0.3174 -0.6458  0.1995
    51IDQ   C3553107   5.181   5.912  25.767 -0.6726 -0.3250  0.2614
    4IDB    C3653108   5.688   5.361  24.997  0.3405 -0.6152  0.1841
    4IDB    C3753109   5.726   5.319  25.128  0.3049 -0.5229  0.2246
    11RH    C3853110   4.988   5.832  23.666  1.2945 -0.3620  0.4441
    4IDB    C3953111   5.751   5.412  25.228  0.2280 -0.4527  0.1804
    62IDT   C4053112   5.797   5.339  25.340 -0.5486  0.0225  0.1644
    72IDQ   C4153113   5.734   5.171  25.180  0.4478 -1.2998 -1.5309
    62IDT   C4253114   5.767   5.204  25.326 -0.9544  0.0906  0.3409
    72IDQ   C4353115   5.847   5.079  25.124 -0.4270  0.1690  1.0109
    72IDQ   C4453116   5.596   5.101  25.202 -0.1940 -0.4552  0.3373
    62IDT    S553117   5.853   5.379  25.506  0.2360 -0.0453 -0.0774
    62IDT   C4553118   5.833   5.203  25.550 -0.0396  0.0255  0.0813
    62IDT   C4653119   5.788   5.128  25.445 -0.6671  0.0921  0.2942
    82BTZ   C4753120   5.873   5.159  25.685  0.2877  0.0128 -0.3728
    82BTZ   C4853121   5.844   5.235  25.795  0.2956  0.1191 -0.4435
    82BTZ   C4953122   5.882   5.194  25.928  0.2242  0.2022 -0.3967
    82BTZ   C5053123   5.950   5.076  25.950  0.1447  0.1789 -0.2790
    82BTZ   C5153124   5.943   5.035  25.703  0.2058 -0.0159 -0.2489
    82BTZ   C5253125   5.982   4.993  25.838  0.1332  0.0685 -0.2012
    92RH    C5353126   6.001   5.030  26.087  0.3200  0.1487  0.2058
    82BTZ    N453127   5.977   4.953  25.604  0.1899 -0.1165 -0.1712
    82BTZ    N553128   6.047   4.877  25.847  0.0588  0.0358 -0.0849
    82BTZ    S653129   6.062   4.815  25.680  0.0792 -0.1075 -0.0310
    92RH    C5453130   5.994   5.088  26.207  0.3957  0.2075  0.1826
    92RH     S753131   5.892   5.232  26.255  0.1882  0.0395  0.2521
    92RH    C5553132   6.071   5.040  26.325  0.6686  0.4257  0.0944
    92RH     O253133   6.149   4.944  26.326  0.8564  0.5770  0.0315
    92RH     N653134   6.044   5.119  26.439  0.6927  0.4430  0.0878
    92RH    C5653135   5.955   5.223  26.427  0.4722  0.2656  0.1602
    92RH    C5753136   6.104   5.090  26.573  0.1525 -0.5012  0.6751
    92RH    C5853137   6.045   4.984  26.662 -0.2613 -0.3033  1.2608
    92RH     S853138   5.907   5.331  26.547  0.4482  0.2439  0.1702
    72IDQ   C5953139   5.466   5.146  25.137  0.3593 -1.0864 -0.5294
    72IDQ   C6053140   5.420   5.104  24.997 -0.0315 -0.2257 -0.6601
    72IDQ   C6153141   5.453   4.961  24.937 -0.6349 -0.3480  0.0322
    72IDQ   C6253142   5.364   4.931  24.811 -1.2175  0.7903 -0.6219
    72IDQ   C6353143   5.368   4.779  24.813  0.2572 -0.0092 -0.6006
    72IDQ   C6453144   5.323   4.698  24.694  0.0192 -0.4852  0.2986
    72IDQ   C6553145   5.410   4.701  24.564 -0.2361  0.3558 -0.0723
    72IDQ   C6653146   5.904   5.048  24.978  0.0522 -0.3656  0.5368
    72IDQ   C6753147   5.975   4.917  25.005  0.3162  1.2230 -0.7105
    72IDQ   C6853148   5.913   4.797  24.923  0.0216 -0.6970  0.2975
    72IDQ   C6953149   5.999   4.664  24.923  0.5522 -0.7113  0.0294
    72IDQ   C7053150   5.965   4.537  24.853 -0.5184 -1.0388  0.1705
    72IDQ   C7153151   5.820   4.505  24.855  0.1041 -1.0846  0.8534
    72IDQ   C7253152   5.784   4.388  24.775 -0.3616  0.8368  0.2213
    11RH     C153153   2.793   0.895  26.202  0.5441 -0.2353  0.4888
    11RH     C253154   2.694   0.789  26.170  0.3229  0.0874  0.0997
    11RH     N153155   2.917   0.870  26.139  0.4420 -0.1778  0.2637
    11RH     S153156   2.770   0.664  26.059 -0.0051  0.4453 -0.5370
    11RH     C353157   2.929   0.757  26.060  0.1659  0.1514 -0.2584
    11RH     C453158   3.026   0.964  26.156  0.8658 -0.2681 -0.4850
    11RH     S253159   3.065   0.705  25.974 -0.0062  0.2877 -0.6185
    11RH     O153160   2.773   0.993  26.275  0.7896 -0.5230  0.9561
    11RH     C553161   2.569   0.789  26.217  0.3648  0.1039  0.2116
    21BTZ    C653162   2.452   0.696  26.203  0.0532 -0.3937  0.5481
    21BTZ    C753163   2.452   0.585  26.124  0.1707 -0.5023  0.7005
    21BTZ    C853164   2.328   0.740  26.261 -0.0439 -0.2797  0.2589
    21BTZ    C953165   2.331   0.510  26.097  0.1987 -0.5045  0.5774
    21BTZ   C1053166   2.211   0.548  26.150  0.1091 -0.3980  0.3023
    21BTZ   C1153167   2.206   0.664  26.234 -0.0154 -0.2819  0.1340
    21BTZ    N253168   2.315   0.847  26.340 -0.1619 -0.1682  0.0896
    21BTZ    N353169   2.094   0.710  26.291 -0.1106 -0.1721 -0.1369
    21BTZ    S353170   2.142   0.856  26.384 -0.2433 -0.0590 -0.2440
    31IDT   C1253171   2.084   0.458  26.122 -0.0191 -0.0232 -0.1461
    31IDT   C1353172   1.966   0.515  26.080 -0.6332 -0.3309  1.0805
    31IDT   C1453173   1.880   0.422  26.015 -1.0074 -0.5139  1.8148
    31IDT   C1553174   1.931   0.294  26.006 -0.6820 -0.3473  1.1530
    31IDT    S453175   2.094   0.281  26.080  0.1313  0.0580 -0.4649
    4IDB    C1653176   1.842   0.207  25.939  0.0165  0.5225  0.5997
    4IDB    C1753177   1.721   0.276  25.910  0.1944  0.4553 -0.3514
    51IDQ   C1853178   1.742   0.429  25.944  0.7839  0.0612  0.0813
    4IDB    C1953179   1.611   0.209  25.857  0.3396  0.2064 -0.3385
    51IDQ   C2053180   1.733   0.524  25.819 -0.1080  0.9397  0.0974
    51IDQ   C2153181   1.647   0.490  26.050  1.0921 -0.7335 -0.1174
    51IDQ   C2253182   1.544   0.427  26.139  0.3051  0.2041  0.0949
    51IDQ   C2353183   1.855   0.590  25.751 -0.2869 -0.0300  0.8468
    51IDQ   C2453184   1.480   0.526  26.239 -0.0030 -0.8317  0.4280
    51IDQ   C2553185   1.371   0.458  26.330  0.0505 -0.2006  0.6394
    51IDQ   C2653186   1.310   0.547  26.437  0.0306  0.4590 -1.0542
    51IDQ   C2753187   1.397   0.635  26.532 -0.5485  1.0299 -0.1930
    51IDQ   C2853188   1.336   0.752  26.597 -0.2103 -0.8091  0.1843
    51IDQ   C2953189   1.223   0.735  26.697  0.0073 -0.2892 -0.5947
    51IDQ   C3053190   1.847   0.700  25.635  0.2978 -1.2175  0.2689
    51IDQ   C3153191   1.740   0.689  25.528 -0.3597  0.8112 -0.0323
    51IDQ   C3253192   1.707   0.549  25.459  0.5787 -0.8219 -1.3261
    51IDQ   C3353193   1.568   0.539  25.404 -0.0313  0.2963 -0.7323
    51IDQ   C3453194   1.538   0.394  25.355  0.7006 -0.8233  0.3126
    51IDQ   C3553195   1.393   0.376  25.303  0.1720  0.7048 -0.9200
    4IDB    C3653196   1.854   0.069  25.916 -0.0174  0.3399  1.5736
    4IDB    C3753197   1.741   0.002  25.862  0.1325  0.0865  1.5712
    11RH    C3853198   3.123   0.938  26.272  0.0386 -0.7939 -0.0918
    4IDB    C3953199   1.623   0.071  25.833  0.3057  0.0238  0.6353
    62IDT   C4053200   1.531  -0.021  25.770 -0.0027 -0.5117  0.6790
    72IDQ   C4153201   1.726  -0.147  25.827  0.3857  1.0921 -0.8928
    62IDT   C4253202   1.584  -0.149  25.764 -0.6633 -0.8141  1.0171
    72IDQ   C4353203   1.715  -0.229  25.964 -0.4880  0.1871 -0.4192
    72IDQ   C4453204   1.846  -0.206  25.742 -0.2313 -0.1354  0.0705
    62IDT    S553205   1.378  -0.008  25.678  0.5599  0.3164 -0.1766
    62IDT   C4553206   1.394  -0.183  25.634 -0.1630  0.2047 -0.0250
    62IDT   C4653207   1.507  -0.240  25.687 -0.7549 -0.4094  0.6194
    82BTZ   C4753208   1.295  -0.255  25.555  0.0020 -0.0800  0.2985
    82BTZ   C4853209   1.165  -0.232  25.592 -0.0044 -0.0056  0.2317
    82BTZ   C4953210   1.054  -0.288  25.519 -0.0008  0.1061  0.1397
    82BTZ   C5053211   1.073  -0.367  25.408  0.0093  0.1431  0.1154
    82BTZ   C5153212   1.320  -0.336  25.440  0.0126 -0.0452  0.2761
    82BTZ   C5253213   1.207  -0.393  25.365  0.0163  0.0683  0.1831
    92RH    C5353214   0.957  -0.422  25.332  0.1155 -0.3872 -0.2550
    82BTZ    N453215   1.442  -0.365  25.393  0.0196 -0.1099  0.3352
    82BTZ    N553216   1.239  -0.468  25.259  0.0262  0.0949  0.1669
    82BTZ    S653217   1.417  -0.469  25.250  0.0315 -0.0267  0.2727
    92RH    C5453218   0.824  -0.421  25.349  0.1382 -0.1684 -0.0873
    92RH     S753219   0.730  -0.318  25.468  0.4601 -0.0333  0.0530
    92RH    C5553220   0.731  -0.507  25.273 -0.1031  0.0031  0.0110
    92RH     O253221   0.763  -0.589  25.185 -0.3498 -0.0343 -0.0472
    92RH     N653222   0.597  -0.486  25.312 -0.0188  0.2201  0.1842
    92RH    C5653223   0.572  -0.393  25.410  0.2605  0.2434  0.2360
    92RH    C5753224   0.486  -0.555  25.247 -0.5521  0.7596  0.5002
    92RH    C5853225   0.437  -0.681  25.303  0.3097 -0.1711  0.4200
    92RH     S853226   0.422  -0.348  25.474  0.4141  0.4814  0.4334
    72IDQ   C5953227   1.874  -0.141  25.599  0.3420 -0.2659  0.0533
    72IDQ   C6053228   1.986  -0.204  25.539  0.4100  1.0881  0.2892
    72IDQ   C6153229   1.985  -0.176  25.394 -0.5573 -0.0893 -0.1902
    72IDQ   C6253230   2.094  -0.237  25.304  0.4396  0.4319  0.2162
    72IDQ   C6353231   2.067  -0.227  25.156  0.8109 -0.6612  0.4027
    72IDQ   C6453232   2.169  -0.307  25.073  0.0824  0.8717 -0.0505
    72IDQ   C6553233   2.165  -0.277  24.922  0.0257 -0.9062 -0.6458
    72IDQ   C6653234   1.706  -0.384  25.959 -0.6806 -0.3891 -0.6770
    72IDQ   C6753235   1.639  -0.460  26.072 -0.1397 -0.1308  0.4602
    72IDQ   C6853236   1.487  -0.418  26.088 -0.1658  0.5307  0.4881
    72IDQ   C6953237   1.396  -0.457  25.969 -0.2037 -0.3992 -0.2280
    72IDQ   C7053238   1.241  -0.434  25.992 -0.0263  0.2947  0.3368
    72IDQ   C7153239   1.193  -0.434  26.144 -0.1661  0.0589  0.2309
    72IDQ   C7253240   1.057  -0.372  26.158 -0.4694  0.4269 -0.4673
    11RH     C153241   4.587   4.743   5.472  0.0522 -0.0315  0.0437
    11RH     C253242   4.678   4.646   5.407 -0.0027 -0.0540  0.0005
    11RH     N153243   4.558   4.706   5.605  0.0839 -0.0390  0.0486
    11RH     S153244   4.719   4.512   5.525 -0.0088 -0.0835 -0.0310
    11RH     C353245   4.614   4.591   5.655  0.0615 -0.0646  0.0144
    11RH     C453246   4.450   4.768   5.684  0.1026  0.6242 -0.3652
    11RH     S253247   4.596   4.524   5.809  0.0907 -0.0784  0.0119
    11RH     O153248   4.540   4.846   5.419  0.0690 -0.0088  0.0726
    11RH     C553249   4.721   4.658   5.281 -0.0411 -0.0523 -0.0125
    21BTZ    C653250   4.814   4.595   5.202  0.0138  0.1892  0.1719
    21BTZ    C753251   4.886   4.485   5.240 -0.1911  0.0697  0.2134
    21BTZ    C853252   4.838   4.651   5.072  0.0371  0.0269  0.1060
    21BTZ    C953253   4.984   4.425   5.154 -0.3819 -0.2133  0.1923
    21BTZ   C1053254   5.010   4.474   5.029 -0.3677 -0.3764  0.1295
    21BTZ   C1153255   4.938   4.590   4.984 -0.1570 -0.2608  0.0844
    21BTZ    N253256   4.775   4.759   5.023  0.2276  0.1199  0.0610
    21BTZ    N353257   4.955   4.648   4.865 -0.1223 -0.3989  0.0221
    21BTZ    S353258   4.842   4.786   4.860  0.1659 -0.1621 -0.0123
    31IDT   C1253259   5.119   4.415   4.946  0.2209  0.2727  0.4706
    31IDT   C1353260   5.203   4.470   4.852  0.6982  0.2228  0.8602
    31IDT   C1453261   5.297   4.376   4.800  0.4182 -0.0224  0.7876
    31IDT   C1553262   5.286   4.249   4.854 -0.2727 -0.1608  0.3435
    31IDT    S453263   5.154   4.239   4.975 -0.6254  0.0103 -0.0209
    4IDB    C1653264   5.391   4.173   4.798  0.0499  0.0371  0.4487
    4IDB    C1753265   5.466   4.241   4.697 -0.3148 -0.1426  0.0464
    51IDQ   C1853266   5.409   4.384   4.691 -0.3114  0.5508  1.1132
    4IDB    C1953267   5.573   4.179   4.633 -0.3446 -0.1468  0.0011
    51IDQ   C2053268   5.513   4.499   4.709 -0.2211 -0.0407 -1.0820
    51IDQ   C2153269   5.344   4.426   4.551 -0.1061 -0.0363  0.7415
    51IDQ   C2253270   5.352   4.345   4.415 -0.1549  0.2246 -1.2593
    51IDQ   C2353271   5.500   4.613   4.818 -1.2712  0.1501 -0.1574
    51IDQ   C2453272   5.261   4.401   4.304 -0.2349  0.6842  0.4740
    51IDQ   C2553273   5.112   4.428   4.313 -0.4709  0.9244 -0.0668
    51IDQ   C2653274   5.055   4.573   4.278 -0.7144  0.1856  0.8108
    51IDQ   C2753275   5.115   4.694   4.350 -0.7119 -0.7514  0.9630
    51IDQ   C2853276   5.121   4.684   4.507  0.1254 -0.6701  0.4477
    51IDQ   C2953277   5.106   4.814   4.580 -0.2804 -0.1912  0.1494
    51IDQ   C3053278   5.434   4.761   4.793  0.1554  1.6901 -0.1203
    51IDQ   C3153279   5.419   4.842   4.920  0.4851 -0.6043  0.1738
    51IDQ   C3253280   5.370   4.974   4.876 -0.3810 -0.7370  0.2747
    51IDQ   C3353281   5.345   5.072   4.988  0.1366 -0.1867 -0.0651
    51IDQ   C3453282   5.270   5.189   4.936  1.2990 -0.4131  0.4487
    51IDQ   C3553283   5.213   5.271   5.047  0.0330  0.9334  1.2769
    4IDB    C3653284   5.422   4.041   4.835  0.3891  0.2143  0.8100
    4IDB    C3753285   5.531   3.979   4.768  0.3529  0.2072  0.7576
    11RH    C3853286   4.477   4.888   5.768  0.2754 -0.7743  0.2481
    4IDB    C3953287   5.604   4.047   4.670 -0.0056  0.0307  0.3623
    62IDT   C4053288   5.700   3.958   4.609 -0.5061  0.1869 -0.3717
    72IDQ   C4153289   5.604   3.848   4.796  0.0465  0.0427  0.1400
    62IDT   C4253290   5.700   3.838   4.676 -0.7761  0.2392 -0.2778
    72IDQ   C4353291   5.507   3.731   4.758  0.0920 -1.3602 -0.2767
    72IDQ   C4453292   5.635   3.830   4.955  0.0656 -0.4660 -0.6493
    62IDT    S553293   5.829   3.964   4.483 -0.0769  0.0453  0.0547
    62IDT   C4553294   5.878   3.796   4.531 -0.2956  0.0652  0.3523
    62IDT   C4653295   5.800   3.746   4.633 -0.6573  0.1704  0.1318
    82BTZ   C4753296   5.989   3.724   4.459 -0.1545  0.1605 -0.0924
    82BTZ   C4853297   6.045   3.780   4.348 -0.0932  0.2713 -0.0061
    82BTZ   C4953298   6.158   3.720   4.281 -0.1295  0.2748 -0.0712
    82BTZ   C5053299   6.214   3.604   4.326 -0.2271  0.1677 -0.2227
    82BTZ   C5153300   6.044   3.602   4.510 -0.2575  0.0458 -0.2515
    82BTZ   C5253301   6.159   3.541   4.443 -0.2944  0.0494 -0.3178
    92RH    C5353302   6.335   3.547   4.264  0.2035  0.2301  0.3502
    82BTZ    N453303   5.998   3.538   4.618 -0.3245 -0.0679 -0.3474
    82BTZ    N553304   6.205   3.428   4.496 -0.3911 -0.0613 -0.4669
    82BTZ    S653305   6.102   3.394   4.638 -0.4400 -0.1773 -0.5300
    92RH    C5453306   6.421   3.590   4.170  0.0892  0.0877  0.1792
    92RH     S753307   6.396   3.731   4.055 -0.0073 -0.0220  0.0654
    92RH    C5553308   6.553   3.528   4.145  0.0216 -0.0057  0.0517
    92RH     O253309   6.600   3.431   4.206  0.0614  0.0358  0.0873
    92RH     N653310   6.622   3.594   4.041 -0.0969 -0.1513 -0.1195
    92RH    C5653311   6.561   3.701   3.979 -0.1323 -0.1858 -0.1448
    92RH    C5753312   6.765   3.559   3.994 -0.5861 -0.4992  0.1796
    92RH    C5853313   6.865   3.636   4.076 -0.6595  0.7996  0.3414
    92RH     S853314   6.621   3.796   3.853 -0.2674 -0.3499 -0.3343
    72IDQ   C5953315   5.777   3.865   5.000  0.5711  0.2670  1.2319
    72IDQ   C6053316   5.809   3.837   5.147 -0.1346 -0.4571  0.4817
    72IDQ   C6153317   5.952   3.854   5.203  0.3858 -0.0812  1.1925
    72IDQ   C6253318   6.000   4.000   5.207  1.1127 -1.0321 -0.0566
    72IDQ   C6353319   5.927   4.106   5.294  0.2889 -1.0669 -0.4549
    72IDQ   C6453320   5.894   4.053   5.431 -1.5160  0.8880 -0.2886
    72IDQ   C6553321   5.844   4.139   5.534  0.7845 -0.7690  0.5107
    72IDQ   C6653322   5.371   3.701   4.822  0.3716  0.4349  0.8040
    72IDQ   C6753323   5.297   3.579   4.769  0.5234 -0.2366 -0.1531
    72IDQ   C6853324   5.149   3.571   4.808 -0.5279 -0.3329 -0.7955
    72IDQ   C6953325   5.060   3.498   4.710 -0.2659  0.9893 -0.3936
    72IDQ   C7053326   4.912   3.507   4.748 -0.2918 -0.3399 -0.0175
    72IDQ   C7153327   4.854   3.640   4.726 -0.5706 -0.8851  0.1539
    72IDQ   C7253328   4.822   3.679   4.578  0.2381 -0.4483  0.3454
    11RH     C153329   1.741   0.950  23.104  0.1161  0.6132  0.1988
    11RH     C253330   1.699   0.888  22.976  0.0342  0.3436  0.3562
    11RH     N153331   1.666   1.066  23.133  0.1175  0.6597  0.0165
    11RH     S153332   1.563   0.986  22.902 -0.0357  0.1690  0.2525
    11RH     C353333   1.568   1.104  23.043  0.0467  0.4604  0.0067
    11RH     C453334   1.697   1.133  23.259  0.1195 -0.9383 -0.3443
    11RH     S253335   1.466   1.237  23.054  0.0321  0.4652 -0.1922
    11RH     O153336   1.831   0.908  23.179  0.1769  0.7807  0.2213
    11RH     C553337   1.754   0.777  22.926  0.0164  0.2496  0.5426
    21BTZ    C653338   1.723   0.702  22.803 -0.1001  0.3095  0.0015
    21BTZ    C753339   1.619   0.738  22.721 -0.1906  0.3185  0.1202
    21BTZ    C853340   1.806   0.591  22.765 -0.2231  0.2306 -0.0343
    21BTZ    C953341   1.591   0.666  22.599 -0.4048  0.2509  0.2079
    21BTZ   C1053342   1.667   0.560  22.559 -0.5284  0.1744  0.1769
    21BTZ   C1153343   1.777   0.518  22.641 -0.4409  0.1619  0.0544
    21BTZ    N253344   1.910   0.547  22.836 -0.1526  0.2142 -0.1473
    21BTZ    N353345   1.858   0.416  22.612 -0.5455  0.0902  0.0134
    21BTZ    S353346   1.977   0.408  22.746 -0.3661  0.1080 -0.1440
    31IDT   C1253347   1.630   0.495  22.433  0.1987 -0.5132 -0.2304
    31IDT   C1353348   1.660   0.366  22.395  0.4156 -0.2768 -0.9041
    31IDT   C1453349   1.614   0.334  22.264  0.5408  0.3556 -1.1082
    31IDT   C1553350   1.549   0.438  22.200  0.4205  0.6050 -0.5916
    31IDT    S453351   1.541   0.585  22.302  0.1366  0.0531  0.1994
    4IDB    C1653352   1.485   0.386  22.080  0.2211 -0.1459  0.1406
    4IDB    C1753353   1.533   0.253  22.061  0.3155 -0.0869 -0.0405
    51IDQ   C1853354   1.611   0.203  22.182 -0.0732  0.4185  0.2523
    4IDB    C1953355   1.505   0.182  21.945  0.0485 -0.0833  0.0206
    51IDQ   C2053356   1.518   0.088  22.251  0.5271  1.4630 -0.5687
    51IDQ   C2153357   1.758   0.139  22.161  0.3080 -0.1940  0.1523
    51IDQ   C2253358   1.849   0.175  22.036 -0.3696  0.2351 -0.0123
    51IDQ   C2353359   1.418   0.126  22.357  0.2416  0.2931  0.4869
    51IDQ   C2453360   1.870   0.321  22.009  0.3293  0.2937 -0.4242
    51IDQ   C2553361   1.985   0.357  21.921 -0.4999 -0.2810  0.0803
    51IDQ   C2653362   1.991   0.497  21.860  0.6630 -0.5383 -0.6850
    51IDQ   C2753363   2.080   0.527  21.743 -0.5851  1.0829 -0.6966
    51IDQ   C2853364   2.063   0.651  21.680  0.4413 -0.1799 -0.6240
    51IDQ   C2953365   2.154   0.681  21.558 -0.4231  0.2646 -1.0285
    51IDQ   C3053366   1.346   0.014  22.436 -0.4606 -0.9789 -0.6413
    51IDQ   C3153367   1.195  -0.006  22.408 -0.7919  0.4042 -0.2215
    51IDQ   C3253368   1.158  -0.062  22.270  0.7885 -0.2667  0.3986
    51IDQ   C3353369   1.018  -0.009  22.243  0.5156 -0.6654 -0.4367
    51IDQ   C3453370   0.960  -0.073  22.117  0.1192 -1.1919 -1.0127
    51IDQ   C3553371   0.829   0.011  22.085  0.1985  0.2391 -0.3046
    4IDB    C3653372   1.408   0.450  21.982 -0.1434 -0.2021  0.3853
    4IDB    C3753373   1.380   0.376  21.863 -0.4126 -0.1975  0.4449
    11RH    C3853374   1.592   1.129  23.366  0.6653 -0.4351  0.1644
    4IDB    C3953375   1.427   0.246  21.846 -0.3159 -0.1395  0.2653
    62IDT   C4053376   1.392   0.192  21.720  0.0724 -0.3913  0.0429
    72IDQ   C4153377   1.301   0.412  21.732  0.3022 -1.2015 -0.9309
    62IDT   C4253378   1.316   0.281  21.647  0.2671 -0.1221  0.1645
    72IDQ   C4353379   1.360   0.533  21.664 -0.5431 -0.6494  0.4472
    72IDQ   C4453380   1.146   0.421  21.744  1.6275 -0.2423  0.5381
    62IDT    S553381   1.432   0.045  21.625 -0.2728 -0.3624 -0.1514
    62IDT   C4553382   1.339   0.115  21.486 -0.1286  0.0314 -0.0538
    62IDT   C4653383   1.285   0.237  21.514  0.1538  0.1173  0.1101
    82BTZ   C4753384   1.341   0.040  21.350 -0.2410 -0.1095  0.1526
    82BTZ   C4853385   1.392  -0.087  21.348  0.1625  0.0515  0.0176
    82BTZ   C4953386   1.391  -0.167  21.227  0.6615  0.2716 -0.1373
    82BTZ   C5053387   1.340  -0.119  21.110  0.7563  0.3300 -0.1557
    82BTZ   C5153388   1.286   0.094  21.229 -0.1610 -0.0564  0.1402
    82BTZ   C5253389   1.285   0.013  21.107  0.3462  0.1673 -0.0167
    92RH    C5353390   1.317  -0.204  20.988 -0.5052  0.0167  0.1155
    82BTZ    N453391   1.233   0.217  21.219 -0.5237 -0.1988  0.2637
    82BTZ    N553392   1.232   0.070  20.999  0.3912  0.2043 -0.0196
    82BTZ    S653393   1.180   0.234  21.049 -0.2257 -0.0502  0.1830
    92RH    C5453394   1.336  -0.334  20.960 -0.2220  0.0584  0.1078
    92RH     S753395   1.398  -0.463  21.075  0.4489  0.2620 -0.0140
    92RH    C5553396   1.309  -0.394  20.827 -0.4172 -0.0585  0.1993
    92RH     O253397   1.266  -0.333  20.728 -0.8568 -0.2061  0.2918
    92RH     N653398   1.337  -0.532  20.826 -0.0369  0.0183  0.1678
    92RH    C5653399   1.384  -0.590  20.942  0.4391  0.1829  0.0625
    92RH    C5753400   1.294  -0.623  20.710  0.4784  0.5181  0.0140
    92RH    C5853401   1.384  -0.660  20.605  0.0003 -0.1387  1.3559
    92RH     S853402   1.426  -0.752  20.967  0.9550  0.3027  0.0052
    72IDQ   C5953403   1.080   0.382  21.872  0.1488  1.0468  0.7469
    72IDQ   C6053404   0.982   0.477  21.918  0.0978 -0.4661 -0.4508
    72IDQ   C6153405   0.873   0.426  22.009  0.3819  0.9552  0.1732
    72IDQ   C6253406   0.739   0.376  21.960  0.3201  0.7944 -0.1179
    72IDQ   C6353407   0.628   0.381  22.077 -0.3476 -0.0465  0.4142
    72IDQ   C6453408   0.494   0.337  22.024  0.3004 -1.3374 -0.2030
    72IDQ   C6553409   0.396   0.432  21.965 -0.6104  0.4050  0.4916
    72IDQ   C6653410   1.511   0.540  21.618  0.7647  0.0391  0.5350
    72IDQ   C6753411   1.560   0.676  21.599  0.2108  0.5817 -0.2798
    72IDQ   C6853412   1.580   0.770  21.716 -1.0653  0.2855  1.0962
    72IDQ   C6953413   1.650   0.692  21.830 -0.0926 -0.6555  0.5339
    72IDQ   C7053414   1.729   0.797  21.906  0.0096  0.1758  0.7851
    72IDQ   C7153415   1.760   0.738  22.041 -0.7044  0.6928  0.7000
    72IDQ   C7253416   1.862   0.827  22.122  0.9972  0.0266  0.4103
    11RH     C153417   5.389   2.390  10.268  0.2403  0.2540  0.2387
    11RH     C253418   5.403   2.267  10.348  0.1332  0.2510  0.2534
    11RH     N153419   5.255   2.436  10.266  0.2355  0.2343  0.0335
    11RH     S153420   5.240   2.218  10.417  0.0333  0.2226 -0.0038
    11RH     C353421   5.160   2.364  10.336  0.1377  0.2160 -0.1185
    11RH     C453422   5.224   2.564  10.189  0.7649  1.0132 -0.1630
    11RH     S253423   4.996   2.396  10.350  0.1103  0.1907 -0.3729
    11RH     O153424   5.481   2.449  10.209  0.3248  0.2713  0.3855
    11RH     C553425   5.519   2.203  10.366  0.1158  0.2671  0.4306
    21BTZ    C653426   5.559   2.072  10.420  0.1241  0.0518  0.2269
    21BTZ    C753427   5.468   1.980  10.463  0.2183 -0.0665  0.1736
    21BTZ    C853428   5.697   2.034  10.411  0.1589  0.1885  0.1786
    21BTZ    C953429   5.508   1.846  10.501  0.3504 -0.0565  0.0708
    21BTZ   C1053430   5.638   1.805  10.495  0.3882  0.0718  0.0214
    21BTZ   C1153431   5.737   1.899  10.449  0.2933  0.1987  0.0739
    21BTZ    N253432   5.795   2.115  10.370  0.0759  0.3112  0.2227
    21BTZ    N353433   5.868   1.871  10.439  0.3181  0.3296  0.0339
    21BTZ    S353434   5.946   2.020  10.378  0.1680  0.4479  0.1303
    31IDT   C1253435   5.663   1.668  10.532 -0.0562 -0.2912  0.2840
    31IDT   C1353436   5.775   1.593  10.508  0.1940  0.0863  0.2491
    31IDT   C1453437   5.769   1.464  10.569  0.6802  0.0896  0.3102
    31IDT   C1553438   5.653   1.440  10.639  0.8041 -0.2844  0.3921
    31IDT    S453439   5.541   1.580  10.634  0.3097 -0.6733  0.3976
    4IDB    C1653440   5.643   1.316  10.693  0.0307  0.0706  0.2429
    4IDB    C1753441   5.763   1.247  10.658  0.1659  0.1334  0.5662
    51IDQ   C1853442   5.864   1.341  10.582 -0.3337 -0.6243  0.7014
    4IDB    C1953443   5.787   1.117  10.702  0.0752  0.1161  0.5650
    51IDQ   C2053444   5.993   1.367  10.663 -0.5918  0.0422  0.1512
    51IDQ   C2153445   5.917   1.305  10.431  1.1807  0.0253 -0.6972
    51IDQ   C2253446   5.869   1.186  10.348  0.1508 -0.1845 -0.6407
    51IDQ   C2353447   6.054   1.501  10.713 -0.8101  0.0244 -0.4127
    51IDQ   C2453448   5.747   1.208  10.247 -0.5853  0.3248  0.1478
    51IDQ   C2553449   5.603   1.193  10.296 -0.7898 -0.9389 -0.0149
    51IDQ   C2653450   5.492   1.173  10.191 -0.4993 -0.7413 -0.1029
    51IDQ   C2753451   5.343   1.180  10.244  1.2990 -0.0243 -0.0884
    51IDQ   C2853452   5.245   1.186  10.130  0.3425 -0.3755 -0.2637
    51IDQ   C2953453   5.097   1.203  10.171  0.0491 -0.1176  0.9786
    51IDQ   C3053454   6.070   1.623  10.630 -0.4347  0.4943  1.0006
    51IDQ   C3153455   6.142   1.741  10.691 -0.8408 -0.8241 -0.3638
    51IDQ   C3253456   6.288   1.721  10.728 -1.0346 -0.4542 -1.3735
    51IDQ   C3353457   6.347   1.842  10.801 -0.1315 -0.1506  0.2524
    51IDQ   C3453458   6.291   1.896  10.939 -0.0444 -0.1045  0.7355
    51IDQ   C3553459   6.252   1.789  11.044 -0.1995 -0.9654  0.4792
    4IDB    C3653460   5.546   1.255  10.775 -0.1972 -0.0103 -0.0856
    4IDB    C3753461   5.572   1.123  10.819 -0.2871 -0.0268 -0.0818
    11RH    C3853462   5.186   2.703  10.244  0.3960  0.1305 -0.1050
    4IDB    C3953463   5.690   1.057  10.784 -0.1527  0.0353  0.2366
    62IDT   C4053464   5.687   0.917  10.834 -0.3427 -0.2898 -0.2064
    72IDQ   C4153465   5.492   1.027  10.917  0.3992 -1.1079  0.1674
    62IDT   C4253466   5.565   0.890  10.893 -0.4650 -0.0630 -0.3517
    72IDQ   C4353467   5.334   1.025  10.898  1.3537 -0.1008 -0.2728
    72IDQ   C4453468   5.532   1.055  11.067 -0.0652  0.5225 -0.2376
    62IDT    S553469   5.784   0.768  10.809 -0.4615 -0.4383  0.1879
    62IDT   C4553470   5.649   0.672  10.882 -0.6811 -0.1729  0.1322
    62IDT   C4653471   5.543   0.751  10.920 -0.6565  0.0034 -0.1609
    82BTZ   C4753472   5.645   0.522  10.864 -0.3402 -0.1997 -0.0985
    82BTZ   C4853473   5.529   0.465  10.911 -0.2681 -0.3411 -0.0918
    82BTZ   C4953474   5.493   0.329  10.879 -0.1221 -0.3733 -0.1202
    82BTZ   C5053475   5.573   0.251  10.799 -0.0483 -0.2641 -0.1547
    82BTZ   C5153476   5.731   0.444  10.781 -0.2675 -0.0816 -0.1340
    82BTZ   C5253477   5.695   0.306  10.748 -0.1191 -0.1144 -0.1626
    92RH    C5353478   5.542   0.115  10.762 -0.0432 -0.2837 -0.5428
    82BTZ    N453479   5.846   0.489  10.730 -0.3262  0.0604 -0.1433
    82BTZ    N553480   5.780   0.240  10.670 -0.0584  0.0013 -0.1953
    82BTZ    S653481   5.914   0.353  10.635 -0.1913  0.1604 -0.1904
    92RH    C5453482   5.442   0.029  10.788 -0.0175 -0.2171 -0.2186
    92RH     S753483   5.296   0.060  10.895  0.3909 -0.1497  0.3271
    92RH    C5553484   5.435  -0.108  10.732 -0.3279 -0.1872 -0.2563
    92RH     O253485   5.518  -0.159  10.656 -0.6422 -0.2192 -0.5851
    92RH     N653486   5.319  -0.176  10.776 -0.2239 -0.1157  0.1342
    92RH    C5653487   5.233  -0.110  10.861  0.1321 -0.0851  0.4799
    92RH    C5753488   5.308  -0.323  10.739  0.5468 -0.3228 -0.7387
    92RH    C5853489   5.198  -0.389  10.642 -0.4187 -0.1643 -0.9677
    92RH     S853490   5.089  -0.167  10.927  0.3245 -0.0018  0.9770
    72IDQ   C5953491   5.505   1.186  11.131  0.4836 -0.5615  0.3419
    72IDQ   C6053492   5.539   1.225  11.280  0.3519 -1.0369  1.1321
    72IDQ   C6153493   5.444   1.159  11.365  0.6518  0.6652 -0.8875
    72IDQ   C6253494   5.464   1.162  11.517  0.8538  0.5014 -0.8031
    72IDQ   C6353495   5.377   1.050  11.595  0.3765 -0.5694 -0.3262
    72IDQ   C6453496   5.226   1.063  11.580  0.9083  0.6989  0.2905
    72IDQ   C6553497   5.143   0.952  11.648 -0.1136  0.5401  0.4145
    72IDQ   C6653498   5.250   0.905  10.920 -0.1953  0.5239 -0.5440
    72IDQ   C6753499   5.100   0.943  10.947 -0.9558  0.0313  0.4325
    72IDQ   C6853500   4.986   0.842  10.954 -0.2916  0.1280 -0.3003
    72IDQ   C6953501   4.869   0.888  11.043  0.1886  1.2166  0.2471
    72IDQ   C7053502   4.883   0.824  11.184 -0.5951  0.9584 -0.7371
    72IDQ   C7153503   4.793   0.883  11.279 -0.0010  0.0066 -0.5090
    72IDQ   C7253504   4.850   0.897  11.420  0.6776  0.4131 -0.0178
    11RH     C153505   7.164   6.910  26.687 -0.4750  0.0585  0.0362
    11RH     C253506   7.089   6.857  26.570 -0.4375  0.0372  0.0219
    11RH     N153507   7.137   6.835  26.804 -0.4467  0.0272  0.0224
    11RH     S153508   6.988   6.713  26.621 -0.3676 -0.0225 -0.0088
    11RH     C353509   7.050   6.729  26.794 -0.3911 -0.0167 -0.0005
    11RH     C453510   7.210   6.865  26.933  0.2912 -0.8499  0.0709
    11RH     S253511   7.001   6.624  26.917 -0.3483 -0.0601 -0.0205
    11RH     O153512   7.241   7.007  26.686 -0.5251  0.0986  0.0567
    11RH     C553513   7.097   6.910  26.448 -0.4540  0.0594  0.0300
    21BTZ    C653514   7.012   6.908  26.327 -0.1641 -0.1222  0.0764
    21BTZ    C753515   6.890   6.846  26.327 -0.1551 -0.1398  0.0648
    21BTZ    C853516   7.045   6.992  26.216 -0.1408 -0.1673  0.0491
    21BTZ    C953517   6.795   6.863  26.220 -0.1230 -0.2022  0.0257
    21BTZ   C1053518   6.822   6.943  26.112 -0.0999 -0.2468 -0.0010
    21BTZ   C1153519   6.949   7.011  26.107 -0.1081 -0.2306  0.0100
    21BTZ    N253520   7.161   7.058  26.204 -0.1465 -0.1557  0.0572
    21BTZ    N353521   6.987   7.091  26.007 -0.0879 -0.2699 -0.0143
    21BTZ    S353522   7.151   7.148  26.050 -0.1098 -0.2265  0.0136
    31IDT   C1253523   6.714   6.970  26.002 -0.1536 -0.2652 -0.6468
    31IDT   C1353524   6.715   6.954  25.866 -0.6469 -1.0891 -0.5674
    31IDT   C1453525   6.584   6.954  25.809 -0.8544 -1.3770 -0.1030
    31IDT   C1553526   6.483   6.970  25.900 -0.5209 -0.7760  0.1742
    31IDT    S453527   6.545   6.986  26.068  0.0868  0.2101 -0.1347
    4IDB    C1653528   6.351   6.967  25.826  0.3333 -0.3098  0.2716
    4IDB    C1753529   6.378   6.952  25.687  0.3252 -0.4994  0.2904
    51IDQ   C1853530   6.531   6.957  25.664  0.5396  0.9194  0.3094
    4IDB    C1953531   6.275   6.934  25.596  0.2879 -0.1651  0.2656
    51IDQ   C2053532   6.579   6.841  25.569 -0.9272 -0.1047 -0.6956
    51IDQ   C2153533   6.569   7.088  25.593 -0.5530  0.7026  0.7598
    51IDQ   C2253534   6.510   7.204  25.529  0.7743  0.9699 -0.2478
    51IDQ   C2353535   6.655   6.721  25.635  0.5467  0.3598  0.7048
    51IDQ   C2453536   6.419   7.173  25.405  1.4643  0.1234 -0.4879
    51IDQ   C2553537   6.320   7.283  25.352  0.4665 -0.0443 -0.1558
    51IDQ   C2653538   6.209   7.207  25.278  0.5216  0.3450 -0.8084
    51IDQ   C2753539   6.066   7.247  25.311  1.1348 -0.6149 -0.1974
    51IDQ   C2853540   5.962   7.185  25.213 -0.8830  0.0629 -0.0361
    51IDQ   C2953541   5.808   7.201  25.249 -1.1065 -0.0364  0.6287
    51IDQ   C3053542   6.556   6.628  25.711 -0.0550  0.4396  0.3093
    51IDQ   C3153543   6.578   6.598  25.865  0.4167 -0.4442  0.3012
    51IDQ   C3253544   6.704   6.500  25.888  0.2983 -0.7119  0.0234
    51IDQ   C3353545   6.751   6.496  26.034  0.1783 -0.5544  0.3252
    51IDQ   C3453546   6.911   6.490  26.030 -0.0855 -0.0863 -0.9132
    51IDQ   C3553547   6.941   6.473  26.188 -0.1121 -0.9786 -0.1061
    4IDB    C3653548   6.220   6.965  25.875  0.3037  0.2187  0.2275
    4IDB    C3753549   6.115   6.946  25.781  0.2657  0.5547  0.2031
    11RH    C3853550   7.346   6.796  26.958  0.5894 -0.5988 -0.2537
    4IDB    C3953551   6.143   6.932  25.645  0.2583  0.3636  0.2217
    62IDT   C4053552   6.011   6.903  25.581 -0.3716 -0.1410  0.2409
    72IDQ   C4153553   5.964   6.923  25.812 -0.3755  0.2189 -0.3242
    62IDT   C4253554   5.910   6.911  25.675 -0.4344 -0.6198  0.2155
    72IDQ   C4353555   5.937   7.052  25.889 -0.9527  0.1263 -0.5816
    72IDQ   C4453556   5.936   6.802  25.905  0.0903  0.2664 -0.8697
    62IDT    S553557   5.948   6.876  25.416 -0.2268  0.0966  0.1453
    62IDT   C4553558   5.779   6.876  25.485 -0.2605 -0.4929  0.0720
    62IDT   C4653559   5.779   6.895  25.621 -0.3716 -0.8196  0.1197
    82BTZ   C4753560   5.656   6.853  25.402 -0.2350  0.3577  0.1904
    82BTZ   C4853561   5.675   6.836  25.267 -0.1303  0.4985  0.1869
    82BTZ   C4953562   5.566   6.799  25.179 -0.0366  0.4699  0.0825
    82BTZ   C5053563   5.439   6.779  25.227 -0.0478  0.3006 -0.0172
    82BTZ   C5153564   5.525   6.833  25.456 -0.2511  0.1779  0.0873
    82BTZ   C5253565   5.415   6.795  25.367 -0.1558  0.1488 -0.0196
    92RH    C5353566   5.337   6.735  25.133 -0.0746 -0.2365 -0.0984
    82BTZ    N453567   5.494   6.846  25.585 -0.3489  0.0300  0.0801
    82BTZ    N553568   5.295   6.778  25.425 -0.1771 -0.0225 -0.1116
    82BTZ    S653569   5.319   6.810  25.599 -0.3229 -0.1567 -0.0660
    92RH    C5453570   5.327   6.710  25.002  0.1431 -0.3011 -0.1025
    92RH     S753571   5.464   6.711  24.879  0.2914 -0.0197  0.0630
    92RH    C5553572   5.199   6.676  24.934  0.3022 -0.6226 -0.2475
    92RH     O253573   5.089   6.668  24.989  0.2539 -0.8652 -0.3800
    92RH     N653574   5.219   6.655  24.796  0.5208 -0.6222 -0.2181
    92RH    C5653575   5.346   6.667  24.744  0.5565 -0.3399 -0.0668
    92RH    C5753576   5.095   6.625  24.716 -0.3364 -1.0109 -0.1935
    92RH    C5853577   5.006   6.739  24.669  0.3226  0.0615  0.1742
    92RH     S853578   5.395   6.646  24.585  0.7992 -0.2759 -0.0010
    72IDQ   C5953579   5.803   6.724  25.912  1.2313 -0.2120  1.0272
    72IDQ   C6053580   5.679   6.806  25.955  0.4971 -0.2519 -0.2802
    72IDQ   C6153581   5.677   6.844  26.098 -0.0911 -0.9802  0.2385
    72IDQ   C6253582   5.687   6.739  26.214  0.5928 -0.7765 -0.4766
    72IDQ   C6353583   5.664   6.806  26.358 -0.3061  0.8406 -0.1673
    72IDQ   C6453584   5.670   6.713  26.483 -0.7726 -0.7734 -0.4997
    72IDQ   C6553585   5.565   6.608  26.501  0.1424  0.5257  0.9258
    72IDQ   C6653586   5.809   7.123  25.884 -0.1157 -0.7935 -0.0095
    72IDQ   C6753587   5.836   7.255  25.958 -0.4638 -0.4884  0.4520
    72IDQ   C6853588   5.724   7.357  25.934  0.3610  0.2225  0.3629
    72IDQ   C6953589   5.712   7.402  25.786 -0.4185 -0.1074 -1.0998
    72IDQ   C7053590   5.648   7.547  25.770 -0.2393  1.0791 -0.7707
    72IDQ   C7153591   5.716   7.644  25.674 -0.6252  0.5946 -0.0396
    72IDQ   C7253592   5.750   7.585  25.540 -0.7584 -1.4575  0.1529
    11RH     C153593   5.202   5.565   8.292  0.0373  0.2444 -0.1011
    11RH     C253594   5.060   5.539   8.327  0.0902  0.1221  0.0274
    11RH     N153595   5.228   5.703   8.279 -0.1074  0.2644 -0.1837
    11RH     S153596   4.971   5.699   8.341 -0.0536  0.0413  0.0306
    11RH     C353597   5.125   5.791   8.299 -0.1768  0.1730 -0.1378
    11RH     C453598   5.356   5.758   8.224  0.5853  0.7468  0.4977
    11RH     S253599   5.129   5.960   8.290 -0.3476  0.1738 -0.2162
    11RH     O153600   5.289   5.478   8.276  0.1085  0.3214 -0.1338
    11RH     C553601   5.009   5.417   8.345  0.2236  0.0803  0.1235
    21BTZ    C653602   4.875   5.358   8.365  0.2815  0.1423 -0.2116
    21BTZ    C753603   4.762   5.436   8.367  0.4281  0.3551 -0.2327
    21BTZ    C853604   4.861   5.217   8.388  0.0181  0.1755 -0.1578
    21BTZ    C953605   4.632   5.380   8.391  0.3238  0.6098 -0.2024
    21BTZ   C1053606   4.614   5.246   8.414  0.0735  0.6512 -0.1512
    21BTZ   C1153607   4.728   5.160   8.413 -0.0877  0.4344 -0.1271
    21BTZ    N253608   4.963   5.131   8.388 -0.1435 -0.0167 -0.1330
    21BTZ    N353609   4.724   5.029   8.433 -0.3345  0.4503 -0.0777
    21BTZ    S353610   4.892   4.970   8.422 -0.4443  0.1280 -0.0683
    31IDT   C1253611   4.475   5.196   8.432  0.4335  0.0036  0.3035
    31IDT   C1353612   4.361   5.241   8.371  0.5186 -0.3513 -0.1280
    31IDT   C1453613   4.243   5.177   8.422  0.4972 -0.5107 -0.3724
    31IDT   C1553614   4.267   5.085   8.521  0.3957 -0.2790 -0.1294
    31IDT    S453615   4.442   5.070   8.558  0.3187  0.1630  0.4334
    4IDB    C1653616   4.146   5.048   8.593 -0.0936 -0.1416  0.2695
    4IDB    C1753617   4.038   5.100   8.515  0.0985 -0.5420 -0.2799
    51IDQ   C1853618   4.090   5.195   8.396 -0.6079 -0.6996 -0.3418
    4IDB    C1953619   3.906   5.068   8.545  0.0182 -0.3249 -0.3936
    51IDQ   C2053620   4.030   5.143   8.259  0.8604  0.0948  0.4313
    51IDQ   C2153621   4.044   5.355   8.404  0.5063  1.2068 -0.0183
    51IDQ   C2253622   4.076   5.457   8.289  0.0825  0.1315  1.5914
    51IDQ   C2353623   4.120   5.120   8.150 -1.5488 -0.9861  0.3600
    51IDQ   C2453624   3.977   5.576   8.264 -0.2799 -0.4663  0.3016
    51IDQ   C2553625   3.826   5.549   8.262 -1.3279 -0.6552  0.2036
    51IDQ   C2653626   3.762   5.525   8.388  0.6703  0.2104 -1.4459
    51IDQ   C2753627   3.613   5.464   8.390 -0.0658 -0.1062 -0.6975
    51IDQ   C2853628   3.586   5.321   8.355 -1.4303  0.0589  0.8341
    51IDQ   C2953629   3.478   5.264   8.442  0.6551 -0.0305 -0.1641
    51IDQ   C3053630   4.048   5.151   8.021  1.6840  0.5202 -0.7033
    51IDQ   C3153631   4.139   5.139   7.897  0.4200 -0.1402 -0.5373
    51IDQ   C3253632   4.049   5.154   7.770 -0.1755  0.0436 -0.0827
    51IDQ   C3353633   3.996   5.281   7.707 -0.0856 -0.5753  0.2551
    51IDQ   C3453634   4.099   5.402   7.692  0.1491  1.3152  1.0664
    51IDQ   C3553635   4.074   5.516   7.599 -0.6240 -0.8564  0.0873
    4IDB    C3653636   4.122   4.963   8.702 -0.3685  0.4823  0.7100
    4IDB    C3753637   3.987   4.931   8.731 -0.4467  0.6962  0.5858
    11RH    C3853638   5.458   5.765   8.329 -0.7059  1.1411 -0.2035
    4IDB    C3953639   3.882   4.983   8.654 -0.2567  0.2992  0.0471
    62IDT   C4053640   3.757   4.951   8.711 -0.7368 -0.0859 -0.2126
    72IDQ   C4153641   3.926   4.842   8.840  1.5701 -0.2327  0.7665
    62IDT   C4253642   3.772   4.869   8.821 -0.9385 -0.5091 -0.4907
    72IDQ   C4353643   3.974   4.908   8.967  0.4179 -1.1420 -0.4429
    72IDQ   C4453644   3.952   4.690   8.807 -0.2929  0.0691  0.3508
    62IDT    S553645   3.588   5.010   8.694 -0.6122  0.3201 -0.0659
    62IDT   C4553646   3.545   4.917   8.844 -0.8510 -0.1253 -0.4040
    62IDT   C4653647   3.652   4.850   8.897 -1.0033 -0.5320 -0.5987
    82BTZ   C4753648   3.410   4.935   8.899 -0.6602 -0.0138 -0.4413
    82BTZ   C4853649   3.327   5.031   8.848 -0.7535 -0.0278 -0.3178
    82BTZ   C4953650   3.189   5.040   8.887 -0.6602  0.0412 -0.0002
    82BTZ   C5053651   3.134   4.953   8.978 -0.4738  0.1241  0.1934
    82BTZ   C5153652   3.358   4.842   8.995 -0.4649  0.0716 -0.2484
    82BTZ   C5253653   3.217   4.851   9.035 -0.3701  0.1419  0.0744
    92RH    C5353654   2.994   4.954   9.025 -0.0655 -0.0548 -0.0694
    82BTZ    N453655   3.429   4.744   9.052 -0.3591  0.0932 -0.3424
    82BTZ    N553656   3.175   4.761   9.124 -0.1880  0.2198  0.2401
    82BTZ    S653657   3.316   4.659   9.162 -0.1289  0.2065 -0.0152
    92RH    C5453658   2.891   5.035   9.001 -0.0021  0.0399 -0.0226
    92RH     S753659   2.879   5.164   8.870 -0.0361 -0.1133 -0.1711
    92RH    C5553660   2.765   5.033   9.080  0.1090  0.2928  0.1636
    92RH     O253661   2.741   4.958   9.175  0.1558  0.4439  0.2956
    92RH     N653662   2.673   5.130   9.033  0.1572  0.3443  0.1743
    92RH    C5653663   2.710   5.209   8.926  0.0982  0.1639  0.0196
    92RH    C5753664   2.545   5.148   9.112  0.4050 -0.0788  0.0427
    92RH    C5853665   2.411   5.063   9.111 -0.2970  0.1142 -0.3239
    92RH     S853666   2.619   5.330   8.852  0.1366  0.1782 -0.0036
    72IDQ   C5953667   3.885   4.593   8.890 -0.6109 -0.0287 -0.0538
    72IDQ   C6053668   3.976   4.475   8.931  0.3694  0.6599  0.7218
    72IDQ   C6153669   4.059   4.487   9.067 -0.1383  0.2671 -0.0983
    72IDQ   C6253670   4.125   4.353   9.106  0.1431 -0.2566 -1.2179
    72IDQ   C6353671   4.208   4.329   9.238  0.1577  0.4870 -0.2204
    72IDQ   C6453672   4.268   4.186   9.271  1.0378  0.3741 -0.4254
    72IDQ   C6553673   4.332   4.104   9.159  0.7866 -0.4703  0.1949
    72IDQ   C6653674   4.081   4.842   9.051  0.3159  0.1179 -0.4099
    72IDQ   C6753675   4.121   4.909   9.178  0.4365 -0.2563 -0.0780
    72IDQ   C6853676   4.014   4.931   9.292 -0.7286 -0.0885  0.6852
    72IDQ   C6953677   4.064   4.898   9.431  0.0666 -0.8038  0.3852
    72IDQ   C7053678   3.947   4.885   9.531 -0.2607 -0.1121 -1.1445
    72IDQ   C7153679   3.842   4.776   9.499 -0.8591 -0.2548  0.5027
    72IDQ   C7253680   3.702   4.801   9.578 -0.3748  0.4838 -0.9427
    11RH     C153681   6.277   1.761   2.560 -0.1440 -0.0335 -0.1652
    11RH     C253682   6.214   1.662   2.470  0.0088 -0.0785 -0.2237
    11RH     N153683   6.385   1.704   2.632 -0.2105  0.0252 -0.0185
    11RH     S153684   6.299   1.500   2.485  0.0550 -0.0409 -0.0820
    11RH     C353685   6.415   1.571   2.611 -0.1297  0.0326  0.0477
    11RH     C453686   6.440   1.762   2.756  0.0159 -0.8658  0.6578
    11RH     S253687   6.537   1.480   2.683 -0.1826  0.0971  0.2200
    11RH     O153688   6.243   1.879   2.573 -0.2080 -0.0446 -0.2337
    11RH     C553689   6.110   1.690   2.391  0.0963 -0.1374 -0.3600
    21BTZ    C653690   6.027   1.616   2.298 -0.4115 -0.1360 -0.0079
    21BTZ    C753691   6.048   1.488   2.255 -0.4121 -0.1478  0.0277
    21BTZ    C853692   5.916   1.689   2.242 -0.3761 -0.1307 -0.0713
    21BTZ    C953693   5.963   1.425   2.157 -0.3784 -0.1548  0.0029
    21BTZ   C1053694   5.857   1.491   2.102 -0.3439 -0.1501 -0.0573
    21BTZ   C1153695   5.830   1.625   2.143 -0.3419 -0.1378 -0.0965
    21BTZ    N253696   5.885   1.815   2.275 -0.3718 -0.1193 -0.1104
    21BTZ    N353697   5.729   1.700   2.096 -0.3102 -0.1322 -0.1558
    21BTZ    S353698   5.741   1.858   2.178 -0.3229 -0.1172 -0.1827
    31IDT   C1253699   5.783   1.434   1.980 -0.1499  0.3409 -0.4325
    31IDT   C1353700   5.651   1.450   1.948  0.0359  1.0147 -0.9121
    31IDT   C1453701   5.623   1.421   1.811  0.3545  0.9959 -0.9748
    31IDT   C1553702   5.733   1.382   1.738  0.4135  0.3094 -0.5446
    31IDT    S453703   5.883   1.380   1.837  0.0671 -0.3728 -0.0218
    4IDB    C1653704   5.698   1.354   1.599 -0.1340 -0.6064  0.4787
    4IDB    C1753705   5.563   1.393   1.578 -0.1137 -0.5935  0.3704
    51IDQ   C1853706   5.508   1.431   1.717  0.8071  0.8248 -0.2201
    4IDB    C1953707   5.506   1.390   1.451  0.1389 -0.1109  0.2389
    51IDQ   C2053708   5.441   1.572   1.700  0.6966  0.9132 -0.2449
    51IDQ   C2153709   5.393   1.327   1.770  0.2212  0.1087  0.2238
    51IDQ   C2253710   5.315   1.218   1.683  0.7089 -0.0641  0.0425
    51IDQ   C2353711   5.497   1.700   1.753  0.4209 -0.7364  0.0269
    51IDQ   C2453712   5.192   1.158   1.767  0.2829  0.2629  0.1610
    51IDQ   C2553713   5.110   1.061   1.679  0.3834 -0.1263 -0.3993
    51IDQ   C2653714   4.984   1.039   1.761  0.5427 -0.7239 -0.0545
    51IDQ   C2753715   4.866   1.142   1.746 -0.4827  0.3759 -0.0302
    51IDQ   C2853716   4.858   1.288   1.772 -0.1376 -0.1732  0.4706
    51IDQ   C2953717   4.843   1.311   1.923 -0.3850 -0.1993  0.2808
    51IDQ   C3053718   5.401   1.816   1.820 -0.8084 -0.0978  0.3659
    51IDQ   C3153719   5.359   1.772   1.968  0.0178 -0.7316 -0.7468
    51IDQ   C3253720   5.263   1.860   2.060 -1.4251 -0.4504  0.2528
    51IDQ   C3353721   5.229   2.005   2.017 -0.3663  0.1948 -0.9390
    51IDQ   C3453722   5.211   2.070   2.147  0.3765 -0.0282 -0.6145
    51IDQ   C3553723   5.163   2.218   2.133 -0.1399 -0.7568  0.5732
    4IDB    C3653724   5.778   1.310   1.492  0.0999 -0.1333  0.4559
    4IDB    C3753725   5.719   1.307   1.363  0.3563  0.3562  0.3209
    11RH    C3853726   6.556   1.861   2.744 -0.7009  0.0452  0.0494
    4IDB    C3953727   5.586   1.346   1.344  0.3727  0.3622  0.2162
    62IDT   C4053728   5.552   1.320   1.206  0.0677  0.2473  0.5390
    72IDQ   C4153729   5.779   1.258   1.233  0.2533  0.2405  0.9095
    62IDT   C4253730   5.660   1.262   1.143 -0.0384 -0.2895  0.8354
    72IDQ   C4353731   5.853   1.124   1.247 -0.1858  0.1866 -1.0058
    72IDQ   C4453732   5.883   1.363   1.169  0.0347 -0.2550 -0.0160
    62IDT    S553733   5.402   1.309   1.107  0.0910  0.1823  0.5109
    62IDT   C4553734   5.499   1.223   0.979 -0.0510 -0.6057  0.9213
    62IDT   C4653735   5.630   1.208   1.015 -0.1055 -0.7725  1.0520
    82BTZ   C4753736   5.435   1.206   0.847 -0.3802 -0.2437 -0.1754
    82BTZ   C4853737   5.308   1.257   0.836 -0.3595 -0.2256 -0.3421
    82BTZ   C4953738   5.236   1.257   0.711 -0.1454 -0.0986 -0.4663
    82BTZ   C5053739   5.291   1.205   0.597  0.0474  0.0100 -0.4236
    82BTZ   C5153740   5.497   1.151   0.730 -0.1831 -0.1329 -0.1243
    82BTZ   C5253741   5.424   1.151   0.603  0.0345 -0.0039 -0.2506
    92RH    C5353742   5.228   1.195   0.463 -0.2947 -0.6336  0.4513
    82BTZ    N453743   5.619   1.098   0.728 -0.1820 -0.1383  0.0342
    82BTZ    N553744   5.488   1.097   0.498  0.2103  0.0945 -0.1935
    82BTZ    S653745   5.647   1.044   0.559  0.1031  0.0249  0.0286
    92RH    C5453746   5.109   1.237   0.418 -0.0730 -0.3272  0.1400
    92RH     S753747   4.986   1.336   0.512  0.0187  0.1622 -0.2496
    92RH    C5553748   5.058   1.209   0.282  0.1384 -0.3394  0.0620
    92RH     O253749   5.117   1.145   0.194  0.1361 -0.6284  0.2708
    92RH     N653750   4.930   1.266   0.263  0.3491  0.0247 -0.2863
    92RH    C5653751   4.873   1.336   0.366  0.3324  0.3270 -0.4967
    92RH    C5753752   4.854   1.224   0.138 -0.6344  0.4989 -0.3937
    92RH    C5853753   4.755   1.106   0.160  0.8686 -0.1404 -1.0860
    92RH     S853754   4.723   1.413   0.369  0.5546  0.7861 -0.9180
    72IDQ   C5953755   6.029   1.390   1.214 -1.0434 -0.1872  1.1476
    72IDQ   C6053756   6.080   1.386   1.362  0.2115  1.4108  0.8049
    72IDQ   C6153757   6.220   1.425   1.389 -0.8751 -0.0092  0.0668
    72IDQ   C6253758   6.352   1.359   1.341 -0.4410 -0.1237  0.6572
    72IDQ   C6353759   6.408   1.231   1.402  0.5348  0.3829 -0.5222
    72IDQ   C6453760   6.428   1.232   1.551  0.5098 -0.0592  0.3508
    72IDQ   C6553761   6.528   1.131   1.575 -0.0454  0.2182 -0.4717
    72IDQ   C6653762   5.778   0.988   1.257 -0.2986  0.4891  0.5856
    72IDQ   C6753763   5.843   0.877   1.170  0.2502  0.1392 -0.7178
    72IDQ   C6853764   5.781   0.744   1.178 -0.1985  0.9518  0.3502
    72IDQ   C6953765   5.809   0.674   1.314 -0.4682 -0.6398  0.1317
    72IDQ   C7053766   5.771   0.524   1.303 -0.7359  0.2057  0.2448
    72IDQ   C7153767   5.811   0.431   1.422 -0.1350 -0.7212 -0.1840
    72IDQ   C7253768   5.837   0.286   1.389 -0.3088  0.4982  0.0292
    11RH     C153769   1.880   0.603  23.761 -0.0731  0.4734  0.1712
    11RH     C253770   1.829   0.474  23.814  0.2417  0.3034  0.0682
    11RH     N153771   1.801   0.651  23.655 -0.0528  0.2402  0.0492
    11RH     S153772   1.679   0.425  23.720  0.5440 -0.1520 -0.1825
    11RH     C353773   1.691   0.577  23.616  0.2399 -0.0958 -0.1392
    11RH     C453774   1.835   0.775  23.580  0.0887 -0.6062 -0.4190
    11RH     S253775   1.581   0.611  23.493  0.3281 -0.4221 -0.3119
    11RH     O153776   1.980   0.663  23.804 -0.3263  0.7809  0.3428
    11RH     C553777   1.886   0.407  23.915  0.2881  0.4668  0.1515
    21BTZ    C653778   1.843   0.283  23.982 -0.5566 -0.2278  0.2210
    21BTZ    C753779   1.724   0.219  23.956 -0.6308 -0.2060  0.4973
    21BTZ    C853780   1.936   0.222  24.072 -0.3401 -0.2623 -0.0229
    21BTZ    C953781   1.692   0.092  24.016 -0.4970 -0.2170  0.5465
    21BTZ   C1053782   1.778   0.030  24.103 -0.2892 -0.2497  0.3194
    21BTZ   C1153783   1.903   0.093  24.134 -0.2041 -0.2734  0.0272
    21BTZ    N253784   2.054   0.274  24.105 -0.2496 -0.2858 -0.3023
    21BTZ    N353785   1.994   0.042  24.217 -0.0043 -0.3059 -0.2117
    21BTZ    S353786   2.130   0.159  24.219  0.0189 -0.3240 -0.5159
    31IDT   C1253787   1.734  -0.095  24.167  0.0371 -0.1159  0.0629
    31IDT   C1353788   1.805  -0.181  24.247 -0.1721  0.3200  0.7305
    31IDT   C1453789   1.725  -0.287  24.299 -0.2609  0.4852  0.9365
    31IDT   C1553790   1.593  -0.283  24.259 -0.1204  0.1770  0.4273
    31IDT    S453791   1.560  -0.143  24.151  0.1377 -0.3509 -0.3584
    4IDB    C1653792   1.523  -0.395  24.310 -0.0332 -0.4683 -0.4709
    4IDB    C1753793   1.610  -0.473  24.393 -0.2005 -0.2254 -0.0601
    51IDQ   C1853794   1.749  -0.407  24.388 -1.2325 -0.1704 -0.8180
    4IDB    C1953795   1.569  -0.594  24.446 -0.2140 -0.1987 -0.0091
    51IDQ   C2053796   1.790  -0.370  24.544  0.8136  0.1150  0.7670
    51IDQ   C2153797   1.864  -0.492  24.336 -0.2518  0.7436 -0.1088
    51IDQ   C2253798   1.843  -0.632  24.294  0.3372  0.8676  0.5004
    51IDQ   C2353799   1.833  -0.235  24.617  0.4623  0.7921  0.7433
    51IDQ   C2453800   1.906  -0.675  24.158 -0.2401  0.7634  0.5776
    51IDQ   C2553801   2.048  -0.633  24.108 -0.7118  0.1486  1.4111
    51IDQ   C2653802   2.058  -0.654  23.957 -0.1385 -0.3824  0.0847
    51IDQ   C2753803   2.191  -0.575  23.916 -1.0146  0.4939  1.0556
    51IDQ   C2853804   2.219  -0.558  23.769 -0.1955  0.2458  0.0194
    51IDQ   C2953805   2.114  -0.480  23.695  0.2332 -0.4651  0.1354
    51IDQ   C3053806   1.967  -0.177  24.587 -0.3257  0.2071 -0.7071
    51IDQ   C3153807   1.992  -0.073  24.690  0.3243 -0.6569  0.1514
    51IDQ   C3253808   2.106   0.025  24.641  0.1372 -0.4013  0.9368
    51IDQ   C3353809   2.081   0.169  24.698  0.1015  0.0630 -0.2543
    51IDQ   C3453810   2.168   0.284  24.658  0.8948 -0.0591  0.6283
    51IDQ   C3553811   2.147   0.326  24.513  0.4969 -0.1517  0.2437
    4IDB    C3653812   1.394  -0.439  24.280  0.1226 -0.6870 -0.8345
    4IDB    C3753813   1.353  -0.564  24.335  0.1062 -0.6560 -0.7763
    11RH    C3853814   1.763   0.911  23.618 -0.7752  0.0622  0.2443
    4IDB    C3953815   1.439  -0.638  24.416 -0.0583 -0.4175 -0.3733
    62IDT   C4053816   1.367  -0.744  24.479 -0.3372  0.0306  0.0738
    72IDQ   C4153817   1.218  -0.639  24.326 -0.0510  0.1700 -0.3585
    62IDT   C4253818   1.237  -0.745  24.433 -0.2863 -0.0846 -0.0696
    72IDQ   C4353819   1.185  -0.685  24.169  0.9529 -0.5145  0.3786
    72IDQ   C4453820   1.114  -0.539  24.368  0.4188 -0.7284  0.6844
    62IDT    S553821   1.402  -0.885  24.585 -0.3409  0.0839  0.1461
    62IDT   C4553822   1.230  -0.941  24.561 -0.2700 -0.0592 -0.0303
    62IDT   C4653823   1.159  -0.856  24.479 -0.2483 -0.1355 -0.1283
    82BTZ   C4753824   1.192  -1.072  24.621 -0.0100 -0.4421 -0.9534
    82BTZ   C4853825   1.286  -1.164  24.662  0.0120 -0.3741 -0.8488
    82BTZ   C4953826   1.249  -1.292  24.716  0.0345 -0.1549 -0.2990
    82BTZ   C5053827   1.117  -1.329  24.729  0.0350 -0.0042  0.1454
    82BTZ   C5153828   1.054  -1.106  24.634 -0.0104 -0.2904 -0.5016
    82BTZ   C5253829   1.015  -1.236  24.689  0.0125 -0.0676  0.0577
    92RH    C5353830   1.062  -1.458  24.780  0.1570  0.3276  0.2164
    82BTZ    N453831   0.953  -1.025  24.598 -0.0306 -0.3375 -0.5512
    82BTZ    N553832   0.884  -1.261  24.697  0.0107  0.0644  0.4568
    82BTZ    S653833   0.802  -1.115  24.634 -0.0210 -0.0939  0.1291
    92RH    C5453834   1.125  -1.570  24.817  0.0402  0.1894  0.0057
    92RH     S753835   1.306  -1.594  24.832  0.0272 -0.1148 -0.3095
    92RH    C5553836   1.055  -1.696  24.854 -0.1011  0.2652 -0.0038
    92RH     O253837   0.932  -1.712  24.854 -0.1278  0.4616  0.1769
    92RH     N653838   1.146  -1.797  24.889 -0.2050  0.0842 -0.2502
    92RH    C5653839   1.281  -1.769  24.885 -0.1642 -0.1271 -0.4387
    92RH    C5753840   1.098  -1.923  24.964 -0.7648  0.2373 -0.5056
    92RH    C5853841   1.079  -1.919  25.112  0.0847 -0.2024 -0.4140
    92RH     S853842   1.409  -1.872  24.923 -0.2665 -0.3691 -0.7453
    72IDQ   C5953843   0.968  -0.574  24.399 -1.0287 -0.5590 -0.0227
    72IDQ   C6053844   0.897  -0.473  24.489  0.0708 -0.4621  0.0136
    72IDQ   C6153845   0.740  -0.470  24.470  0.2873 -0.7403 -1.2998
    72IDQ   C6253846   0.676  -0.427  24.603  1.1468 -0.0026 -0.7505
    72IDQ   C6353847   0.736  -0.310  24.677 -0.4045  0.7603  0.1089
    72IDQ   C6453848   0.691  -0.316  24.817 -0.5492 -0.6160  0.8141
    72IDQ   C6553849   0.597  -0.204  24.844  0.3436 -0.3707  0.1261
    72IDQ   C6653850   1.280  -0.777  24.089 -1.4235  0.5481 -0.2336
    72IDQ   C6753851   1.324  -0.901  24.163 -0.3403  0.7616  0.5490
    72IDQ   C6853852   1.394  -1.011  24.079  0.2205 -0.8336 -0.1572
    72IDQ   C6953853   1.537  -0.992  24.039  0.4712  0.7115  0.2219
    72IDQ   C7053854   1.603  -1.114  23.963 -0.4221 -0.8462  1.1917
    72IDQ   C7153855   1.744  -1.111  23.926  0.1332 -0.6357 -0.0253
    72IDQ   C7253856   1.767  -1.025  23.800 -0.2273 -0.4674 -0.1206
    11RH     C153857   6.143   6.627  27.782  0.3420 -0.4170 -0.1245
    11RH     C253858   6.187   6.766  27.809  0.2208 -0.3276 -0.3839
    11RH     N153859   6.003   6.618  27.773  0.3436 -0.5784  0.0130
    11RH     S153860   6.040   6.876  27.821  0.1163 -0.4616 -0.4312
    11RH     C353861   5.928   6.732  27.790  0.2382 -0.6292 -0.1054
    11RH     C453862   5.938   6.482  27.754  0.3867 -0.0545  0.3526
    11RH     S253863   5.761   6.748  27.784  0.2158 -0.8138  0.0148
    11RH     O153864   6.219   6.529  27.769  0.4327 -0.3605 -0.0334
    11RH     C553865   6.315   6.802  27.822  0.1951 -0.1727 -0.5523
    21BTZ    C653866   6.388   6.932  27.837  0.0558 -0.1598  0.1257
    21BTZ    C753867   6.322   7.052  27.839 -0.0362 -0.2139  0.3676
    21BTZ    C853868   6.531   6.933  27.839  0.0561 -0.0540  0.0982
    21BTZ    C953869   6.392   7.178  27.844 -0.1320 -0.1671  0.5941
    21BTZ   C1053870   6.529   7.183  27.846 -0.1356 -0.0664  0.5782
    21BTZ   C1153871   6.603   7.060  27.844 -0.0412 -0.0064  0.3281
    21BTZ    N253872   6.606   6.823  27.838  0.1408  0.0066 -0.1273
    21BTZ    N353873   6.736   7.053  27.846 -0.0347  0.0923  0.2875
    21BTZ    S353874   6.776   6.878  27.842  0.0989  0.1293 -0.0536
    31IDT   C1253875   6.594   7.312  27.848 -0.3931 -0.1792  0.3149
    31IDT   C1353876   6.725   7.343  27.823 -0.2171 -0.4609  0.8392
    31IDT   C1453877   6.752   7.483  27.835  0.0738 -0.5375  1.0986
    31IDT   C1553878   6.642   7.559  27.870  0.1214 -0.3156  0.7732
    31IDT    S453879   6.495   7.459  27.890 -0.2013  0.0108  0.1081
    4IDB    C1653880   6.678   7.699  27.885 -0.0456  0.7439  0.0576
    4IDB    C1753881   6.820   7.710  27.877  0.0873  0.1715  1.1997
    51IDQ   C1853882   6.879   7.571  27.836 -0.5799  0.1411 -0.3378
    4IDB    C1953883   6.883   7.833  27.893  0.4103  0.0103  1.1828
    51IDQ   C2053884   6.952   7.593  27.696  0.2293  0.1307  0.4094
    51IDQ   C2153885   6.988   7.503  27.939  0.1947 -0.0469 -0.6648
    51IDQ   C2253886   7.007   7.567  28.075 -0.2505  0.7614 -0.0738
    51IDQ   C2353887   6.917   7.506  27.580 -1.8046  0.4246  0.6525
    51IDQ   C2453888   7.057   7.476  28.177 -0.4978 -0.2913 -0.0462
    51IDQ   C2553889   7.111   7.526  28.317 -0.5531  0.3747  0.9304
    51IDQ   C2653890   7.152   7.423  28.412  0.6792 -0.6938  0.1823
    51IDQ   C2753891   7.211   7.486  28.539 -0.2701 -0.3382 -0.0303
    51IDQ   C2853892   7.334   7.579  28.537 -0.5811  0.4218 -0.4644
    51IDQ   C2953893   7.359   7.615  28.682  0.7140  0.7064  0.1732
    51IDQ   C3053894   7.023   7.390  27.560  0.1220 -0.1696 -0.6854
    51IDQ   C3153895   6.953   7.291  27.469 -0.9481 -0.3977 -0.0755
    51IDQ   C3253896   7.039   7.163  27.459 -0.4778  1.2384  0.2806
    51IDQ   C3353897   6.984   7.027  27.405  0.4224 -0.6046 -0.1525
    51IDQ   C3453898   7.095   6.922  27.396  0.3904  0.7441 -0.2313
    51IDQ   C3553899   7.075   6.795  27.303 -0.2875  0.1514 -0.3171
    4IDB    C3653900   6.597   7.811  27.909  0.1452  1.1607 -1.1163
    4IDB    C3753901   6.663   7.936  27.925  0.4747  0.9881 -1.1153
    11RH    C3853902   5.928   6.424  27.613 -0.6036 -0.0498  0.2902
    4IDB    C3953903   6.802   7.945  27.917  0.6011  0.4271  0.0089
    62IDT   C4053904   6.837   8.081  27.926  0.2925 -0.2121  0.6122
    72IDQ   C4153905   6.594   8.071  27.956 -0.2109  0.3391  0.5997
    62IDT   C4253906   6.726   8.160  27.946  0.3471 -0.2174  0.9475
    72IDQ   C4353907   6.521   8.086  28.090 -0.7735 -0.0465 -0.6570
    72IDQ   C4453908   6.508   8.107  27.836 -0.6041 -0.2250  0.0324
    62IDT    S553909   6.988   8.179  27.915  0.2283 -0.1816 -0.1206
    62IDT   C4553910   6.887   8.328  27.940  0.2813 -0.1773  0.0742
    62IDT   C4653911   6.754   8.300  27.954  0.3409 -0.1977  0.6437
    82BTZ   C4753912   6.961   8.455  27.960 -0.0390 -0.3686  0.0362
    82BTZ   C4853913   7.056   8.488  27.867 -0.1186 -0.3746 -0.0472
    82BTZ   C4953914   7.137   8.607  27.881 -0.1755 -0.3195 -0.1760
    82BTZ   C5053915   7.124   8.691  27.988 -0.1532 -0.2584 -0.2211
    82BTZ   C5153916   6.943   8.540  28.074 -0.0125 -0.3057 -0.0067
    82BTZ   C5253917   7.026   8.660  28.088 -0.0705 -0.2497 -0.1373
    92RH    C5353918   7.203   8.811  28.011  0.0664  0.6163  0.0706
    82BTZ    N453919   6.854   8.517  28.171  0.0632 -0.2937  0.0663
    82BTZ    N553920   7.003   8.734  28.197 -0.0414 -0.1926 -0.1702
    82BTZ    S653921   6.872   8.652  28.287  0.0634 -0.2085 -0.0321
    92RH    C5453922   7.291   8.875  27.932  0.2162  0.4625  0.1121
    92RH     S753923   7.351   8.820  27.768  0.4241  0.2094  0.2714
    92RH    C5553924   7.354   9.004  27.969  0.2365  0.4749  0.0334
    92RH     O253925   7.335   9.067  28.074  0.1199  0.6259 -0.0787
    92RH     N653926   7.443   9.048  27.868  0.4083  0.2907  0.1018
    92RH    C5653927   7.458   8.970  27.755  0.5279  0.1322  0.2255
    92RH    C5753928   7.506   9.176  27.895 -0.3596  0.0396  0.2229
    92RH    C5853929   7.627   9.173  27.982 -0.9599  0.3082 -0.8234
    92RH     S853930   7.556   9.000  27.622  0.7392 -0.1014  0.3271
    72IDQ   C5953931   6.441   8.240  27.807  0.1150 -0.1927 -0.4755
    72IDQ   C6053932   6.344   8.283  27.909  0.2420 -0.0913  0.8237
    72IDQ   C6153933   6.259   8.405  27.847 -1.1872  0.8449  0.1507
    72IDQ   C6253934   6.180   8.486  27.944  0.1247 -0.6464  0.2398
    72IDQ   C6353935   6.078   8.419  28.032  0.3765  0.9283  0.2637
    72IDQ   C6453936   5.999   8.518  28.126  1.0636 -0.1191 -0.3099
    72IDQ   C6553937   5.907   8.627  28.068 -0.1946  0.7337  0.5083
    72IDQ   C6653938   6.587   8.045  28.231 -0.1110 -0.3561  0.3218
    72IDQ   C6753939   6.631   7.901  28.251  1.1321 -0.8766  1.1239
    72IDQ   C6853940   6.730   7.864  28.350  0.1875  0.1282 -0.1657
    72IDQ   C6953941   6.757   7.713  28.361  0.8973  1.0240  0.5582
    72IDQ   C7053942   6.822   7.654  28.490  0.1813  0.5906 -0.2373
    72IDQ   C7153943   6.751   7.685  28.626  0.7597  0.0608  0.5219
    72IDQ   C7253944   6.611   7.618  28.648  0.0083  0.5754  0.3062
    11RH     C153945   2.823   1.235  23.804 -0.0027  0.0737 -0.4497
    11RH     C253946   2.753   1.349  23.869  0.0575 -0.1144 -0.0491
    11RH     N153947   2.881   1.274  23.681 -0.0197  0.4634 -0.3377
    11RH     S153948   2.768   1.499  23.764  0.0881  0.2333  0.4474
    11RH     C353949   2.867   1.404  23.640  0.0198  0.6104  0.1035
    11RH     C453950   2.972   1.179  23.602  0.5082 -0.3492 -0.5591
    11RH     S253951   2.926   1.475  23.499  0.0106  1.0616  0.3233
    11RH     O153952   2.831   1.120  23.849 -0.0353 -0.0838 -0.8378
    11RH     C553953   2.689   1.339  23.986  0.0841 -0.4830 -0.0635
    21BTZ    C653954   2.642   1.442  24.082  0.4953  0.0892  0.1066
    21BTZ    C753955   2.659   1.576  24.059  0.0672  0.1313  0.0114
    21BTZ    C853956   2.599   1.399  24.212  0.4016  0.0677  0.0696
    21BTZ    C953957   2.636   1.674  24.162 -0.4711  0.1544 -0.1240
    21BTZ   C1053958   2.596   1.638  24.288 -0.5804  0.1352 -0.1641
    21BTZ   C1153959   2.576   1.499  24.317 -0.1456  0.0912 -0.0682
    21BTZ    N253960   2.579   1.272  24.247  0.7855  0.0268  0.1526
    21BTZ    N353961   2.537   1.452  24.436 -0.2015  0.0691 -0.0954
    21BTZ    S353962   2.528   1.274  24.418  0.4570  0.0163  0.0575
    31IDT   C1253963   2.603   1.739  24.389  0.2689  0.3324 -0.5128
    31IDT   C1353964   2.683   1.736  24.500  0.9438  0.5983 -0.9723
    31IDT   C1453965   2.682   1.859  24.573  0.9244  0.5835 -0.9484
    31IDT   C1553966   2.602   1.956  24.518  0.2364  0.3071 -0.4702
    31IDT    S453967   2.521   1.900  24.368 -0.4466  0.0415 -0.0091
    4IDB    C1653968   2.608   2.076  24.607  0.2923  0.9634 -0.3365
    4IDB    C1753969   2.716   2.056  24.698  0.3793  0.6070 -0.5131
    51IDQ   C1853970   2.743   1.904  24.710  0.2602 -0.1038  0.6830
    4IDB    C1953971   2.765   2.161  24.775  0.2997  0.2619  0.0190
    51IDQ   C2053972   2.905   1.878  24.721 -0.7244  0.0813  0.0859
    51IDQ   C2153973   2.668   1.826  24.832  0.1769 -0.3687  0.3358
    51IDQ   C2253974   2.598   1.913  24.933 -0.0931  0.1640  1.0452
    51IDQ   C2353975   2.976   1.775  24.631  0.2687 -0.4453  0.4473
    51IDQ   C2453976   2.462   1.961  24.897  0.6060 -0.3307 -0.0815
    51IDQ   C2553977   2.365   1.875  24.818  0.4378  0.4934  0.8774
    51IDQ   C2653978   2.217   1.878  24.858  0.2130 -0.2304  0.0404
    51IDQ   C2753979   2.127   1.940  24.746  0.0131  0.1218 -0.0524
    51IDQ   C2853980   2.073   1.854  24.632 -0.1971  0.1005 -0.4729
    51IDQ   C2953981   2.164   1.779  24.539 -0.3412 -0.2916 -0.0621
    51IDQ   C3053982   3.124   1.745  24.640 -0.9354  0.3770  0.2112
    51IDQ   C3153983   3.215   1.875  24.640  0.2826 -0.4096  0.4788
    51IDQ   C3253984   3.346   1.848  24.569 -0.1375  0.3244 -0.0408
    51IDQ   C3353985   3.437   1.965  24.595 -0.7024 -0.1118  0.6394
    51IDQ   C3453986   3.560   1.959  24.686 -0.9158  0.0432  0.5467
    51IDQ   C3553987   3.678   1.864  24.655 -0.1187 -0.8776  0.3557
    4IDB    C3653988   2.548   2.202  24.592  0.1242  0.9765  0.3791
    4IDB    C3753989   2.600   2.308  24.671  0.0451  0.6209  0.9151
    11RH    C3853990   3.120   1.206  23.613  0.2248 -0.2748 -0.3872
    4IDB    C3953991   2.705   2.287  24.760  0.1317  0.2750  0.7330
    62IDT   C4053992   2.721   2.408  24.831  0.2521  0.0736 -0.1786
    72IDQ   C4153993   2.543   2.449  24.683  0.2723  0.2988  0.0283
    62IDT   C4253994   2.642   2.509  24.780  0.4110  0.1790 -0.2179
    72IDQ   C4353995   2.398   2.446  24.727  0.0378 -0.1015 -0.4483
    72IDQ   C4453996   2.558   2.534  24.550 -0.3204 -0.7668  0.1350
    62IDT    S553997   2.823   2.465  24.968  0.1627 -0.0952 -0.0414
    62IDT   C4553998   2.750   2.630  24.948  0.3542 -0.0103 -0.0444
    62IDT   C4653999   2.658   2.635  24.846  0.4690  0.1317 -0.1421
    82BTZ   C4754000   2.766   2.729  25.052  0.2699 -0.2409 -0.1616
    82BTZ   C4854001   2.773   2.678  25.179  0.2863 -0.3438 -0.2036
    82BTZ   C4954002   2.807   2.761  25.292  0.0985 -0.3895 -0.1116
    82BTZ   C5054003   2.835   2.894  25.277 -0.1056 -0.3321  0.0226
    82BTZ   C5154004   2.793   2.868  25.032  0.0598 -0.1776 -0.0224
    82BTZ   C5254005   2.829   2.952  25.146 -0.1312 -0.2240  0.0715
    92RH    C5354006   2.882   2.972  25.392  0.2326  0.0333 -0.0182
    82BTZ    N454007   2.790   2.929  24.913  0.0231 -0.0764  0.0310
    82BTZ    N554008   2.853   3.081  25.120 -0.3213 -0.1602  0.1998
    82BTZ    S654009   2.832   3.100  24.943 -0.2630 -0.0353  0.2061
    92RH    C5454010   2.903   2.941  25.521 -0.0644  0.0144  0.0281
    92RH     S754011   2.869   2.780  25.602 -0.1214 -0.0429 -0.1092
    92RH    C5554012   2.960   3.036  25.619 -0.4038  0.0378  0.2022
    92RH     O254013   2.994   3.153  25.596 -0.4529  0.0770  0.3242
    92RH     N654014   2.971   2.977  25.747 -0.6730  0.0099  0.2137
    92RH    C5654015   2.931   2.846  25.763 -0.5907 -0.0329  0.0710
    92RH    C5754016   3.040   3.054  25.859 -0.9059 -0.0610 -0.3985
    92RH    C5854017   3.185   3.041  25.873 -0.5043  0.2043  0.5221
    92RH     S854018   2.933   2.753  25.903 -0.8609 -0.0727  0.0515
    72IDQ   C5954019   2.641   2.492  24.437 -1.3024  0.4447  0.0855
    72IDQ   C6054020   2.690   2.594  24.336  0.0346 -1.1765  0.4875
    72IDQ   C6154021   2.803   2.690  24.366  0.5155  0.5786 -0.1791
    72IDQ   C6254022   2.841   2.803  24.266 -0.2800  0.0818 -0.7954
    72IDQ   C6354023   2.729   2.891  24.194 -0.1074 -0.9808 -0.1655
    72IDQ   C6454024   2.766   2.937  24.049 -0.0881  0.0425 -0.5791
    72IDQ   C6554025   2.767   2.829  23.939 -0.4684  0.4586  1.1650
    72IDQ   C6654026   2.317   2.581  24.741 -0.0112  0.2991  0.4683
    72IDQ   C6754027   2.241   2.590  24.866 -0.7156 -0.6320  0.3986
    72IDQ   C6854028   2.161   2.713  24.841 -1.3747 -0.0079 -0.3978
    72IDQ   C6954029   2.032   2.706  24.925  0.4093 -0.1860 -0.4487
    72IDQ   C7054030   1.962   2.834  24.949  0.1843  0.2858 -0.1088
    72IDQ   C7154031   1.948   2.869  25.090 -0.6329 -0.2157 -0.3517
    72IDQ   C7254032   1.914   3.006  25.138 -0.2562 -0.0363  0.5521
    11RH     C154033   7.079   3.597  25.526  0.4716  0.0156 -0.2980
    11RH     C254034   7.178   3.492  25.492  0.3266 -0.1490 -0.2136
    11RH     N154035   7.067   3.613  25.666  0.2853 -0.0538 -0.3054
    11RH     S154036   7.249   3.420  25.645 -0.0452 -0.3840 -0.1492
    11RH     C354037   7.144   3.533  25.748  0.0089 -0.2536 -0.2365
    11RH     C454038   6.972   3.715  25.725  0.3482  0.2271  1.1234
    11RH     S254039   7.149   3.532  25.916 -0.2538 -0.3732 -0.2289
    11RH     O154040   7.014   3.664  25.444  0.7243  0.1928 -0.3562
    11RH     C554041   7.208   3.457  25.366  0.4556 -0.1235 -0.1898
    21BTZ    C654042   7.290   3.361  25.304 -0.3168  0.0444  0.0642
    21BTZ    C754043   7.340   3.257  25.378 -0.3439 -0.0386 -0.0339
    21BTZ    C854044   7.314   3.362  25.163 -0.3344  0.1612  0.0620
    21BTZ    C954045   7.415   3.150  25.317 -0.3895 -0.0115 -0.1383
    21BTZ   C1054046   7.440   3.147  25.183 -0.4076  0.0988 -0.1440
    21BTZ   C1154047   7.390   3.254  25.101 -0.3806  0.1887 -0.0439
    21BTZ    N254048   7.270   3.458  25.080 -0.3111  0.2494  0.1521
    21BTZ    N354049   7.407   3.262  24.969 -0.3945  0.2992 -0.0391
    21BTZ    S354050   7.326   3.412  24.917 -0.3483  0.3741  0.1039
    31IDT   C1254051   7.513   3.029  25.128  0.3340  0.1241  0.1996
    31IDT   C1354052   7.617   3.044  25.040  0.3835  0.4382  0.3085
    31IDT   C1454053   7.704   2.931  25.039  0.4890  0.5223  0.0911
    31IDT   C1554054   7.668   2.830  25.125  0.5205  0.2734 -0.1837
    31IDT    S454055   7.518   2.870  25.216  0.4182 -0.0900 -0.1888
    4IDB    C1654056   7.746   2.708  25.100  0.0214  0.0239 -0.2152
    4IDB    C1754057   7.853   2.742  25.013 -0.1290 -0.3217 -0.5393
    51IDQ   C1854058   7.829   2.888  24.950  0.0763  0.5436  0.3413
    4IDB    C1954059   7.948   2.646  24.976 -0.2081 -0.4772 -0.3445
    51IDQ   C2054060   7.966   2.961  24.997  0.1950 -0.1185 -0.0121
    51IDQ   C2154061   7.799   2.895  24.798  0.4033  0.4854  0.1873
    51IDQ   C2254062   7.773   2.779  24.708  0.5075 -0.3007  0.2397
    51IDQ   C2354063   7.959   3.091  25.088  0.3469  0.0785 -0.3478
    51IDQ   C2454064   7.760   2.821  24.565  0.3050 -0.7837 -0.8090
    51IDQ   C2554065   7.624   2.880  24.518  0.0214  0.0721  0.2383
    51IDQ   C2654066   7.498   2.790  24.534  0.8047  0.3085 -0.3555
    51IDQ   C2754067   7.469   2.655  24.462 -0.3439 -0.9814  0.2686
    51IDQ   C2854068   7.468   2.681  24.307  0.0503  0.4766 -0.1450
    51IDQ   C2954069   7.477   2.557  24.221  0.8683  0.5423  0.6196
    51IDQ   C3054070   7.899   3.216  25.030 -0.9863  0.0349  0.3879
    51IDQ   C3154071   7.880   3.331  25.123 -0.3573  0.1086  0.0318
    51IDQ   C3254072   7.765   3.322  25.220  0.2350 -0.7971  0.0555
    51IDQ   C3354073   7.787   3.420  25.323  0.8639 -0.1699  0.0179
    51IDQ   C3454074   7.664   3.435  25.415  1.1897  0.0274 -1.0100
    51IDQ   C3554075   7.679   3.535  25.534 -0.4250 -0.6194 -0.0203
    4IDB    C3654076   7.731   2.578  25.151  0.0938  0.2170  0.3095
    4IDB    C3754077   7.828   2.482  25.112  0.0112  0.0538  0.5016
    11RH    C3854078   7.007   3.860  25.697 -0.1097  0.3274 -0.1312
    4IDB    C3954079   7.933   2.516  25.027 -0.1357 -0.2842  0.1797
    62IDT   C4054080   8.018   2.398  24.998  0.0680  0.1287 -0.5936
    72IDQ   C4154081   7.837   2.330  25.141 -0.7812 -0.8764 -0.2468
    62IDT   C4254082   7.953   2.286  25.045 -0.0062  0.0782 -0.8116
    72IDQ   C4354083   7.699   2.260  25.107 -0.3835 -0.7852  0.4625
    72IDQ   C4454084   7.864   2.311  25.304 -0.1673 -0.5711  0.6579
    62IDT    S554085   8.163   2.356  24.900  0.0273  0.2201 -0.6951
    62IDT   C4554086   8.127   2.180  24.931 -0.0939  0.1834 -1.0432
    62IDT   C4654087   8.015   2.163  25.008 -0.0979  0.1091 -1.0653
    82BTZ   C4754088   8.224   2.079  24.889  0.1283  0.0981  0.4442
    82BTZ   C4854089   8.345   2.123  24.844  0.0399  0.3322  0.4325
    82BTZ   C4954090   8.446   2.032  24.797  0.1219  0.5414  0.1945
    82BTZ   C5054091   8.426   1.896  24.796  0.2921  0.5162 -0.0311
    82BTZ   C5154092   8.197   1.938  24.890  0.3068  0.0621  0.2131
    82BTZ   C5254093   8.300   1.845  24.843  0.3901  0.2747 -0.0281
    92RH    C5354094   8.531   1.801  24.752 -0.0452  0.1895  0.1065
    82BTZ    N454095   8.083   1.884  24.932  0.4063 -0.1568  0.2007
    82BTZ    N554096   8.269   1.716  24.847  0.5566  0.2268 -0.2346
    82BTZ    S654097   8.102   1.707  24.913  0.6151 -0.0990 -0.1272
    92RH    C5454098   8.658   1.826  24.719 -0.0212  0.1391  0.1626
    92RH     S754099   8.751   1.982  24.746  0.0893  0.0374  0.3852
    92RH    C5554100   8.747   1.726  24.655 -0.0829  0.1590  0.0463
    92RH     O254101   8.714   1.610  24.624 -0.1625  0.2232 -0.1125
    92RH     N654102   8.876   1.778  24.632 -0.0399  0.0949  0.1396
    92RH    C5654103   8.902   1.908  24.670  0.0487  0.0260  0.3147
    92RH    C5754104   8.981   1.688  24.585  0.1888 -0.5641 -0.0866
    92RH    C5854105   9.026   1.712  24.436  0.6509  0.3302 -0.4921
    92RH     S854106   9.046   1.994  24.654  0.1148 -0.0583  0.4549
    72IDQ   C5954107   7.872   2.181  25.380  0.6621  0.9650  0.5934
    72IDQ   C6054108   7.988   2.152  25.469 -0.6374 -0.3990  0.7220
    72IDQ   C6154109   7.972   2.023  25.546 -0.6281 -0.0650  0.1062
    72IDQ   C6254110   8.107   1.969  25.599  0.1225 -0.9346  0.5550
    72IDQ   C6354111   8.091   1.848  25.675 -0.4306  0.7299 -0.5753
    72IDQ   C6454112   8.218   1.779  25.742  0.5239 -0.3071  0.7922
    72IDQ   C6554113   8.308   1.868  25.829  0.4145 -0.0316 -0.3203
    72IDQ   C6654114   7.644   2.247  24.969 -0.2222  0.8945 -0.2865
    72IDQ   C6754115   7.548   2.354  24.951  1.1628  0.3703 -0.6756
    72IDQ   C6854116   7.536   2.424  24.818  0.4118 -0.0857  0.0604
    72IDQ   C6954117   7.506   2.338  24.696  0.6159 -0.3152 -0.1637
    72IDQ   C7054118   7.359   2.280  24.691 -0.6358 -0.2343 -0.6507
    72IDQ   C7154119   7.346   2.145  24.749 -0.2477 -0.0908  0.3321
    72IDQ   C7254120   7.210   2.093  24.761  0.0217  1.0149 -0.2431
    11RH     C154121   6.597   3.661   4.549  0.2446  0.1965 -0.0598
    11RH     C254122   6.481   3.731   4.609  0.0924 -0.0572 -0.0550
    11RH     N154123   6.654   3.568   4.639  0.2048  0.0338 -0.2005
    11RH     S154124   6.453   3.671   4.780 -0.0934 -0.4931 -0.2351
    11RH     C354125   6.597   3.556   4.764  0.0391 -0.3192 -0.3085
    11RH     C454126   6.776   3.493   4.607 -0.2950 -0.0002  0.4139
    11RH     S254127   6.644   3.454   4.890 -0.0412 -0.5737 -0.4836
    11RH     O154128   6.642   3.679   4.434  0.3904  0.5130  0.0442
    11RH     C554129   6.410   3.824   4.544  0.0954  0.0295  0.0654
    21BTZ    C654130   6.307   3.917   4.589 -0.2378 -0.1912 -0.1545
    21BTZ    C754131   6.255   3.924   4.715 -0.2334 -0.0777 -0.1593
    21BTZ    C854132   6.267   4.015   4.492 -0.2339 -0.2728 -0.2385
    21BTZ    C954133   6.161   4.028   4.753 -0.2253 -0.0389 -0.2462
    21BTZ   C1054134   6.120   4.123   4.663 -0.2215 -0.1137 -0.3280
    21BTZ   C1154135   6.172   4.120   4.530 -0.2258 -0.2333 -0.3266
    21BTZ    N254136   6.312   4.018   4.366 -0.2377 -0.3853 -0.2426
    21BTZ    N354137   6.140   4.207   4.434 -0.2228 -0.3141 -0.4017
    21BTZ    S354138   6.232   4.158   4.289 -0.2306 -0.4469 -0.3621
    31IDT   C1254139   6.031   4.228   4.715  0.0235  0.2239 -0.2864
    31IDT   C1354140   6.056   4.361   4.697 -0.0328  0.2447 -0.2100
    31IDT   C1454141   5.979   4.444   4.785 -0.0960  0.1644 -0.1893
    31IDT   C1554142   5.895   4.375   4.869 -0.0882  0.0822 -0.2494
    31IDT    S454143   5.907   4.197   4.844  0.0001  0.1002 -0.3379
    4IDB    C1654144   5.831   4.465   4.962  0.2715  0.0871  0.3479
    4IDB    C1754145   5.866   4.600   4.931  0.3299  0.0025  0.0311
    51IDQ   C1854146   5.973   4.594   4.816  1.1336 -1.0010  0.3924
    4IDB    C1954147   5.816   4.705   5.007  0.0880  0.2297 -0.4368
    51IDQ   C2054148   5.916   4.682   4.698 -0.6711 -0.9544  0.2447
    51IDQ   C2154149   6.118   4.641   4.844  0.0734 -0.5528  0.2435
    51IDQ   C2254150   6.180   4.662   4.990 -0.1799  0.6984  0.2244
    51IDQ   C2354151   5.841   4.645   4.573  0.3144  0.6609 -0.6134
    51IDQ   C2454152   6.200   4.527   5.077  0.2307 -0.7566 -0.4024
    51IDQ   C2554153   6.307   4.516   5.196  0.0205  1.0918  0.3026
    51IDQ   C2654154   6.291   4.613   5.307  0.1671  0.2206  0.4017
    51IDQ   C2754155   6.350   4.743   5.281 -0.5517  0.2247  0.1915
    51IDQ   C2854156   6.386   4.828   5.400 -0.3799  0.0018 -0.0641
    51IDQ   C2954157   6.523   4.892   5.395 -0.4227 -0.3420  0.1006
    51IDQ   C3054158   5.843   4.743   4.452 -0.9043 -0.5377 -0.6457
    51IDQ   C3154159   5.734   4.720   4.354  0.0627  0.4055 -0.0609
    51IDQ   C3254160   5.596   4.747   4.406  0.0588  0.2655 -0.3315
    51IDQ   C3354161   5.499   4.688   4.295 -0.1451  0.0721 -0.3802
    51IDQ   C3454162   5.493   4.728   4.147 -0.3094 -0.5071  1.1712
    51IDQ   C3554163   5.460   4.881   4.118 -0.0359 -0.4914 -0.2764
    4IDB    C3654164   5.745   4.434   5.068 -0.0311  0.4010  0.1973
    4IDB    C3754165   5.695   4.543   5.144 -0.2754  0.6299 -0.2820
    11RH    C3854166   6.744   3.347   4.556 -0.5477 -0.0117  0.5203
    4IDB    C3954167   5.730   4.675   5.114 -0.2146  0.5438 -0.5875
    62IDT   C4054168   5.661   4.757   5.207  0.1835  0.1478  0.0782
    72IDQ   C4154169   5.608   4.532   5.269  0.3137  0.3585 -0.1537
    62IDT   C4254170   5.597   4.682   5.303 -0.1916  0.1651 -0.1540
    72IDQ   C4354171   5.670   4.444   5.389 -0.2770 -0.0822 -0.0378
    72IDQ   C4454172   5.457   4.482   5.251 -0.6291 -0.6577 -0.4381
    62IDT    S554173   5.635   4.933   5.231  0.2319  0.1599  0.0421
    62IDT   C4554174   5.534   4.894   5.377 -0.2829  0.1892 -0.3020
    62IDT   C4654175   5.525   4.759   5.399 -0.4559  0.1886 -0.3693
    82BTZ   C4754176   5.457   4.999   5.449 -0.1009  0.0296 -0.0763
    82BTZ   C4854177   5.421   5.111   5.379  0.2283  0.1436 -0.0693
    82BTZ   C4954178   5.344   5.217   5.440  0.5242  0.3583 -0.0677
    82BTZ   C5054179   5.305   5.210   5.571  0.4902  0.4588 -0.0732
    82BTZ   C5154180   5.418   4.988   5.586 -0.1501  0.1279 -0.0823
    82BTZ   C5254181   5.340   5.095   5.648  0.1506  0.3461 -0.0807
    92RH    C5354182   5.214   5.319   5.633 -0.2066 -0.3296 -0.1280
    82BTZ    N454183   5.448   4.883   5.665 -0.4578  0.0331 -0.0895
    82BTZ    N554184   5.308   5.078   5.777  0.0845  0.4268 -0.0867
    82BTZ    S654185   5.376   4.920   5.825 -0.3745  0.2227 -0.0945
    92RH    C5454186   5.158   5.427   5.577 -0.1477 -0.1647  0.1303
    92RH     S754187   5.148   5.466   5.398  0.0830  0.3883  0.2370
    92RH    C5554188   5.092   5.534   5.656 -0.2654 -0.4150  0.3777
    92RH     O254189   5.081   5.537   5.780 -0.4288 -0.7992  0.3754
    92RH     N654190   5.041   5.635   5.572 -0.1680 -0.1611  0.6233
    92RH    C5654191   5.058   5.623   5.436  0.0130  0.2620  0.6031
    92RH    C5754192   4.976   5.755   5.620  0.3836  0.4276 -1.7217
    92RH    C5854193   4.827   5.737   5.669  0.1645  0.5899  0.5654
    92RH     S854194   5.007   5.729   5.315  0.1582  0.6305  0.8620
    72IDQ   C5954195   5.413   4.341   5.246  0.1746  0.6945 -0.5590
    72IDQ   C6054196   5.497   4.229   5.193 -0.2111  0.3149  1.7514
    72IDQ   C6154197   5.452   4.080   5.194 -0.7750  0.1636 -0.5785
    72IDQ   C6254198   5.307   4.048   5.179 -0.1877  1.2760 -0.2673
    72IDQ   C6354199   5.302   3.907   5.188 -0.3569  0.8952 -0.0919
    72IDQ   C6454200   5.165   3.847   5.189 -0.0644  0.5317 -0.2062
    72IDQ   C6554201   5.151   3.706   5.139  0.7602  0.4217  0.2232
    72IDQ   C6654202   5.766   4.495   5.503  0.5632 -0.6507  0.2242
    72IDQ   C6754203   5.894   4.574   5.475 -0.6596 -1.1731  0.0359
    72IDQ   C6854204   5.950   4.619   5.603 -0.2040  0.1148 -0.3588
    72IDQ   C6954205   6.052   4.730   5.582  0.3154 -0.1493 -0.0079
    72IDQ   C7054206   6.027   4.884   5.555  0.0030 -0.9631 -0.0458
    72IDQ   C7154207   5.928   4.975   5.633 -0.2882 -0.0889 -0.3601
    72IDQ   C7254208   5.990   5.014   5.775  0.3789  0.2701  0.1829
    11RH     C154209   3.091   1.343  20.257  0.4258  0.2983  0.3300
    11RH     C254210   3.105   1.214  20.329  0.1168  0.2005  0.2151
    11RH     N154211   3.119   1.330  20.119  0.4187  0.3602  0.3225
    11RH     S154212   3.153   1.083  20.210 -0.1629  0.1964  0.1050
    11RH     C354213   3.153   1.205  20.072  0.1419  0.3240  0.2160
    11RH     C454214   3.129   1.447  20.030 -0.7007 -0.3524 -0.0456
    11RH     S254215   3.190   1.162  19.913  0.0715  0.3822  0.1826
    11RH     O154216   3.060   1.452  20.309  0.6643  0.3245  0.4220
    11RH     C554217   3.084   1.200  20.460  0.0603  0.1282  0.1985
    21BTZ    C654218   3.085   1.093  20.551 -0.1522  0.1630  0.0134
    21BTZ    C754219   3.101   0.960  20.519 -0.2219  0.1903 -0.1349
    21BTZ    C854220   3.052   1.127  20.686  0.1207  0.0463  0.1125
    21BTZ    C954221   3.085   0.856  20.617 -0.0285  0.1050 -0.1931
    21BTZ   C1054222   3.053   0.884  20.747  0.2344 -0.0076 -0.1030
    21BTZ   C1154223   3.036   1.021  20.786  0.3173 -0.0404  0.0534
    21BTZ    N254224   3.034   1.252  20.730  0.2128  0.0092  0.2589
    21BTZ    N354225   3.004   1.060  20.910  0.5674 -0.1473  0.1526
    21BTZ    S354226   2.994   1.239  20.904  0.5621 -0.1413  0.3285
    31IDT   C1254227   3.053   0.773  20.845  0.3380  0.5042  0.1782
    31IDT   C1354228   3.077   0.780  20.980  0.2084  0.4294  0.2050
    31IDT   C1454229   3.082   0.652  21.042 -0.3191  0.4105  0.2213
    31IDT   C1554230   3.063   0.546  20.956 -0.5946  0.4707  0.2064
    31IDT    S454231   3.036   0.602  20.787 -0.2036  0.5567  0.1714
    4IDB    C1654232   3.072   0.425  21.035 -0.3072 -0.0886 -0.1253
    4IDB    C1754233   3.104   0.455  21.170 -0.3541  0.0072 -0.1354
    51IDQ   C1854234   3.116   0.611  21.188  0.6620  1.5063  1.0716
    4IDB    C1954235   3.118   0.354  21.265 -0.3437  0.0706 -0.0684
    51IDQ   C2054236   3.016   0.635  21.299  0.0358 -0.5009 -0.2018
    51IDQ   C2154237   3.262   0.666  21.219 -0.5132 -0.1458  0.4365
    51IDQ   C2254238   3.390   0.580  21.212  0.0110 -0.1038  0.5500
    51IDQ   C2354239   2.873   0.692  21.271 -1.4708  0.0393  0.2568
    51IDQ   C2454240   3.416   0.475  21.101  0.2341 -0.0641 -0.0655
    51IDQ   C2554241   3.419   0.520  20.954 -0.1774 -0.2448 -0.3508
    51IDQ   C2654242   3.471   0.408  20.862 -0.0375  0.3364  1.6928
    51IDQ   C2754243   3.385   0.289  20.851 -0.5677 -0.6750 -0.5913
    51IDQ   C2854244   3.442   0.191  20.762 -0.3821 -0.3260 -0.5527
    51IDQ   C2954245   3.376   0.202  20.624 -0.3958 -0.7144  0.0726
    51IDQ   C3054246   2.786   0.628  21.387 -1.1893 -0.0959  1.1966
    51IDQ   C3154247   2.638   0.646  21.419 -0.1296  0.8143  0.6182
    51IDQ   C3254248   2.529   0.673  21.308 -0.2125  0.3108  0.4391
    51IDQ   C3354249   2.500   0.553  21.222 -0.9275  1.3271 -0.4148
    51IDQ   C3454250   2.389   0.555  21.121  0.4960  1.0449  0.4083
    51IDQ   C3554251   2.258   0.486  21.171 -0.1683  0.2838  0.1403
    4IDB    C3654252   3.053   0.293  20.993 -0.2494 -0.1215 -0.0472
    4IDB    C3754253   3.067   0.191  21.090 -0.2397 -0.0557  0.0205
    11RH    C3854254   2.993   1.496  19.959 -0.4395  0.3210 -0.5492
    4IDB    C3954255   3.099   0.222  21.223 -0.2860  0.0377  0.0088
    62IDT   C4054256   3.086   0.114  21.306 -0.0032  0.4916 -0.1351
    72IDQ   C4154257   3.036   0.035  21.085 -0.1046 -0.0612  0.8129
    62IDT   C4254258   3.052   0.001  21.236  0.8210  0.3364 -0.3080
    72IDQ   C4354259   3.144  -0.039  20.994 -0.3917  0.2458  0.8472
    72IDQ   C4454260   2.888  -0.002  21.051 -0.0663  0.5420  0.3539
    62IDT    S554261   3.089   0.085  21.484 -0.4134  0.4191 -0.1393
    62IDT   C4554262   3.041  -0.088  21.451  0.6004  0.1709 -0.3866
    62IDT   C4654263   3.026  -0.114  21.318  1.1634  0.1550 -0.4501
    82BTZ   C4754264   3.040  -0.180  21.569  0.3995 -0.0289 -0.1762
    82BTZ   C4854265   3.033  -0.119  21.692  0.5978  0.0190 -0.1888
    82BTZ   C4954266   3.015  -0.194  21.813  0.4277  0.0949 -0.1664
    82BTZ   C5054267   3.004  -0.331  21.813  0.0596  0.1230 -0.1307
    82BTZ   C5154268   3.028  -0.323  21.563  0.0131 -0.0020 -0.1397
    82BTZ   C5254269   3.010  -0.400  21.687 -0.1598  0.0751 -0.1168
    92RH    C5354270   2.993  -0.410  21.938  0.1768  0.0650  0.1047
    82BTZ    N454271   3.033  -0.394  21.450 -0.2088 -0.0432 -0.1245
    82BTZ    N554272   3.000  -0.532  21.673 -0.5206  0.0961 -0.0830
    82BTZ    S654273   3.014  -0.565  21.498 -0.6576  0.0162 -0.0788
    92RH    C5454274   2.993  -0.372  22.066 -0.0221  0.1078  0.0935
    92RH     S754275   3.031  -0.205  22.131 -0.3515  0.1877  0.0811
    92RH    C5554276   2.963  -0.464  22.178 -0.0039  0.0961  0.0887
    92RH     O254277   2.933  -0.584  22.167  0.1930  0.0464  0.0949
    92RH     N654278   2.970  -0.397  22.303 -0.2426  0.1492  0.0766
    92RH    C5654279   3.004  -0.264  22.304 -0.4496  0.2021  0.0710
    92RH    C5754280   2.954  -0.464  22.433  0.9587  0.4261 -0.5459
    92RH    C5854281   3.065  -0.536  22.497 -0.3262 -0.6510  0.1521
    92RH     S854282   3.020  -0.162  22.437 -0.7525  0.2710  0.0567
    72IDQ   C5954283   2.779   0.097  21.077  0.2376  0.3374 -0.8860
    72IDQ   C6054284   2.698   0.059  21.209  0.0859  0.3844  0.5615
    72IDQ   C6154285   2.569   0.134  21.232  0.0249 -1.2893 -0.2869
    72IDQ   C6254286   2.456   0.069  21.158 -0.2026  0.6052 -0.2623
    72IDQ   C6354287   2.394  -0.063  21.212 -0.7643 -0.0205 -0.4464
    72IDQ   C6454288   2.293  -0.122  21.126  1.1615  0.5553 -0.0087
    72IDQ   C6554289   2.330  -0.185  21.001  0.3724 -0.5216  1.1861
    72IDQ   C6654290   3.126  -0.185  20.946  1.2654 -0.7571 -0.4867
    72IDQ   C6754291   3.218  -0.235  20.839  0.0820  0.6097  0.1349
    72IDQ   C6854292   3.239  -0.158  20.704 -0.5003  0.1770 -0.4774
    72IDQ   C6954293   3.312  -0.251  20.607 -0.8212 -0.8085 -0.2509
    72IDQ   C7054294   3.360  -0.178  20.480  0.4681  0.6610  0.2575
    72IDQ   C7154295   3.472  -0.259  20.417  0.2742  0.5429 -0.2598
    72IDQ   C7254296   3.463  -0.403  20.349  0.7335  0.0456  0.1069
    11RH     C154297   0.754   6.043  23.441  0.0758  0.2754  0.2370
    11RH     C254298   0.874   5.981  23.503  0.1125  0.1290  0.0229
    11RH     N154299   0.635   5.985  23.491  0.1042  0.1820  0.1972
    11RH     S154300   0.822   5.852  23.623  0.1818 -0.1222 -0.2170
    11RH     C354301   0.645   5.885  23.585  0.1591 -0.0216 -0.0224
    11RH     C454302   0.501   6.040  23.446  0.2549 -0.6432 -0.6319
    11RH     S254303   0.519   5.801  23.660  0.2019 -0.1681 -0.1159
    11RH     O154304   0.755   6.133  23.357  0.0264  0.4579  0.4296
    11RH     C554305   0.999   6.017  23.474  0.0958  0.1787  0.0131
    21BTZ    C654306   1.128   5.961  23.509 -0.0294  0.2879  0.3768
    21BTZ    C754307   1.142   5.839  23.570 -0.0523  0.2680  0.3424
    21BTZ    C854308   1.246   6.030  23.466 -0.0302  0.1435  0.1335
    21BTZ    C954309   1.271   5.780  23.593 -0.0769  0.1065  0.0696
    21BTZ   C1054310   1.387   5.842  23.554 -0.0788 -0.0349 -0.1685
    21BTZ   C1154311   1.378   5.970  23.489 -0.0553 -0.0207 -0.1435
    21BTZ    N254312   1.246   6.149  23.406 -0.0093  0.1469  0.1397
    21BTZ    N354313   1.483   6.040  23.447 -0.0546 -0.1494 -0.3600
    21BTZ    S354314   1.417   6.190  23.375 -0.0209 -0.0641 -0.2159
    31IDT   C1254315   1.514   5.772  23.566 -0.0341  0.9909 -0.6119
    31IDT   C1354316   1.538   5.694  23.676 -0.4615  1.8183  0.0854
    31IDT   C1454317   1.672   5.644  23.682 -0.5847  1.5365  0.7844
    31IDT   C1554318   1.751   5.683  23.575 -0.2529  0.4948  0.6250
    31IDT    S454319   1.661   5.787  23.460  0.2459 -0.2162 -0.4326
    4IDB    C1654320   1.877   5.614  23.581 -0.2027  0.2470 -0.4032
    4IDB    C1754321   1.883   5.531  23.696 -0.3043  0.0163 -0.5617
    51IDQ   C1854322   1.754   5.548  23.775 -0.3391 -0.2176 -0.2554
    4IDB    C1954323   1.999   5.459  23.726 -0.2330  0.1744 -0.4553
    51IDQ   C2054324   1.702   5.400  23.798 -0.4856 -0.6296  0.7117
    51IDQ   C2154325   1.768   5.606  23.921  0.1841 -1.1835  0.3087
    51IDQ   C2254326   1.899   5.658  23.964 -0.2485 -1.0060  0.3868
    51IDQ   C2354327   1.583   5.362  23.712  0.9957  0.9448 -0.0585
    51IDQ   C2454328   1.941   5.803  23.921 -0.0461 -0.3328  0.3845
    51IDQ   C2554329   2.062   5.887  23.985 -0.1504 -0.1721  0.0143
    51IDQ   C2654330   2.104   6.025  23.928  1.2543 -0.6679 -0.6954
    51IDQ   C2754331   2.234   6.094  23.985  0.0501 -0.4307  0.5413
    51IDQ   C2854332   2.266   6.137  24.136 -0.3200  0.4378  0.4674
    51IDQ   C2954333   2.324   6.274  24.162  0.2816 -0.8887  0.6078
    51IDQ   C3054334   1.552   5.212  23.704  0.0060  0.7318  1.2755
    51IDQ   C3154335   1.650   5.089  23.689  0.5194  1.0979  0.0895
    51IDQ   C3254336   1.605   4.944  23.666 -0.6560 -0.0133  0.6821
    51IDQ   C3354337   1.475   4.907  23.713  0.9562 -0.4089 -0.5237
    51IDQ   C3454338   1.442   4.767  23.675 -0.7304  0.4083  0.5013
    51IDQ   C3554339   1.304   4.719  23.714  0.8765  0.2854  0.9693
    4IDB    C3654340   1.987   5.627  23.494 -0.0282  0.6397 -0.1349
    4IDB    C3754341   2.104   5.552  23.526  0.0424  0.7963 -0.0291
    11RH    C3854342   0.419   6.150  23.521  0.5099  0.7527  0.5230
    4IDB    C3954343   2.108   5.471  23.640 -0.0585  0.5672 -0.1862
    62IDT   C4054344   2.236   5.399  23.651  0.0436  0.4365  1.0659
    72IDQ   C4154345   2.245   5.533  23.451  0.9871 -0.2309 -0.0878
    62IDT   C4254346   2.319   5.445  23.551 -0.0210  0.9034  1.2236
    72IDQ   C4354347   2.304   5.671  23.432  0.5800 -0.8172 -0.4657
    72IDQ   C4454348   2.206   5.486  23.300 -0.1838  0.1603  0.2661
    62IDT    S554349   2.313   5.269  23.748  0.0011 -0.2283  0.2340
    62IDT   C4554350   2.461   5.285  23.643 -0.1073  0.1801  0.1389
    62IDT   C4654351   2.447   5.381  23.547 -0.1065  0.7591  0.7005
    82BTZ   C4754352   2.566   5.175  23.641 -0.0719 -0.3605 -0.7405
    82BTZ   C4854353   2.530   5.043  23.643  0.0002 -0.3799 -0.6948
    82BTZ   C4954354   2.627   4.937  23.637  0.0754 -0.3291 -0.3934
    82BTZ   C5054355   2.761   4.963  23.629  0.0784 -0.2593 -0.1375
    82BTZ   C5154356   2.706   5.207  23.632 -0.0719 -0.2878 -0.4802
    82BTZ   C5254357   2.805   5.100  23.626  0.0045 -0.2363 -0.1740
    92RH    C5354358   2.869   4.861  23.627  0.3568  0.5204  0.1453
    82BTZ    N454359   2.754   5.332  23.629 -0.1382 -0.2627 -0.4964
    82BTZ    N554360   2.933   5.138  23.619 -0.0004 -0.1698  0.0567
    82BTZ    S654361   2.932   5.317  23.619 -0.1049 -0.1701 -0.1122
    92RH    C5454362   2.868   4.727  23.621  0.4511  0.5127  0.2751
    92RH     S754363   2.720   4.620  23.599  0.5790  0.4122 -0.1236
    92RH    C5554364   2.989   4.643  23.630  0.4665  0.5870  0.7796
    92RH     O254365   3.105   4.686  23.645  0.3954  0.6639  1.1349
    92RH     N654366   2.958   4.506  23.621  0.5739  0.5603  0.8123
    92RH    C5654367   2.826   4.470  23.604  0.6467  0.4735  0.3953
    92RH    C5754368   3.069   4.402  23.618  0.2279 -1.2613 -0.2673
    92RH    C5854369   3.122   4.350  23.484  0.1274 -0.6726 -0.0253
    92RH     S854370   2.763   4.314  23.590  0.7785  0.4249  0.3362
    72IDQ   C5954371   2.184   5.340  23.263 -0.0323  0.1539 -0.1248
    72IDQ   C6054372   2.068   5.272  23.326  0.7839 -0.1880  0.8810
    72IDQ   C6154373   2.106   5.160  23.412 -0.4628 -0.2785 -0.2654
    72IDQ   C6254374   2.132   5.030  23.346  0.5624 -0.8250  0.4281
    72IDQ   C6354375   2.263   4.955  23.375 -0.1223  0.1845 -0.2458
    72IDQ   C6454376   2.251   4.805  23.409 -0.1964 -0.0797  0.4963
    72IDQ   C6554377   2.395   4.747  23.406 -0.2078  0.5618  1.2006
    72IDQ   C6654378   2.444   5.680  23.374 -0.7508 -0.2306 -0.1348
    72IDQ   C6754379   2.516   5.805  23.431 -0.0263  0.2367 -1.3357
    72IDQ   C6854380   2.580   5.779  23.565  0.0442  1.0726  0.5363
    72IDQ   C6954381   2.716   5.695  23.567 -1.0547 -0.1964 -0.1903
    72IDQ   C7054382   2.771   5.674  23.708  0.0540  0.0749  1.5571
    72IDQ   C7154383   2.679   5.622  23.822  0.0780 -0.4654 -0.1380
    72IDQ   C7254384   2.748   5.566  23.952  0.9886 -0.2178 -0.9443
    11RH     C154385   5.677   0.978   0.174  0.0592 -0.3950  0.3683
    11RH     C254386   5.808   0.909   0.184  0.1743 -0.2230  0.0637
    11RH     N154387   5.580   0.895   0.113  0.0539 -0.4818  0.4934
    11RH     S154388   5.796   0.741   0.113  0.2674 -0.1868 -0.0384
    11RH     C354389   5.618   0.769   0.073  0.1503 -0.4005  0.3263
    11RH     C454390   5.433   0.931   0.115  0.3052  0.4837  0.8916
    11RH     S254391   5.522   0.652  -0.002  0.1665 -0.4752  0.4226
    11RH     O154392   5.653   1.093   0.214 -0.0234 -0.4579  0.5020
    11RH     C554393   5.917   0.965   0.238  0.2020 -0.1146 -0.1040
    21BTZ    C654394   6.044   0.917   0.283 -0.1047  0.4055  0.4839
    21BTZ    C754395   6.061   0.781   0.285 -0.1903  0.3919  0.3490
    21BTZ    C854396   6.157   1.001   0.307  0.0025  0.3126  0.3107
    21BTZ    C954397   6.190   0.722   0.311 -0.1749  0.2871  0.0394
    21BTZ   C1054398   6.301   0.798   0.334 -0.0741  0.1961 -0.1350
    21BTZ   C1154399   6.288   0.941   0.333  0.0181  0.2061 -0.0041
    21BTZ    N254400   6.152   1.135   0.308  0.0921  0.3155  0.4169
    21BTZ    N354401   6.389   1.026   0.355  0.1203  0.1234 -0.1509
    21BTZ    S354402   6.319   1.190   0.342  0.2026  0.1794  0.1126
    31IDT   C1254403   6.432   0.731   0.352 -0.0973  0.0621  0.2837
    31IDT   C1354404   6.560   0.779   0.361 -0.1284  0.0586  0.7987
    31IDT   C1454405   6.654   0.680   0.402 -0.2263 -0.0530  0.7545
    31IDT   C1554406   6.600   0.556   0.424 -0.2701 -0.1351  0.2070
    31IDT    S454407   6.422   0.554   0.394 -0.1903 -0.0769 -0.2998
    4IDB    C1654408   6.705   0.452   0.443  0.2620  0.1140 -0.0284
    4IDB    C1754409   6.829   0.520   0.462  0.1600  0.4082 -0.3795
    51IDQ   C1854410   6.811   0.666   0.428  0.4469  0.0414  0.7707
    4IDB    C1954411   6.941   0.452   0.509  0.3733  0.7358 -0.4086
    51IDQ   C2054412   6.859   0.757   0.543  0.5325 -0.1268  0.9262
    51IDQ   C2154413   6.881   0.723   0.304  0.1594 -0.0638  0.2983
    51IDQ   C2254414   6.979   0.643   0.222  0.0691  1.3548  0.1763
    51IDQ   C2354415   6.774   0.871   0.595 -0.0061 -0.7357  0.7251
    51IDQ   C2454416   7.034   0.684   0.091 -0.4766 -0.0334  0.6056
    51IDQ   C2554417   7.096   0.570  -0.003 -0.2456 -0.0177  1.0443
    51IDQ   C2654418   7.154   0.627  -0.129 -0.0312  0.6134 -0.3133
    51IDQ   C2754419   7.133   0.516  -0.230 -0.2361 -0.3558  0.5913
    51IDQ   C2854420   7.150   0.562  -0.382  0.3880  1.3052  0.0975
    51IDQ   C2954421   7.277   0.630  -0.421 -0.3220 -0.4149  0.0628
    51IDQ   C3054422   6.804   0.935   0.733  0.8167 -0.7147 -0.0919
    51IDQ   C3154423   6.762   1.081   0.754 -0.6746  0.4092 -0.4863
    51IDQ   C3254424   6.608   1.102   0.765  0.2886 -0.6133 -0.9823
    51IDQ   C3354425   6.561   1.209   0.853  0.8659 -0.4604  0.5854
    51IDQ   C3454426   6.483   1.155   0.979 -1.0506 -0.2470 -0.2818
    51IDQ   C3554427   6.335   1.200   1.004  0.1695  0.2177  0.4453
    4IDB    C3654428   6.692   0.315   0.470  0.5802  0.1463  0.2975
    4IDB    C3754429   6.808   0.247   0.518  0.7949  0.4832  0.2623
    11RH    C3854430   5.359   0.920   0.254  0.8528  0.2216 -0.3136
    4IDB    C3954431   6.928   0.315   0.537  0.6914  0.7681 -0.0827
    62IDT   C4054432   7.023   0.215   0.583  0.1575  0.0303  0.0138
    72IDQ   C4154433   6.823   0.097   0.535  0.0377  0.4328  0.4515
    62IDT   C4254434   6.967   0.089   0.583 -0.1119  0.1471  0.4494
    72IDQ   C4354435   6.802   0.024   0.392  0.8650  0.0813 -0.0206
    72IDQ   C4454436   6.723   0.042   0.646  0.5725  0.0766 -0.7701
    62IDT    S554437   7.184   0.217   0.664  0.1105 -0.0091  0.1076
    62IDT   C4554438   7.165   0.039   0.696 -0.2904  0.1417  0.7626
    62IDT   C4654439   7.047  -0.011   0.647 -0.3656  0.2102  0.8732
    82BTZ   C4754440   7.283  -0.046   0.756 -0.2063  0.1215  0.4738
    82BTZ   C4854441   7.410   0.005   0.753 -0.1913  0.0755  0.2999
    82BTZ   C4954442   7.521  -0.065   0.811 -0.0956 -0.0757 -0.0593
    82BTZ   C5054443   7.505  -0.187   0.872 -0.0149 -0.1804 -0.2440
    82BTZ   C5154444   7.261  -0.173   0.819 -0.1241  0.0161  0.2917
    82BTZ   C5254445   7.374  -0.244   0.878 -0.0268 -0.1374 -0.0733
    92RH    C5354446   7.614  -0.270   0.926 -0.0565  0.1981  0.4672
    82BTZ    N454447   7.142  -0.232   0.828 -0.1293  0.0476  0.4330
    82BTZ    N554448   7.346  -0.362   0.935  0.0461 -0.2295 -0.2255
    82BTZ    S654449   7.170  -0.386   0.915 -0.0076 -0.1212  0.0981
    92RH    C5454450   7.745  -0.250   0.938 -0.0177  0.1147  0.1884
    92RH     S754451   7.844  -0.119   0.855 -0.1255  0.1162  0.0608
    92RH    C5554452   7.834  -0.334   1.022  0.1236  0.0042 -0.0679
    92RH     O254453   7.798  -0.431   1.090  0.2210 -0.0235 -0.0555
    92RH     N654454   7.968  -0.290   1.015  0.1356 -0.0681 -0.3354
    92RH    C5654455   7.997  -0.181   0.936  0.0212 -0.0291 -0.3249
    92RH    C5754456   8.061  -0.347   1.107 -0.4952 -0.8523 -0.6510
    92RH    C5854457   8.133  -0.479   1.067  1.3722 -0.3667 -0.3342
    92RH     S854458   8.148  -0.109   0.911  0.0082 -0.0978 -0.6095
    72IDQ   C5954459   6.578   0.004   0.619 -0.8291  0.1734 -0.1656
    72IDQ   C6054460   6.504  -0.083   0.725 -1.1691 -0.6201  0.3676
    72IDQ   C6154461   6.500  -0.025   0.863  0.3054  0.2701  0.3988
    72IDQ   C6254462   6.616  -0.016   0.961  0.4504  0.1959 -0.4265
    72IDQ   C6354463   6.590   0.094   1.063  0.6682  0.0117  0.1496
    72IDQ   C6454464   6.663   0.106   1.202  0.7011 -0.3975 -0.8248
    72IDQ   C6554465   6.811   0.085   1.208 -0.1605  0.6086  1.0740
    72IDQ   C6654466   6.885   0.070   0.266  0.4938 -1.0589 -1.7544
    72IDQ   C6754467   6.878  -0.002   0.132  0.7090 -0.8276 -0.3756
    72IDQ   C6854468   6.952  -0.128   0.138  0.3825  1.0080 -0.7762
    72IDQ   C6954469   6.934  -0.200   0.001 -0.2544 -0.3070 -0.7685
    72IDQ   C7054470   7.027  -0.317  -0.052  0.7120 -0.4219  0.2872
    72IDQ   C7154471   6.986  -0.394  -0.176 -0.2394 -0.7790  0.7810
    72IDQ   C7254472   6.986  -0.313  -0.299 -0.5752 -0.5265 -0.2716
    11RH     C154473   0.869   7.291  21.271  0.4202 -0.2491 -0.6046
    11RH     C254474   0.811   7.159  21.304  0.2865 -0.1556 -0.4611
    11RH     N154475   0.792   7.358  21.173  0.1798 -0.0465 -0.2814
    11RH     S154476   0.660   7.130  21.205 -0.1467  0.1926  0.0884
    11RH     C354477   0.680   7.295  21.124 -0.1302  0.1979  0.1030
    11RH     C454478   0.846   7.482  21.108 -0.4498  0.3577 -0.5969
    11RH     S254479   0.571   7.352  21.008 -0.4585  0.4706  0.5369
    11RH     O154480   0.972   7.340  21.321  0.7060 -0.4753 -0.9613
    11RH     C554481   0.865   7.075  21.394  0.4635 -0.3086 -0.7070
    21BTZ    C654482   0.834   6.947  21.465  0.0991  0.4153 -0.0172
    21BTZ    C754483   0.711   6.894  21.432  0.1000  0.4656 -0.1035
    21BTZ    C854484   0.917   6.875  21.556  0.0197  0.3636  0.0148
    21BTZ    C954485   0.665   6.770  21.488  0.0235  0.4677 -0.1616
    21BTZ   C1054486   0.742   6.698  21.576 -0.0537  0.4194 -0.1341
    21BTZ   C1154487   0.871   6.748  21.613 -0.0580  0.3655 -0.0448
    21BTZ    N254488   1.038   6.916  21.595  0.0107  0.3121  0.0968
    21BTZ    N354489   0.954   6.687  21.698 -0.1295  0.3158 -0.0105
    21BTZ    S354490   1.099   6.791  21.709 -0.0998  0.2628  0.1024
    31IDT   C1254491   0.685   6.577  21.644  0.5005 -0.7776  0.2585
    31IDT   C1354492   0.740   6.497  21.741  0.1062 -1.2915  0.0687
    31IDT   C1454493   0.654   6.389  21.779 -0.3827 -1.0376 -0.2837
    31IDT   C1554494   0.534   6.386  21.712 -0.3644 -0.3304 -0.3649
    31IDT    S454495   0.519   6.521  21.594  0.2793  0.0726  0.0025
    4IDB    C1654496   0.454   6.281  21.753  0.0226  0.7189  0.4744
    4IDB    C1754497   0.518   6.237  21.873 -0.0550  0.5236  0.4454
    51IDQ   C1854498   0.670   6.277  21.875  1.0896 -0.0644 -0.2351
    4IDB    C1954499   0.453   6.152  21.961  0.0368  0.0550  0.0676
    51IDQ   C2054500   0.708   6.315  22.031 -0.8981 -1.3495  0.1687
    51IDQ   C2154501   0.771   6.160  21.837  0.5496 -0.0217  0.5091
    51IDQ   C2254502   0.726   6.011  21.827 -0.6791  0.1115 -1.3461
    51IDQ   C2354503   0.709   6.469  22.066  0.0100 -0.7835 -0.7873
    51IDQ   C2454504   0.714   5.952  21.971 -0.2446  0.0364 -0.0233
    51IDQ   C2554505   0.646   5.825  21.984  0.1115  0.0720  0.3020
    51IDQ   C2654506   0.710   5.688  21.975 -0.2604  0.9390  0.1025
    51IDQ   C2754507   0.836   5.672  22.048 -0.2616 -0.3195 -1.5313
    51IDQ   C2854508   0.901   5.537  22.052  0.1155  0.4898 -0.4192
    51IDQ   C2954509   0.948   5.483  21.920 -0.3764  0.4237  0.6321
    51IDQ   C3054510   0.562   6.524  22.098  0.0790 -0.0495 -0.1057
    51IDQ   C3154511   0.549   6.670  22.150 -0.3854  0.2757 -0.6075
    51IDQ   C3254512   0.528   6.765  22.030  0.4114  0.8242 -1.1680
    51IDQ   C3354513   0.421   6.730  21.926 -0.9356  0.0571  0.5560
    51IDQ   C3454514   0.404   6.826  21.805 -0.2973 -0.0793 -0.1839
    51IDQ   C3554515   0.307   6.769  21.695  0.4645  1.5713 -0.2803
    4IDB    C3654516   0.324   6.240  21.721  0.1936  0.4445  0.1230
    4IDB    C3754517   0.259   6.152  21.812  0.2855 -0.0337 -0.2604
    11RH    C3854518   0.812   7.612  21.182  0.1220  0.1072 -0.5390
    4IDB    C3954519   0.323   6.110  21.929  0.2078 -0.2194 -0.2834
    62IDT   C4054520   0.237   6.020  22.004  0.4607 -0.2677 -0.3777
    72IDQ   C4154521   0.112   6.105  21.820 -0.5597 -0.0808  0.1885
    62IDT   C4254522   0.112   6.012  21.946  0.5515 -0.2078 -0.5836
    72IDQ   C4354523   0.065   6.029  21.694 -0.6284  0.9689 -0.4396
    72IDQ   C4454524   0.000   6.222  21.852 -0.1259  0.4907 -0.3657
    62IDT    S554525   0.250   5.915  22.150  0.0358  0.0542 -0.1051
    62IDT   C4554526   0.078   5.864  22.123  0.0017  0.2629 -0.2918
    62IDT   C4654527   0.022   5.924  22.013  0.2921  0.0924 -0.5350
    82BTZ   C4754528   0.005   5.782  22.227 -0.1947 -0.3713 -0.2868
    82BTZ   C4854529  -0.109   5.717  22.185 -0.1125 -0.5733 -0.2012
    82BTZ   C4954530  -0.188   5.638  22.274 -0.0616 -0.4792 -0.0725
    82BTZ   C5054531  -0.154   5.623  22.406 -0.0932 -0.1831 -0.0293
    82BTZ   C5154532   0.044   5.769  22.364 -0.2307 -0.0585 -0.2460
    82BTZ   C5254533  -0.037   5.688  22.455 -0.1789  0.0371 -0.1149
    92RH    C5354534  -0.254   5.573  22.508 -0.6123  0.6917  0.3623
    82BTZ    N454535   0.153   5.827  22.417 -0.3101  0.1594 -0.3204
    82BTZ    N554536   0.006   5.681  22.581 -0.2168  0.3319 -0.0839
    82BTZ    S654537   0.156   5.780  22.589 -0.3222  0.5033 -0.2237
    92RH    C5454538  -0.374   5.514  22.508 -0.3432  0.1374  0.1516
    92RH     S754539  -0.470   5.460  22.361  0.1341 -0.2655 -0.0209
    92RH    C5554540  -0.449   5.481  22.631 -0.3946 -0.2462  0.0215
    92RH     O254541  -0.411   5.504  22.747 -0.6862 -0.1037  0.0906
    92RH     N654542  -0.572   5.419  22.602 -0.0655 -0.8079 -0.1955
    92RH    C5654543  -0.605   5.397  22.470  0.2432 -0.9212 -0.2561
    92RH    C5754544  -0.675   5.407  22.710 -0.9338 -0.3293  0.1734
    92RH    C5854545  -0.757   5.536  22.723  0.8516 -0.2453 -0.6524
    92RH     S854546  -0.745   5.326  22.408  0.6660 -1.5498 -0.5031
    72IDQ   C5954547  -0.014   6.288  21.984 -0.9491  0.1787 -0.1549
    72IDQ   C6054548   0.092   6.397  22.010 -1.6670 -0.0997  0.1204
    72IDQ   C6154549   0.043   6.535  21.939  0.0416  0.8849 -0.6179
    72IDQ   C6254550  -0.011   6.655  22.014 -0.7396 -0.5135 -0.3881
    72IDQ   C6354551  -0.109   6.741  21.932  0.4295  0.1119  0.3904
    72IDQ   C6454552  -0.186   6.854  22.004  0.4104  0.3113 -0.4236
    72IDQ   C6554553  -0.102   6.949  22.091 -0.0131  0.6481 -0.4548
    72IDQ   C6654554   0.105   6.060  21.551  0.0295 -0.8485  0.8424
    72IDQ   C6754555   0.076   6.214  21.516  0.0261  0.4299 -0.1629
    72IDQ   C6854556  -0.058   6.232  21.459  0.4815 -0.7936 -0.1337
    72IDQ   C6954557  -0.126   6.372  21.469 -0.3116  0.3555  0.8519
    72IDQ   C7054558  -0.036   6.495  21.484 -0.1674 -0.2571  0.8314
    72IDQ   C7154559  -0.105   6.635  21.523  0.2222  0.0969 -0.0254
    72IDQ   C7254560  -0.196   6.686  21.409 -0.0776 -0.1017 -0.6023
    11RH     C154561   7.107   3.421  22.613 -0.0349 -0.3195  0.0043
    11RH     C254562   7.104   3.491  22.482 -0.0123 -0.1987  0.0682
    11RH     N154563   7.239   3.404  22.660 -0.0546 -0.1782  0.1103
    11RH     S154564   7.276   3.531  22.430 -0.0180  0.0926  0.2652
    11RH     C354565   7.342   3.452  22.583 -0.0502  0.0409  0.2522
    11RH     C454566   7.260   3.384  22.806 -0.5628 -0.2255  0.0251
    11RH     S254567   7.508   3.445  22.616 -0.0702  0.2419  0.3986
    11RH     O154568   7.007   3.380  22.675 -0.0370 -0.5192 -0.1268
    11RH     C554569   6.992   3.520  22.416  0.0090 -0.2941 -0.0086
    21BTZ    C654570   6.958   3.591  22.288 -0.0661 -0.2569 -0.1996
    21BTZ    C754571   7.060   3.643  22.212 -0.0670 -0.2078 -0.1669
    21BTZ    C854572   6.823   3.624  22.255 -0.0571 -0.0678 -0.0501
    21BTZ    C954573   7.033   3.730  22.100 -0.0590  0.0278  0.0124
    21BTZ   C1054574   6.905   3.765  22.064 -0.0502  0.2141  0.1592
    21BTZ   C1154575   6.796   3.713  22.141 -0.0489  0.1718  0.1321
    21BTZ    N254576   6.716   3.580  22.321 -0.0554 -0.0935 -0.0648
    21BTZ    N354577   6.667   3.739  22.116 -0.0407  0.3387  0.2642
    21BTZ    S354578   6.573   3.651  22.240 -0.0429  0.1937  0.1596
    31IDT   C1254579   6.898   3.877  21.969  0.1206 -0.1658  0.6893
    31IDT   C1354580   6.791   3.903  21.888  0.1521 -0.4939  0.5364
    31IDT   C1454581   6.812   4.017  21.804  0.0402 -0.6107  0.3495
    31IDT   C1554582   6.935   4.078  21.820 -0.0769 -0.3729  0.3581
    31IDT    S454583   7.034   3.995  21.945 -0.0544  0.0210  0.6060
    4IDB    C1654584   6.946   4.196  21.731  0.0257 -0.2334 -0.9897
    4IDB    C1754585   6.817   4.220  21.674 -0.1235  0.6063 -0.3371
    51IDQ   C1854586   6.727   4.088  21.694 -0.7836 -0.5220 -0.4405
    4IDB    C1954587   6.792   4.336  21.602  0.1729  0.9063  0.0282
    51IDQ   C2054588   6.587   4.118  21.752  0.6819 -0.1048  0.1899
    51IDQ   C2154589   6.717   3.985  21.578 -0.0095  0.2728 -0.5505
    51IDQ   C2254590   6.772   3.986  21.436  0.1633  0.6352 -0.9535
    51IDQ   C2354591   6.551   4.112  21.899  1.1210 -0.5387 -0.6311
    51IDQ   C2454592   6.742   4.089  21.328  0.6178 -0.2092 -0.9045
    51IDQ   C2554593   6.785   4.076  21.191 -0.9747  1.0116  0.8368
    51IDQ   C2654594   6.790   4.212  21.118 -0.0420 -0.0123 -0.9117
    51IDQ   C2754595   6.666   4.275  21.057 -0.8533 -0.0465  0.6394
    51IDQ   C2854596   6.692   4.411  20.994  0.4503  0.3550  0.3503
    51IDQ   C2954597   6.669   4.527  21.088 -0.4534 -0.1673 -0.5231
    51IDQ   C3054598   6.399   4.149  21.898 -0.9776 -0.0348  0.0752
    51IDQ   C3154599   6.335   4.160  22.036  0.1253 -0.0261 -0.5876
    51IDQ   C3254600   6.182   4.143  22.023  0.2034  0.4504 -0.8285
    51IDQ   C3354601   6.124   4.138  22.170  0.7509  0.6813  0.2621
    51IDQ   C3454602   5.977   4.115  22.151  0.5796 -1.1403 -0.9296
    51IDQ   C3554603   5.909   4.081  22.290 -0.0605  0.4538  0.5999
    4IDB    C3654604   7.051   4.288  21.715  0.4750 -0.7808 -1.2832
    4IDB    C3754605   7.023   4.406  21.641  0.7730 -0.4634 -0.9022
    11RH    C3854606   7.239   3.509  22.902  0.0794 -0.3280  0.9955
    4IDB    C3954607   6.896   4.428  21.586  0.6220  0.3588 -0.2649
    62IDT   C4054608   6.894   4.553  21.513  0.1279  0.5582 -0.0540
    72IDQ   C4154609   7.112   4.530  21.620 -0.0371  0.6702  1.3069
    62IDT   C4254610   7.012   4.621  21.535  0.2106  0.3432  0.1774
    72IDQ   C4354611   7.245   4.493  21.546  0.0608 -0.3460 -0.1783
    72IDQ   C4454612   7.145   4.599  21.761  0.0899  0.1743  0.2524
    62IDT    S554613   6.781   4.646  21.409  0.4581  0.8116 -0.1895
    62IDT   C4554614   6.906   4.778  21.400  0.7027  0.6030  0.0880
    62IDT   C4654615   7.019   4.748  21.471  0.5356  0.3684  0.2580
    82BTZ   C4754616   6.877   4.906  21.315 -0.1058 -0.2989 -0.0956
    82BTZ   C4854617   6.765   4.907  21.236 -0.0669 -0.3295 -0.1512
    82BTZ   C4954618   6.726   5.023  21.159 -0.0999 -0.3152 -0.1130
    82BTZ   C5054619   6.800   5.138  21.161 -0.1721 -0.2704 -0.0196
    82BTZ   C5154620   6.957   5.024  21.321 -0.1814 -0.2517  0.0033
    82BTZ   C5254621   6.919   5.142  21.242 -0.2152 -0.2371  0.0420
    92RH    C5354622   6.777   5.240  21.060  0.2706  0.1025 -0.0828
    82BTZ    N454623   7.069   5.036  21.394 -0.2251 -0.2189  0.0644
    82BTZ    N554624   6.999   5.249  21.253 -0.2857 -0.1926  0.1340
    82BTZ    S654625   7.130   5.202  21.365 -0.3128 -0.1666  0.1762
    92RH    C5454626   6.697   5.257  20.954  0.2099  0.0602 -0.0429
    92RH     S754627   6.560   5.146  20.901  0.2776 -0.0404 -0.0074
    92RH    C5554628   6.706   5.372  20.861  0.0734  0.0899 -0.0215
    92RH     O254629   6.788   5.464  20.869  0.0007  0.1558 -0.0372
    92RH     N654630   6.609   5.364  20.759  0.0344  0.0331  0.0204
    92RH    C5654631   6.523   5.257  20.759  0.1225 -0.0383  0.0343
    92RH    C5754632   6.586   5.472  20.654 -1.0042 -0.2229  0.5102
    92RH    C5854633   6.646   5.469  20.514 -0.1085  0.5724  0.5826
    92RH     S854634   6.399   5.224  20.649  0.1006 -0.1153  0.0820
    72IDQ   C5954635   7.214   4.738  21.765  0.2870 -0.3932 -0.8476
    72IDQ   C6054636   7.358   4.755  21.751 -0.8915  1.6561  0.0052
    72IDQ   C6154637   7.416   4.880  21.802 -0.4328  0.2418 -0.2486
    72IDQ   C6254638   7.560   4.882  21.865 -0.2935 -0.0608  0.4259
    72IDQ   C6354639   7.562   5.018  21.934 -0.1421 -0.4925 -0.2135
    72IDQ   C6454640   7.706   5.058  21.962 -0.2185 -0.1544 -0.2950
    72IDQ   C6554641   7.759   5.199  21.947 -0.6189  0.6108  0.0769
    72IDQ   C6654642   7.242   4.414  21.418  0.2705 -0.0752 -0.0575
    72IDQ   C6754643   7.381   4.377  21.371 -0.5027  0.5656 -0.1516
    72IDQ   C6854644   7.456   4.486  21.299 -0.4459  0.0522  0.0204
    72IDQ   C6954645   7.569   4.429  21.218  0.1234 -1.1375 -0.0242
    72IDQ   C7054646   7.622   4.542  21.126  0.2534  0.1977  0.0163
    72IDQ   C7154647   7.724   4.511  21.022 -0.5402  0.8651  0.4500
    72IDQ   C7254648   7.861   4.485  21.079 -0.0699 -0.3942  0.9228
    11RH     C154649   2.660   5.612  26.615 -0.1019  0.0386 -0.0010
    11RH     C254650   2.678   5.676  26.482 -0.1782  0.2378  0.0830
    11RH     N154651   2.611   5.705  26.709 -0.2712 -0.1623  0.1079
    11RH     S154652   2.628   5.852  26.490 -0.4674  0.1478  0.2994
    11RH     C354653   2.587   5.834  26.668 -0.4736 -0.1487  0.2689
    11RH     C454654   2.574   5.665  26.841  0.0185  0.3674 -0.1976
    11RH     S254655   2.528   5.962  26.761 -0.7011 -0.3612  0.4225
    11RH     O154656   2.685   5.494  26.642  0.0856  0.0428 -0.1473
    11RH     C554657   2.724   5.610  26.374 -0.0499  0.4486  0.0075
    21BTZ    C654658   2.741   5.648  26.231  0.1104  0.1508  0.5205
    21BTZ    C754659   2.701   5.767  26.177  0.0463  0.1086  0.4749
    21BTZ    C854660   2.812   5.555  26.149 -0.0230  0.0695  0.4969
    21BTZ    C954661   2.729   5.801  26.039 -0.1507 -0.0148  0.4044
    21BTZ   C1054662   2.797   5.715  25.957 -0.2834 -0.0956  0.3794
    21BTZ   C1154663   2.840   5.589  26.009 -0.2233 -0.0559  0.4249
    21BTZ    N254664   2.855   5.436  26.191  0.0221  0.0999  0.5364
    21BTZ    N354665   2.907   5.497  25.939 -0.3392 -0.1262  0.4067
    21BTZ    S354666   2.937   5.360  26.051 -0.1940 -0.0331  0.4824
    31IDT   C1254667   2.840   5.769  25.826 -0.3493 -0.1709 -0.3751
    31IDT   C1354668   2.845   5.702  25.706 -1.1118 -0.0910 -0.4673
    31IDT   C1454669   2.857   5.790  25.594 -1.0134 -0.0371 -0.4158
    31IDT   C1554670   2.859   5.924  25.627 -0.1774 -0.0756 -0.2839
    31IDT    S454671   2.848   5.950  25.804  0.5569 -0.1839 -0.2142
    4IDB    C1654672   2.883   5.996  25.499 -0.2512 -0.5182 -0.1332
    4IDB    C1754673   2.904   5.907  25.390 -1.0450 -0.3576 -0.4292
    51IDQ   C1854674   2.887   5.766  25.443  0.3373  0.0467 -0.1265
    4IDB    C1954675   2.925   5.955  25.261 -0.7146 -0.1132 -0.2866
    51IDQ   C2054676   2.761   5.710  25.355  0.0702  0.5021 -0.6415
    51IDQ   C2154677   3.010   5.675  25.416 -0.4376 -0.5968 -0.5272
    51IDQ   C2254678   3.151   5.731  25.376 -0.0001  0.9275 -1.1589
    51IDQ   C2354679   2.615   5.681  25.420 -1.3079  0.0544  0.7566
    51IDQ   C2454680   3.227   5.640  25.276 -0.2306  0.4017 -0.2761
    51IDQ   C2554681   3.349   5.686  25.186  0.3395 -0.5395 -0.5928
    51IDQ   C2654682   3.440   5.783  25.265 -0.7079  0.5978  0.6254
    51IDQ   C2754683   3.493   5.886  25.161  0.3873 -0.8729  0.0148
    51IDQ   C2854684   3.394   6.007  25.125  0.1298  0.6898  0.0847
    51IDQ   C2954685   3.451   6.099  25.022  1.2315  0.4275  0.5771
    51IDQ   C3054686   2.501   5.652  25.326  0.9009  0.7283  0.6880
    51IDQ   C3154687   2.368   5.661  25.382 -0.9741 -0.1999 -0.0117
    51IDQ   C3254688   2.286   5.590  25.273 -0.3689  0.1834 -0.6580
    51IDQ   C3354689   2.142   5.534  25.307  1.4375  0.6540  0.4372
    51IDQ   C3454690   2.062   5.639  25.387 -0.7175 -0.0303 -0.5612
    51IDQ   C3554691   1.922   5.604  25.427  0.1601  0.3541  0.0350
    4IDB    C3654692   2.883   6.135  25.480  0.8848 -0.4344  0.3095
    4IDB    C3754693   2.904   6.183  25.348  1.2072 -0.1839  0.4492
    11RH    C3854694   2.434   5.595  26.851  0.2229 -0.9784 -0.2217
    4IDB    C3954695   2.925   6.094  25.242  0.4215 -0.0291  0.1559
    62IDT   C4054696   2.949   6.176  25.123  0.7764  0.6753  0.3054
    72IDQ   C4154697   2.905   6.328  25.301 -0.6512  0.5924 -0.4946
    62IDT   C4254698   2.938   6.311  25.151  1.7815  0.8279  0.0434
    72IDQ   C4354699   3.023   6.412  25.363 -0.0835  0.4100  1.0628
    72IDQ   C4454700   2.764   6.394  25.280  0.7068  0.6534  0.0059
    62IDT    S554701   2.977   6.146  24.948 -0.9409  0.0094  0.1076
    62IDT   C4554702   2.972   6.326  24.921 -0.1720 -0.0293 -0.3415
    62IDT   C4654703   2.951   6.396  25.037  1.2468  0.4297 -0.3228
    82BTZ   C4754704   2.966   6.375  24.776  0.1187  0.1417 -0.4398
    82BTZ   C4854705   2.917   6.289  24.682  0.0073  0.2140 -0.4487
    82BTZ   C4954706   2.880   6.333  24.550 -0.0936  0.3049 -0.3905
    82BTZ   C5054707   2.893   6.464  24.511 -0.0828  0.3234 -0.3235
    82BTZ   C5154708   2.982   6.514  24.741  0.1345  0.1575 -0.3715
    82BTZ   C5254709   2.944   6.558  24.606  0.0319  0.2499 -0.3123
    92RH    C5354710   2.858   6.513  24.382 -0.0872 -0.0127 -0.0404
    82BTZ    N454711   3.029   6.607  24.823  0.2385  0.0926 -0.3567
    82BTZ    N554712   2.962   6.689  24.581  0.0536  0.2594 -0.2499
    82BTZ    S654713   3.027   6.760  24.731  0.2092  0.1481 -0.2645
    92RH    C5454714   2.805   6.464  24.270 -0.1174 -0.1448  0.0319
    92RH     S754715   2.780   6.287  24.229 -0.0401 -0.1963  0.2062
    92RH    C5554716   2.757   6.548  24.158 -0.2220 -0.2738 -0.0210
    92RH     O254717   2.760   6.672  24.154 -0.2927 -0.2750 -0.1364
    92RH     N654718   2.706   6.470  24.052 -0.2328 -0.3987  0.0766
    92RH    C5654719   2.708   6.333  24.066 -0.1497 -0.3856  0.2012
    92RH    C5754720   2.658   6.543  23.933  1.2070  0.0168 -0.2848
    92RH    C5854721   2.500   6.586  23.920 -0.9316 -0.2838 -0.6351
    92RH     S854722   2.653   6.217  23.955 -0.1423 -0.5169  0.3347
    72IDQ   C5954723   2.691   6.410  25.413 -0.0888 -0.6877  0.1594
    72IDQ   C6054724   2.658   6.548  25.486  1.0079 -0.1751 -0.0368
    72IDQ   C6154725   2.601   6.660  25.394 -0.6993 -0.0410 -0.2939
    72IDQ   C6254726   2.546   6.784  25.474 -0.9038  1.5482 -0.4712
    72IDQ   C6354727   2.487   6.873  25.377 -0.5411  0.6435  0.3403
    72IDQ   C6454728   2.514   7.021  25.432 -0.4097  0.2164  0.4126
    72IDQ   C6554729   2.482   7.130  25.337 -1.0673 -0.5824  0.2690
    72IDQ   C6654730   3.009   6.502  25.483 -0.6754 -0.1143 -0.3433
    72IDQ   C6754731   3.120   6.614  25.521 -0.3900  1.0972  0.0409
    72IDQ   C6854732   3.136   6.722  25.421  0.5949 -0.6063  0.8452
    72IDQ   C6954733   3.019   6.785  25.353  0.6886 -1.2703  0.0274
    72IDQ   C7054734   3.051   6.863  25.222  1.1279  0.2843 -0.5201
    72IDQ   C7154735   2.929   6.953  25.176  0.4905 -0.2044 -0.7161
    72IDQ   C7254736   2.917   6.994  25.031 -0.4073  0.0266 -0.7099
    11RH     C154737   5.243   0.658   9.567 -0.4946  0.2370  0.1652
    11RH     C254738   5.341   0.730   9.482 -0.3906  0.1929  0.2472
    11RH     N154739   5.121   0.638   9.500 -0.3124 -0.0619 -0.0813
    11RH     S154740   5.266   0.767   9.319 -0.0602 -0.2386 -0.0054
    11RH     C354741   5.109   0.685   9.371 -0.0753 -0.3399 -0.2067
    11RH     C454742   5.012   0.574   9.568 -1.0725  1.2844  0.9683
    11RH     S254743   4.975   0.674   9.269  0.1738 -0.7235 -0.4997
    11RH     O154744   5.263   0.620   9.684 -0.7129  0.4999  0.2933
    11RH     C554745   5.465   0.762   9.522 -0.5241  0.4375  0.4730
    21BTZ    C654746   5.576   0.823   9.457  0.2575 -0.5964 -0.0720
    21BTZ    C754747   5.557   0.882   9.335  0.1796 -0.7737 -0.1471
    21BTZ    C854748   5.704   0.834   9.520  0.2475 -0.3624 -0.0923
    21BTZ    C954749   5.663   0.955   9.269  0.0890 -0.7306 -0.2451
    21BTZ   C1054750   5.787   0.968   9.326  0.0763 -0.5101 -0.2679
    21BTZ   C1154751   5.812   0.908   9.453  0.1553 -0.3185 -0.1919
    21BTZ    N254752   5.735   0.780   9.639  0.3179 -0.1753 -0.0257
    21BTZ    N354753   5.928   0.914   9.518  0.1518 -0.0961 -0.2055
    21BTZ    S354754   5.906   0.824   9.671  0.2685  0.0700 -0.0885
    31IDT   C1254755   5.888   1.056   9.258 -0.3185  0.1065  0.0203
    31IDT   C1354756   5.997   1.119   9.313 -0.3903  0.0588  0.2215
    31IDT   C1454757   6.067   1.199   9.218 -0.2648  0.1442  0.3867
    31IDT   C1554758   6.013   1.198   9.091 -0.0970  0.2573  0.3130
    31IDT    S454759   5.867   1.094   9.082 -0.0846  0.2646  0.0259
    4IDB    C1654760   6.098   1.273   9.007  0.5476 -0.4298  0.6244
    4IDB    C1754761   6.199   1.333   9.088  0.7689 -0.4001  0.3269
    51IDQ   C1854762   6.185   1.307   9.239  0.2778 -0.2610  0.0687
    4IDB    C1954763   6.305   1.402   9.030  0.3951 -0.0719  0.0222
    51IDQ   C2054764   6.315   1.264   9.317 -0.6197 -0.0526 -0.3862
    51IDQ   C2154765   6.145   1.436   9.335  0.2296 -0.0564  0.0094
    51IDQ   C2254766   6.075   1.556   9.270  0.3167  0.1396  0.5088
    51IDQ   C2354767   6.310   1.129   9.388  0.6265  0.3506 -0.0768
    51IDQ   C2454768   6.072   1.677   9.351 -1.1298 -0.7102  1.0781
    51IDQ   C2554769   5.952   1.758   9.378  0.6850 -0.0301 -0.0145
    51IDQ   C2654770   5.889   1.834   9.263 -0.4943  1.2017  0.7013
    51IDQ   C2754771   5.769   1.920   9.311 -0.1552  0.2264  0.9781
    51IDQ   C2854772   5.684   1.947   9.191 -0.1614  0.5848 -0.3359
    51IDQ   C2954773   5.563   2.029   9.235 -0.8401 -0.7517 -0.6038
    51IDQ   C3054774   6.441   1.058   9.432  0.4110  0.7951  0.6592
    51IDQ   C3154775   6.403   0.904   9.472  0.5826 -0.9727  0.1161
    51IDQ   C3254776   6.510   0.828   9.539  0.1890 -0.2087 -0.0722
    51IDQ   C3354777   6.472   0.712   9.636 -0.4561  1.2722 -0.0418
    51IDQ   C3454778   6.385   0.594   9.576 -0.4556 -0.5017  0.6814
    51IDQ   C3554779   6.235   0.603   9.618  0.5506  1.0063  0.9230
    4IDB    C3654780   6.102   1.282   8.867 -0.0528 -0.1296  0.6182
    4IDB    C3754781   6.211   1.352   8.810 -0.4282  0.2036  0.3047
    11RH    C3854782   5.015   0.419   9.598 -0.8195  0.3737  0.2169
    4IDB    C3954783   6.309   1.411   8.890 -0.2053  0.2284  0.0164
    62IDT   C4054784   6.404   1.479   8.807 -0.2513 -0.0177 -0.0053
    72IDQ   C4154785   6.237   1.397   8.665  0.4520 -0.4904 -0.8414
    62IDT   C4254786   6.373   1.464   8.673 -0.3728  0.3322 -0.0179
    72IDQ   C4354787   6.125   1.496   8.614 -0.3703 -0.1714 -0.0855
    72IDQ   C4454788   6.264   1.286   8.569  0.4544  1.0734  1.1801
    62IDT    S554789   6.565   1.554   8.831  0.0465 -0.6610  0.0529
    62IDT   C4554790   6.584   1.562   8.651 -0.0119 -0.4108  0.0576
    62IDT   C4654791   6.475   1.511   8.585 -0.2377  0.1105  0.0179
    82BTZ   C4754792   6.716   1.628   8.610  0.3126  0.0965  0.1052
    82BTZ   C4854793   6.818   1.639   8.701  0.2825  0.5271  0.0944
    82BTZ   C4954794   6.947   1.693   8.666  0.1215  0.8677  0.0236
    82BTZ   C5054795   6.974   1.737   8.539 -0.0090  0.7770 -0.0363
    82BTZ   C5154796   6.740   1.673   8.476  0.1800 -0.0151  0.0443
    82BTZ   C5254797   6.871   1.728   8.440  0.0163  0.3309 -0.0277
    92RH    C5354798   7.107   1.792   8.502  0.1578 -0.8527  0.1247
    82BTZ    N454799   6.649   1.668   8.378  0.1941 -0.4225  0.0479
    82BTZ    N554800   6.885   1.768   8.313 -0.1012  0.2017 -0.0818
    82BTZ    S654801   6.729   1.736   8.233 -0.0054 -0.3799 -0.0423
    92RH    C5454802   7.222   1.810   8.568  0.2056 -0.5724 -0.0372
    92RH     S754803   7.260   1.762   8.741  0.4242 -0.0866  0.0538
    92RH    C5554804   7.341   1.875   8.507  0.0840 -0.6159 -0.3240
    92RH     O254805   7.348   1.919   8.391 -0.0733 -0.9104 -0.4468
    92RH     N654806   7.449   1.881   8.598  0.1692 -0.2753 -0.4460
    92RH    C5654807   7.430   1.830   8.724  0.3443  0.0356 -0.2921
    92RH    C5754808   7.572   1.959   8.566 -0.1580 -0.8480 -0.6534
    92RH    C5854809   7.602   2.095   8.640  0.4937  0.1159 -0.5665
    92RH     S854810   7.542   1.825   8.851  0.4753  0.4715 -0.3881
    72IDQ   C5954811   6.151   1.190   8.513  0.2411  0.0502  0.3998
    72IDQ   C6054812   6.224   1.111   8.410  0.3042  1.3834  0.3840
    72IDQ   C6154813   6.119   1.021   8.332 -0.6808  0.1657  0.2201
    72IDQ   C6254814   6.191   0.913   8.245 -0.5303 -0.5171  0.1263
    72IDQ   C6354815   6.278   0.967   8.132  0.3356  0.4646 -0.7841
    72IDQ   C6454816   6.348   0.841   8.063  0.0348 -0.2948 -0.1480
    72IDQ   C6554817   6.376   0.900   7.925  1.0410  0.6358  0.3051
    72IDQ   C6654818   6.150   1.606   8.506 -0.4934  0.5206  0.6095
    72IDQ   C6754819   6.019   1.660   8.477  0.2871 -0.3176 -0.2657
    72IDQ   C6854820   6.010   1.685   8.327  0.0862  0.0964 -0.0207
    72IDQ   C6954821   5.871   1.716   8.254  0.2727  1.3691 -0.9574
    72IDQ   C7054822   5.803   1.834   8.307  0.5828 -0.3183 -0.7512
    72IDQ   C7154823   5.671   1.879   8.243  0.3886  0.0562  0.3625
    72IDQ   C7254824   5.556   1.790   8.289 -0.0114  0.4562 -0.1091
    11RH     C154825   7.003   1.188  23.461 -0.2927  0.3080  0.3667
    11RH     C254826   7.067   1.222  23.332 -0.2216  0.1644  0.3633
    11RH     N154827   7.059   1.261  23.568 -0.1889  0.2528  0.3496
    11RH     S154828   7.197   1.348  23.359 -0.0233 -0.0338  0.3383
    11RH     C354829   7.161   1.350  23.540 -0.0436  0.0825  0.3328
    11RH     C454830   6.993   1.270  23.701  0.0832  0.0828  0.2596
    11RH     S254831   7.244   1.448  23.648  0.1005 -0.0153  0.3109
    11RH     O154832   6.911   1.105  23.477 -0.4258  0.4587  0.3819
    11RH     C554833   7.032   1.167  23.215 -0.2953  0.1823  0.3778
    21BTZ    C654834   7.089   1.179  23.078 -0.0320 -0.0857  0.3269
    21BTZ    C754835   7.203   1.253  23.068 -0.0516 -0.0433  0.4115
    21BTZ    C854836   7.043   1.106  22.964  0.1389 -0.1894  0.3242
    21BTZ    C954837   7.279   1.260  22.945  0.0945 -0.1001  0.4978
    21BTZ   C1054838   7.239   1.192  22.833  0.2600 -0.1993  0.4987
    21BTZ   C1154839   7.120   1.112  22.839  0.2873 -0.2472  0.4120
    21BTZ    N254840   6.933   1.030  22.961  0.1745 -0.2391  0.2465
    21BTZ    N354841   7.071   1.042  22.736  0.4424 -0.3433  0.4044
    21BTZ    S354842   6.923   0.962  22.796  0.4041 -0.3645  0.2822
    31IDT   C1254843   7.311   1.216  22.702  0.2310 -0.4136  0.2729
    31IDT   C1354844   7.292   1.162  22.578  0.4027 -0.6365  0.3424
    31IDT   C1454845   7.370   1.226  22.476  0.4025 -0.6967  0.3042
    31IDT   C1554846   7.449   1.329  22.523  0.2307 -0.5205  0.2046
    31IDT    S454847   7.430   1.354  22.700  0.0546 -0.2624  0.1518
    4IDB    C1654848   7.529   1.390  22.423  0.4989  0.4260  0.4499
    4IDB    C1754849   7.496   1.324  22.301  0.0117  0.6338  0.4649
    51IDQ   C1854850   7.391   1.210  22.331 -0.5272 -0.6022  0.2664
    4IDB    C1954851   7.556   1.361  22.181 -0.1952  0.5957  0.3476
    51IDQ   C2054852   7.265   1.226  22.241 -0.3697  0.1234 -0.4327
    51IDQ   C2154853   7.448   1.064  22.303  0.1129  0.0356  0.3890
    51IDQ   C2254854   7.596   1.031  22.267  0.0266  0.0467  0.4413
    51IDQ   C2354855   7.132   1.261  22.310 -0.3412  0.3860  0.4122
    51IDQ   C2454856   7.638   0.887  22.237  0.8237  0.3999 -0.2743
    51IDQ   C2554857   7.703   0.803  22.352 -0.2882 -0.7782 -0.5052
    51IDQ   C2654858   7.846   0.787  22.369 -0.4273  0.0947 -0.3049
    51IDQ   C2754859   7.912   0.653  22.400 -0.4328  0.6820 -0.0412
    51IDQ   C2854860   8.037   0.672  22.480  0.7537 -0.1811 -1.2310
    51IDQ   C2954861   8.075   0.552  22.573  0.1974 -0.2877  0.2829
    51IDQ   C3054862   7.115   1.416  22.334  0.9691  0.2620  0.6749
    51IDQ   C3154863   6.982   1.469  22.385  0.7443 -0.8755 -0.2010
    51IDQ   C3254864   6.960   1.447  22.537  0.9566 -1.3391  0.2703
    51IDQ   C3354865   6.816   1.498  22.590 -0.1856  0.0758  0.6255
    51IDQ   C3454866   6.683   1.453  22.515 -1.1370  0.2609 -0.1299
    51IDQ   C3554867   6.660   1.309  22.497  1.2671  0.8589  0.4064
    4IDB    C3654868   7.623   1.494  22.426  0.7835  0.1774  0.3176
    4IDB    C3754869   7.683   1.531  22.303  0.5660  0.1420  0.1998
    11RH    C3854870   6.861   1.347  23.695  0.9079 -1.1333  0.2624
    4IDB    C3954871   7.650   1.466  22.184  0.0895  0.3470  0.2156
    62IDT   C4054872   7.711   1.545  22.074 -0.0387  0.6340  0.1969
    72IDQ   C4154873   7.802   1.628  22.278  0.2389  0.4845  0.3116
    62IDT   C4254874   7.796   1.642  22.120 -0.2661  0.9242  0.0172
    72IDQ   C4354875   7.942   1.560  22.312 -0.5029  0.2418 -0.5872
    72IDQ   C4454876   7.781   1.771  22.338  0.1901 -0.3822  0.5401
    62IDT    S554877   7.704   1.542  21.894  0.0177  0.2377  0.1982
    62IDT   C4554878   7.823   1.680  21.892 -0.2838  0.4978 -0.0571
    62IDT   C4654879   7.860   1.718  22.018 -0.4050  0.8475 -0.1264
    82BTZ   C4754880   7.878   1.723  21.760 -0.3366  0.1926 -0.6207
    82BTZ   C4854881   7.816   1.674  21.648 -0.1598  0.2541 -0.7477
    82BTZ   C4954882   7.856   1.713  21.516  0.0662  0.3101 -0.6633
    82BTZ   C5054883   7.958   1.802  21.495  0.1152  0.3046 -0.4532
    82BTZ   C5154884   7.986   1.816  21.743 -0.2940  0.1842 -0.3996
    82BTZ   C5254885   8.027   1.856  21.608 -0.0643  0.2412 -0.3142
    92RH    C5354886   8.004   1.848  21.371  0.0418 -0.0629 -0.1088
    82BTZ    N454887   8.054   1.871  21.844 -0.4522  0.1269 -0.2604
    82BTZ    N554888   8.128   1.944  21.601 -0.0378  0.2297 -0.1063
    82BTZ    S654889   8.176   1.979  21.769 -0.3111  0.1436 -0.0093
    92RH    C5454890   7.966   1.819  21.246  0.0172 -0.1980 -0.0701
    92RH     S754891   7.833   1.703  21.195  0.0612 -0.3144  0.0782
    92RH    C5554892   8.029   1.878  21.126 -0.0519 -0.2762 -0.1454
    92RH     O254893   8.122   1.960  21.126 -0.0944 -0.2271 -0.2508
    92RH     N654894   7.969   1.830  21.007 -0.0645 -0.4168 -0.0824
    92RH    C5654895   7.866   1.739  21.018 -0.0139 -0.4607  0.0339
    92RH    C5754896   8.037   1.873  20.892 -0.3333  0.6961  0.7473
    92RH    C5854897   7.955   1.952  20.789  0.0017  0.1692 -0.6787
    92RH     S854898   7.779   1.666  20.893 -0.0159 -0.6214  0.1278
    72IDQ   C5954899   7.759   1.824  22.481  0.2724  0.3030  0.6420
    72IDQ   C6054900   7.879   1.814  22.584  0.4810 -0.0858 -0.2277
    72IDQ   C6154901   8.009   1.862  22.547  0.1953  0.6357  0.3996
    72IDQ   C6254902   8.121   1.824  22.638  0.2186  0.9292  0.7198
    72IDQ   C6354903   8.262   1.811  22.583  0.4582 -1.2016  0.1552
    72IDQ   C6454904   8.372   1.769  22.678  0.1899  0.4506  0.4074
    72IDQ   C6554905   8.500   1.765  22.598  0.1572 -0.3926 -0.6971
    72IDQ   C6654906   7.968   1.482  22.449  0.2103 -0.5385  0.1763
    72IDQ   C6754907   8.077   1.388  22.462  0.5182  0.9709  0.1127
    72IDQ   C6854908   8.064   1.277  22.351 -0.9830  0.5659 -0.9661
    72IDQ   C6954909   8.152   1.161  22.408  0.7051 -1.2710 -0.0943
    72IDQ   C7054910   8.167   1.060  22.303 -1.2256  0.7154 -0.6615
    72IDQ   C7154911   8.240   0.932  22.357 -0.0305 -0.6320  0.2866
    72IDQ   C7254912   8.342   0.884  22.258 -0.1871 -0.3959 -0.3043
    11RH     C154913   6.184   7.019  20.919  0.0339 -0.2793 -0.2632
    11RH     C254914   6.121   6.885  20.918 -0.1210 -0.2096 -0.0448
    11RH     N154915   6.244   7.047  21.043  0.2117 -0.2137 -0.3644
    11RH     S154916   6.146   6.804  21.081 -0.0226 -0.0622  0.0132
    11RH     C354917   6.238   6.952  21.142  0.2180 -0.1000 -0.2542
    11RH     C454918   6.327   7.170  21.077 -1.2413 -1.1804 -1.4009
    11RH     S254919   6.302   6.960  21.298  0.4100 -0.0038 -0.3366
    11RH     O154920   6.184   7.099  20.824  0.0141 -0.3824 -0.3505
    11RH     C554921   6.057   6.834  20.813 -0.3029 -0.2510  0.0852
    21BTZ    C654922   5.987   6.706  20.783 -0.0352 -0.1590  0.2095
    21BTZ    C754923   5.974   6.608  20.878 -0.0458 -0.2848  0.0792
    21BTZ    C854924   5.928   6.686  20.655  0.0625 -0.0318  0.1431
    21BTZ    C954925   5.902   6.486  20.852  0.0386 -0.2922 -0.1216
    21BTZ   C1054926   5.843   6.462  20.730  0.1335 -0.1737 -0.1913
    21BTZ   C1154927   5.854   6.562  20.628  0.1483 -0.0393 -0.0610
    21BTZ    N254928   5.934   6.774  20.554  0.0823  0.0969  0.2565
    21BTZ    N354929   5.801   6.550  20.506  0.2370  0.0833 -0.1116
    21BTZ    S354930   5.844   6.700  20.418  0.2140  0.2164  0.1042
    31IDT   C1254931   5.809   6.326  20.704  0.0184  0.1110 -0.2805
    31IDT   C1354932   5.693   6.281  20.645 -0.0405 -0.0460 -0.0453
    31IDT   C1454933   5.691   6.139  20.629  0.0056 -0.0758  0.2017
    31IDT   C1554934   5.805   6.075  20.675  0.0998  0.0583  0.1562
    31IDT    S454935   5.924   6.191  20.743  0.1378  0.2342 -0.2061
    4IDB    C1654936   5.784   5.932  20.663 -0.4167 -0.4030 -0.0317
    4IDB    C1754937   5.655   5.901  20.611 -0.5744 -0.6413  0.4935
    51IDQ   C1854938   5.586   6.039  20.587  0.8068  0.9745 -0.6095
    4IDB    C1954939   5.617   5.769  20.588 -0.3455 -0.6996  0.4463
    51IDQ   C2054940   5.562   6.029  20.435  0.5908  0.1668 -0.1349
    51IDQ   C2154941   5.445   6.054  20.673 -0.1269 -0.4092  0.0262
    51IDQ   C2254942   5.408   5.967  20.797  0.7135  0.4548  0.0793
    51IDQ   C2354943   5.612   6.127  20.329 -1.1117  1.0563 -0.1739
    51IDQ   C2454944   5.260   5.995  20.832 -0.1564 -0.4387  0.1709
    51IDQ   C2554945   5.209   5.911  20.946  0.5351 -0.1834 -0.7210
    51IDQ   C2654946   5.059   5.919  20.974 -0.0425  0.2059 -0.0471
    51IDQ   C2754947   5.022   5.840  21.093  0.0401 -0.1476 -0.6461
    51IDQ   C2854948   5.095   5.839  21.224  1.6022  0.3447  0.1048
    51IDQ   C2954949   5.013   5.767  21.334  0.4143 -0.1704  0.0141
    51IDQ   C3054950   5.501   6.147  20.221  0.1020 -0.0708 -0.0992
    51IDQ   C3154951   5.546   6.237  20.105 -0.6114 -0.3769 -0.1801
    51IDQ   C3254952   5.643   6.367  20.124  0.1664  0.2436 -0.3206
    51IDQ   C3354953   5.670   6.430  19.993 -1.1983 -0.1429 -0.1395
    51IDQ   C3454954   5.761   6.553  19.996  0.1633 -0.7731  0.7585
    51IDQ   C3554955   5.815   6.589  19.858 -0.1368 -0.1657  0.4773
    4IDB    C3654956   5.877   5.831  20.692 -0.0268 -0.2203 -0.6108
    4IDB    C3754957   5.837   5.697  20.667  0.2027 -0.2830 -0.6499
    11RH    C3854958   6.470   7.168  21.028 -0.5837  0.3803  0.6536
    4IDB    C3954959   5.710   5.668  20.617  0.0444 -0.5168 -0.1319
    62IDT   C4054960   5.689   5.528  20.598  0.2279 -0.3972 -0.0944
    72IDQ   C4154961   5.902   5.561  20.705  0.5085  0.3991  0.8338
    62IDT   C4254962   5.800   5.460  20.644  0.3221 -0.6232 -0.6399
    72IDQ   C4354963   5.923   5.540  20.857  0.7427  1.3121  0.4523
    72IDQ   C4454964   6.050   5.568  20.658  0.0861  0.8095  0.5226
    62IDT    S554965   5.572   5.419  20.516 -0.2712 -0.1145  0.2313
    62IDT   C4554966   5.685   5.280  20.550 -0.3289 -0.3271 -0.4197
    62IDT   C4654967   5.797   5.319  20.617  0.0075 -0.5839 -0.8245
    82BTZ   C4754968   5.662   5.141  20.518  0.1754  0.0750  0.1806
    82BTZ   C4854969   5.586   5.114  20.407  0.2012  0.1705  0.1397
    82BTZ   C4954970   5.537   4.982  20.379  0.1303  0.2128  0.0620
    82BTZ   C5054971   5.564   4.876  20.462  0.0337  0.1597  0.0267
    82BTZ   C5154972   5.692   5.034  20.608  0.0752  0.0166  0.1454
    82BTZ   C5254973   5.642   4.899  20.579  0.0031  0.0596  0.0668
    92RH    C5354974   5.537   4.743  20.415 -0.0343 -0.1242  0.1807
    82BTZ    N454975   5.765   5.048  20.719  0.0412 -0.0774  0.1798
    82BTZ    N554976   5.675   4.804  20.667 -0.0888  0.0004  0.0381
    82BTZ    S654977   5.773   4.885  20.793 -0.0872 -0.1153  0.1109
    92RH    C5454978   5.493   4.693  20.299 -0.0825 -0.0765  0.1783
    92RH     S754979   5.451   4.787  20.147  0.4104 -0.0648  0.0462
    92RH    C5554980   5.470   4.548  20.275 -0.5597 -0.0238  0.2861
    92RH     O254981   5.489   4.458  20.358 -0.9637 -0.0179  0.3901
    92RH     N654982   5.424   4.524  20.144 -0.5024  0.0200  0.2567
    92RH    C5654983   5.406   4.631  20.060 -0.0377  0.0091  0.1407
    92RH    C5754984   5.399   4.384  20.097  0.3077  0.2366 -0.0541
    92RH    C5854985   5.262   4.310  20.130 -0.5326 -0.3992 -0.2923
    92RH     S854986   5.352   4.629  19.900  0.1291  0.0536  0.0830
    72IDQ   C5954987   6.090   5.551  20.508  0.9428 -0.2230 -0.0460
    72IDQ   C6054988   6.222   5.617  20.485 -0.6893 -0.2489  0.3167
    72IDQ   C6154989   6.252   5.772  20.514 -0.8859  0.3366 -1.0197
    72IDQ   C6254990   6.157   5.872  20.477  0.1597 -0.0195  0.0802
    72IDQ   C6354991   6.138   5.905  20.326 -0.7790 -0.7306 -0.7248
    72IDQ   C6454992   5.997   5.954  20.302  0.3904  0.2464 -0.6780
    72IDQ   C6554993   5.951   5.920  20.166  0.1665 -0.4753  0.1431
    72IDQ   C6654994   5.950   5.385  20.915 -0.1170 -1.5584  0.2318
    72IDQ   C6754995   6.070   5.310  20.867  0.4017 -0.1909  0.0184
    72IDQ   C6854996   6.109   5.176  20.931  0.0430 -0.5697  0.6137
    72IDQ   C6954997   6.117   5.152  21.083  0.1199  1.1204  0.3151
    72IDQ   C7054998   6.008   5.195  21.178 -0.0206 -0.8717 -1.2539
    72IDQ   C7154999   5.881   5.106  21.176 -0.3076 -0.0793  0.9339
    72IDQ   C7255000   5.845   5.052  21.308  0.9680 -0.4006  0.0963
    11RH     C155001   5.745   4.171   9.823  0.0404 -0.0244 -0.3278
    11RH     C255002   5.639   4.244   9.749  0.0491  0.0035 -0.3128
    11RH     N155003   5.693   4.104   9.935  0.0469  0.0286 -0.2932
    11RH     S155004   5.478   4.220   9.832  0.0652  0.0971 -0.2546
    11RH     C355005   5.558   4.114   9.961  0.0597  0.0951 -0.2525
    11RH     C455006   5.778   3.998  10.006 -0.4303 -0.6019  0.4727
    11RH     S255007   5.471   4.045  10.088  0.0694  0.1670 -0.2062
    11RH     O155008   5.866   4.167   9.792  0.0290 -0.0859 -0.3655
    11RH     C555009   5.662   4.316   9.638  0.0454 -0.0359 -0.3392
    21BTZ    C655010   5.589   4.399   9.551  0.2575 -0.4678 -0.4495
    21BTZ    C755011   5.464   4.442   9.586  0.3269 -0.3600 -0.3347
    21BTZ    C855012   5.642   4.438   9.424  0.2829 -0.2890 -0.3850
    21BTZ    C955013   5.385   4.526   9.499  0.4241 -0.0730 -0.1519
    21BTZ   C1055014   5.431   4.565   9.376  0.4517  0.1060 -0.0842
    21BTZ   C1155015   5.561   4.523   9.335  0.3817  0.0029 -0.1993
    21BTZ    N255016   5.762   4.402   9.378  0.2218 -0.3698 -0.4840
    21BTZ    N355017   5.617   4.555   9.218  0.4001  0.1568 -0.1488
    21BTZ    S355018   5.778   4.477   9.216  0.2893 -0.0698 -0.3406
    31IDT   C1255019   5.333   4.646   9.296 -0.0442 -0.2309 -0.4671
    31IDT   C1355020   5.344   4.700   9.170 -0.5622 -0.6384 -0.6948
    31IDT   C1455021   5.234   4.784   9.136 -0.6526 -0.6639 -0.4690
    31IDT   C1555022   5.138   4.794   9.235 -0.2052 -0.2772 -0.0690
    31IDT    S455023   5.181   4.698   9.381  0.3707  0.1534  0.0541
    4IDB    C1655024   5.023   4.870   9.192 -0.2774 -0.0992  0.2305
    4IDB    C1755025   5.041   4.916   9.058  0.4275 -0.1198  0.3119
    51IDQ   C1855026   5.180   4.868   9.013 -0.3714 -0.0489  0.0913
    4IDB    C1955027   4.945   4.993   8.995  0.8698  0.0872 -0.1232
    51IDQ   C2055028   5.141   4.776   8.885 -0.7161  0.2793 -0.4160
    51IDQ   C2155029   5.283   4.972   8.957  0.7385 -0.0892 -0.6394
    51IDQ   C2255030   5.245   5.123   8.939  0.3470  0.1752 -0.1050
    51IDQ   C2355031   5.149   4.625   8.902 -1.0539  0.1853 -0.3853
    51IDQ   C2455032   5.245   5.142   8.782  0.4579 -0.2166 -0.7898
    51IDQ   C2555033   5.234   5.286   8.723  0.1014 -0.0830 -0.6146
    51IDQ   C2655034   5.278   5.293   8.578  0.0052  0.0640 -0.5037
    51IDQ   C2755035   5.425   5.317   8.533  0.4900 -0.8458 -0.9227
    51IDQ   C2855036   5.488   5.420   8.630 -0.8420 -0.0142  0.3909
    51IDQ   C2955037   5.640   5.456   8.608  0.6124  0.2451  0.4004
    51IDQ   C3055038   5.089   4.548   8.790 -0.1348  0.8358  0.2276
    51IDQ   C3155039   5.107   4.397   8.817 -0.9772 -0.1999  0.8801
    51IDQ   C3255040   4.986   4.315   8.780  0.1094  0.7071 -1.0330
    51IDQ   C3355041   4.990   4.166   8.754  1.3477 -0.3188 -0.4356
    51IDQ   C3455042   4.845   4.115   8.735  0.6135 -0.3621  0.3375
    51IDQ   C3555043   4.821   3.973   8.706  0.1593  0.0099  0.4234
    4IDB    C3655044   4.907   4.903   9.265 -0.5454  0.1304 -0.2894
    4IDB    C3755045   4.810   4.983   9.199 -0.0857  0.3397 -0.7286
    11RH    C3855046   5.768   3.858   9.956  0.2776  0.6738  0.5223
    4IDB    C3955047   4.829   5.026   9.068  0.6018  0.3166 -0.6432
    62IDT   C4055048   4.699   5.085   9.018  0.0621  0.4748 -0.2089
    72IDQ   C4155049   4.663   5.016   9.238 -0.1952  1.0117  0.0866
    62IDT   C4255050   4.609   5.086   9.123  0.2315  0.1435 -0.0570
    72IDQ   C4355051   4.647   5.101   9.361  0.3178  0.0439  0.3626
    72IDQ   C4455052   4.569   4.885   9.253  0.4967 -0.6701  0.1735
    62IDT    S555053   4.626   5.149   8.867 -0.4217  0.2455 -0.0788
    62IDT   C4555054   4.471   5.176   8.958 -0.3667 -0.3133  0.1869
    62IDT   C4655055   4.480   5.138   9.089 -0.0105 -0.3024  0.1667
    82BTZ   C4755056   4.360   5.247   8.893 -0.3606 -0.3326 -0.7941
    82BTZ   C4855057   4.231   5.212   8.923 -0.3943 -0.2426 -0.8330
    82BTZ   C4955058   4.119   5.291   8.880 -0.3071  0.0348 -0.5558
    82BTZ   C5055059   4.136   5.406   8.807 -0.1863  0.2217 -0.2393
    82BTZ   C5155060   4.383   5.366   8.816 -0.2351 -0.1447 -0.4671
    82BTZ   C5255061   4.269   5.447   8.773 -0.1464  0.1372 -0.1855
    92RH    C5355062   4.031   5.494   8.767  0.0347 -0.2217  0.0735
    82BTZ    N455063   4.504   5.411   8.781 -0.1912 -0.2084 -0.3972
    82BTZ    N555064   4.298   5.557   8.702 -0.0314  0.3000  0.1111
    82BTZ    S655065   4.476   5.561   8.688 -0.0311  0.0959  0.0411
    92RH    C5455066   3.898   5.494   8.780  0.0384 -0.1348  0.1070
    92RH     S755067   3.794   5.359   8.849 -0.0723 -0.2385 -0.2625
    92RH    C5555068   3.813   5.608   8.741  0.1364  0.0653  0.4618
    92RH     O255069   3.853   5.715   8.691  0.2248  0.1744  0.7637
    92RH     N655070   3.676   5.582   8.766  0.1173  0.1197  0.4166
    92RH    C5655071   3.642   5.461   8.821  0.0160 -0.0123  0.0691
    92RH    C5755072   3.574   5.686   8.737  0.1604 -0.0576 -0.4796
    92RH    C5855073   3.521   5.770   8.857  0.4151  0.2842  0.7741
    92RH     S855074   3.488   5.405   8.861 -0.0273  0.0163 -0.0579
    72IDQ   C5955075   4.601   4.752   9.196 -0.0013  0.4851 -0.7839
    72IDQ   C6055076   4.490   4.646   9.201 -0.2432  0.2120  0.7206
    72IDQ   C6155077   4.496   4.524   9.104 -0.3616 -0.1923  0.8217
    72IDQ   C6255078   4.497   4.578   8.951  0.4182  0.9541 -0.9100
    72IDQ   C6355079   4.501   4.490   8.830  0.3797  0.7927 -1.2227
    72IDQ   C6455080   4.376   4.411   8.786 -0.5883 -0.4232 -1.0240
    72IDQ   C6555081   4.277   4.518   8.736  0.0734 -0.5967  0.3031
    72IDQ   C6655082   4.740   5.138   9.470 -0.4122 -0.2408  0.2337
    72IDQ   C6755083   4.689   5.201   9.592  0.4931  0.0351 -1.3197
    72IDQ   C6855084   4.807   5.252   9.676  0.6183  0.3622 -0.0084
    72IDQ   C6955085   4.746   5.297   9.809 -1.1076  0.4033 -0.1168
    72IDQ   C7055086   4.843   5.353   9.904  0.0086  0.3515 -0.6120
    72IDQ   C7155087   4.918   5.243   9.988 -0.2943 -0.0681  0.1645
    72IDQ   C7255088   4.991   5.324  10.099 -0.8112 -0.4814 -0.5050
    11RH     C155089   1.810   5.302  15.020  0.3484 -0.4027  0.1554
    11RH     C255090   1.701   5.207  14.985  0.1637 -0.1788  0.1149
    11RH     N155091   1.934   5.236  15.034  0.2790 -0.6056 -0.1689
    11RH     S155092   1.769   5.037  14.972 -0.0889 -0.2497 -0.3465
    11RH     C355093   1.938   5.100  15.014  0.0615 -0.5716 -0.4640
    11RH     C455094   2.067   5.315  15.036  0.0444  0.5830 -0.6647
    11RH     S255095   2.072   4.998  15.025 -0.0622 -0.7815 -0.8788
    11RH     O155096   1.796   5.425  15.036  0.5409 -0.4158  0.4346
    11RH     C555097   1.574   5.244  14.966  0.1852  0.0387  0.3822
    21BTZ    C655098   1.461   5.163  14.936  0.0672  0.1212  0.0792
    21BTZ    C755099   1.467   5.028  14.918 -0.0473  0.1186  0.0603
    21BTZ    C855100   1.335   5.229  14.920  0.1547  0.2528 -0.0763
    21BTZ    C955101   1.350   4.950  14.884 -0.0814  0.2443 -0.1121
    21BTZ   C1055102   1.227   5.009  14.868 -0.0009  0.3723 -0.2645
    21BTZ   C1155103   1.216   5.151  14.886  0.1200  0.3806 -0.2513
    21BTZ    N255104   1.317   5.361  14.935  0.2689  0.2688 -0.0746
    21BTZ    N355105   1.102   5.219  14.873  0.2064  0.4992 -0.3903
    21BTZ    S355106   1.143   5.391  14.905  0.3385  0.4516 -0.3015
    31IDT   C1255107   1.120   4.923  14.847 -0.0194  0.2285  0.5386
    31IDT   C1355108   1.121   4.825  14.751  0.2635  0.0305  0.7377
    31IDT   C1455109   0.992   4.766  14.732  0.3967 -0.2593  0.7334
    31IDT   C1555110   0.893   4.817  14.813  0.2166 -0.2840  0.5311
    31IDT    S455111   0.956   4.947  14.921 -0.1388  0.0609  0.3292
    4IDB    C1655112   0.764   4.751  14.796  0.1292  0.0816 -0.3977
    4IDB    C1755113   0.787   4.656  14.692  0.0213 -0.1911 -0.1757
    51IDQ   C1855114   0.937   4.661  14.642  0.5637  1.5330 -0.5979
    4IDB    C1955115   0.685   4.575  14.645 -0.0774 -0.1676 -0.0032
    51IDQ   C2055116   0.994   4.518  14.674  1.2870 -0.0582 -0.9841
    51IDQ   C2155117   0.973   4.685  14.495  0.0462 -1.4181  0.3020
    51IDQ   C2255118   0.854   4.735  14.391 -0.8233 -0.1445 -0.9047
    51IDQ   C2355119   1.094   4.501  14.790  0.2886 -0.4719  0.8287
    51IDQ   C2455120   0.797   4.637  14.296  0.2930  0.0300  0.0397
    51IDQ   C2555121   0.915   4.581  14.214  0.1764  0.2380 -0.0554
    51IDQ   C2655122   0.876   4.497  14.098  0.2616 -0.1794  1.2901
    51IDQ   C2755123   0.989   4.465  13.989 -0.0355  0.1417  0.4394
    51IDQ   C2855124   0.948   4.332  13.906 -1.3169 -0.4437 -0.4890
    51IDQ   C2955125   0.891   4.351  13.770  0.2199  0.0126 -0.2716
    51IDQ   C3055126   1.159   4.366  14.765 -0.6990  1.2527 -0.0908
    51IDQ   C3155127   1.293   4.367  14.831  0.0367 -0.5193  0.2023
    51IDQ   C3255128   1.382   4.250  14.814 -0.6629  0.1806 -0.1246
    51IDQ   C3355129   1.342   4.117  14.893 -0.0506 -0.7376 -0.5578
    51IDQ   C3455130   1.210   4.044  14.855 -0.0065  0.9196  0.2833
    51IDQ   C3555131   1.238   3.906  14.922  1.6114 -0.1133  0.4754
    4IDB    C3655132   0.637   4.765  14.854  0.1389  0.3810 -0.4473
    4IDB    C3755133   0.533   4.682  14.804  0.0371  0.4003 -0.2685
    11RH    C3855134   2.099   5.367  14.899  0.2121 -1.1413  0.0420
    4IDB    C3955135   0.557   4.589  14.703 -0.0677  0.1316 -0.0529
    62IDT   C4055136   0.434   4.527  14.663 -0.5946  0.9693 -0.3889
    72IDQ   C4155137   0.383   4.668  14.856 -0.2774  0.0993  1.1487
    62IDT   C4255138   0.334   4.562  14.752 -0.9116  0.8004 -0.6759
    72IDQ   C4355139   0.300   4.791  14.833  0.2654  0.4404  0.3214
    72IDQ   C4455140   0.367   4.610  15.007 -0.6399 -0.5250  0.9287
    62IDT    S555141   0.381   4.401  14.547  0.2189  0.2532 -0.0107
    62IDT   C4555142   0.218   4.402  14.628  0.0809 -0.2620 -0.2736
    62IDT   C4655143   0.212   4.491  14.732 -0.5302  0.1038 -0.6115
    82BTZ   C4755144   0.114   4.315  14.588  0.2539 -0.1398  0.0468
    82BTZ   C4855145   0.128   4.252  14.467  0.2447 -0.0038 -0.0255
    82BTZ   C4955146   0.022   4.172  14.411  0.1909  0.1686 -0.1714
    82BTZ   C5055147  -0.097   4.155  14.475  0.1466  0.2047 -0.2439
    82BTZ   C5155148  -0.010   4.301  14.659  0.2085 -0.1085 -0.0248
    82BTZ   C5255149  -0.117   4.219  14.602  0.1539  0.0666 -0.1729
    92RH    C5355150  -0.194   4.055  14.421  0.0817  0.0525 -0.1730
    82BTZ    N455151  -0.035   4.357  14.778  0.2124 -0.2303  0.0343
    82BTZ    N555152  -0.229   4.210  14.674  0.1137  0.0857 -0.2327
    82BTZ    S655153  -0.201   4.307  14.822  0.1447 -0.1238 -0.0998
    92RH    C5455154  -0.200   3.971  14.318  0.0582  0.0966 -0.2077
    92RH     S755155  -0.077   3.952  14.183  0.0396  0.1368 -0.2306
    92RH    C5555156  -0.313   3.876  14.296  0.0432  0.1204 -0.2334
    92RH     O255157  -0.412   3.864  14.370  0.0504  0.1028 -0.2267
    92RH     N655158  -0.293   3.799  14.180  0.0190  0.1667 -0.2681
    92RH    C5655159  -0.180   3.820  14.105  0.0129  0.1830 -0.2735
    92RH    C5755160  -0.402   3.697  14.146  0.8547 -0.9703  0.1699
    92RH    C5855161  -0.532   3.736  14.067  0.6522 -0.1566  0.0431
    92RH     S855162  -0.133   3.742  13.963 -0.0143  0.2363 -0.3116
    72IDQ   C5955163   0.442   4.478  15.049  0.1777 -1.3663 -0.0710
    72IDQ   C6055164   0.539   4.489  15.168 -0.0896  0.0771 -0.5843
    72IDQ   C6155165   0.555   4.349  15.242 -0.5666  0.3480  0.5397
    72IDQ   C6255166   0.671   4.351  15.339 -0.8659  0.6036  1.1496
    72IDQ   C6355167   0.746   4.215  15.343 -0.4834 -0.1798 -0.3322
    72IDQ   C6455168   0.875   4.205  15.420  1.0016  0.2710 -0.1462
    72IDQ   C6555169   0.912   4.059  15.430  0.1551  0.3736  0.0184
    72IDQ   C6655170   0.292   4.917  14.926 -1.3463  0.1631  0.4057
    72IDQ   C6755171   0.156   4.966  14.928  0.4288  0.9427 -0.5494
    72IDQ   C6855172   0.118   5.116  14.975  0.2383  1.0697  0.4276
    72IDQ   C6955173  -0.029   5.153  14.980 -0.0856  0.1722  0.6291
    72IDQ   C7055174  -0.050   5.274  15.073 -0.2031 -0.7423 -0.2912
    72IDQ   C7155175  -0.031   5.255  15.228  1.0289  0.3592 -0.3275
    72IDQ   C7255176  -0.085   5.119  15.280 -0.1977 -0.2333  0.1125
    11RH     C155177   4.246   4.964  18.658  0.5903  0.0319 -0.1879
    11RH     C255178   4.224   5.111  18.653  0.3490 -0.0023 -0.1578
    11RH     N155179   4.150   4.895  18.581  0.5147 -0.1274  0.0470
    11RH     S155180   4.079   5.148  18.546  0.0388 -0.2415  0.1788
    11RH     C355181   4.054   4.968  18.515  0.2426 -0.2849  0.2627
    11RH     C455182   4.144   4.745  18.584 -0.1912 -0.2260  0.7293
    11RH     S255183   3.930   4.910  18.417  0.1000 -0.4916  0.5636
    11RH     O155184   4.336   4.907  18.722  0.8303  0.1801 -0.3920
    11RH     C555185   4.301   5.200  18.717  0.3642  0.1261 -0.3517
    21BTZ    C655186   4.292   5.342  18.740  0.1361  0.1192 -0.0349
    21BTZ    C755187   4.193   5.427  18.698  0.0335  0.0607  0.0858
    21BTZ    C855188   4.394   5.392  18.827  0.1183  0.1371 -0.0243
    21BTZ    C955189   4.190   5.565  18.740 -0.0911  0.0169  0.2227
    21BTZ   C1055190   4.285   5.618  18.823 -0.1127  0.0317  0.2381
    21BTZ   C1155191   4.391   5.532  18.869 -0.0083  0.0926  0.1144
    21BTZ    N255192   4.495   5.319  18.874  0.2106  0.1929 -0.1345
    21BTZ    N355193   4.489   5.572  18.951 -0.0175  0.1128  0.1159
    21BTZ    S355194   4.593   5.428  18.977  0.1384  0.1910 -0.0637
    31IDT   C1255195   4.291   5.768  18.850  0.1696 -0.1185  0.3433
    31IDT   C1355196   4.322   5.825  18.971  0.3903 -0.1500  0.3037
    31IDT   C1455197   4.281   5.962  18.979  0.4828 -0.1272  0.3815
    31IDT   C1555198   4.220   6.010  18.865  0.3337 -0.0787  0.4817
    31IDT    S455199   4.209   5.884  18.737  0.0619 -0.0577  0.4844
    4IDB    C1655200   4.186   6.149  18.891  0.1980 -0.4046  0.0527
    4IDB    C1755201   4.209   6.184  19.027  0.3639 -0.5155  0.0539
    51IDQ   C1855202   4.280   6.063  19.098 -1.3200  1.1539  1.1177
    4IDB    C1955203   4.182   6.312  19.074  0.5372 -0.5172  0.1628
    51IDQ   C2055204   4.425   6.102  19.146 -0.0549  0.2775  0.3617
    51IDQ   C2155205   4.215   6.000  19.233  0.4530  0.2023 -0.4797
    51IDQ   C2255206   4.117   6.086  19.313  0.5884 -0.2750 -0.1116
    51IDQ   C2355207   4.552   6.020  19.110  0.7866 -1.0976 -0.4418
    51IDQ   C2455208   4.177   6.223  19.372  0.6919  0.1389 -0.2741
    51IDQ   C2555209   4.062   6.295  19.443  0.3000 -0.4527 -0.0288
    51IDQ   C2655210   4.114   6.422  19.501 -0.1005 -0.1173  0.0422
    51IDQ   C2755211   4.026   6.543  19.496 -0.0435 -0.0509 -0.4003
    51IDQ   C2855212   4.094   6.656  19.557 -0.2495  0.4690 -1.4373
    51IDQ   C2955213   4.030   6.786  19.538  0.4619 -0.8416 -1.5487
    51IDQ   C3055214   4.626   6.061  18.983 -1.3241  0.0778  0.3071
    51IDQ   C3155215   4.692   6.192  18.951  0.0558  0.2743  0.5018
    51IDQ   C3255216   4.599   6.292  18.889 -0.9543 -0.4334  0.9044
    51IDQ   C3355217   4.670   6.421  18.862  0.3665 -0.6751  0.5990
    51IDQ   C3455218   4.587   6.511  18.775 -0.0732 -0.0724  0.0632
    51IDQ   C3555219   4.651   6.654  18.729  0.5530  0.9594 -0.0107
    4IDB    C3655220   4.135   6.242  18.800  0.2048 -0.2941  0.1616
    4IDB    C3755221   4.108   6.373  18.849  0.3831 -0.2978  0.2723
    11RH    C3855222   4.203   4.680  18.466  0.3513  0.5484  0.0078
    4IDB    C3955223   4.131   6.406  18.982  0.5440 -0.4069  0.2712
    62IDT   C4055224   4.094   6.550  19.003  0.3715 -0.2031  0.5999
    72IDQ   C4155225   4.071   6.500  18.768  0.8774  0.3541 -0.4441
    62IDT   C4255226   4.064   6.605  18.879  0.2043 -0.9003  0.3228
    72IDQ   C4355227   3.926   6.471  18.711 -0.3227 -0.5910  0.3259
    72IDQ   C4455228   4.183   6.540  18.669  0.5276  0.2775  0.6711
    62IDT    S555229   4.078   6.671  19.135 -0.0225  0.4045  0.0137
    62IDT   C4555230   4.030   6.794  19.011 -0.4113 -0.3530 -0.6051
    62IDT   C4655231   4.027   6.743  18.884 -0.2383 -0.9859 -0.3595
    82BTZ   C4755232   4.012   6.929  19.053  0.2950  0.0790  0.1248
    82BTZ   C4855233   4.072   6.966  19.170  0.1954  0.0428  0.1874
    82BTZ   C4955234   4.039   7.091  19.235 -0.0906 -0.1202  0.3614
    82BTZ   C5055235   3.948   7.178  19.183 -0.2764 -0.2467  0.4731
    82BTZ   C5155236   3.916   7.016  18.994  0.1087 -0.0492  0.2370
    82BTZ   C5255237   3.883   7.143  19.060 -0.1819 -0.2149  0.4139
    92RH    C5355238   3.909   7.304  19.228  0.2614 -0.1613 -0.0913
    82BTZ    N455239   3.851   6.991  18.879  0.1811 -0.0290  0.1922
    82BTZ    N555240   3.792   7.219  18.999 -0.3430 -0.3279  0.5107
    82BTZ    S655241   3.743   7.131  18.851 -0.1254 -0.2253  0.3771
    92RH    C5455242   3.919   7.378  19.339  0.1650 -0.1270 -0.1054
    92RH     S755243   3.968   7.320  19.506  0.1627 -0.0461 -0.0768
    92RH    C5555244   3.889   7.523  19.344  0.0410 -0.1504 -0.1493
    92RH     O255245   3.853   7.593  19.247  0.0123 -0.2035 -0.1774
    92RH     N655246   3.907   7.576  19.473 -0.0432 -0.1045 -0.1561
    92RH    C5655247   3.947   7.490  19.574 -0.0018 -0.0471 -0.1230
    92RH    C5755248   3.875   7.725  19.490  0.8581  1.2043 -0.5223
    92RH    C5855249   3.997   7.824  19.473  0.4494  0.3524 -0.2209
    92RH     S855250   3.976   7.527  19.736 -0.0828  0.0153 -0.1230
    72IDQ   C5955251   4.174   6.506  18.519  0.5753  0.0376 -0.8245
    72IDQ   C6055252   4.216   6.637  18.451  0.3084 -0.1942  0.0361
    72IDQ   C6155253   4.234   6.632  18.299 -0.6682 -0.8660  0.1631
    72IDQ   C6255254   4.113   6.597  18.209  0.1327 -0.4755  0.3257
    72IDQ   C6355255   3.978   6.677  18.227 -0.4564 -0.0008  0.5132
    72IDQ   C6455256   3.940   6.776  18.121 -0.2410  0.3546  0.5184
    72IDQ   C6555257   4.018   6.905  18.130  0.0520 -0.9408 -0.6355
    72IDQ   C6655258   3.872   6.592  18.625  0.0032  0.5136  0.3735
    72IDQ   C6755259   3.724   6.572  18.569 -0.3813  0.1047 -0.2693
    72IDQ   C6855260   3.660   6.690  18.502  0.2479 -0.1912  0.4120
    72IDQ   C6955261   3.653   6.825  18.576 -0.3390 -0.7031  0.2563
    72IDQ   C7055262   3.569   6.921  18.499  0.5657  0.2651  0.5871
    72IDQ   C7155263   3.581   7.073  18.519  0.0415  0.0837 -1.5308
    72IDQ   C7255264   3.720   7.145  18.513 -0.3759  1.0590 -0.1041
    11RH     C155265   6.868   5.752   9.262  0.3564 -0.2818  0.3667
    11RH     C255266   6.798   5.783   9.389  0.1472 -0.2948  0.2546
    11RH     N155267   6.789   5.671   9.177  0.3201  0.0853  0.0452
    11RH     S155268   6.632   5.703   9.388 -0.0839  0.1769 -0.2663
    11RH     C355269   6.664   5.634   9.221  0.1070  0.3684 -0.3111
    11RH     C455270   6.827   5.635   9.036 -0.2172  0.0877  0.4237
    11RH     S255271   6.551   5.539   9.140  0.0197  0.8266 -0.7370
    11RH     O155272   6.982   5.791   9.231  0.5425 -0.5544  0.6986
    11RH     C555273   6.851   5.857   9.486  0.1358 -0.6090  0.5050
    21BTZ    C655274   6.798   5.914   9.607 -0.0419 -0.1525  0.0998
    21BTZ    C755275   6.666   5.897   9.639 -0.0075 -0.2036  0.2172
    21BTZ    C855276   6.881   5.990   9.697  0.0024 -0.0989  0.0136
    21BTZ    C955277   6.609   5.953   9.759  0.0718 -0.2050  0.2553
    21BTZ   C1055278   6.685   6.026   9.848  0.1164 -0.1552  0.1763
    21BTZ   C1155279   6.824   6.047   9.819  0.0830 -0.1005  0.0525
    21BTZ    N255280   7.011   6.013   9.676 -0.0248 -0.0464 -0.1030
    21BTZ    N355281   6.907   6.116   9.897  0.1205 -0.0490 -0.0329
    21BTZ    S355282   7.067   6.111   9.816  0.0530  0.0045 -0.1695
    31IDT   C1255283   6.623   6.065   9.981 -0.0012  0.7484  0.4021
    31IDT   C1355284   6.677   6.090  10.104 -0.4190  1.2121  0.4964
    31IDT   C1455285   6.579   6.086  10.209 -0.6440  0.8080  0.2775
    31IDT   C1555286   6.451   6.059  10.166 -0.4000  0.0356  0.0148
    31IDT    S455287   6.444   6.035   9.988  0.1387 -0.2426  0.0253
    4IDB    C1655288   6.359   6.067  10.275 -0.6350 -0.1924  0.0635
    4IDB    C1755289   6.434   6.083  10.395 -0.3568 -0.2890 -0.0956
    51IDQ   C1855290   6.591   6.097  10.361  1.6908  0.1839  0.2682
    4IDB    C1955291   6.370   6.086  10.519 -0.0972 -0.1263  0.0352
    51IDQ   C2055292   6.651   6.236  10.420  1.1109  0.2425 -0.3748
    51IDQ   C2155293   6.669   5.985  10.420 -1.2349 -0.1312 -0.5518
    51IDQ   C2255294   6.629   5.847  10.473  0.1232 -0.0533  0.4931
    51IDQ   C2355295   6.614   6.372  10.357  0.5856 -0.3332  0.5547
    51IDQ   C2455296   6.568   5.750  10.376 -1.0252  0.3498 -0.7005
    51IDQ   C2555297   6.458   5.663  10.439 -0.5871  0.6319  0.2506
    51IDQ   C2655298   6.358   5.734  10.531  0.7882  0.6246 -0.0697
    51IDQ   C2755299   6.246   5.630  10.564  0.1275  0.6283  0.4811
    51IDQ   C2855300   6.135   5.701  10.644  0.1596 -1.1107 -0.3355
    51IDQ   C2955301   6.086   5.634  10.775  0.0201  0.1704 -0.0594
    51IDQ   C3055302   6.661   6.413  10.217 -0.7371 -0.4146  1.0141
    51IDQ   C3155303   6.593   6.540  10.155  0.0805 -0.5977 -0.1810
    51IDQ   C3255304   6.435   6.521  10.144 -0.6354 -0.3186 -0.5592
    51IDQ   C3355305   6.378   6.414  10.044  0.0929 -0.1672  0.3623
    51IDQ   C3455306   6.426   6.418   9.900  0.8954  0.0522  0.2740
    51IDQ   C3555307   6.395   6.536   9.810 -1.3901 -1.1895 -0.4764
    4IDB    C3655308   6.219   6.055  10.278 -0.6552  0.0693  0.3552
    4IDB    C3755309   6.156   6.059  10.405 -0.3875  0.2331  0.4847
    11RH    C3855310   6.798   5.765   8.945 -0.6396  0.8944 -0.0875
    4IDB    C3955311   6.231   6.074  10.522 -0.1174  0.1356  0.3270
    62IDT   C4055312   6.140   6.083  10.636 -0.4076 -0.2150 -0.1617
    72IDQ   C4155313   6.010   6.067  10.432 -0.0529  0.8908 -0.4742
    62IDT   C4255314   6.011   6.059  10.593 -0.5474  0.2105  0.0062
    72IDQ   C4355315   5.942   5.936  10.376 -0.2330  0.2107 -0.7136
    72IDQ   C4455316   5.936   6.188  10.368 -0.3318 -0.3783  0.6874
    62IDT    S555317   6.144   6.134  10.808 -0.0189 -0.1796 -0.1805
    62IDT   C4555318   5.963   6.119  10.813 -0.0680  0.4384  0.0511
    62IDT   C4655319   5.911   6.079  10.692 -0.3557  0.5803  0.1271
    82BTZ   C4755320   5.888   6.145  10.939 -0.3065  0.0176 -0.1565
    82BTZ   C4855321   5.957   6.213  11.036 -0.1332 -0.1702 -0.1457
    82BTZ   C4955322   5.900   6.238  11.166  0.0727 -0.3624 -0.0169
    82BTZ   C5055323   5.774   6.195  11.199  0.1048 -0.3665  0.1005
    82BTZ   C5155324   5.756   6.097  10.969 -0.2810  0.0215 -0.0365
    82BTZ   C5255325   5.698   6.123  11.101 -0.0718 -0.1739  0.0942
    92RH    C5355326   5.709   6.199  11.326  0.0467  0.4437  0.0357
    82BTZ    N455327   5.679   6.030  10.883 -0.4377  0.1943 -0.0336
    82BTZ    N555328   5.575   6.075  11.121 -0.0603 -0.1581  0.2019
    82BTZ    S655329   5.527   5.995  10.969 -0.3219  0.1129  0.1389
    92RH    C5455330   5.744   6.238  11.449  0.0943  0.2645  0.0806
    92RH     S755331   5.897   6.329  11.495  0.1390  0.1478  0.1623
    92RH    C5555332   5.662   6.214  11.570  0.1189  0.1285  0.0701
    92RH     O255333   5.553   6.155  11.572  0.0986  0.1640  0.0198
    92RH     N655334   5.724   6.267  11.685  0.1691 -0.0503  0.1258
    92RH    C5655335   5.846   6.330  11.672  0.1879 -0.0747  0.1791
    92RH    C5755336   5.653   6.249  11.820 -0.1948  0.4077 -0.7280
    92RH    C5855337   5.711   6.135  11.896 -0.3627  1.2341 -0.2369
    92RH     S855338   5.939   6.401  11.792  0.2463 -0.2723  0.2506
    72IDQ   C5955339   5.956   6.339  10.403  0.0528 -0.2698  0.1088
    72IDQ   C6055340   5.906   6.417  10.525  0.2560 -0.1227 -0.9982
    72IDQ   C6155341   5.761   6.399  10.566  0.2497 -0.4620  0.1852
    72IDQ   C6255342   5.725   6.443  10.710 -0.4447  0.2308  0.7916
    72IDQ   C6355343   5.579   6.445  10.712  0.5118  0.4531 -0.5155
    72IDQ   C6455344   5.513   6.457  10.851  0.0315 -0.5665  0.9854
    72IDQ   C6555345   5.418   6.356  10.901  0.0224  0.2548  0.3513
    72IDQ   C6655346   5.787   5.929  10.366  0.1295  1.1445 -0.1828
    72IDQ   C6755347   5.702   5.892  10.490  0.4166 -0.0894  0.5033
    72IDQ   C6855348   5.551   5.942  10.473 -0.2996  0.8379 -0.5937
    72IDQ   C6955349   5.455   5.886  10.577  0.6435  0.5710  0.3846
    72IDQ   C7055350   5.419   5.997  10.671  0.0954 -0.8018  0.5083
    72IDQ   C7155351   5.323   6.109  10.614  0.0800 -0.5385 -0.4024
    72IDQ   C7255352   5.185   6.066  10.567 -0.1635 -0.1356  0.8949
    11RH     C155353   1.558   6.437   2.056 -0.0216 -0.0060 -0.0569
    11RH     C255354   1.471   6.366   1.959  0.0770  0.1427 -0.2542
    11RH     N155355   1.482   6.513   2.147 -0.1156 -0.1622 -0.0038
    11RH     S155356   1.295   6.405   1.994  0.0399  0.0674 -0.3570
    11RH     C355357   1.345   6.512   2.135 -0.1042 -0.1568 -0.1343
    11RH     C455358   1.559   6.601   2.246 -0.2748 -0.4520  0.1349
    11RH     S255359   1.232   6.594   2.230 -0.2023 -0.3232 -0.1069
    11RH     O155360   1.682   6.431   2.059 -0.0239  0.0020  0.0510
    11RH     C555361   1.518   6.287   1.862  0.1766  0.3052 -0.3392
    21BTZ    C655362   1.445   6.214   1.757  0.0751  0.5086 -0.0863
    21BTZ    C755363   1.309   6.202   1.745  0.0689  0.5392 -0.0477
    21BTZ    C855364   1.529   6.132   1.675  0.0332  0.3175  0.0598
    21BTZ    C955365   1.249   6.109   1.652  0.0216  0.3847  0.1353
    21BTZ   C1055366   1.325   6.029   1.572 -0.0195  0.1999  0.2794
    21BTZ   C1155367   1.468   6.038   1.580 -0.0149  0.1603  0.2459
    21BTZ    N255368   1.663   6.134   1.678  0.0345  0.2697  0.0393
    21BTZ    N355369   1.552   5.965   1.507 -0.0522 -0.0136  0.3749
    21BTZ    S355370   1.717   6.014   1.557 -0.0269  0.0168  0.2616
    31IDT   C1255371   1.257   5.937   1.485 -0.2505 -0.2626 -0.2438
    31IDT   C1355372   1.306   5.866   1.379 -0.2575  0.1336 -0.5172
    31IDT   C1455373   1.204   5.791   1.312 -0.3342  0.6882 -1.0383
    31IDT   C1555374   1.078   5.804   1.366 -0.3863  0.7185 -1.1653
    31IDT    S455375   1.078   5.914   1.508 -0.3416  0.0409 -0.6299
    4IDB    C1655376   0.984   5.722   1.291  0.3938 -0.2445  0.4262
    4IDB    C1755377   1.044   5.668   1.174  0.7496 -0.3942  0.6738
    51IDQ   C1855378   1.197   5.701   1.183 -0.2491 -1.3638  0.3283
    4IDB    C1955379   0.971   5.590   1.085  0.9453 -0.2922  0.4183
    51IDQ   C2055380   1.277   5.563   1.183 -0.3691  0.1762  0.3848
    51IDQ   C2155381   1.244   5.795   1.054 -0.0601 -0.1405 -0.6756
    51IDQ   C2255382   1.151   5.841   0.947 -0.3856  0.6587 -0.1624
    51IDQ   C2355383   1.373   5.505   1.284  0.4243 -0.0408 -0.0826
    51IDQ   C2455384   1.198   5.901   0.806  0.2548 -0.4424  0.6613
    51IDQ   C2555385   1.279   6.032   0.788  0.5616 -0.7073  0.0109
    51IDQ   C2655386   1.402   6.059   0.875 -0.4394 -0.4514  0.1584
    51IDQ   C2755387   1.518   5.961   0.860  0.1665  0.2251  0.2566
    51IDQ   C2855388   1.593   5.943   0.993 -0.1543 -0.2626 -0.0745
    51IDQ   C2955389   1.671   5.801   1.000 -0.3245 -0.1572  0.7191
    51IDQ   C3055390   1.310   5.371   1.289 -0.1964  0.7583 -0.1060
    51IDQ   C3155391   1.394   5.252   1.346  1.4705 -0.0344  1.3112
    51IDQ   C3255392   1.435   5.253   1.489  0.5875  0.5216  0.3678
    51IDQ   C3355393   1.569   5.198   1.522 -0.5623 -0.0250 -1.1472
    51IDQ   C3455394   1.643   5.099   1.435  0.0102  0.3348  0.6907
    51IDQ   C3555395   1.789   5.122   1.428  0.0284 -0.1590  0.1475
    4IDB    C3655396   0.849   5.698   1.321  0.2307  0.0101 -0.0815
    4IDB    C3755397   0.775   5.618   1.230  0.4347  0.1112 -0.3365
    11RH    C3855398   1.563   6.552   2.393  0.1319  0.3539  0.5580
    4IDB    C3955399   0.836   5.566   1.115  0.7822 -0.0377 -0.0894
    62IDT   C4055400   0.732   5.495   1.030 -0.3604  0.0901 -0.5200
    72IDQ   C4155401   0.632   5.562   1.247 -0.2845 -0.6989  0.2500
    62IDT   C4255402   0.621   5.487   1.111 -0.5679  0.3500 -0.7756
    72IDQ   C4355403   0.525   5.670   1.264  0.0973 -0.8589 -0.5589
    72IDQ   C4455404   0.642   5.460   1.367 -0.3458  0.6247  0.1804
    62IDT    S555405   0.708   5.410   0.874  0.1631 -0.7064 -0.1791
    62IDT   C4555406   0.540   5.366   0.929  0.0692 -0.6431 -0.4114
    62IDT   C4655407   0.512   5.414   1.054 -0.3254 -0.0640 -0.7145
    82BTZ   C4755408   0.451   5.267   0.857  0.0726  0.1158 -0.0566
    82BTZ   C4855409   0.506   5.177   0.770  0.1203  0.1022 -0.0129
    82BTZ   C4955410   0.424   5.085   0.695  0.1670  0.0389  0.0134
    82BTZ   C5055411   0.288   5.083   0.707  0.1660 -0.0110 -0.0040
    82BTZ   C5155412   0.309   5.269   0.874  0.0696  0.0654 -0.0763
    82BTZ   C5255413   0.226   5.176   0.798  0.1171  0.0010 -0.0496
    92RH    C5355414   0.200   4.984   0.642  0.3035  0.5333 -0.5543
    82BTZ    N455415   0.244   5.352   0.956  0.0254  0.0730 -0.1185
    82BTZ    N555416   0.094   5.184   0.818  0.1111 -0.0432 -0.0703
    82BTZ    S655417   0.070   5.313   0.939  0.0431 -0.0038 -0.1260
    92RH    C5455418   0.213   4.880   0.559  0.1192  0.2793 -0.2684
    92RH     S755419   0.368   4.815   0.487  0.0170 -0.2722  0.0030
    92RH    C5555420   0.098   4.800   0.511 -0.0352  0.4122 -0.1239
    92RH     O255421  -0.021   4.819   0.541 -0.0129  0.7669 -0.2474
    92RH     N655422   0.139   4.697   0.424 -0.2156  0.0813  0.1786
    92RH    C5655423   0.274   4.684   0.397 -0.2246 -0.3005  0.2941
    92RH    C5755424   0.038   4.609   0.350 -0.3912 -0.4203  0.8190
    92RH    C5855425   0.010   4.484   0.416 -0.8596  0.1726 -0.6745
    92RH     S855426   0.349   4.571   0.298 -0.4203 -0.7421  0.6448
    72IDQ   C5955427   0.633   5.498   1.519  0.2547 -0.2201  0.1204
    72IDQ   C6055428   0.684   5.381   1.604  0.3147  0.6372 -0.8657
    72IDQ   C6155429   0.744   5.419   1.741 -0.2811 -0.7000  1.2803
    72IDQ   C6255430   0.735   5.311   1.853 -0.1592  0.5181  0.2143
    72IDQ   C6355431   0.782   5.369   1.990 -0.5240  1.1083  0.0484
    72IDQ   C6455432   0.930   5.414   2.006 -0.0718  0.4677  0.1777
    72IDQ   C6555433   1.022   5.300   2.053 -0.4325 -0.6304  0.1870
    72IDQ   C6655434   0.455   5.748   1.151  0.6996  0.3155 -0.4729
    72IDQ   C6755435   0.382   5.880   1.194  0.1465  0.5709 -0.1770
    72IDQ   C6855436   0.352   5.962   1.070 -1.1641  0.2768 -0.6738
    72IDQ   C6955437   0.281   6.078   1.114 -0.2862 -0.5823 -0.5490
    72IDQ   C7055438   0.234   6.191   1.025 -0.1545  0.5625  0.7001
    72IDQ   C7155439   0.153   6.158   0.896 -0.8637  0.5373 -0.0231
    72IDQ   C7255440   0.137   6.256   0.780  0.4249  0.2204  0.4952
    11RH     C155441   4.742   5.089  24.734  0.2052  0.1371  0.0362
    11RH     C255442   4.712   4.944  24.745  0.0896  0.1521 -0.0796
    11RH     N155443   4.640   5.157  24.664  0.1167  0.3212  0.3381
    11RH     S155444   4.553   4.907  24.661 -0.1278  0.4071  0.2168
    11RH     C355445   4.533   5.085  24.617 -0.0556  0.4817  0.4792
    11RH     C455446   4.637   5.307  24.670  0.0922  0.0613 -0.0845
    11RH     S255447   4.400   5.142  24.530 -0.1894  0.7155  0.8354
    11RH     O155448   4.842   5.146  24.781  0.3605 -0.0156 -0.1092
    11RH     C555449   4.793   4.856  24.807  0.1411 -0.0010 -0.3590
    21BTZ    C655450   4.792   4.717  24.822 -0.2388  0.0820  0.4839
    21BTZ    C755451   4.703   4.636  24.757 -0.2037  0.1295  0.3762
    21BTZ    C855452   4.898   4.655  24.897 -0.0310  0.0273  0.1502
    21BTZ    C955453   4.712   4.492  24.763  0.0358  0.1255 -0.0615
    21BTZ   C1055454   4.812   4.429  24.833  0.2395  0.0742 -0.3908
    21BTZ   C1155455   4.908   4.509  24.903  0.2122  0.0232 -0.2942
    21BTZ    N255456   4.992   4.723  24.965 -0.0420 -0.0218  0.2151
    21BTZ    N355457   5.009   4.460  24.974  0.3968 -0.0291 -0.5870
    21BTZ    S355458   5.098   4.601  25.040  0.2648 -0.0766 -0.3001
    31IDT   C1255459   4.817   4.275  24.830 -0.2691 -0.0957  0.8254
    31IDT   C1355460   4.869   4.187  24.921 -0.0162 -0.1594  0.6199
    31IDT   C1455461   4.871   4.052  24.873  0.4697 -0.0324  0.2632
    31IDT   C1555462   4.820   4.037  24.746  0.5907  0.1285  0.1938
    31IDT    S455463   4.765   4.193  24.676  0.0937  0.1317  0.5790
    4IDB    C1655464   4.825   3.896  24.704 -0.2070  0.1072  0.0797
    4IDB    C1755465   4.893   3.818  24.803 -0.6803 -0.1724  0.1907
    51IDQ   C1855466   4.923   3.909  24.928 -0.0990  0.0986  0.1816
    4IDB    C1955467   4.922   3.684  24.780 -0.8143 -0.1801  0.0624
    51IDQ   C2055468   4.840   3.838  25.053 -0.6239 -0.6539  0.5462
    51IDQ   C2155469   5.074   3.919  24.961  0.3029  0.6430  0.6830
    51IDQ   C2255470   5.188   3.853  24.880  0.1821 -0.0532  0.4399
    51IDQ   C2355471   4.702   3.887  25.103 -0.8280 -0.3163 -0.2941
    51IDQ   C2455472   5.322   3.819  24.952 -0.0311 -0.2317 -0.0364
    51IDQ   C2555473   5.393   3.897  25.069  0.3762  0.3093  0.5619
    51IDQ   C2655474   5.435   4.045  25.035 -0.3695  0.3470  0.0354
    51IDQ   C2755475   5.457   4.129  25.153  0.1094  0.5358 -0.2493
    51IDQ   C2855476   5.327   4.172  25.238 -0.7708  0.3982  0.6312
    51IDQ   C2955477   5.213   4.234  25.144 -0.0147  0.4023  0.3880
    51IDQ   C3055478   4.712   3.986  25.224 -0.2091 -0.6378 -0.4413
    51IDQ   C3155479   4.595   4.029  25.297  0.5073 -0.7149  0.5519
    51IDQ   C3255480   4.466   4.080  25.221 -0.8785  0.4120 -0.3685
    51IDQ   C3355481   4.355   4.158  25.295  0.0402 -0.9182  0.4497
    51IDQ   C3455482   4.342   4.306  25.315 -0.2130 -0.0062  0.6164
    51IDQ   C3555483   4.205   4.352  25.369  0.2654 -0.5442 -0.0162
    4IDB    C3655484   4.786   3.840  24.582  0.1367  0.3823 -0.1616
    4IDB    C3755485   4.816   3.703  24.561 -0.0068  0.3700 -0.2899
    11RH    C3855486   4.546   5.371  24.779  0.1438  0.0795 -0.4095
    4IDB    C3955487   4.882   3.628  24.658 -0.4705  0.0949 -0.1795
    62IDT   C4055488   4.909   3.495  24.603  1.3167  0.6067 -0.3589
    72IDQ   C4155489   4.805   3.622  24.428  0.8567  0.4765  0.5879
    62IDT   C4255490   4.888   3.498  24.467  1.5478  0.5221 -0.3967
    72IDQ   C4355491   4.858   3.711  24.308 -1.1374 -0.2419 -0.6772
    72IDQ   C4455492   4.650   3.582  24.396 -1.3801 -0.0823 -0.0937
    62IDT    S555493   4.980   3.338  24.657 -0.2197  0.0238  0.0748
    62IDT   C4555494   4.977   3.283  24.484 -0.4811 -0.3201  0.1873
    62IDT   C4655495   4.927   3.378  24.399  0.5320 -0.0019 -0.0877
    82BTZ   C4755496   5.060   3.173  24.438 -0.1959  0.3980 -0.3134
    82BTZ   C4855497   5.167   3.144  24.518 -0.2962  0.4081 -0.1755
    82BTZ   C4955498   5.273   3.057  24.475 -0.3668  0.2015  0.0634
    82BTZ   C5055499   5.272   2.998  24.351 -0.3369 -0.0147  0.1644
    82BTZ   C5155500   5.055   3.115  24.307 -0.1608  0.1755 -0.2165
    82BTZ   C5255501   5.162   3.026  24.263 -0.2325 -0.0343  0.0267
    92RH    C5355502   5.383   2.909  24.295 -0.2416  0.1505  0.0015
    82BTZ    N455503   4.956   3.135  24.220 -0.0650  0.1435 -0.3328
    82BTZ    N555504   5.150   2.975  24.140 -0.1942 -0.2351  0.1054
    82BTZ    S655505   4.997   3.040  24.074 -0.0622 -0.1629 -0.1330
    92RH    C5455506   5.503   2.871  24.338 -0.2152  0.1820 -0.0448
    92RH     S755507   5.579   2.908  24.501 -0.2051  0.1101 -0.0332
    92RH    C5555508   5.597   2.790  24.256 -0.1891  0.2835 -0.1159
    92RH     O255509   5.576   2.749  24.141 -0.1886  0.3501 -0.1397
    92RH     N655510   5.717   2.765  24.326 -0.1640  0.2962 -0.1539
    92RH    C5655511   5.731   2.815  24.453 -0.1669  0.2175 -0.1225
    92RH    C5755512   5.815   2.655  24.280  0.4034 -0.0848  0.4170
    92RH    C5855513   5.947   2.701  24.217  1.6961  0.3387  0.3017
    92RH     S855514   5.863   2.799  24.557 -0.1408  0.2134 -0.1554
    72IDQ   C5955515   4.522   3.620  24.460  0.2856 -0.1544 -0.8100
    72IDQ   C6055516   4.413   3.517  24.430 -0.5090 -0.7153  0.6109
    72IDQ   C6155517   4.283   3.526  24.490 -0.7633 -0.1345 -0.4791
    72IDQ   C6255518   4.179   3.430  24.432 -0.2265 -0.1516 -0.3409
    72IDQ   C6355519   4.131   3.465  24.289  0.1807 -0.2471 -0.2791
    72IDQ   C6455520   4.015   3.379  24.235 -0.5398 -0.3282  0.4921
    72IDQ   C6555521   3.959   3.435  24.106 -0.6646 -0.1178  1.2064
    72IDQ   C6655522   5.000   3.711  24.254  0.5622  0.4584 -0.3444
    72IDQ   C6755523   5.099   3.781  24.356 -0.6670 -0.3994 -0.2104
    72IDQ   C6855524   5.239   3.834  24.301  0.1647  0.5378 -0.6839
    72IDQ   C6955525   5.369   3.794  24.394  0.1278  0.3000  0.5135
    72IDQ   C7055526   5.380   3.847  24.537 -0.5910 -1.1041  0.9905
    72IDQ   C7155527   5.462   3.977  24.532  0.0986  0.2052 -0.0313
    72IDQ   C7255528   5.607   3.969  24.584 -0.0872  0.0713  0.3787
    11RH     C155529   1.422   7.375  23.039 -0.2303 -0.2319 -0.2346
    11RH     C255530   1.560   7.429  23.037 -0.3411  0.0639 -0.0749
    11RH     N155531   1.340   7.442  22.944 -0.2699 -0.3904 -0.3126
    11RH     S155532   1.574   7.563  22.913 -0.4901  0.1142 -0.0365
    11RH     C355533   1.396   7.542  22.868 -0.3988 -0.2577 -0.2346
    11RH     C455534   1.197   7.403  22.934  0.2506  0.4287 -0.1815
    11RH     S255535   1.321   7.635  22.750 -0.4706 -0.3976 -0.3009
    11RH     O155536   1.380   7.284  23.112 -0.1162 -0.3331 -0.2956
    11RH     C555537   1.658   7.383  23.117 -0.3299  0.2579  0.0241
    21BTZ    C655538   1.800   7.411  23.129 -0.2098 -0.2602  0.3619
    21BTZ    C755539   1.871   7.505  23.057 -0.2763 -0.2126  0.3581
    21BTZ    C855540   1.867   7.341  23.235 -0.1115 -0.3302  0.2546
    21BTZ    C955541   2.009   7.533  23.086 -0.2499 -0.2311  0.2494
    21BTZ   C1055542   2.077   7.469  23.186 -0.1567 -0.2973  0.1448
    21BTZ   C1155543   2.007   7.371  23.264 -0.0845 -0.3489  0.1445
    21BTZ    N255544   1.809   7.249  23.312 -0.0402 -0.3811  0.2475
    21BTZ    N355545   2.062   7.301  23.364  0.0083 -0.4151  0.0482
    21BTZ    S355546   1.934   7.194  23.427  0.0665 -0.4570  0.0958
    31IDT   C1255547   2.221   7.490  23.195  0.1094 -0.4035  0.6148
    31IDT   C1355548   2.313   7.388  23.190  0.3283 -0.2288  0.9971
    31IDT   C1455549   2.446   7.434  23.167  0.2313 -0.0314  0.8287
    31IDT   C1555550   2.457   7.571  23.153 -0.0616 -0.0542  0.3184
    31IDT    S455551   2.298   7.653  23.169 -0.2388 -0.3299  0.0088
    4IDB    C1655552   2.592   7.615  23.159 -0.5164  0.0629  0.1068
    4IDB    C1755553   2.672   7.497  23.162 -0.3933  0.1325 -0.2613
    51IDQ   C1855554   2.587   7.368  23.172 -0.0046 -0.2382  0.1361
    4IDB    C1955555   2.811   7.504  23.164 -0.3998  0.2695 -0.2698
    51IDQ   C2055556   2.635   7.284  23.052 -0.0058  1.2856 -0.5179
    51IDQ   C2155557   2.614   7.261  23.296 -0.6914 -0.2126 -0.3950
    51IDQ   C2255558   2.731   7.288  23.400  0.7391  0.7810 -1.1914
    51IDQ   C2355559   2.530   7.226  22.960 -0.1706 -0.4514 -0.0487
    51IDQ   C2455560   2.694   7.188  23.517  0.2348  0.0489 -0.5172
    51IDQ   C2555561   2.792   7.188  23.627 -0.6820 -0.7419 -1.3697
    51IDQ   C2655562   2.870   7.051  23.655 -0.6416 -0.8172  0.5755
    51IDQ   C2755563   2.983   7.017  23.554 -0.7595  0.3554  1.1743
    51IDQ   C2855564   3.046   6.879  23.569  0.4117  0.2289  0.0390
    51IDQ   C2955565   3.164   6.851  23.481  0.2671  0.1378  0.6884
    51IDQ   C3055566   2.592   7.132  22.855  0.3143 -0.4613 -0.6203
    51IDQ   C3155567   2.699   7.185  22.752  0.0744  0.4915 -1.0640
    51IDQ   C3255568   2.663   7.304  22.670  0.0882 -0.1735  0.1546
    51IDQ   C3355569   2.544   7.286  22.575 -0.2550  0.0085  0.1047
    51IDQ   C3455570   2.593   7.215  22.448  0.2566  0.0830 -0.1033
    51IDQ   C3555571   2.475   7.207  22.354 -1.2567  0.4610 -0.0368
    4IDB    C3655572   2.652   7.743  23.158 -0.6477  0.1304  0.4711
    4IDB    C3755573   2.794   7.748  23.160 -0.6523  0.2704  0.4568
    11RH    C3855574   1.195   7.263  22.867 -0.6155 -0.0770 -0.0895
    4IDB    C3955575   2.870   7.631  23.163 -0.5311  0.3370  0.0948
    62IDT   C4055576   3.016   7.660  23.160  0.2744  0.2217 -0.2328
    72IDQ   C4155577   2.891   7.864  23.166  0.8714 -0.2318  0.8394
    62IDT   C4255578   3.028   7.796  23.149  0.4751  0.1575 -0.8640
    72IDQ   C4355579   2.881   7.942  23.307 -0.2428  0.5173 -1.0035
    72IDQ   C4455580   2.881   7.969  23.047 -0.0462 -0.1295  0.0794
    62IDT    S555581   3.176   7.578  23.160  0.1547 -0.0195  0.1308
    62IDT   C4555582   3.255   7.741  23.143  0.3941 -0.2033 -0.6260
    62IDT   C4655583   3.163   7.843  23.139  0.5431 -0.0829 -1.0867
    82BTZ   C4755584   3.399   7.744  23.123 -0.2903 -0.1622  0.3007
    82BTZ   C4855585   3.453   7.621  23.098 -0.3712 -0.1316 -0.0296
    82BTZ   C4955586   3.596   7.602  23.084 -0.4014 -0.1455 -0.3448
    82BTZ   C5055587   3.684   7.706  23.096 -0.3508 -0.1901 -0.3295
    82BTZ   C5155588   3.488   7.857  23.136 -0.2349 -0.2093  0.3309
    82BTZ   C5255589   3.632   7.837  23.123 -0.2657 -0.2234  0.0105
    92RH    C5355590   3.819   7.697  23.060 -0.2241 -0.0502 -0.2116
    82BTZ    N455591   3.447   7.981  23.161 -0.1550 -0.2423  0.6380
    82BTZ    N555592   3.708   7.946  23.137 -0.2104 -0.2678  0.0596
    82BTZ    S655593   3.595   8.082  23.168 -0.1148 -0.2939  0.5278
    92RH    C5455594   3.895   7.600  23.008 -0.1450  0.0023 -0.1955
    92RH     S755595   3.842   7.428  22.969 -0.0238 -0.0276 -0.2294
    92RH    C5555596   4.037   7.617  22.972 -0.1438  0.0958 -0.1450
    92RH     O255597   4.103   7.722  22.986 -0.2142  0.1359 -0.1130
    92RH     N655598   4.092   7.498  22.919 -0.0509  0.1353 -0.1378
    92RH    C5655599   4.011   7.388  22.907  0.0225  0.0849 -0.1760
    92RH    C5755600   4.238   7.492  22.881 -0.4023  0.5543 -1.0168
    92RH    C5855601   4.268   7.515  22.736 -0.2490 -0.2201 -0.4037
    92RH     S855602   4.051   7.235  22.848  0.1389  0.1159 -0.1774
    72IDQ   C5955603   2.749   8.046  23.037 -0.5002 -0.5066  0.2732
    72IDQ   C6055604   2.783   8.155  22.928  0.1556  0.4291  0.1691
    72IDQ   C6155605   2.690   8.269  22.932 -0.0069  0.4738 -0.6058
    72IDQ   C6255606   2.714   8.385  22.824 -0.1181  0.0889 -1.0710
    72IDQ   C6355607   2.804   8.509  22.848 -1.3105  0.6925 -0.1978
    72IDQ   C6455608   2.805   8.582  22.725 -0.7200 -0.6231  0.4737
    72IDQ   C6555609   2.881   8.703  22.764  0.2964 -0.9111 -0.1416
    72IDQ   C6655610   2.834   7.894  23.453 -0.5654 -0.5257  0.1481
    72IDQ   C6755611   2.685   7.862  23.472 -0.1747  0.2799  0.4227
    72IDQ   C6855612   2.591   7.980  23.474  1.0491 -0.6530  0.7874
    72IDQ   C6955613   2.453   7.925  23.517 -0.0908 -0.5317  0.6652
    72IDQ   C7055614   2.351   7.904  23.406 -0.3802 -0.3096 -0.6985
    72IDQ   C7155615   2.315   8.032  23.336 -0.1099  1.5151 -0.3462
    72IDQ   C7255616   2.207   7.999  23.235 -0.5280 -0.5617  1.2328
    11RH     C155617   5.664   0.394  20.771  0.1414 -0.2564  0.4325
    11RH     C255618   5.795   0.325  20.767  0.1743 -0.1799  0.0243
    11RH     N155619   5.559   0.305  20.740  0.1328 -0.2419  0.4196
    11RH     S155620   5.771   0.148  20.725  0.1920 -0.0938 -0.3501
    11RH     C355621   5.589   0.174  20.713  0.1549 -0.1630  0.0510
    11RH     C455622   5.424   0.363  20.705  0.7350  0.5205  0.3306
    11RH     S255623   5.482   0.049  20.675  0.1508 -0.1296 -0.0463
    11RH     O155624   5.647   0.514  20.796  0.1231 -0.3253  0.7505
    11RH     C555625   5.912   0.386  20.792  0.1883 -0.1767 -0.0474
    21BTZ    C655626   6.048   0.348  20.796 -0.4038  0.3859 -0.0382
    21BTZ    C755627   6.102   0.224  20.772 -0.5507  0.3561 -0.2193
    21BTZ    C855628   6.136   0.454  20.836 -0.2818  0.2168  0.1459
    21BTZ    C955629   6.243   0.198  20.787 -0.5848  0.1601 -0.2284
    21BTZ   C1055630   6.330   0.296  20.825 -0.4721 -0.0058 -0.0559
    21BTZ   C1155631   6.279   0.428  20.851 -0.3164  0.0176  0.1369
    21BTZ    N255632   6.095   0.579  20.862 -0.1341  0.2268  0.3309
    21BTZ    N355633   6.354   0.532  20.889 -0.1967 -0.1326  0.3147
    21BTZ    S355634   6.242   0.670  20.907 -0.0311 -0.0233  0.5049
    31IDT   C1255635   6.475   0.253  20.829  0.0058  0.4825  0.4841
    31IDT   C1355636   6.579   0.341  20.818  0.1295  0.3303  0.4282
    31IDT   C1455637   6.707   0.279  20.832  0.0581  0.0896  0.0372
    31IDT   C1555638   6.701   0.143  20.854 -0.1200  0.0567 -0.2070
    31IDT    S455639   6.532   0.083  20.858 -0.2119  0.3306  0.0416
    4IDB    C1655640   6.833   0.083  20.872  0.1970 -0.2087  0.1023
    4IDB    C1755641   6.927   0.190  20.878 -0.1147  0.0500  0.4258
    51IDQ   C1855642   6.858   0.320  20.822 -0.1573  0.4602  0.3684
    4IDB    C1955643   7.058   0.168  20.919  0.0059  0.2723  0.1616
    51IDQ   C2055644   6.903   0.437  20.914  0.0673  1.0733 -0.6187
    51IDQ   C2155645   6.887   0.344  20.669 -0.2522  0.4724 -0.0946
    51IDQ   C2255646   6.986   0.256  20.598 -0.1397 -0.2689  0.5832
    51IDQ   C2355647   6.818   0.499  21.020 -0.4946 -0.2048 -0.0721
    51IDQ   C2455648   7.126   0.309  20.605 -0.6970 -0.3632 -0.4515
    51IDQ   C2555649   7.232   0.216  20.541  0.9534 -1.4542 -0.1552
    51IDQ   C2655650   7.269   0.082  20.622 -0.6370 -0.0102  0.3986
    51IDQ   C2755651   7.395  -0.001  20.585  0.4321 -0.7751 -0.2363
    51IDQ   C2855652   7.403  -0.047  20.444 -0.8399 -0.1080 -0.8193
    51IDQ   C2955653   7.535  -0.097  20.381  0.2539 -1.0193  0.0986
    51IDQ   C3055654   6.728   0.604  20.974  1.0903  0.1867 -0.5746
    51IDQ   C3155655   6.678   0.688  21.107  0.1687  0.5030  0.5451
    51IDQ   C3255656   6.570   0.796  21.088  0.1288 -0.3258 -0.2210
    51IDQ   C3355657   6.608   0.936  21.137 -0.0407 -0.6179  1.0116
    51IDQ   C3455658   6.687   0.955  21.260 -0.5189 -0.2361  0.1116
    51IDQ   C3555659   6.717   1.104  21.285  0.1684  0.5692  0.2483
    4IDB    C3655660   6.870  -0.048  20.906  0.6341 -0.2465 -0.4907
    4IDB    C3755661   7.005  -0.069  20.947  0.7515 -0.0170 -0.7534
    11RH    C3855662   5.323   0.409  20.815  0.4749 -0.2101 -0.0543
    4IDB    C3955663   7.095   0.037  20.952  0.4430  0.2344 -0.4315
    62IDT   C4055664   7.221  -0.009  21.020  0.4867  0.3025 -0.5951
    72IDQ   C4155665   7.079  -0.196  20.996  0.0957  0.2364 -0.5710
    62IDT   C4255666   7.210  -0.144  21.047  0.3580  0.1321 -1.4443
    72IDQ   C4355667   7.116  -0.299  20.883  0.1300  0.7677  0.0922
    72IDQ   C4455668   7.008  -0.269  21.114 -0.8005 -0.0362 -0.3503
    62IDT    S555669   7.372   0.060  21.088  0.2450 -0.1148  0.4070
    62IDT   C4555670   7.414  -0.105  21.152 -0.0311 -0.5173 -0.4156
    62IDT   C4655671   7.319  -0.198  21.122  0.0650 -0.3316 -1.3437
    82BTZ   C4755672   7.530  -0.117  21.241 -0.1758 -0.0866 -0.0191
    82BTZ   C4855673   7.617  -0.011  21.254 -0.3146  0.0240  0.0067
    82BTZ   C4955674   7.732  -0.018  21.340 -0.3584  0.1893  0.0792
    82BTZ   C5055675   7.762  -0.130  21.413 -0.2633  0.2436  0.1251
    82BTZ   C5155676   7.557  -0.237  21.315 -0.0723 -0.0355  0.0272
    82BTZ   C5255677   7.674  -0.244  21.403 -0.1168  0.1324  0.1006
    92RH    C5355678   7.878  -0.141  21.496 -0.0652  0.0080  0.4942
    82BTZ    N455679   7.480  -0.346  21.311  0.0659 -0.1320  0.0081
    82BTZ    N555680   7.692  -0.359  21.469 -0.0143  0.1711  0.1407
    82BTZ    S655681   7.557  -0.465  21.421  0.1467 -0.0092  0.0848
    92RH    C5455682   7.968  -0.049  21.531 -0.0722  0.1088  0.2489
    92RH     S755683   7.963   0.130  21.490 -0.3186  0.0818  0.1544
    92RH    C5555684   8.089  -0.079  21.611  0.1261  0.2632  0.0081
    92RH     O255685   8.121  -0.191  21.654  0.3184  0.3165  0.0043
    92RH     N655686   8.166   0.037  21.633  0.0707  0.3453 -0.2237
    92RH    C5655687   8.122   0.157  21.581 -0.1478  0.2756 -0.1979
    92RH    C5755688   8.294   0.036  21.709 -0.0234 -0.6778  0.6017
    92RH    C5855689   8.430  -0.017  21.640  0.4025 -1.0409  0.4448
    92RH     S855690   8.194   0.308  21.592 -0.2569  0.3480 -0.4411
    72IDQ   C5955691   6.863  -0.311  21.112 -0.0358  0.5915  1.0011
    72IDQ   C6055692   6.818  -0.379  21.244 -0.4570  0.5510  1.3279
    72IDQ   C6155693   6.903  -0.495  21.282  0.2529 -1.0148 -0.6942
    72IDQ   C6255694   6.898  -0.628  21.203 -0.3768  0.4948 -0.7500
    72IDQ   C6355695   6.770  -0.707  21.204  1.1392  0.4035  0.1155
    72IDQ   C6455696   6.665  -0.656  21.104 -0.5839  0.5080 -0.3270
    72IDQ   C6555697   6.543  -0.734  21.096  0.2151 -0.1662  0.2717
    72IDQ   C6655698   7.082  -0.266  20.732 -0.4262  0.1999 -0.3712
    72IDQ   C6755699   7.119  -0.360  20.615  1.2944  0.1755 -0.0834
    72IDQ   C6855700   7.013  -0.348  20.499 -0.3170  0.5633 -0.6373
    72IDQ   C6955701   7.006  -0.476  20.421 -1.0110  1.0603  0.5738
    72IDQ   C7055702   6.920  -0.576  20.472 -0.2587  0.5846  0.0265
    72IDQ   C7155703   6.899  -0.701  20.385 -0.4343  0.7504  0.2141
    72IDQ   C7255704   7.019  -0.781  20.359 -0.9656  0.0678  0.1330
    11RH     C155705   7.207   4.718  27.881 -0.3035  0.0298  0.0296
    11RH     C255706   7.172   4.846  27.947 -0.2854  0.1214 -0.1388
    11RH     N155707   7.347   4.702  27.871 -0.3044 -0.0570  0.1553
    11RH     S155708   7.324   4.937  27.991 -0.2704  0.0873 -0.1195
    11RH     C355709   7.428   4.802  27.921 -0.2891 -0.0463  0.1087
    11RH     C455710   7.411   4.585  27.805 -0.1292 -0.3601  0.0621
    11RH     S255711   7.597   4.808  27.922 -0.2865 -0.1369  0.2327
    11RH     O155712   7.127   4.633  27.839 -0.3167  0.0275  0.0587
    11RH     C555713   7.046   4.885  27.968 -0.2810  0.2134 -0.2791
    21BTZ    C655714   6.983   5.006  28.029  0.2336  0.0362 -0.0770
    21BTZ    C755715   7.062   5.106  28.082  0.1736 -0.0111  0.1040
    21BTZ    C855716   6.842   5.027  28.022  0.2184 -0.0445 -0.0181
    21BTZ    C955717   7.005   5.230  28.129  0.0962 -0.1390  0.3505
    21BTZ   C1055718   6.870   5.254  28.124  0.0789 -0.2196  0.4152
    21BTZ   C1155719   6.784   5.153  28.070  0.1398 -0.1746  0.2322
    21BTZ    N255720   6.755   4.938  27.973  0.2720 -0.0094 -0.1783
    21BTZ    N355721   6.651   5.165  28.060  0.1303 -0.2440  0.2737
    21BTZ    S355722   6.593   5.012  27.986  0.2235 -0.1439 -0.0126
    31IDT   C1255723   6.822   5.386  28.170 -0.3971 -0.2970  0.2578
    31IDT   C1355724   6.693   5.430  28.183 -0.3960 -0.3713  0.5279
    31IDT   C1455725   6.685   5.561  28.240 -0.3361 -0.2350  0.2208
    31IDT   C1555726   6.808   5.618  28.269 -0.2910 -0.0561 -0.2826
    31IDT    S455727   6.944   5.508  28.228 -0.3216 -0.0466 -0.4087
    4IDB    C1655728   6.793   5.747  28.327 -0.4157  0.2603  0.2228
    4IDB    C1755729   6.654   5.778  28.342 -0.3922  0.1591  0.6971
    51IDQ   C1855730   6.571   5.658  28.277 -0.3743 -0.1367 -0.7328
    4IDB    C1955731   6.613   5.894  28.406 -0.2524  0.2015  0.7106
    51IDQ   C2055732   6.457   5.613  28.383 -0.0026  0.1892  0.2944
    51IDQ   C2155733   6.488   5.697  28.146 -0.1019  0.4875  0.6266
    51IDQ   C2255734   6.434   5.841  28.132  0.2474  0.4037  0.4245
    51IDQ   C2355735   6.465   5.487  28.465 -0.5869  0.1056  0.4868
    51IDQ   C2455736   6.372   5.878  27.991  0.5982  0.2438  0.3446
    51IDQ   C2555737   6.487   5.900  27.894 -0.4342 -0.2090  0.3571
    51IDQ   C2655738   6.433   5.917  27.755 -0.4646 -0.0408  0.7943
    51IDQ   C2755739   6.536   5.974  27.667  0.6743 -1.0115  0.9110
    51IDQ   C2855740   6.505   5.967  27.519  0.5209  1.3085  0.3907
    51IDQ   C2955741   6.615   6.016  27.435  0.2924 -0.3135  0.4916
    51IDQ   C3055742   6.366   5.481  28.581  0.4610 -0.1603 -0.6140
    51IDQ   C3155743   6.348   5.603  28.688 -0.1561 -0.6166  0.0380
    51IDQ   C3255744   6.467   5.697  28.729 -0.0722 -0.6332 -0.5568
    51IDQ   C3355745   6.418   5.806  28.809  0.0630  0.1932  0.8566
    51IDQ   C3455746   6.535   5.902  28.809  0.3603  0.2659  0.8739
    51IDQ   C3555747   6.481   6.034  28.858 -0.0743 -0.1250 -0.0088
    4IDB    C3655748   6.891   5.833  28.378 -0.2989  0.4055 -0.2437
    4IDB    C3755749   6.847   5.951  28.444 -0.1569  0.4469 -0.2222
    11RH    C3855750   7.439   4.466  27.899  0.1964 -0.2202  0.2394
    4IDB    C3955751   6.711   5.980  28.457 -0.1356  0.3469  0.2450
    62IDT   C4055752   6.701   6.114  28.498 -0.4577  0.1013 -0.6881
    72IDQ   C4155753   6.935   6.055  28.519  0.4679 -0.2392 -0.3920
    62IDT   C4255754   6.824   6.162  28.539 -0.3625 -0.0590 -0.7820
    72IDQ   C4355755   7.067   6.098  28.440  0.6331 -0.6034 -0.3032
    72IDQ   C4455756   6.971   5.994  28.663  0.7729 -0.0955 -0.3499
    62IDT    S555757   6.572   6.238  28.513 -0.4120  0.0707  0.0268
    62IDT   C4555758   6.697   6.354  28.577 -0.2592 -0.1693  0.1680
    62IDT   C4655759   6.822   6.298  28.584 -0.2501 -0.2123 -0.2980
    82BTZ   C4755760   6.668   6.493  28.611  0.3881 -0.0168 -0.4408
    82BTZ   C4855761   6.539   6.535  28.591  0.3799 -0.1035 -0.5717
    82BTZ   C4955762   6.498   6.670  28.622  0.2691 -0.1163 -0.6599
    82BTZ   C5055763   6.585   6.762  28.674  0.1668 -0.0428 -0.6174
    82BTZ   C5155764   6.763   6.585  28.666  0.2832  0.0626 -0.3919
    82BTZ   C5255765   6.721   6.722  28.698  0.1708  0.0495 -0.4816
    92RH    C5355766   6.561   6.908  28.699  0.1457 -0.1211 -0.1938
    82BTZ    N455767   6.891   6.555  28.690  0.2801  0.1504 -0.2668
    82BTZ    N555768   6.815   6.802  28.748  0.0771  0.1266 -0.4286
    82BTZ    S655769   6.965   6.704  28.757  0.1300  0.2216 -0.2583
    92RH    C5455770   6.452   6.983  28.679  0.2600  0.0267 -0.2727
    92RH     S755771   6.288   6.924  28.619  0.2113  0.2401 -0.3509
    92RH    C5555772   6.446   7.129  28.704  0.4495  0.0402 -0.3099
    92RH     O255773   6.541   7.198  28.744  0.5239 -0.0813 -0.2733
    92RH     N655774   6.319   7.182  28.674  0.5388  0.2113 -0.3940
    92RH    C5655775   6.221   7.096  28.630  0.4439  0.3368 -0.4288
    92RH    C5755776   6.290   7.319  28.722  0.1306 -0.2212 -0.3592
    92RH    C5855777   6.253   7.331  28.872  0.0548 -0.2128  0.0783
    92RH     S855778   6.062   7.133  28.588  0.5182  0.5487 -0.5270
    72IDQ   C5955779   7.008   5.850  28.678 -0.1943  0.5073 -0.0357
    72IDQ   C6055780   6.971   5.794  28.809  0.7182 -1.0452 -0.6018
    72IDQ   C6155781   6.990   5.652  28.797  0.6335 -0.3695 -0.4513
    72IDQ   C6255782   6.919   5.568  28.912 -0.9306 -0.4264  0.1847
    72IDQ   C6355783   6.959   5.431  28.957  0.0015 -0.6038 -0.3859
    72IDQ   C6455784   7.102   5.414  28.993 -0.9890  0.1705 -0.6098
    72IDQ   C6555785   7.147   5.348  29.127 -0.4189  0.4382  0.5038
    72IDQ   C6655786   7.184   6.180  28.522  0.0973  0.1242  1.1724
    72IDQ   C6755787   7.311   6.199  28.439  0.5143 -1.4573  0.8064
    72IDQ   C6855788   7.433   6.216  28.524  0.1586  0.3406  0.2861
    72IDQ   C6955789   7.544   6.218  28.417  0.8082  0.3879  0.0022
    72IDQ   C7055790   7.687   6.208  28.478  1.0007  0.7600 -0.3416
    72IDQ   C7155791   7.779   6.207  28.361  0.3592  0.4239  0.6238
    72IDQ   C7255792   7.920   6.214  28.413  0.6883 -1.0248 -0.3260
    11RH     C155793   0.305   6.677  20.897 -0.0350  0.0110 -0.6633
    11RH     C255794   0.434   6.699  20.967 -0.2051 -0.0821 -0.3166
    11RH     N155795   0.234   6.798  20.881 -0.0130  0.0265 -0.6439
    11RH     S155796   0.453   6.877  21.008 -0.3250 -0.1432  0.0120
    11RH     C355797   0.289   6.914  20.930 -0.1446 -0.0429 -0.3238
    11RH     C455798   0.099   6.801  20.819 -0.0667 -0.3704 -0.0197
    11RH     S255799   0.225   7.070  20.924 -0.1508 -0.0418 -0.2313
    11RH     O155800   0.263   6.568  20.856  0.0764  0.0691 -0.9394
    11RH     C555801   0.521   6.601  20.994 -0.2582 -0.1142 -0.2626
    21BTZ    C655802   0.653   6.601  21.042  0.1401 -0.0811 -0.2795
    21BTZ    C755803   0.729   6.709  21.077  0.1217 -0.0373 -0.3734
    21BTZ    C855804   0.706   6.469  21.066  0.1547 -0.0514 -0.1488
    21BTZ    C955805   0.859   6.694  21.138  0.1166  0.0374 -0.3443
    21BTZ   C1055806   0.913   6.571  21.163  0.1300  0.0682 -0.2208
    21BTZ   C1155807   0.838   6.454  21.128  0.1495  0.0246 -0.1187
    21BTZ    N255808   0.641   6.356  21.036  0.1731 -0.0885 -0.0482
    21BTZ    N355809   0.880   6.329  21.147  0.1638  0.0484  0.0057
    21BTZ    S355810   0.749   6.223  21.087  0.1849 -0.0268  0.0910
    31IDT   C1255811   1.032   6.572  21.250  0.0710 -0.0274  0.1102
    31IDT   C1355812   1.080   6.471  21.330  0.3241  0.1829  0.2284
    31IDT   C1455813   1.190   6.512  21.411  0.1355  0.5941  0.2837
    31IDT   C1555814   1.227   6.643  21.394 -0.2616  0.6999  0.2083
    31IDT    S455815   1.125   6.727  21.272 -0.4291  0.2832  0.0591
    4IDB    C1655816   1.334   6.676  21.478 -0.0213 -0.4701 -0.2451
    4IDB    C1755817   1.383   6.555  21.538  0.2575 -0.2680 -0.0591
    51IDQ   C1855818   1.298   6.435  21.500  0.6514  0.7225  0.2923
    4IDB    C1955819   1.493   6.557  21.622  0.1472  0.1438  0.0808
    51IDQ   C2055820   1.371   6.311  21.422 -0.7307 -1.1401 -0.2992
    51IDQ   C2155821   1.215   6.362  21.612  0.2868  0.4059  1.0385
    51IDQ   C2255822   1.213   6.415  21.747 -0.0890 -0.0266 -1.1248
    51IDQ   C2355823   1.348   6.283  21.271  0.3344  0.7187 -0.7016
    51IDQ   C2455824   1.077   6.398  21.817  0.4504 -0.7425 -0.8310
    51IDQ   C2555825   1.075   6.428  21.969 -0.2479 -0.8479  0.3338
    51IDQ   C2655826   1.079   6.569  21.995 -0.0613 -0.1515 -2.1446
    51IDQ   C2755827   1.100   6.621  22.135  1.1425 -0.4362 -0.8881
    51IDQ   C2855828   1.021   6.747  22.160 -0.3202 -1.3409  0.1667
    51IDQ   C2955829   0.998   6.787  22.302 -0.2749 -0.4850  0.2944
    51IDQ   C3055830   1.461   6.208  21.193  0.3969  0.1215  0.8761
    51IDQ   C3155831   1.441   6.202  21.039  0.4418  0.6286  0.0556
    51IDQ   C3255832   1.545   6.140  20.965  0.1600 -1.0869 -0.0259
    51IDQ   C3355833   1.644   6.248  20.905  0.2270  0.5166 -0.7664
    51IDQ   C3455834   1.605   6.352  20.795 -0.3904  0.3527 -0.3637
    51IDQ   C3555835   1.532   6.288  20.681  0.0808  1.0434  0.0887
    4IDB    C3655836   1.396   6.799  21.503 -0.4144 -0.2604 -0.2928
    4IDB    C3755837   1.509   6.799  21.590 -0.5217  0.1601 -0.1483
    11RH    C3855838   0.097   6.813  20.664  0.6298  0.2488 -0.0026
    4IDB    C3955839   1.555   6.681  21.647 -0.2458  0.3535  0.0329
    62IDT   C4055840   1.668   6.714  21.724  0.2758 -0.3359 -0.5393
    72IDQ   C4155841   1.589   6.922  21.634  0.0831  0.8273 -0.1314
    62IDT   C4255842   1.690   6.851  21.723  0.2152 -0.3266 -0.9065
    72IDQ   C4355843   1.500   7.036  21.711 -0.9125  0.7144 -0.3605
    72IDQ   C4455844   1.693   6.975  21.521  0.7412 -0.4835 -0.5807
    62IDT    S555845   1.795   6.627  21.817  0.1275 -0.0005 -0.0129
    62IDT   C4555846   1.874   6.787  21.851 -0.0154  0.1414 -0.3345
    62IDT   C4655847   1.806   6.892  21.795  0.0505 -0.0565 -0.7920
    82BTZ   C4755848   2.005   6.800  21.919 -0.4817  0.1688  0.2666
    82BTZ   C4855849   2.061   6.684  21.964 -0.7176  0.0814  0.3371
    82BTZ   C4955850   2.174   6.683  22.054 -0.6189 -0.0907  0.2146
    82BTZ   C5055851   2.230   6.800  22.099 -0.2845 -0.1755  0.0229
    82BTZ   C5155852   2.060   6.925  21.963 -0.1283  0.0856  0.0658
    82BTZ   C5255853   2.175   6.925  22.055 -0.0281 -0.0894 -0.0577
    92RH    C5355854   2.335   6.799  22.204 -0.0298  0.2339  0.3745
    82BTZ    N455855   2.015   7.045  21.926  0.1247  0.1575 -0.0191
    82BTZ    N555856   2.221   7.044  22.092  0.3056 -0.1584 -0.2432
    82BTZ    S655857   2.118   7.165  22.009  0.5100  0.0008 -0.2668
    92RH    C5455858   2.405   6.705  22.269  0.0640  0.1770  0.1936
    92RH     S755859   2.369   6.525  22.273  0.2131  0.1394 -0.1123
    92RH    C5555860   2.526   6.734  22.350  0.0609  0.1343  0.2131
    92RH     O255861   2.576   6.846  22.367 -0.0271  0.1458  0.3963
    92RH     N655862   2.579   6.616  22.407  0.1721  0.0774 -0.0062
    92RH    C5655863   2.516   6.497  22.381  0.2640  0.0693 -0.1988
    92RH    C5755864   2.706   6.626  22.488 -0.0484  0.2144  0.6020
    92RH    C5855865   2.690   6.637  22.638 -0.5683  0.4171 -0.2962
    92RH     S855866   2.559   6.343  22.437  0.4042  0.0063 -0.4778
    72IDQ   C5955867   1.643   7.076  21.405  0.8959  0.2072  0.4437
    72IDQ   C6055868   1.744   7.096  21.290  0.0109  0.2992 -0.6095
    72IDQ   C6155869   1.772   6.971  21.214 -0.4979  0.0852  1.1216
    72IDQ   C6255870   1.829   6.986  21.070  0.7464 -0.3688 -1.4617
    72IDQ   C6355871   1.737   7.036  20.969 -0.3754 -0.0884 -0.6017
    72IDQ   C6455872   1.776   6.987  20.832 -0.3924  0.1120  0.4326
    72IDQ   C6555873   1.720   7.056  20.709  1.0613 -0.7517  0.1419
    72IDQ   C6655874   1.415   6.984  21.824  0.3709  0.7852 -1.1703
    72IDQ   C6755875   1.317   7.089  21.897  0.5528  0.3433  0.2974
    72IDQ   C6855876   1.390   7.182  21.989 -0.9621  0.4425 -0.1264
    72IDQ   C6955877   1.445   7.107  22.115 -0.0496 -0.6014 -0.9355
    72IDQ   C7055878   1.600   7.133  22.124  0.2444  0.2979  0.2390
    72IDQ   C7155879   1.627   7.102  22.270 -0.4167 -1.1054  0.2870
    72IDQ   C7255880   1.770   7.144  22.319 -0.1911 -0.0520 -0.9338
    11RH     C155881   5.948   1.542  24.162  0.0411  0.1081 -0.2708
    11RH     C255882   5.827   1.623  24.190  0.0181 -0.0137 -0.0176
    11RH     N155883   5.959   1.512  24.024 -0.0345  0.4083 -0.3426
    11RH     S155884   5.736   1.655  24.034 -0.1014  0.2745  0.1111
    11RH     C355885   5.862   1.560  23.939 -0.1153  0.5419 -0.1760
    11RH     C455886   6.058   1.401  23.980 -0.0171  0.2233 -1.3303
    11RH     S255887   5.852   1.540  23.772 -0.2148  0.8943 -0.2146
    11RH     O155888   6.030   1.503  24.246  0.1165 -0.0308 -0.4077
    11RH     C555889   5.793   1.664  24.313  0.0774 -0.2931  0.0943
    21BTZ    C655890   5.683   1.746  24.372  0.0489 -0.2925 -0.2259
    21BTZ    C755891   5.584   1.810  24.303  0.0646 -0.2393 -0.1984
    21BTZ    C855892   5.684   1.753  24.515  0.1154 -0.2591 -0.2275
    21BTZ    C955893   5.481   1.885  24.371  0.1457 -0.1511 -0.1721
    21BTZ   C1055894   5.477   1.895  24.508  0.2110 -0.1163 -0.1728
    21BTZ   C1155895   5.579   1.829  24.584  0.1978 -0.1694 -0.2003
    21BTZ    N255896   5.775   1.695  24.593  0.1079 -0.3046 -0.2527
    21BTZ    N355897   5.586   1.832  24.718  0.2564 -0.1429 -0.2046
    21BTZ    S355898   5.730   1.735  24.762  0.2079 -0.2333 -0.2433
    31IDT   C1255899   5.378   1.988  24.578 -0.0516  0.4090 -0.0069
    31IDT   C1355900   5.378   2.035  24.707 -0.4067  0.2305  0.0606
    31IDT   C1455901   5.273   2.130  24.731 -0.7358 -0.1202  0.0243
    31IDT   C1555902   5.193   2.155  24.621 -0.6336 -0.2110 -0.0713
    31IDT    S455903   5.245   2.060  24.478 -0.1084  0.1437 -0.1222
    4IDB    C1655904   5.082   2.239  24.649 -0.4422  0.5133 -0.6497
    4IDB    C1755905   5.084   2.268  24.789 -0.0634  0.1273 -0.5698
    51IDQ   C1855906   5.218   2.212  24.847 -0.1799 -0.3792 -0.2881
    4IDB    C1955907   4.976   2.332  24.850  0.1287  0.0210 -0.1141
    51IDQ   C2055908   5.310   2.338  24.884  0.1636  0.3929  0.3147
    51IDQ   C2155909   5.178   2.119  24.965  0.1887 -0.1263 -1.2755
    51IDQ   C2255910   5.208   2.159  25.120  0.3273  0.3032  0.7880
    51IDQ   C2355911   5.427   2.372  24.789  0.4486  1.3230 -0.0459
    51IDQ   C2455912   5.193   2.045  25.217  0.4291  1.1127 -0.0359
    51IDQ   C2555913   5.113   2.071  25.345 -0.0260  0.7284  0.1985
    51IDQ   C2655914   5.200   2.123  25.458  0.6221  0.4017 -0.3295
    51IDQ   C2755915   5.158   2.153  25.600  0.2487 -0.4812 -0.5434
    51IDQ   C2855916   5.271   2.242  25.673  0.5238 -0.2883  0.0975
    51IDQ   C2955917   5.240   2.261  25.828  0.1028 -0.4056  0.4283
    51IDQ   C3055918   5.534   2.478  24.807 -0.1182 -0.0029 -1.2200
    51IDQ   C3155919   5.474   2.614  24.845  0.1021  0.2533  0.3434
    51IDQ   C3255920   5.563   2.727  24.801 -1.2327  0.1346  0.0485
    51IDQ   C3355921   5.664   2.767  24.926 -0.2232 -0.0584  1.1478
    51IDQ   C3455922   5.592   2.835  25.042 -0.6870 -0.3826 -0.4877
    51IDQ   C3555923   5.690   2.893  25.152 -0.1073 -1.0075 -0.6120
    4IDB    C3655924   4.972   2.274  24.569 -0.6322  0.7969 -0.2708
    4IDB    C3755925   4.863   2.340  24.633 -0.4313  0.6830  0.1922
    11RH    C3855926   6.205   1.415  23.947  0.0858 -1.0503 -1.2760
    4IDB    C3955927   4.867   2.367  24.770 -0.0612  0.3047  0.2654
    62IDT   C4055928   4.744   2.429  24.801  0.3902 -0.3638 -0.0384
    72IDQ   C4155929   4.736   2.383  24.575  0.2467 -0.2569  1.4897
    62IDT   C4255930   4.658   2.439  24.693  0.4299 -0.1719 -0.0534
    72IDQ   C4355931   4.663   2.259  24.504 -0.2208 -0.0496 -0.4754
    72IDQ   C4455932   4.775   2.471  24.449  0.1542  0.1695 -0.4213
    62IDT    S555933   4.695   2.539  24.935  0.4487 -0.4640  0.0665
    62IDT   C4555934   4.555   2.595  24.833  0.5276 -0.2298  0.0847
    62IDT   C4655935   4.552   2.532  24.711  0.5077 -0.0958  0.0162
    82BTZ   C4755936   4.482   2.719  24.878 -0.3895  0.4040  0.2601
    82BTZ   C4855937   4.523   2.765  25.000 -0.4501  0.4650  0.2570
    82BTZ   C4955938   4.462   2.880  25.062 -0.5245  0.4570  0.1988
    82BTZ   C5055939   4.359   2.947  25.003 -0.5380  0.3880  0.1434
    82BTZ   C5155940   4.374   2.786  24.811 -0.4005  0.3304  0.2027
    82BTZ   C5255941   4.312   2.903  24.875 -0.4761  0.3223  0.1431
    92RH    C5355942   4.289   3.056  25.076 -0.0157 -0.2524  0.1563
    82BTZ    N455943   4.325   2.751  24.692 -0.3457  0.2667  0.1993
    82BTZ    N555944   4.212   2.960  24.807 -0.4821  0.2521  0.0920
    82BTZ    S655945   4.194   2.867  24.656 -0.3896  0.1920  0.1179
    92RH    C5455946   4.310   3.107  25.198 -0.1007  0.0596  0.0415
    92RH     S755947   4.444   3.062  25.315  0.1066  0.7059  0.0603
    92RH    C5555948   4.224   3.212  25.259 -0.3865 -0.0771 -0.1240
    92RH     O255949   4.124   3.263  25.205 -0.5770 -0.4880 -0.1760
    92RH     N655950   4.268   3.247  25.388 -0.4187  0.3233 -0.2194
    92RH    C5655951   4.380   3.183  25.438 -0.1938  0.7641 -0.1512
    92RH    C5755952   4.200   3.349  25.470  0.1252  0.2571 -0.1495
    92RH    C5855953   4.237   3.504  25.456 -0.3210  0.2012  0.2573
    92RH     S855954   4.453   3.207  25.588 -0.1775  1.2936 -0.2379
    72IDQ   C5955955   4.664   2.552  24.385  0.0866  0.3709 -0.3428
    72IDQ   C6055956   4.692   2.621  24.253  0.1315  0.0482  0.6423
    72IDQ   C6155957   4.582   2.724  24.211  0.2168  0.5065 -0.3065
    72IDQ   C6255958   4.631   2.812  24.103 -0.5811 -1.0499 -0.0652
    72IDQ   C6355959   4.522   2.890  24.029  0.1184  0.5764 -1.0198
    72IDQ   C6455960   4.576   2.969  23.907 -0.7232  0.3058  1.2181
    72IDQ   C6555961   4.483   3.066  23.825 -0.6049 -0.2886 -0.3821
    72IDQ   C6655962   4.646   2.134  24.593  0.1129 -0.8880 -0.9318
    72IDQ   C6755963   4.613   2.012  24.522 -0.1422  1.2073 -0.5021
    72IDQ   C6855964   4.460   1.978  24.544  0.1510  0.7801 -0.4749
    72IDQ   C6955965   4.416   1.868  24.647  0.4633  0.2747  1.3291
    72IDQ   C7055966   4.262   1.848  24.635  0.4399 -0.3744 -0.5875
    72IDQ   C7155967   4.239   1.694  24.648  0.6707  0.8805  0.3663
    72IDQ   C7255968   4.087   1.669  24.609 -0.3168  0.3937 -0.4532
    11RH     C155969   0.965   2.739  15.020  0.3965  0.2124 -0.1771
    11RH     C255970   1.008   2.648  14.912  0.2764  0.0544 -0.0923
    11RH     N155971   1.015   2.697  15.146  0.3625  0.2776 -0.1415
    11RH     S155972   1.111   2.513  14.981  0.1265  0.0017  0.0287
    11RH     C355973   1.093   2.584  15.151  0.2297  0.1911 -0.0386
    11RH     C455974   0.968   2.772  15.267 -0.6882  0.6916  0.1141
    11RH     S255975   1.164   2.513  15.286  0.1632  0.2413  0.0229
    11RH     O155976   0.895   2.840  15.006  0.5133  0.2817 -0.2685
    11RH     C555977   0.975   2.665  14.783  0.2810 -0.0329 -0.1053
    21BTZ    C655978   1.016   2.589  14.661 -0.2500 -0.0032  0.1088
    21BTZ    C755979   1.100   2.481  14.668 -0.2672 -0.0204  0.0491
    21BTZ    C855980   0.991   2.649  14.533 -0.2081  0.0971  0.1473
    21BTZ    C955981   1.163   2.427  14.550 -0.2443  0.0597  0.0241
    21BTZ   C1055982   1.142   2.480  14.426 -0.2042  0.1567  0.0590
    21BTZ   C1155983   1.055   2.593  14.414 -0.1848  0.1785  0.1221
    21BTZ    N255984   0.911   2.754  14.514 -0.1881  0.1231  0.2062
    21BTZ    N355985   1.027   2.654  14.298 -0.1460  0.2699  0.1605
    21BTZ    S355986   0.915   2.788  14.338 -0.1374  0.2556  0.2322
    31IDT   C1255987   1.241   2.435  14.327 -0.2091  0.2661  0.1710
    31IDT   C1355988   1.252   2.493  14.203 -0.4270  0.3372  0.1833
    31IDT   C1455989   1.373   2.455  14.136 -0.5803  0.3181 -0.0794
    31IDT   C1555990   1.453   2.370  14.207 -0.4805  0.2324 -0.2938
    31IDT    S455991   1.383   2.329  14.367 -0.1820  0.1687 -0.1783
    4IDB    C1655992   1.580   2.345  14.137  0.5754 -0.6819 -0.2352
    4IDB    C1755993   1.572   2.396  14.004  0.6684 -0.4207 -0.1409
    51IDQ   C1855994   1.446   2.484  13.998  0.0647  0.4089  0.2820
    4IDB    C1955995   1.668   2.363  13.909  0.8968 -0.0010 -0.0610
    51IDQ   C2055996   1.495   2.635  13.980 -0.2744  0.5731  0.6245
    51IDQ   C2155997   1.348   2.454  13.883  0.7207  0.3628  0.6029
    51IDQ   C2255998   1.356   2.333  13.790 -0.2316 -0.7333 -1.2291
    51IDQ   C2355999   1.570   2.698  14.105 -0.1527  0.3198 -0.5534
    51IDQ   C2456000   1.247   2.338  13.688  0.2188  0.1038  0.3034
    51IDQ   C2556001   1.241   2.207  13.604 -0.4514 -0.1976 -0.2928
    51IDQ   C2656002   1.142   2.195  13.499  1.2018  0.5376  0.0800
    51IDQ   C2756003   1.131   2.294  13.389 -0.8586 -0.5441  0.5286
    51IDQ   C2856004   1.232   2.289  13.270 -0.2215  0.1604  0.2797
    51IDQ   C2956005   1.214   2.183  13.159 -0.2675  0.4236  0.7968
    51IDQ   C3056006   1.641   2.829  14.091  0.2007  0.3186  0.0755
    51IDQ   C3156007   1.715   2.878  14.208 -1.0637  0.5249 -0.5924
    51IDQ   C3256008   1.842   2.795  14.234  0.0836  1.0416  0.9759
    51IDQ   C3356009   1.899   2.791  14.381  0.6091  0.0783 -0.3259
    51IDQ   C3456010   1.812   2.747  14.491  0.6173 -0.3897 -0.2414
    51IDQ   C3556011   1.828   2.595  14.508  0.1359  0.7563  0.0118
    4IDB    C3656012   1.685   2.259  14.176  0.7112 -0.5236 -0.2503
    4IDB    C3756013   1.782   2.227  14.078  0.9443 -0.0939 -0.1678
    11RH    C3856014   1.076   2.867  15.319 -0.3048  0.1696  0.4520
    4IDB    C3956015   1.773   2.278  13.948  1.0326  0.1574 -0.0762
    62IDT   C4056016   1.880   2.232  13.872  0.0281  0.4372 -0.0887
    72IDQ   C4156017   1.911   2.150  14.100  0.4306 -0.3320  0.6058
    62IDT   C4256018   1.951   2.145  13.952  0.1792  0.6651  0.0277
    72IDQ   C4356019   1.856   2.014  14.165  0.7081  0.3474  0.8104
    72IDQ   C4456020   2.021   2.236  14.180 -0.2694  0.7676 -0.1138
    62IDT    S556021   1.940   2.231  13.703 -0.2129  0.0437 -0.1747
    62IDT   C4556022   2.064   2.108  13.751 -0.0907  0.2164 -0.0426
    62IDT   C4656023   2.055   2.075  13.884  0.1123  0.5406  0.0539
    82BTZ   C4756024   2.155   2.040  13.650 -0.0301  0.1837  0.2742
    82BTZ   C4856025   2.139   2.065  13.516 -0.2093  0.1429  0.2866
    82BTZ   C4956026   2.231   2.012  13.418 -0.3878  0.0454  0.1729
    82BTZ   C5056027   2.337   1.934  13.453 -0.3867 -0.0112  0.0467
    82BTZ   C5156028   2.265   1.959  13.692 -0.0212  0.1273  0.1442
    82BTZ   C5256029   2.358   1.905  13.592 -0.2026  0.0282  0.0284
    92RH    C5356030   2.437   1.884  13.366 -0.5018 -0.6120 -0.0473
    82BTZ    N456031   2.291   1.927  13.819  0.1445  0.1591  0.1190
    82BTZ    N556032   2.458   1.830  13.639 -0.1827 -0.0198 -0.0899
    82BTZ    S656033   2.438   1.825  13.817  0.0742  0.0615 -0.0574
    92RH    C5456034   2.449   1.901  13.234 -0.2686 -0.3387  0.0069
    92RH     S756035   2.323   1.969  13.120 -0.0361 -0.0216 -0.0647
    92RH    C5556036   2.571   1.866  13.158 -0.1605 -0.2492  0.1378
    92RH     O256037   2.675   1.818  13.206 -0.2702 -0.4129  0.2112
    92RH     N656038   2.556   1.894  13.021  0.0885  0.0515  0.1701
    92RH    C5656039   2.437   1.948  12.977  0.1929  0.2138  0.0815
    92RH    C5756040   2.662   1.853  12.921 -0.2712 -0.9680 -0.1062
    92RH    C5856041   2.643   1.719  12.856 -0.1353 -0.0315 -0.2258
    92RH     S856042   2.394   1.991  12.820  0.4836  0.5733  0.0961
    72IDQ   C5956043   2.000   2.273  14.326 -0.7901 -0.6306 -0.1742
    72IDQ   C6056044   2.129   2.336  14.383  0.1118  0.2578 -0.1831
    72IDQ   C6156045   2.146   2.371  14.530 -0.1783  0.0064  0.2774
    72IDQ   C6256046   2.131   2.240  14.616  0.7118 -0.1399 -0.1105
    72IDQ   C6356047   2.139   2.233  14.767  0.6705 -0.1995 -0.6932
    72IDQ   C6456048   2.105   2.350  14.853 -0.1206 -1.0404 -1.0946
    72IDQ   C6556049   2.123   2.314  15.005 -0.6270 -0.1099 -0.0549
    72IDQ   C6656050   1.963   1.932  14.232  0.6243  1.1627  0.2775
    72IDQ   C6756051   1.946   1.800  14.315  0.3805  0.0691 -0.0383
    72IDQ   C6856052   1.887   1.677  14.248  1.3693  0.4673 -0.2589
    72IDQ   C6956053   1.739   1.686  14.196 -0.5901 -0.2829  0.0983
    72IDQ   C7056054   1.695   1.567  14.119 -0.1807 -0.7824 -0.5630
    72IDQ   C7156055   1.574   1.581  14.028  0.0672 -0.3529  0.7417
    72IDQ   C7256056   1.566   1.456  13.940 -0.1455 -0.1727  0.3316
    11RH     C156057   5.608   5.789   6.084  0.1631 -0.1172 -0.1209
    11RH     C256058   5.755   5.812   6.087  0.1286  0.1231 -0.2167
    11RH     N156059   5.563   5.725   6.201  0.3238 -0.0716 -0.0337
    11RH     S156060   5.823   5.749   6.246  0.3103  0.3931 -0.1857
    11RH     C356061   5.655   5.695   6.299  0.4226  0.1757 -0.0478
    11RH     C456062   5.422   5.669   6.200 -0.8443 -0.7505 -1.1828
    11RH     S256063   5.627   5.620   6.447  0.6175  0.2806  0.0427
    11RH     O156064   5.533   5.820   5.990  0.0653 -0.3335 -0.1160
    11RH     C556065   5.823   5.870   5.988 -0.0147  0.1331 -0.3101
    21BTZ    C656066   5.962   5.906   5.965  0.0624  0.0272 -0.3472
    21BTZ    C756067   6.061   5.882   6.058  0.0645 -0.0759 -0.3761
    21BTZ    C856068   5.997   5.975   5.844  0.0601  0.1599 -0.2730
    21BTZ    C956069   6.197   5.924   6.036  0.0646 -0.0544 -0.3335
    21BTZ   C1056070   6.235   5.990   5.922  0.0626  0.0706 -0.2623
    21BTZ   C1156071   6.135   6.017   5.822  0.0602  0.1819 -0.2296
    21BTZ    N256072   5.910   6.004   5.747  0.0579  0.2683 -0.2389
    21BTZ    N356073   6.160   6.081   5.707  0.0582  0.3082 -0.1608
    21BTZ    S356074   6.004   6.089   5.621  0.0558  0.4061 -0.1481
    31IDT   C1256075   6.378   6.028   5.905 -0.0930  0.4316 -0.1794
    31IDT   C1356076   6.440   6.115   5.820  0.2500  0.5444  0.1776
    31IDT   C1456077   6.576   6.141   5.856  0.2638  0.0995  0.4632
    31IDT   C1556078   6.618   6.075   5.969 -0.0673 -0.3540  0.3263
    31IDT    S456079   6.487   5.973   6.040 -0.4259 -0.2520 -0.1797
    4IDB    C1656080   6.756   6.107   5.991  0.0461 -0.4352 -0.3080
    4IDB    C1756081   6.802   6.203   5.897  0.2695 -0.3501 -0.1137
    51IDQ   C1856082   6.685   6.237   5.804 -0.7690 -0.6806 -0.2348
    4IDB    C1956083   6.934   6.247   5.898  0.2383 -0.2647  0.3100
    51IDQ   C2056084   6.658   6.390   5.831  0.4849 -0.3355  0.5717
    51IDQ   C2156085   6.720   6.209   5.656 -0.2418 -0.7657 -0.2477
    51IDQ   C2256086   6.842   6.154   5.585 -0.1207  0.3625  0.0150
    51IDQ   C2356087   6.531   6.467   5.870 -0.0428 -0.1119  0.5389
    51IDQ   C2456088   6.840   6.169   5.438 -0.2780 -0.1467 -0.3715
    51IDQ   C2556089   6.942   6.273   5.395 -0.5374 -0.3832  0.1989
    51IDQ   C2656090   6.917   6.302   5.252  0.0327  0.3390 -1.1619
    51IDQ   C2756091   6.819   6.419   5.236  0.0426 -0.4208 -1.1182
    51IDQ   C2856092   6.829   6.507   5.111 -0.1851  0.4446 -0.5116
    51IDQ   C2956093   6.809   6.435   4.972  0.1587 -0.1936 -1.1164
    51IDQ   C3056094   6.545   6.616   5.896  1.3581  0.6803  0.7544
    51IDQ   C3156095   6.435   6.684   5.974  0.4614 -1.1676 -0.1742
    51IDQ   C3256096   6.451   6.838   5.967  0.5749  0.4302  0.8784
    51IDQ   C3356097   6.340   6.900   6.048  0.6693 -0.4210  0.9097
    51IDQ   C3456098   6.340   7.053   6.052 -0.5689  0.4166 -1.0657
    51IDQ   C3556099   6.198   7.099   6.077  0.2300  1.1355 -0.0197
    4IDB    C3656100   6.841   6.053   6.088 -0.2116 -0.4354 -0.0778
    4IDB    C3756101   6.976   6.100   6.089 -0.2397 -0.3473  0.3548
    11RH    C3856102   5.317   5.773   6.245 -0.6473 -0.1016  0.2747
    4IDB    C3956103   7.020   6.194   5.996 -0.0196 -0.2648  0.5400
    62IDT   C4056104   7.156   6.227   6.023  0.2028 -0.6320 -0.3686
    72IDQ   C4156105   7.098   6.063   6.177  1.1478  0.3811 -0.3465
    62IDT   C4256106   7.206   6.157   6.132  0.5091  0.0676 -0.0440
    72IDQ   C4356107   7.124   5.911   6.163  0.1674 -0.3163 -0.0060
    72IDQ   C4456108   7.047   6.097   6.330  0.5753  0.1960  0.2101
    62IDT    S556109   7.280   6.335   5.951 -0.2797 -0.3695 -0.8184
    62IDT   C4556110   7.398   6.277   6.077 -0.0295  0.7255 -0.5298
    62IDT   C4656111   7.342   6.186   6.162  0.3784  0.8360 -0.1346
    82BTZ   C4756112   7.539   6.320   6.081  0.2688 -0.4385  0.0628
    82BTZ   C4856113   7.606   6.343   5.963  0.2794 -0.2757  0.0998
    82BTZ   C4956114   7.738   6.399   5.961  0.1962 -0.0769  0.1795
    82BTZ   C5056115   7.804   6.433   6.077  0.1025 -0.0410  0.2224
    82BTZ   C5156116   7.603   6.354   6.204  0.1722 -0.4086  0.1053
    82BTZ   C5256117   7.738   6.412   6.202  0.0876 -0.2065  0.1863
    92RH    C5356118   7.933   6.505   6.076  0.0447 -0.0676  0.0973
    82BTZ    N456119   7.548   6.337   6.325  0.1526 -0.5552  0.0757
    82BTZ    N556120   7.791   6.441   6.321  0.0000 -0.1905  0.2220
    82BTZ    S656121   7.669   6.395   6.444  0.0224 -0.4384  0.1518
    92RH    C5456122   8.012   6.558   5.982  0.0602 -0.1343  0.0730
    92RH     S756123   7.997   6.536   5.800 -0.1741  0.0939  0.0637
    92RH    C5556124   8.129   6.645   6.012  0.2775 -0.4135  0.0490
    92RH     O256125   8.166   6.679   6.126  0.4672 -0.6150  0.0485
    92RH     N656126   8.195   6.686   5.895  0.2439 -0.4256  0.0258
    92RH    C5656127   8.145   6.643   5.773  0.0263 -0.1904  0.0287
    92RH    C5756128   8.320   6.769   5.888  0.3480  0.8462  0.0054
    92RH    C5856129   8.315   6.924   5.868  0.4220  0.0696 -0.7259
    92RH     S856130   8.205   6.677   5.619 -0.0590 -0.1500  0.0046
    72IDQ   C5956131   7.158   6.068   6.436 -0.3773 -0.5518  0.7371
    72IDQ   C6056132   7.129   6.082   6.585  0.3333 -1.4620  0.1672
    72IDQ   C6156133   7.013   6.003   6.652 -0.0446 -0.1650 -0.4960
    72IDQ   C6256134   7.075   5.869   6.689  0.0159  1.5918 -0.0025
    72IDQ   C6356135   7.122   5.768   6.591  0.6181 -0.3824  0.7473
    72IDQ   C6456136   7.019   5.715   6.480 -0.4643  0.5514 -1.0171
    72IDQ   C6556137   6.929   5.601   6.531 -0.3594 -1.1259  0.5230
    72IDQ   C6656138   7.192   5.852   6.039 -0.6153  0.1757  0.2274
    72IDQ   C6756139   7.289   5.724   6.044 -0.0681 -0.9844  0.0361
    72IDQ   C6856140   7.258   5.605   6.140  0.4757  0.1779 -0.1068
    72IDQ   C6956141   7.389   5.524   6.157  1.1204  0.3016 -0.5901
    72IDQ   C7056142   7.437   5.410   6.075 -0.2512  0.7066  0.9467
    72IDQ   C7156143   7.454   5.442   5.925 -0.5705  0.5756  0.0874
    72IDQ   C7256144   7.334   5.422   5.840 -0.2412  0.3234 -0.6372
    11RH     C156145   3.761   6.728  22.006 -0.2002 -0.4076 -0.4730
    11RH     C256146   3.823   6.594  22.018  0.0249 -0.3020 -0.4435
    11RH     N156147   3.804   6.814  22.110 -0.3712 -0.3233 -0.4715
    11RH     S156148   3.933   6.590  22.165 -0.0032 -0.0990 -0.4151
    11RH     C356149   3.892   6.765  22.203 -0.3107 -0.1634 -0.4439
    11RH     C456150   3.747   6.953  22.106  0.0767 -0.5886  0.3275
    11RH     S256151   3.958   6.847  22.336 -0.4806 -0.0368 -0.4363
    11RH     O156152   3.682   6.764  21.917 -0.2384 -0.5519 -0.4969
    11RH     C556153   3.800   6.494  21.933  0.2156 -0.3522 -0.4381
    21BTZ    C656154   3.854   6.363  21.922  0.2689 -0.2334 -0.1204
    21BTZ    C756155   3.948   6.303  22.001  0.3315 -0.1779 -0.1531
    21BTZ    C856156   3.795   6.287  21.816  0.1212 -0.3356  0.0319
    21BTZ    C956157   3.989   6.166  21.980  0.2528 -0.2198 -0.0372
    21BTZ   C1056158   3.935   6.090  21.879  0.1116 -0.3172  0.1107
    21BTZ   C1156159   3.836   6.149  21.794  0.0412 -0.3783  0.1497
    21BTZ    N256160   3.702   6.335  21.732  0.0485 -0.3970  0.0772
    21BTZ    N356161   3.777   6.085  21.693 -0.0958 -0.4740  0.2894
    21BTZ    S356162   3.663   6.202  21.619 -0.1290 -0.5144  0.2764
    31IDT   C1256163   4.006   5.959  21.859 -0.1312 -0.9240 -0.2906
    31IDT   C1356164   3.976   5.860  21.770  0.5012 -1.0258 -0.3963
    31IDT   C1456165   4.077   5.759  21.763  0.9983 -0.5462 -0.2685
    31IDT   C1556166   4.184   5.781  21.847  0.7487 -0.0766 -0.0642
    31IDT    S456167   4.166   5.932  21.942 -0.1434 -0.2067 -0.0184
    4IDB    C1656168   4.285   5.680  21.824 -0.5251 -0.3640 -0.0950
    4IDB    C1756169   4.236   5.584  21.731 -0.4392 -0.3917 -0.1130
    51IDQ   C1856170   4.087   5.623  21.692 -1.0331 -0.8150 -0.1636
    4IDB    C1956171   4.308   5.470  21.701 -0.4205 -0.4103  0.0025
    51IDQ   C2056172   4.053   5.611  21.536 -0.0827 -0.3758 -0.3970
    51IDQ   C2156173   3.978   5.528  21.750 -0.0036 -0.3474  0.3882
    51IDQ   C2256174   3.990   5.405  21.830  0.2400 -0.9858 -0.8037
    51IDQ   C2356175   3.986   5.731  21.471 -0.0219  0.4837 -0.5934
    51IDQ   C2456176   4.055   5.443  21.969  0.1535  0.4201 -0.2072
    51IDQ   C2556177   4.098   5.334  22.058  0.0059  0.1256  0.0597
    51IDQ   C2656178   4.212   5.239  22.009 -0.7651  0.5748  0.4972
    51IDQ   C2756179   4.284   5.189  22.133  0.0388 -0.0006  1.4244
    51IDQ   C2856180   4.406   5.096  22.120  0.0762  0.3124  0.3041
    51IDQ   C2956181   4.407   4.983  22.013 -0.8110  0.1695 -0.7063
    51IDQ   C3056182   3.977   5.719  21.324 -0.5033 -0.1870  0.0756
    51IDQ   C3156183   3.905   5.603  21.245 -0.9839 -0.1034  0.3221
    51IDQ   C3256184   3.776   5.543  21.306 -0.7730 -0.4625 -0.2146
    51IDQ   C3356185   3.690   5.471  21.210 -0.0135 -0.0043  0.4655
    51IDQ   C3456186   3.568   5.405  21.269  0.6145  0.6288  0.9702
    51IDQ   C3556187   3.506   5.327  21.152 -0.0122  0.4922 -0.7793
    4IDB    C3656188   4.409   5.662  21.889 -0.5928 -0.3549  0.0381
    4IDB    C3756189   4.482   5.544  21.857 -0.5724 -0.3742  0.1550
    11RH    C3856190   3.789   7.056  21.998 -0.3762 -0.2578 -0.0688
    4IDB    C3956191   4.432   5.451  21.765 -0.4883 -0.4012  0.1352
    62IDT   C4056192   4.520   5.338  21.764 -0.4845 -0.0043  0.1592
    72IDQ   C4156193   4.618   5.494  21.922  0.8078 -0.2898 -0.1612
    62IDT   C4256194   4.621   5.350  21.858 -0.9928 -0.2962  0.7577
    72IDQ   C4356195   4.610   5.486  22.072  0.1815  0.4676 -0.4630
    72IDQ   C4456196   4.721   5.595  21.879 -0.2192 -0.4070 -0.2659
    62IDT    S556197   4.531   5.183  21.674  0.0896  0.3400 -0.3833
    62IDT   C4556198   4.678   5.141  21.773 -0.4121  0.0576  0.2591
    62IDT   C4656199   4.710   5.238  21.863 -0.9524 -0.2615  0.8144
    82BTZ   C4756200   4.720   4.992  21.770 -0.4419 -0.0230  0.2408
    82BTZ   C4856201   4.643   4.895  21.711 -0.5808  0.0859  0.2437
    82BTZ   C4956202   4.684   4.757  21.708 -0.6691  0.0629  0.0439
    82BTZ   C5056203   4.802   4.716  21.765 -0.6182 -0.0691 -0.1572
    82BTZ   C5156204   4.845   4.954  21.830 -0.3834 -0.1630  0.0343
    82BTZ   C5256205   4.886   4.813  21.827 -0.4733 -0.1864 -0.1688
    92RH    C5356206   4.849   4.577  21.768  0.5200  0.0721  0.3986
    82BTZ    N456207   4.928   5.039  21.890 -0.2496 -0.2772  0.0105
    82BTZ    N556208   5.003   4.785  21.886 -0.4116 -0.3196 -0.3548
    82BTZ    S656209   5.066   4.940  21.947 -0.2324 -0.4230 -0.2775
    92RH    C5456210   4.799   4.463  21.719  0.4243  0.1687  0.2694
    92RH     S756211   4.655   4.445  21.607  0.1068  0.3784  0.6389
    92RH    C5556212   4.857   4.330  21.749  0.5666  0.1179 -0.2103
    92RH     O256213   4.955   4.308  21.821  0.7868 -0.0169 -0.5426
    92RH     N656214   4.785   4.227  21.683  0.4198  0.2437 -0.2476
    92RH    C5656215   4.677   4.262  21.605  0.1774  0.3889  0.1431
    92RH    C5756216   4.805   4.078  21.714 -1.2971 -0.2441 -0.1178
    92RH    C5856217   4.719   4.016  21.813 -0.4133 -0.6566 -0.5253
    92RH     S856218   4.576   4.160  21.517 -0.0349  0.5567  0.1903
    72IDQ   C5956219   4.867   5.564  21.863  0.1698 -0.1285  0.2460
    72IDQ   C6056220   4.934   5.630  21.746  0.6214 -0.2602  0.4242
    72IDQ   C6156221   5.021   5.543  21.654  0.8813 -0.3795  0.4022
    72IDQ   C6256222   4.955   5.425  21.590  0.0224  0.1843  0.2681
    72IDQ   C6356223   4.853   5.450  21.482 -0.6897  0.4188 -0.6455
    72IDQ   C6456224   4.821   5.318  21.412 -0.0616 -0.0031  0.3940
    72IDQ   C6556225   4.703   5.347  21.326 -0.1750  0.0533  0.2884
    72IDQ   C6656226   4.725   5.448  22.163 -0.5720  1.1214 -0.4119
    72IDQ   C6756227   4.706   5.481  22.312 -0.3872  0.0053 -0.4051
    72IDQ   C6856228   4.798   5.417  22.407 -1.0371 -0.0546 -0.8445
    72IDQ   C6956229   4.934   5.480  22.430 -0.2657  0.3957  0.4895
    72IDQ   C7056230   5.013   5.467  22.564 -0.1528 -0.1139  0.9950
    72IDQ   C7156231   4.924   5.472  22.689  0.0331 -0.0047  0.1359
    72IDQ   C7256232   4.995   5.434  22.820 -0.6565 -0.6291  0.2161
    11RH     C156233   2.358   0.830  25.099  0.1804  0.1476  0.0229
    11RH     C256234   2.404   0.939  25.189  0.1425  0.2641 -0.0973
    11RH     N156235   2.219   0.809  25.112  0.2039  0.0467  0.1172
    11RH     S156236   2.262   1.006  25.284  0.1403  0.2334 -0.0793
    11RH     C356237   2.148   0.887  25.200  0.1895  0.0681  0.0873
    11RH     C456238   2.153   0.717  25.016  0.6445  0.4699  0.0421
    11RH     S256239   1.983   0.882  25.234  0.2116 -0.0353  0.1817
    11RH     O156240   2.430   0.765  25.022  0.1908  0.1372  0.0415
    11RH     C556241   2.531   0.979  25.197  0.1147  0.3734 -0.2021
    21BTZ    C656242   2.599   1.087  25.272  0.0958 -0.7965  0.2222
    21BTZ    C756243   2.531   1.163  25.363  0.0405 -0.8594  0.2346
    21BTZ    C856244   2.739   1.109  25.254  0.0178 -0.4783 -0.0014
    21BTZ    C956245   2.597   1.265  25.440 -0.0934 -0.6145  0.0291
    21BTZ   C1056246   2.731   1.291  25.426 -0.1718 -0.3071 -0.1882
    21BTZ   C1156247   2.807   1.213  25.332 -0.1183 -0.2294 -0.2098
    21BTZ    N256248   2.816   1.041  25.168  0.0605 -0.3878 -0.0353
    21BTZ    N356249   2.938   1.228  25.310 -0.1850  0.0612 -0.4120
    21BTZ    S356250   2.981   1.108  25.185 -0.0742  0.0281 -0.3426
    31IDT   C1256251   2.788   1.408  25.516  0.1161  0.0480  0.1413
    31IDT   C1356252   2.915   1.427  25.562 -0.1045 -0.2261  0.8831
    31IDT   C1456253   2.921   1.521  25.670 -0.6012 -0.7300  1.3647
    31IDT   C1556254   2.799   1.574  25.706 -0.7624 -0.8431  0.9936
    31IDT    S456255   2.665   1.508  25.605 -0.2931 -0.3154 -0.0031
    4IDB    C1656256   2.828   1.659  25.824  0.3820  0.2176 -0.1749
    4IDB    C1756257   2.964   1.649  25.866  0.2634 -0.2117  0.1235
    51IDQ   C1856258   3.033   1.578  25.749 -0.7414  0.1649  0.0905
    4IDB    C1956259   3.010   1.720  25.977  0.2647 -0.2855  0.1708
    51IDQ   C2056260   3.120   1.698  25.677 -0.7105 -0.5808 -0.5794
    51IDQ   C2156261   3.128   1.454  25.771  0.4072  0.4860  0.4781
    51IDQ   C2256262   3.169   1.408  25.911 -0.4071  0.5578  0.5175
    51IDQ   C2356263   3.069   1.775  25.550 -0.6910  1.0232 -0.4068
    51IDQ   C2456264   3.209   1.258  25.906  0.2086  0.3271 -0.3303
    51IDQ   C2556265   3.318   1.204  26.004 -0.8658 -0.5058 -0.4959
    51IDQ   C2656266   3.303   1.276  26.137  0.2066  0.5162 -0.5241
    51IDQ   C2756267   3.383   1.220  26.250 -0.7587 -0.6735 -0.9714
    51IDQ   C2856268   3.369   1.303  26.378  0.9221 -0.2406 -0.3202
    51IDQ   C2956269   3.490   1.290  26.468 -0.6129  0.2472 -0.1802
    51IDQ   C3056270   3.100   1.930  25.552  0.2924 -0.2769  1.1797
    51IDQ   C3156271   3.006   2.000  25.658  0.2156 -0.8561 -0.2634
    51IDQ   C3256272   3.052   2.142  25.681  0.7677  0.1916 -0.5265
    51IDQ   C3356273   2.961   2.221  25.775 -0.1487  0.0915 -0.1740
    51IDQ   C3456274   2.942   2.362  25.720 -0.8799 -0.2378  0.1784
    51IDQ   C3556275   2.821   2.390  25.635  0.7709 -0.0230 -1.0231
    4IDB    C3656276   2.736   1.740  25.893  0.5035  0.5777 -0.4296
    4IDB    C3756277   2.785   1.811  26.006  0.5031  0.4960 -0.3777
    11RH    C3856278   2.099   0.791  24.889  0.5421  0.3910 -1.0458
    4IDB    C3956279   2.918   1.801  26.046  0.3862  0.0746 -0.0848
    62IDT   C4056280   2.941   1.884  26.160  0.0085  0.4253 -0.1052
    72IDQ   C4156281   2.711   1.903  26.105  0.2899  2.1202 -0.5942
    62IDT   C4256282   2.822   1.936  26.207  0.0561  0.4256  0.0167
    72IDQ   C4356283   2.606   1.820  26.184  0.7550  1.3715 -1.1285
    72IDQ   C4456284   2.647   2.018  26.012  0.1631 -0.1534  0.2822
    62IDT    S556285   3.083   1.960  26.240  0.0829  0.2147 -0.0379
    62IDT   C4556286   2.968   2.061  26.338  0.1792  0.1342  0.1608
    62IDT   C4656287   2.837   2.036  26.308  0.1526  0.2611  0.1664
    82BTZ   C4756288   3.014   2.146  26.449  0.0353  0.2702 -0.1525
    82BTZ   C4856289   3.124   2.225  26.429  0.1072  0.2007 -0.0358
    82BTZ   C4956290   3.166   2.323  26.526  0.1655  0.0582  0.0854
    82BTZ   C5056291   3.097   2.343  26.643  0.1517 -0.0147  0.0893
    82BTZ   C5156292   2.939   2.163  26.570  0.0182  0.1982 -0.1531
    82BTZ   C5256293   2.981   2.263  26.669  0.0774  0.0535 -0.0300
    92RH    C5356294   3.147   2.433  26.752 -0.2810  0.1353 -0.2188
    82BTZ    N456295   2.830   2.092  26.602 -0.0496  0.2549 -0.2608
    82BTZ    N556296   2.906   2.273  26.779  0.0572 -0.0064 -0.0386
    82BTZ    S656297   2.776   2.152  26.761 -0.0405  0.1223 -0.2075
    92RH    C5456298   3.256   2.508  26.766 -0.3155  0.1571 -0.0629
    92RH     S756299   3.380   2.548  26.637 -0.1558  0.2083  0.1040
    92RH    C5556300   3.296   2.572  26.894 -0.4948  0.1423  0.0005
    92RH     O256301   3.233   2.565  27.001 -0.6318  0.1087 -0.0811
    92RH     N656302   3.416   2.645  26.880 -0.4928  0.1714  0.1699
    92RH    C5656303   3.477   2.647  26.757 -0.3337  0.2077  0.2494
    92RH    C5756304   3.471   2.709  27.009  0.8375  0.6362 -0.4647
    92RH    C5856305   3.458   2.860  27.038 -0.0649 -0.9388  0.3795
    92RH     S856306   3.620   2.726  26.715 -0.2955  0.2472  0.4492
    72IDQ   C5956307   2.629   2.156  26.069 -0.0361 -0.2926 -0.4351
    72IDQ   C6056308   2.645   2.257  25.962  0.1767 -0.2131 -0.1870
    72IDQ   C6156309   2.656   2.403  26.005  0.1027  0.1939 -0.2512
    72IDQ   C6256310   2.636   2.491  25.883  0.3267  0.1859 -0.2566
    72IDQ   C6356311   2.586   2.632  25.919  0.5807  0.1840  0.1459
    72IDQ   C6456312   2.443   2.656  25.974  0.1025 -0.0328 -1.0620
    72IDQ   C6556313   2.390   2.796  25.952 -0.8050  0.4669  0.3967
    72IDQ   C6656314   2.518   1.881  26.281  1.3022  0.1044 -0.9309
    72IDQ   C6756315   2.419   1.769  26.332 -0.1557 -1.9030  0.3856
    72IDQ   C6856316   2.318   1.721  26.220  0.0644  0.4944  0.0627
    72IDQ   C6956317   2.189   1.660  26.269  0.2399  0.3219 -0.1760
    72IDQ   C7056318   2.094   1.625  26.142 -0.3200 -0.0998 -0.5363
    72IDQ   C7156319   1.955   1.565  26.156  0.2684  0.5806  0.1525
    72IDQ   C7256320   1.872   1.618  26.036  0.4529 -0.4257 -0.3729
    11RH     C156321   2.319   2.817   8.741  0.4762  0.0535 -0.3591
    11RH     C256322   2.192   2.865   8.680  0.4313 -0.0249 -0.3276
    11RH     N156323   2.375   2.914   8.826  0.1845 -0.0927  0.0061
    11RH     S156324   2.156   3.035   8.739  0.0083 -0.2853  0.1797
    11RH     C356325   2.310   3.034   8.841 -0.0886 -0.2782  0.3262
    11RH     C456326   2.513   2.898   8.870  0.0293  0.1730 -0.0939
    11RH     S256327   2.355   3.165   8.936 -0.4635 -0.4770  0.7901
    11RH     O156328   2.370   2.705   8.721  0.7343  0.2246 -0.6630
    11RH     C556329   2.119   2.792   8.595  0.6697  0.0833 -0.6311
    21BTZ    C656330   1.986   2.810   8.535  0.2719 -0.3344 -0.0686
    21BTZ    C756331   1.896   2.905   8.576  0.2672 -0.4292  0.1438
    21BTZ    C856332   1.941   2.702   8.453  0.2041 -0.3540 -0.0045
    21BTZ    C956333   1.757   2.897   8.539  0.1962 -0.5472  0.4275
    21BTZ   C1056334   1.708   2.795   8.461  0.1300 -0.5702  0.4983
    21BTZ   C1156335   1.799   2.694   8.416  0.1319 -0.4740  0.2835
    21BTZ    N256336   2.019   2.604   8.408  0.2014 -0.2689 -0.1931
    21BTZ    N356337   1.764   2.590   8.339  0.0713 -0.4852  0.3266
    21BTZ    S356338   1.913   2.496   8.312  0.1045 -0.3400 -0.0060
    31IDT   C1256339   1.577   2.808   8.399 -0.2967  0.4396  0.3363
    31IDT   C1356340   1.528   2.925   8.349 -0.5246  0.3425  0.3309
    31IDT   C1456341   1.397   2.911   8.293 -0.4757  0.0732  0.2804
    31IDT   C1556342   1.346   2.783   8.302 -0.2109 -0.0365  0.2475
    31IDT    S456343   1.460   2.670   8.381 -0.0009  0.1948  0.2781
    4IDB    C1656344   1.215   2.786   8.235 -0.0019 -0.0715 -0.7361
    4IDB    C1756345   1.182   2.920   8.198 -0.1971  0.0008 -0.3197
    51IDQ   C1856346   1.306   3.009   8.215 -0.2810 -0.1396 -0.0979
    4IDB    C1956347   1.058   2.950   8.142 -0.4215  0.0792  0.2047
    51IDQ   C2056348   1.372   3.071   8.092  0.5310 -0.2015 -0.2139
    51IDQ   C2156349   1.284   3.128   8.305  0.1209  0.1018 -0.3547
    51IDQ   C2256350   1.145   3.175   8.359  0.4019  1.4505 -0.0963
    51IDQ   C2356351   1.507   3.046   8.028 -0.9203  0.3420  0.2229
    51IDQ   C2456352   1.149   3.242   8.494  0.0366 -0.2214 -0.3354
    51IDQ   C2556353   1.005   3.285   8.540 -0.1776 -0.2337 -0.7001
    51IDQ   C2656354   1.025   3.376   8.664 -1.0929 -0.3319 -0.7384
    51IDQ   C2756355   0.897   3.442   8.700  0.6781  0.2589 -0.0685
    51IDQ   C2856356   0.866   3.463   8.848  0.3859  0.0979 -0.3339
    51IDQ   C2956357   0.714   3.510   8.861 -0.6304  0.5819 -0.5605
    51IDQ   C3056358   1.534   2.901   7.971 -1.1320 -0.2800  0.9945
    51IDQ   C3156359   1.432   2.849   7.866  0.1621 -0.4321  1.0156
    51IDQ   C3256360   1.454   2.711   7.802 -0.4893  0.0974  0.4684
    51IDQ   C3356361   1.525   2.597   7.889  1.0980  0.5567  1.0439
    51IDQ   C3456362   1.667   2.617   7.941  0.4458 -0.0392  0.1052
    51IDQ   C3556363   1.767   2.642   7.837 -0.5830  0.0934 -0.5973
    4IDB    C3656364   1.123   2.681   8.217 -0.0303 -0.0657 -0.6287
    4IDB    C3756365   0.998   2.714   8.159 -0.2609  0.0148 -0.0904
    11RH    C3856366   2.531   2.860   9.021  0.2189 -0.3633  0.9467
    4IDB    C3956367   0.967   2.845   8.123 -0.4499  0.0849  0.3122
    62IDT   C4056368   0.832   2.847   8.069 -0.1267  0.0249  0.2559
    72IDQ   C4156369   0.885   2.618   8.118  0.0023 -0.2372 -0.6493
    62IDT   C4256370   0.792   2.717   8.049 -0.1342  0.0358  0.2007
    72IDQ   C4356371   0.812   2.547   8.236  1.1687 -0.9471  0.2878
    72IDQ   C4456372   0.939   2.515   8.001  0.6999  1.2235  0.1157
    62IDT    S556373   0.711   2.965   8.008  0.1916  0.0590 -0.3277
    62IDT   C4556374   0.607   2.826   7.956  0.3032  0.0877 -0.6307
    62IDT   C4656375   0.665   2.704   7.985  0.1088  0.0713 -0.3004
    82BTZ   C4756376   0.485   2.856   7.874  0.1146 -0.2340 -0.1117
    82BTZ   C4856377   0.442   2.984   7.855  0.0070 -0.2394  0.0986
    82BTZ   C4956378   0.330   3.015   7.769 -0.1324 -0.2084  0.2880
    82BTZ   C5056379   0.263   2.916   7.701 -0.1642 -0.1720  0.2668
    82BTZ   C5156380   0.418   2.749   7.805  0.0866 -0.1963 -0.1426
    82BTZ   C5256381   0.305   2.780   7.717 -0.0552 -0.1648  0.0501
    92RH    C5356382   0.161   2.940   7.594 -0.0018  0.0995  0.3121
    82BTZ    N456383   0.451   2.620   7.815  0.1825 -0.1875 -0.3390
    82BTZ    N556384   0.247   2.676   7.657 -0.0732 -0.1307  0.0082
    82BTZ    S656385   0.337   2.531   7.710  0.0938 -0.1374 -0.2851
    92RH    C5456386   0.102   3.047   7.539 -0.1548  0.0099  0.3041
    92RH     S756387   0.120   3.222   7.589 -0.0599  0.0861  0.0081
    92RH    C5556388   0.008   3.037   7.424 -0.4343 -0.1709  0.5425
    92RH     O256389  -0.025   2.932   7.366 -0.5577 -0.2594  0.7733
    92RH     N656390  -0.040   3.164   7.386 -0.5480 -0.2334  0.4761
    92RH    C5656391   0.004   3.274   7.456 -0.3939 -0.1246  0.2139
    92RH    C5756392  -0.130   3.180   7.268  0.1110 -0.5427  0.6529
    92RH    C5856393  -0.274   3.143   7.278  0.3470  0.0303 -0.4365
    92RH     S856394  -0.038   3.436   7.431 -0.4810 -0.1670  0.0832
    72IDQ   C5956395   1.018   2.389   8.040 -0.4965  0.0434 -0.6138
    72IDQ   C6056396   1.166   2.422   8.053  0.1067  0.4132  0.7033
    72IDQ   C6156397   1.238   2.319   8.137 -0.4583  0.4251  1.1699
    72IDQ   C6256398   1.390   2.327   8.155  0.4231 -0.3726  0.2327
    72IDQ   C6356399   1.425   2.224   8.268  0.2936  0.0607  0.7540
    72IDQ   C6456400   1.575   2.245   8.327  0.4352  0.2192  0.6037
    72IDQ   C6556401   1.595   2.130   8.428 -0.6488  0.2795  0.1659
    72IDQ   C6656402   0.826   2.598   8.380  0.8539  0.4202 -0.0881
    72IDQ   C6756403   0.725   2.699   8.422 -0.2212 -0.6431 -0.0994
    72IDQ   C6856404   0.578   2.678   8.397  0.4791 -0.9483  0.7122
    72IDQ   C6956405   0.503   2.787   8.471  0.1049 -0.9534  0.1564
    72IDQ   C7056406   0.359   2.793   8.415 -0.1954 -0.4093  1.0734
    72IDQ   C7156407   0.260   2.860   8.512  0.2665  0.7563 -0.0866
    72IDQ   C7256408   0.108   2.841   8.490  0.6487 -0.1873  0.4897
    11RH     C156409   2.583   0.415  23.914  0.0008  0.2778 -0.4215
    11RH     C256410   2.475   0.503  23.964  0.2465  0.3351  0.0181
    11RH     N156411   2.626   0.323  24.013 -0.0882 -0.1783 -0.7993
    11RH     S156412   2.436   0.459  24.138  0.3446 -0.2145 -0.0941
    11RH     C356413   2.564   0.327  24.136  0.0563 -0.4934 -0.7157
    11RH     C456414   2.729   0.218  23.995 -0.5588 -0.5297  0.2928
    11RH     S256415   2.596   0.230  24.270 -0.0063 -1.0542 -1.1020
    11RH     O156416   2.632   0.419  23.800 -0.1162  0.5852 -0.4630
    11RH     C556417   2.417   0.598  23.891  0.3717  0.7337  0.4272
    21BTZ    C656418   2.294   0.691  23.922 -0.3704 -0.3768 -0.6386
    21BTZ    C756419   2.224   0.698  24.039 -0.2460 -0.4405 -0.5598
    21BTZ    C856420   2.265   0.786  23.819 -0.1975 -0.0626 -0.4020
    21BTZ    C956421   2.122   0.798  24.061  0.0523 -0.2003 -0.2465
    21BTZ   C1056422   2.091   0.891  23.965  0.2260  0.1031 -0.0120
    21BTZ   C1156423   2.162   0.888  23.841  0.1057  0.1815 -0.0830
    21BTZ    N256424   2.327   0.789  23.700 -0.2941  0.0282 -0.4492
    21BTZ    N356425   2.141   0.973  23.740  0.2529  0.4684  0.1249
    21BTZ    S356426   2.254   0.926  23.610  0.0048  0.4381 -0.0819
    31IDT   C1256427   1.974   0.974  23.985  0.6246  0.2234  0.1892
    31IDT   C1356428   1.963   1.109  23.970  0.4228  0.1828 -0.0553
    31IDT   C1456429   1.841   1.162  24.024  0.2675  0.0778 -0.3018
    31IDT   C1556430   1.759   1.066  24.079  0.3495  0.0376 -0.2484
    31IDT    S456431   1.829   0.902  24.068  0.6325  0.1307  0.1234
    4IDB    C1656432   1.650   1.137  24.152  0.9508  0.1369  0.1372
    4IDB    C1756433   1.651   1.277  24.124  0.1538  0.0474 -0.3834
    51IDQ   C1856434   1.783   1.304  24.046 -0.4774 -0.3474 -0.7138
    4IDB    C1956435   1.549   1.360  24.171 -0.1378 -0.2963 -0.4014
    51IDQ   C2056436   1.727   1.366  23.919  0.8139 -0.2144 -0.2559
    51IDQ   C2156437   1.874   1.411  24.129 -0.9101  0.0182 -0.5194
    51IDQ   C2256438   1.883   1.410  24.283  0.6088 -0.1309 -0.2579
    51IDQ   C2356439   1.745   1.295  23.778 -0.1546  0.0808 -0.9521
    51IDQ   C2456440   2.015   1.488  24.309 -0.1056 -0.7842 -0.0196
    51IDQ   C2556441   2.061   1.473  24.453  0.3300 -0.3716  0.5072
    51IDQ   C2656442   2.161   1.360  24.461  0.4324 -0.3548  0.1633
    51IDQ   C2756443   2.210   1.309  24.590  0.4757 -0.7701 -0.5991
    51IDQ   C2856444   2.207   1.162  24.608  1.5056 -0.1022 -0.2233
    51IDQ   C2956445   2.235   1.100  24.750  0.8552  0.3377  0.1695
    51IDQ   C3056446   1.693   1.385  23.663 -0.6986 -0.5811  0.5302
    51IDQ   C3156447   1.784   1.504  23.615  0.5571 -0.6392  0.7069
    51IDQ   C3256448   1.732   1.571  23.493  0.5261  0.0178  0.7297
    51IDQ   C3356449   1.597   1.632  23.496 -0.0082  1.1909 -0.0119
    51IDQ   C3456450   1.563   1.715  23.378 -0.1597  1.0059 -0.4814
    51IDQ   C3556451   1.559   1.860  23.415  0.7549  0.0628 -0.1783
    4IDB    C3656452   1.548   1.078  24.228  1.4636 -0.1188  0.6461
    4IDB    C3756453   1.445   1.164  24.275  1.1552 -0.4687  0.6199
    11RH    C3856454   2.679   0.089  23.940 -0.0251  0.0707 -0.1992
    4IDB    C3956455   1.447   1.301  24.247  0.3750 -0.5520  0.1079
    62IDT   C4056456   1.331   1.359  24.303  0.2066 -0.5452  0.4908
    72IDQ   C4156457   1.325   1.123  24.363 -0.7053 -0.6127 -0.3399
    62IDT   C4256458   1.246   1.259  24.346  0.4005 -0.6196  0.7095
    72IDQ   C4356459   1.388   1.084  24.507  0.2451 -0.5762 -0.3276
    72IDQ   C4456460   1.256   1.002  24.296  0.1312 -0.1074 -0.4852
    62IDT    S556461   1.251   1.520  24.302 -0.1518 -0.7242 -0.0084
    62IDT   C4556462   1.099   1.440  24.362 -0.0137 -0.8986  0.1097
    62IDT   C4656463   1.115   1.305  24.379  0.2764 -0.8195  0.4935
    82BTZ   C4756464   0.986   1.525  24.397 -0.0012  0.0036  0.1099
    82BTZ   C4856465   1.015   1.652  24.440  0.0935 -0.0005  0.0596
    82BTZ   C4956466   0.910   1.746  24.474  0.1655  0.0539  0.1302
    82BTZ   C5056467   0.778   1.712  24.466  0.1426  0.1122  0.2508
    82BTZ   C5156468   0.849   1.486  24.386 -0.0288  0.0637  0.2360
    82BTZ   C5256469   0.743   1.581  24.421  0.0444  0.1190  0.3076
    92RH    C5356470   0.678   1.815  24.480  0.4037  0.0707 -0.3486
    82BTZ    N456471   0.808   1.365  24.345 -0.1187  0.0736  0.2947
    82BTZ    N556472   0.617   1.537  24.408  0.0132  0.1734  0.4234
    82BTZ    S656473   0.630   1.368  24.350 -0.1135  0.1558  0.4476
    92RH    C5456474   0.679   1.946  24.504  0.3275  0.0362 -0.1574
    92RH     S756475   0.821   2.061  24.487  0.2072  0.1810 -0.1964
    92RH    C5556476   0.559   2.021  24.550  0.3294 -0.1305  0.1264
    92RH     O256477   0.447   1.973  24.571  0.4003 -0.2556  0.2179
    92RH     N656478   0.588   2.158  24.568  0.2392 -0.1314  0.2851
    92RH    C5656479   0.716   2.202  24.541  0.1652  0.0142  0.1626
    92RH    C5756480   0.476   2.249  24.598 -0.1301 -0.5242  0.5356
    92RH    C5856481   0.419   2.329  24.476 -1.0721 -0.1212 -0.0380
    92RH     S856482   0.776   2.359  24.555  0.0516  0.0464  0.3052
    72IDQ   C5956483   1.134   0.930  24.356 -0.0203 -0.0641  0.7349
    72IDQ   C6056484   0.996   0.958  24.277 -0.5024 -0.7754  0.4778
    72IDQ   C6156485   0.990   0.908  24.128 -0.6005  0.6766 -0.5719
    72IDQ   C6256486   0.876   0.944  24.041  0.4665  0.0592  0.6550
    72IDQ   C6356487   0.797   1.075  24.066  0.1429 -0.6705 -0.2516
    72IDQ   C6456488   0.696   1.118  23.954  0.1745 -0.6594  0.3046
    72IDQ   C6556489   0.547   1.117  23.998 -0.1859  0.9966  0.6068
    72IDQ   C6656490   1.502   1.161  24.576 -0.0229  0.1129  0.1354
    72IDQ   C6756491   1.500   1.314  24.605  0.0495 -0.4212  0.2519
    72IDQ   C6856492   1.468   1.368  24.743 -0.2413  0.3593 -0.6043
    72IDQ   C6956493   1.342   1.319  24.801  0.4678 -0.7217 -1.0133
    72IDQ   C7056494   1.303   1.402  24.922 -0.5367  0.2972  0.3188
    72IDQ   C7156495   1.159   1.397  24.963 -0.8596 -0.2513 -0.3721
    72IDQ   C7256496   1.099   1.276  25.022 -0.1874  0.4890 -1.0618
    11RH     C156497   6.433   4.359  23.557  0.4991  0.0445  0.0844
    11RH     C256498   6.304   4.377  23.487  0.5159 -0.0424  0.0300
    11RH     N156499   6.473   4.477  23.624  0.4211  0.0890  0.0521
    11RH     S156500   6.243   4.548  23.514  0.4281 -0.0595 -0.0598
    11RH     C356501   6.391   4.587  23.616  0.3732  0.0486 -0.0215
    11RH     C456502   6.606   4.498  23.695 -0.2727  0.1682 -0.6343
    11RH     S256503   6.416   4.739  23.686  0.2787  0.0874 -0.0725
    11RH     O156504   6.500   4.254  23.559  0.5465  0.0755  0.1497
    11RH     C556505   6.243   4.281  23.417  0.5856 -0.0978  0.0460
    21BTZ    C656506   6.135   4.280  23.319  0.4534 -0.1460 -0.4050
    21BTZ    C756507   6.067   4.393  23.282  0.2042 -0.2311 -0.2151
    21BTZ    C856508   6.094   4.154  23.263  0.3617 -0.2165 -0.1822
    21BTZ    C956509   5.957   4.389  23.189 -0.1456 -0.3890  0.1993
    21BTZ   C1056510   5.914   4.272  23.133 -0.2454 -0.4612  0.4241
    21BTZ   C1156511   5.982   4.150  23.168  0.0063 -0.3768  0.2394
    21BTZ    N256512   6.152   4.037  23.291  0.5814 -0.1454 -0.3333
    21BTZ    N356513   5.949   4.030  23.120 -0.0597 -0.4345  0.4268
    21BTZ    S356514   6.063   3.914  23.196  0.3379 -0.2833  0.0644
    31IDT   C1256515   5.814   4.285  23.026 -0.1544  0.6088  0.1196
    31IDT   C1356516   5.698   4.212  23.022 -0.1395  0.5857  0.1106
    31IDT   C1456517   5.612   4.252  22.915  0.0858  0.2289 -0.2103
    31IDT   C1556518   5.661   4.355  22.838  0.2441 -0.0217 -0.4473
    31IDT    S456519   5.823   4.410  22.895  0.1184  0.1765 -0.2815
    4IDB    C1656520   5.565   4.383  22.735 -0.1022  0.3944 -0.6753
    4IDB    C1756521   5.448   4.301  22.745  0.1190  0.0407 -0.9751
    51IDQ   C1856522   5.483   4.193  22.851  1.4183 -0.1186 -0.2539
    4IDB    C1956523   5.335   4.328  22.668 -0.0078  0.1047 -0.7656
    51IDQ   C2056524   5.365   4.175  22.955  0.9094  1.6514 -0.7551
    51IDQ   C2156525   5.526   4.051  22.805 -0.5218  0.1942 -0.3568
    51IDQ   C2256526   5.539   4.024  22.647  0.7478 -0.3307  0.7234
    51IDQ   C2356527   5.353   4.226  23.100 -0.1741  1.5820  0.0900
    51IDQ   C2456528   5.662   3.951  22.589 -0.1940 -0.0200  0.5177
    51IDQ   C2556529   5.797   4.002  22.647  0.9958 -0.5841 -0.4048
    51IDQ   C2656530   5.916   3.905  22.649 -0.0602  0.9370 -1.0241
    51IDQ   C2756531   6.058   3.961  22.672 -0.1767 -0.2561  0.1195
    51IDQ   C2856532   6.069   4.095  22.740  0.0509  0.0348 -0.0938
    51IDQ   C2956533   6.214   4.146  22.733 -0.0384  1.5282  0.6831
    51IDQ   C3056534   5.236   4.303  23.108  0.3595 -1.0643  0.5359
    51IDQ   C3156535   5.226   4.356  23.250  0.6571  0.0522 -0.3170
    51IDQ   C3256536   5.108   4.457  23.279  0.2208 -0.3058  0.2556
    51IDQ   C3356537   4.976   4.385  23.267  0.0270  0.9251 -0.4419
    51IDQ   C3456538   4.857   4.479  23.311 -0.9521  0.4732  1.1767
    51IDQ   C3556539   4.719   4.417  23.322 -0.2316 -0.4143 -0.2200
    4IDB    C3656540   5.569   4.494  22.649 -0.4538  0.8163 -0.1612
    4IDB    C3756541   5.452   4.520  22.572 -0.5790  0.8755  0.0467
    11RH    C3856542   6.611   4.482  23.849  0.6862  0.2043 -0.7711
    4IDB    C3956543   5.339   4.439  22.582 -0.3596  0.5269 -0.2510
    62IDT   C4056544   5.233   4.491  22.511 -0.0237  0.7511  0.3178
    72IDQ   C4156545   5.416   4.629  22.469 -0.3030 -0.3387 -0.2684
    62IDT   C4256546   5.266   4.608  22.445 -0.3433  0.7273  0.1135
    72IDQ   C4356547   5.491   4.624  22.334 -0.7234 -0.6998  0.0882
    72IDQ   C4456548   5.416   4.788  22.516  0.2144 -0.9407 -0.8475
    62IDT    S556549   5.064   4.440  22.478  0.2186  0.0480  0.1266
    62IDT   C4556550   5.045   4.587  22.372 -0.1420 -0.2557 -0.2370
    62IDT   C4656551   5.159   4.663  22.367 -0.4104  0.1581 -0.1998
    82BTZ   C4756552   4.939   4.596  22.270 -0.3285 -0.4360 -0.0651
    82BTZ   C4856553   4.879   4.480  22.231 -0.6123 -0.3496  0.1140
    82BTZ   C4956554   4.761   4.479  22.148 -0.7138 -0.1873  0.2561
    82BTZ   C5056555   4.704   4.595  22.104 -0.5315 -0.1113  0.2181
    82BTZ   C5156556   4.883   4.721  22.226 -0.1292 -0.3617 -0.1111
    82BTZ   C5256557   4.763   4.720  22.141 -0.2325 -0.1966  0.0329
    92RH    C5356558   4.589   4.589  22.020 -0.2312 -0.4665  0.6251
    82BTZ    N456559   4.933   4.841  22.256  0.1522 -0.4334 -0.2804
    82BTZ    N556560   4.717   4.840  22.104 -0.0341 -0.1355 -0.0205
    82BTZ    S656561   4.827   4.961  22.177  0.2999 -0.2899 -0.2623
    92RH    C5456562   4.512   4.489  21.977 -0.2185 -0.3470  0.3157
    92RH     S756563   4.542   4.309  22.002 -0.1662 -0.4248 -0.2844
    92RH    C5556564   4.386   4.508  21.901 -0.2460 -0.1260  0.4163
    92RH     O256565   4.339   4.618  21.868 -0.2831 -0.0271  0.7920
    92RH     N656566   4.325   4.385  21.869 -0.2244 -0.0380  0.0280
    92RH    C5656567   4.387   4.269  21.910 -0.1832 -0.1613 -0.3724
    92RH    C5756568   4.189   4.389  21.808  0.3316  1.6189  0.0246
    92RH    C5856569   4.184   4.375  21.654 -1.2360 -0.6768 -0.1209
    92RH     S856570   4.335   4.111  21.885 -0.1508 -0.0949 -0.8802
    72IDQ   C5956571   5.392   4.814  22.671  0.4028  0.1621  0.8273
    72IDQ   C6056572   5.499   4.881  22.758  0.9137  0.6767 -0.2126
    72IDQ   C6156573   5.486   4.868  22.915  0.4577 -0.0963  0.4091
    72IDQ   C6256574   5.423   4.740  22.962  0.4894 -0.0419  0.3427
    72IDQ   C6356575   5.484   4.667  23.074  0.4205  0.7141  0.2630
    72IDQ   C6456576   5.625   4.624  23.057 -0.5130 -0.3746  0.1895
    72IDQ   C6556577   5.690   4.616  23.201  0.0796  0.6078  0.7376
    72IDQ   C6656578   5.634   4.572  22.340 -0.0794  0.5468  0.4131
    72IDQ   C6756579   5.682   4.509  22.206  0.8484 -0.4350  1.1137
    72IDQ   C6856580   5.818   4.435  22.208 -0.4098  0.0013 -0.9790
    72IDQ   C6956581   5.917   4.508  22.119 -0.8778  0.0077  0.2248
    72IDQ   C7056582   5.886   4.537  21.970 -1.2669 -0.0901  1.0826
    72IDQ   C7156583   5.858   4.412  21.877 -0.0031 -0.8012 -0.0302
    72IDQ   C7256584   5.829   4.436  21.723  0.7071  0.3347 -0.4402
    11RH     C156585   6.201   1.025  10.957 -0.3147  0.3663 -0.4814
    11RH     C256586   6.111   0.914  10.997  0.1153 -0.0188 -0.5574
    11RH     N156587   6.150   1.150  10.997 -0.6533  0.1165 -0.1144
    11RH     S156588   5.965   0.982  11.085  0.0462 -0.6845 -0.1421
    11RH     C356589   6.030   1.154  11.065 -0.5473 -0.4218  0.1121
    11RH     C456590   6.223   1.270  10.967 -0.3202  0.0074 -0.1877
    11RH     S256591   5.948   1.289  11.123 -0.8867 -0.8119  0.5574
    11RH     O156592   6.308   1.012  10.896 -0.3787  0.8490 -0.7055
    11RH     C556593   6.136   0.785  10.972  0.4896  0.1153 -0.8841
    21BTZ    C656594   6.057   0.663  11.005 -0.0240  0.2621  0.1712
    21BTZ    C756595   5.945   0.664  11.084 -0.0253  0.2246  0.1702
    21BTZ    C856596   6.116   0.536  10.972 -0.1478  0.2666 -0.0672
    21BTZ    C956597   5.885   0.542  11.132 -0.1472  0.1899 -0.0634
    21BTZ   C1056598   5.938   0.419  11.103 -0.2677  0.1927 -0.2957
    21BTZ   C1156599   6.056   0.413  11.021 -0.2716  0.2313 -0.3049
    21BTZ    N256600   6.226   0.522  10.897 -0.1595  0.3015 -0.0908
    21BTZ    N356601   6.116   0.299  10.986 -0.3828  0.2379 -0.5193
    21BTZ    S356602   6.257   0.346  10.886 -0.3327  0.2905 -0.4248
    31IDT   C1256603   5.873   0.301  11.170 -0.0145  0.3805  0.4458
    31IDT   C1356604   5.900   0.168  11.146  0.4750  0.4851  0.3898
    31IDT   C1456605   5.826   0.081  11.231  0.6175  0.1680  0.1903
    31IDT   C1556606   5.742   0.145  11.320  0.2384 -0.1797  0.0930
    31IDT    S456607   5.751   0.324  11.303 -0.3338 -0.1320  0.2481
    4IDB    C1656608   5.660   0.050  11.395  0.2693  0.1669  0.2159
    4IDB    C1756609   5.692  -0.082  11.351 -0.3641  0.2091 -0.4013
    51IDQ   C1856610   5.802  -0.076  11.240 -0.8829  0.1244 -0.5006
    4IDB    C1956611   5.631  -0.193  11.409 -0.3222  0.1984 -0.3774
    51IDQ   C2056612   5.931  -0.154  11.292  1.3123  1.0583  0.0861
    51IDQ   C2156613   5.763  -0.132  11.098  0.4374  0.2107 -0.2729
    51IDQ   C2256614   5.617  -0.183  11.079 -0.7252  0.4310 -0.7967
    51IDQ   C2356615   6.068  -0.103  11.337 -0.8897 -0.8422 -0.4274
    51IDQ   C2456616   5.610  -0.305  10.983 -0.6600 -0.2746  0.3381
    51IDQ   C2556617   5.679  -0.435  11.036  0.0859  0.2554 -0.2638
    51IDQ   C2656618   5.832  -0.459  10.995  0.5913  0.3974 -0.1690
    51IDQ   C2756619   5.881  -0.593  11.063 -0.2308  0.0382  0.0078
    51IDQ   C2856620   5.976  -0.578  11.190  0.5988 -0.8429 -0.1931
    51IDQ   C2956621   5.900  -0.523  11.319 -0.3296  0.5805  0.5771
    51IDQ   C3056622   6.152  -0.217  11.399  0.1121 -0.2476  0.6325
    51IDQ   C3156623   6.102  -0.296  11.528  0.5106  1.1444  0.7502
    51IDQ   C3256624   6.086  -0.199  11.647 -1.2777  0.2256  0.0580
    51IDQ   C3356625   5.948  -0.149  11.673  0.3943  0.0137  0.8313
    51IDQ   C3456626   5.941  -0.044  11.776 -0.1112  0.7682 -0.6246
    51IDQ   C3556627   5.992  -0.077  11.923 -0.2275 -0.0278  1.0629
    4IDB    C3656628   5.567   0.072  11.498  0.9524  0.1134  0.8638
    4IDB    C3756629   5.506  -0.043  11.556  0.9845  0.1034  0.8776
    11RH    C3856630   6.281   1.366  11.072 -1.2529  0.5367 -0.9630
    4IDB    C3956631   5.538  -0.171  11.511  0.3608  0.1452  0.2708
    62IDT   C4056632   5.446  -0.257  11.586 -0.2930  0.3269 -0.1132
    72IDQ   C4156633   5.389  -0.038  11.663 -0.5554  0.2987 -1.1357
    62IDT   C4256634   5.368  -0.188  11.676 -0.3529  0.3216 -0.1602
    72IDQ   C4356635   5.267   0.053  11.619 -0.6361 -0.1827 -0.3576
    72IDQ   C4456636   5.446  -0.019  11.812 -0.6553 -1.4174  0.1993
    62IDT    S556637   5.433  -0.435  11.608 -0.0270  0.3335  0.1010
    62IDT   C4556638   5.318  -0.405  11.746 -0.0097  0.3284  0.1166
    62IDT   C4656639   5.296  -0.271  11.767 -0.1928  0.3223 -0.0308
    82BTZ   C4756640   5.257  -0.516  11.823 -0.2627  0.4042 -0.0058
    82BTZ   C4856641   5.183  -0.604  11.748 -0.0865  0.2823 -0.0379
    82BTZ   C4956642   5.089  -0.695  11.809  0.0463  0.1173 -0.0770
    82BTZ   C5056643   5.069  -0.698  11.944  0.0027  0.0743 -0.0843
    82BTZ   C5156644   5.240  -0.515  11.965 -0.3153  0.3655 -0.0119
    82BTZ   C5256645   5.144  -0.608  12.027 -0.1802  0.1978 -0.0520
    92RH    C5356646   4.983  -0.794  12.016 -0.5439  0.2007 -0.0483
    82BTZ    N456647   5.306  -0.434  12.048 -0.4827  0.4737  0.0169
    82BTZ    N556648   5.133  -0.601  12.160 -0.2391  0.1712 -0.0548
    82BTZ    S656649   5.247  -0.474  12.213 -0.4746  0.3634 -0.0067
    92RH    C5456650   4.907  -0.896  11.973 -0.2877  0.0348 -0.1070
    92RH     S756651   4.869  -0.938  11.798 -0.3513  0.1623 -0.1238
    92RH    C5556652   4.842  -0.994  12.063  0.0999 -0.2887 -0.1695
    92RH     O256653   4.848  -0.993  12.187  0.2311 -0.4417 -0.1748
    92RH     N656654   4.769  -1.091  11.990  0.3095 -0.4071 -0.2237
    92RH    C5656655   4.768  -1.082  11.853  0.1373 -0.2178 -0.2120
    92RH    C5756656   4.676  -1.186  12.056 -0.8961  0.3097 -0.2533
    92RH    C5856657   4.710  -1.333  12.054 -0.1346 -0.3891 -0.1276
    92RH     S856658   4.690  -1.184  11.744  0.3233 -0.3020 -0.2675
    72IDQ   C5956659   5.528   0.114  11.850 -0.1760  0.6488 -0.3140
    72IDQ   C6056660   5.558   0.099  11.998 -0.0825  0.0905 -0.4103
    72IDQ   C6156661   5.588   0.232  12.059 -0.4372 -0.2741  0.1590
    72IDQ   C6256662   5.685   0.218  12.174  0.9089  0.4560 -0.5696
    72IDQ   C6356663   5.761   0.338  12.226 -0.3261 -0.7443 -0.2025
    72IDQ   C6456664   5.680   0.431  12.324 -1.7686  0.1623  0.6246
    72IDQ   C6556665   5.763   0.563  12.375 -0.7253  0.5837  0.3726
    72IDQ   C6656666   5.211   0.054  11.478  0.1426 -0.6773  0.4312
    72IDQ   C6756667   5.161  -0.091  11.446  0.7281  0.0207  0.2260
    72IDQ   C6856668   5.125  -0.115  11.294 -0.0664 -0.3911 -0.0579
    72IDQ   C6956669   5.040  -0.236  11.266 -0.4969  0.9709  0.4148
    72IDQ   C7056670   5.104  -0.376  11.292 -0.2566  0.7287 -0.2620
    72IDQ   C7156671   5.233  -0.398  11.219 -1.1353 -1.3885 -0.0122
    72IDQ   C7256672   5.310  -0.533  11.258 -0.3536 -0.6466 -0.7894
    11RH     C156673   3.089   1.663   8.717  0.0107 -0.1593  0.2565
    11RH     C256674   2.961   1.661   8.792  0.0402 -0.0260  0.3116
    11RH     N156675   3.069   1.693   8.581 -0.0284 -0.2540  0.2415
    11RH     S156676   2.822   1.698   8.678  0.0144 -0.0341  0.3401
    11RH     C356677   2.940   1.715   8.537 -0.0340 -0.2130  0.2780
    11RH     C456678   3.184   1.724   8.492  0.1141  0.2520 -0.1146
    11RH     S256679   2.889   1.751   8.380 -0.0772 -0.3054  0.2706
    11RH     O156680   3.201   1.642   8.766  0.0185 -0.1869  0.2265
    11RH     C556681   2.952   1.636   8.923  0.0794  0.0814  0.3352
    21BTZ    C656682   2.846   1.628   9.020 -0.1127 -0.2798 -0.1226
    21BTZ    C756683   2.720   1.678   8.999 -0.1301 -0.2926 -0.0458
    21BTZ    C856684   2.877   1.568   9.146 -0.0011 -0.1924 -0.1075
    21BTZ    C956685   2.619   1.672   9.102 -0.0396 -0.2208  0.0491
    21BTZ   C1056686   2.644   1.615   9.224  0.0684 -0.1362  0.0671
    21BTZ   C1156687   2.774   1.561   9.250  0.0910 -0.1194 -0.0112
    21BTZ    N256688   2.996   1.516   9.177  0.0264 -0.1717 -0.1771
    21BTZ    N356689   2.810   1.503   9.365  0.1926 -0.0399 -0.0031
    21BTZ    S356690   2.981   1.454   9.345  0.1744 -0.0555 -0.1205
    31IDT   C1256691   2.550   1.637   9.332  0.2029 -0.3454  0.3513
    31IDT   C1356692   2.493   1.542   9.412  0.6554 -0.1149  0.9606
    31IDT   C1456693   2.395   1.596   9.501  0.8247  0.0739  1.0338
    31IDT   C1556694   2.377   1.732   9.489  0.5033 -0.0110  0.4818
    31IDT    S456695   2.483   1.803   9.363 -0.0439 -0.3398 -0.1799
    4IDB    C1656696   2.269   1.770   9.580  0.1988  0.2810  0.4182
    4IDB    C1756697   2.214   1.650   9.637 -0.0163  0.2148  0.0799
    51IDQ   C1856698   2.290   1.530   9.580 -0.2308  0.2948  0.1747
    4IDB    C1956699   2.112   1.657   9.731 -0.0269  0.1307  0.0737
    51IDQ   C2056700   2.343   1.422   9.693  0.1006 -0.1266 -0.0075
    51IDQ   C2156701   2.206   1.440   9.479 -1.2407 -0.1583 -0.8838
    51IDQ   C2256702   2.054   1.443   9.480 -1.6194 -1.0847  0.1219
    51IDQ   C2356703   2.493   1.388   9.694  1.1467 -0.8608 -0.3306
    51IDQ   C2456704   1.959   1.377   9.573  0.0455 -0.2676 -0.7807
    51IDQ   C2556705   1.974   1.224   9.608  0.5500 -0.1498  0.5165
    51IDQ   C2656706   1.863   1.189   9.716 -0.5922 -0.6631  0.0495
    51IDQ   C2756707   1.893   1.048   9.779  0.9678 -0.3943  0.3548
    51IDQ   C2856708   1.882   1.013   9.930  0.4838 -0.6469  0.4158
    51IDQ   C2956709   1.933   1.109  10.039  0.3150  0.7894  0.0702
    51IDQ   C3056710   2.530   1.305   9.821  0.4676  0.1886  0.6613
    51IDQ   C3156711   2.671   1.238   9.822 -0.9599  0.7814 -0.5407
    51IDQ   C3256712   2.685   1.137   9.715 -0.4749  0.1434 -0.0432
    51IDQ   C3356713   2.827   1.072   9.681 -0.4609  0.1549 -0.2984
    51IDQ   C3456714   2.960   1.144   9.676 -0.1237 -0.1912  0.8166
    51IDQ   C3556715   3.067   1.036   9.704 -0.1902 -0.0779 -0.4002
    4IDB    C3656716   2.221   1.896   9.617  0.4058  0.2634  0.7546
    4IDB    C3756717   2.116   1.900   9.713  0.3916  0.1772  0.7432
    11RH    C3856718   3.249   1.869   8.518 -0.8730  0.4043 -0.9070
    4IDB    C3956719   2.064   1.783   9.768  0.1801  0.1131  0.4103
    62IDT   C4056720   1.947   1.811   9.851 -0.1710 -0.6174  0.3671
    72IDQ   C4156721   2.020   2.018   9.746  0.9891  0.9406 -0.7758
    62IDT   C4256722   1.912   1.943   9.835  0.2785 -0.4496  0.7412
    72IDQ   C4356723   1.962   2.070   9.603 -0.8253  0.0613 -0.1720
    72IDQ   C4456724   2.123   2.135   9.796 -0.5612 -0.0610 -0.7616
    62IDT    S556725   1.827   1.720   9.949 -0.5604 -0.5300 -0.0226
    62IDT   C4556726   1.731   1.874   9.965 -0.0710 -0.2579  0.3592
    62IDT   C4656727   1.790   1.979   9.900  0.3358 -0.2461  0.7372
    82BTZ   C4756728   1.606   1.868  10.033  0.2330  0.0118  0.1616
    82BTZ   C4856729   1.505   1.791   9.981  0.1883  0.1380  0.0606
    82BTZ   C4956730   1.382   1.771  10.052  0.0676  0.3413 -0.0894
    82BTZ   C5056731   1.359   1.827  10.175 -0.0083  0.4181 -0.1383
    82BTZ   C5156732   1.587   1.929  10.162  0.1570  0.0851  0.1156
    82BTZ   C5256733   1.461   1.908  10.234  0.0342  0.2918 -0.0370
    92RH    C5356734   1.236   1.816  10.241  0.1216 -0.2451 -0.3046
    82BTZ    N456735   1.678   2.006  10.223  0.1902 -0.0234  0.2034
    82BTZ    N556736   1.451   1.968  10.353 -0.0312  0.3493 -0.0715
    82BTZ    S656737   1.605   2.056  10.378  0.0634  0.1373  0.0928
    92RH    C5456738   1.115   1.765  10.219  0.1293 -0.3241 -0.1671
    92RH     S756739   1.069   1.645  10.087  0.1247 -0.6033  0.0851
    92RH    C5556740   0.996   1.798  10.300  0.1431 -0.1923 -0.2003
    92RH     O256741   0.994   1.875  10.397  0.1491  0.0030 -0.3552
    92RH     N656742   0.881   1.729  10.255  0.1489 -0.3168 -0.0302
    92RH    C5656743   0.894   1.645  10.146  0.1413 -0.5323  0.1347
    92RH    C5756744   0.738   1.777  10.313 -1.6684 -0.2876  0.7470
    92RH    C5856745   0.649   1.863  10.229  0.3502 -0.9884 -0.5426
    92RH     S856746   0.774   1.552  10.072  0.1458 -0.7147  0.3543
    72IDQ   C5956747   2.094   2.217   9.925 -0.5323  0.5755  0.1967
    72IDQ   C6056748   2.217   2.292   9.973  0.0246  0.0974  0.4755
    72IDQ   C6156749   2.190   2.411  10.061 -0.2203 -0.5116  0.0727
    72IDQ   C6256750   2.320   2.469  10.099  0.8444  0.1061  0.0263
    72IDQ   C6356751   2.368   2.576  10.007 -0.3561  0.0187 -0.1961
    72IDQ   C6456752   2.465   2.521   9.909 -0.4982  0.8069  0.8498
    72IDQ   C6556753   2.611   2.536   9.956 -0.0406  0.6292  0.2608
    72IDQ   C6656754   1.824   2.135   9.599  0.8553 -0.7233 -0.2610
    72IDQ   C6756755   1.851   2.280   9.626 -0.2527 -0.2781  0.3554
    72IDQ   C6856756   1.723   2.356   9.670  0.9390 -0.0989 -0.8310
    72IDQ   C6956757   1.632   2.309   9.789  0.1375  1.1326  1.0101
    72IDQ   C7056758   1.667   2.339   9.939  0.5061  0.3301  1.4221
    72IDQ   C7156759   1.804   2.375   9.993 -0.1942  0.2947  0.5683
    72IDQ   C7256760   1.847   2.512   9.982 -1.0327 -0.3379 -0.3457
    11RH     C156761   3.724   3.317  25.151  0.5562  0.1950  0.1101
    11RH     C256762   3.793   3.187  25.171  0.4665  0.1698  0.2584
    11RH     N156763   3.725   3.394  25.269  0.6676  0.3581  0.0026
    11RH     S156764   3.854   3.175  25.343  0.5343  0.3623  0.2479
    11RH     C356765   3.786   3.343  25.381  0.6781  0.4667  0.0477
    11RH     C456766   3.663   3.529  25.272  0.3576 -0.6425 -0.4827
    11RH     S256767   3.801   3.414  25.533  0.7998  0.6664 -0.0567
    11RH     O156768   3.672   3.355  25.045  0.5383  0.0886  0.0801
    11RH     C556769   3.806   3.095  25.075  0.3538  0.0262  0.3802
    21BTZ    C656770   3.876   2.965  25.072 -0.1987  0.0426 -0.1902
    21BTZ    C756771   3.945   2.916  25.179 -0.4120  0.0432 -0.0520
    21BTZ    C856772   3.873   2.887  24.951 -0.1350 -0.0575 -0.1273
    21BTZ    C956773   4.014   2.789  25.174 -0.5724 -0.0538  0.1526
    21BTZ   C1056774   4.014   2.712  25.061 -0.5196 -0.1512  0.2196
    21BTZ   C1156775   3.943   2.759  24.946 -0.2982 -0.1560  0.0811
    21BTZ    N256776   3.810   2.924  24.839  0.0677 -0.0682 -0.2475
    21BTZ    N356777   3.936   2.692  24.830 -0.2267 -0.2460  0.1278
    21BTZ    S356778   3.837   2.793  24.721  0.0582 -0.2079 -0.0965
    31IDT   C1256779   4.088   2.580  25.064 -0.0124  0.3006  0.4630
    31IDT   C1356780   4.058   2.470  24.987 -0.4803  0.2820  0.6638
    31IDT   C1456781   4.156   2.366  24.998 -0.5764  0.1540  0.3448
    31IDT   C1556782   4.260   2.396  25.084 -0.1834  0.0744 -0.1001
    31IDT    S456783   4.243   2.559  25.157  0.3439  0.1560 -0.1505
    4IDB    C1656784   4.356   2.286  25.084  0.3163  0.6017  0.2411
    4IDB    C1756785   4.318   2.187  24.988  0.1055  0.6880  0.2341
    51IDQ   C1856786   4.173   2.230  24.935 -1.3232  1.0696 -0.8569
    4IDB    C1956787   4.405   2.085  24.954 -0.1467  0.4518  0.2956
    51IDQ   C2056788   4.165   2.224  24.783  0.3141  0.6817 -0.0948
    51IDQ   C2156789   4.059   2.138  24.982 -0.4576  0.4951 -0.0145
    51IDQ   C2256790   4.084   2.001  25.047  0.6397 -0.0815  0.2440
    51IDQ   C2356791   4.164   2.348  24.688 -0.3485  0.2960 -0.0851
    51IDQ   C2456792   3.994   1.880  25.017 -0.2231 -0.3274 -1.2753
    51IDQ   C2556793   3.845   1.877  25.054  1.0019 -0.2217  0.2139
    51IDQ   C2656794   3.764   1.747  25.054  0.5930  0.0055 -0.4802
    51IDQ   C2756795   3.793   1.638  25.158  0.8278 -0.3036 -1.2609
    51IDQ   C2856796   3.916   1.541  25.135 -0.0061  0.4027  0.0589
    51IDQ   C2956797   3.923   1.486  24.988 -0.2014  0.2009 -0.1474
    51IDQ   C3056798   4.182   2.298  24.537  1.2560  0.4707  0.4905
    51IDQ   C3156799   4.157   2.395  24.423  0.7774 -0.4713  0.2452
    51IDQ   C3256800   4.201   2.545  24.423  0.4212 -0.2079 -0.0156
    51IDQ   C3356801   4.181   2.595  24.275 -0.9838  0.7004 -0.6189
    51IDQ   C3456802   4.176   2.739  24.258  0.1195 -0.2281  0.3208
    51IDQ   C3556803   4.200   2.750  24.108  0.8322 -0.5728  0.3396
    4IDB    C3656804   4.482   2.283  25.146  0.2757  0.2765  0.3099
    4IDB    C3756805   4.569   2.177  25.109  0.0167  0.0385  0.3729
    11RH    C3856806   3.749   3.654  25.238  1.2803  0.0840  0.4489
    4IDB    C3956807   4.531   2.081  25.015 -0.1871  0.1266  0.3651
    62IDT   C4056808   4.658   2.011  24.967 -0.3257 -0.2611  0.0883
    72IDQ   C4156809   4.703   2.131  25.165 -0.3489  0.5899 -0.6976
    62IDT   C4256810   4.761   2.041  25.053 -0.3875 -0.5144  0.2546
    72IDQ   C4356811   4.691   2.053  25.306  0.3858  0.8201 -0.7406
    72IDQ   C4456812   4.817   2.248  25.182 -0.5973 -0.1452  0.0359
    62IDT    S556813   4.707   1.889  24.844 -0.2284  0.1232 -0.2580
    62IDT   C4556814   4.872   1.886  24.919 -0.2788 -0.0893 -0.1534
    62IDT   C4656815   4.882   1.971  25.026 -0.3612 -0.4177  0.1187
    82BTZ   C4756816   4.976   1.813  24.851  0.0405 -0.0183 -0.1331
    82BTZ   C4856817   5.064   1.750  24.935  0.1633  0.1092 -0.1659
    82BTZ   C4956818   5.178   1.677  24.885  0.2691  0.3005 -0.2069
    82BTZ   C5056819   5.203   1.667  24.750  0.2515  0.3641 -0.2144
    82BTZ   C5156820   4.998   1.806  24.710  0.0173  0.0415 -0.1397
    82BTZ   C5256821   5.114   1.731  24.659  0.1248  0.2360 -0.1812
    92RH    C5356822   5.316   1.602  24.694  0.3498  0.2591 -0.3090
    82BTZ    N456823   4.919   1.863  24.618 -0.0980 -0.0696 -0.1092
    82BTZ    N556824   5.128   1.729  24.526  0.0958  0.2812 -0.1850
    82BTZ    S656825   4.991   1.823  24.459 -0.0736  0.0729 -0.1351
    92RH    C5456826   5.419   1.529  24.740  0.1965  0.1456 -0.1440
    92RH     S756827   5.452   1.484  24.915 -0.3589 -0.2388 -0.1300
    92RH    C5556828   5.524   1.471  24.652  0.4640  0.3211  0.0582
    92RH     O256829   5.530   1.483  24.529  0.8533  0.5885  0.0992
    92RH     N656830   5.619   1.399  24.727  0.2194  0.1456  0.2041
    92RH    C5656831   5.603   1.392  24.864 -0.2110 -0.1491  0.1426
    92RH    C5756832   5.740   1.350  24.658 -0.3799 -0.1945  0.5314
    92RH    C5856833   5.738   1.201  24.620  0.0568 -0.5618  0.3012
    92RH     S856834   5.702   1.312  24.975 -0.5707 -0.4042  0.2842
    72IDQ   C5956835   4.800   2.361  25.281 -0.6237  0.1448  0.1986
    72IDQ   C6056836   4.879   2.353  25.414  0.7412 -0.1982  0.7572
    72IDQ   C6156837   4.834   2.450  25.518  0.9546 -0.8565 -0.3116
    72IDQ   C6256838   4.865   2.414  25.647 -0.3852  0.8411 -0.0620
    72IDQ   C6356839   4.840   2.523  25.740 -0.4845 -0.6672 -0.0384
    72IDQ   C6456840   4.876   2.483  25.880 -1.1843 -0.8968  0.1625
    72IDQ   C6556841   4.852   2.609  25.960 -1.3221  0.8282 -0.1468
    72IDQ   C6656842   4.564   2.006  25.387 -0.4734 -0.7171 -0.3579
    72IDQ   C6756843   4.440   2.090  25.403  0.0461 -1.1917 -0.1128
    72IDQ   C6856844   4.465   2.210  25.493  0.5651 -0.1848  0.6471
    72IDQ   C6956845   4.336   2.267  25.548 -0.1548 -0.1981  0.4437
    72IDQ   C7056846   4.334   2.395  25.626 -0.2053 -0.4527 -0.7772
    72IDQ   C7156847   4.330   2.534  25.566 -0.5159 -0.8990 -0.3852
    72IDQ   C7256848   4.436   2.581  25.462  0.3959  1.3570  0.1679
    11RH     C156849   1.841   2.097  15.269 -0.0647 -0.1710 -0.0019
    11RH     C256850   1.715   2.057  15.202 -0.1938 -0.0254  0.1521
    11RH     N156851   1.836   2.070  15.408  0.0812 -0.1802  0.0018
    11RH     S156852   1.598   1.988  15.325 -0.1151  0.0899  0.2928
    11RH     C356853   1.722   2.014  15.460  0.0847 -0.0598  0.1402
    11RH     C456854   1.950   2.109  15.500 -0.0470 -0.5621 -0.4527
    11RH     S256855   1.690   1.973  15.620  0.2420 -0.0425  0.1762
    11RH     O156856   1.940   2.147  15.213 -0.0793 -0.2737 -0.1214
    11RH     C556857   1.694   2.071  15.071 -0.3437  0.0120  0.1803
    21BTZ    C656858   1.579   2.049  14.984  0.0491 -0.3393 -0.1349
    21BTZ    C756859   1.459   2.029  15.048  0.0597 -0.2051 -0.0708
    21BTZ    C856860   1.579   2.067  14.842 -0.0193 -0.2359 -0.1225
    21BTZ    C956861   1.334   2.024  14.976  0.0042  0.0359  0.0081
    21BTZ   C1056862   1.329   2.040  14.840 -0.0619  0.1422  0.0224
    21BTZ   C1156863   1.452   2.062  14.768 -0.0757  0.0091 -0.0422
    21BTZ    N256864   1.688   2.087  14.769 -0.0361 -0.3486 -0.1798
    21BTZ    N356865   1.460   2.079  14.636 -0.1379  0.0932 -0.0350
    21BTZ    S356866   1.633   2.102  14.599 -0.1267 -0.1420 -0.1330
    31IDT   C1256867   1.199   2.015  14.775  0.5013 -0.4826 -0.6445
    31IDT   C1356868   1.161   2.065  14.654  0.4331 -0.5624 -0.6566
    31IDT   C1456869   1.031   2.021  14.613  0.1782 -0.1553 -0.3023
    31IDT   C1556870   0.970   1.937  14.703  0.0508  0.2363 -0.0185
    31IDT    S456871   1.072   1.907  14.848  0.2455  0.1190 -0.1793
    4IDB    C1656872   0.838   1.885  14.656  0.1701  0.5964 -0.1802
    4IDB    C1756873   0.814   1.954  14.534  0.3015 -0.3602 -0.7703
    51IDQ   C1856874   0.936   2.046  14.498  0.4196 -0.5210  0.6001
    4IDB    C1956875   0.698   1.932  14.460  0.2377 -0.7160 -0.5648
    51IDQ   C2056876   1.001   1.988  14.370  0.3391 -0.1875 -0.5151
    51IDQ   C2156877   0.898   2.206  14.476  0.6807  0.1661 -0.6053
    51IDQ   C2256878   0.759   2.277  14.490  0.3666  0.0877  0.4087
    51IDQ   C2356879   1.131   2.046  14.309  0.2102  1.2750 -0.0487
    51IDQ   C2456880   0.678   2.273  14.628  1.1692  0.1975  1.0544
    51IDQ   C2556881   0.744   2.346  14.735 -1.5124 -0.5872 -0.6427
    51IDQ   C2656882   0.719   2.273  14.871  0.0335 -0.9489 -0.6349
    51IDQ   C2756883   0.775   2.360  14.982 -0.1169 -0.3322  0.6321
    51IDQ   C2856884   0.703   2.467  15.059  0.1128  0.3038  1.2742
    51IDQ   C2956885   0.577   2.411  15.130  0.3304  0.0270  0.7993
    51IDQ   C3056886   1.139   2.011  14.160 -0.4587 -0.7932 -0.0944
    51IDQ   C3156887   1.286   2.025  14.117  0.0936  0.9971 -0.5712
    51IDQ   C3256888   1.320   1.947  13.990 -0.0390 -0.4145  0.5167
    51IDQ   C3356889   1.459   1.975  13.942 -0.4714 -0.6691 -0.1522
    51IDQ   C3456890   1.454   1.905  13.804  0.1062  0.3686  0.1180
    51IDQ   C3556891   1.569   1.955  13.717 -0.8489 -0.8416  0.1014
    4IDB    C3656892   0.746   1.792  14.706 -0.0271  1.2062  0.6235
    4IDB    C3756893   0.628   1.771  14.630 -0.0897  0.8302  0.8223
    11RH    C3856894   2.080   2.019  15.507 -0.1903  0.4289 -0.6585
    4IDB    C3956895   0.605   1.839  14.511  0.0405 -0.1062  0.2390
    62IDT   C4056896   0.495   1.777  14.443  0.0780  0.0941  0.0299
    72IDQ   C4156897   0.513   1.666  14.656 -0.0098 -0.6323 -1.1724
    62IDT   C4256898   0.443   1.674  14.518 -0.4767  0.8401  0.7043
    72IDQ   C4356899   0.402   1.712  14.766 -1.3074 -0.0531  0.3546
    72IDQ   C4456900   0.560   1.537  14.739  0.3877  0.4454  0.6461
    62IDT    S556901   0.411   1.794  14.285  0.2397 -0.5335 -0.1282
    62IDT   C4556902   0.305   1.653  14.332 -0.4864  0.2858  0.7689
    62IDT   C4656903   0.336   1.604  14.456 -0.7965  0.9496  1.1230
    82BTZ   C4756904   0.194   1.604  14.247  0.1991 -0.4184  0.1338
    82BTZ   C4856905   0.207   1.645  14.117  0.2405 -0.3344  0.1640
    82BTZ   C4956906   0.111   1.608  14.016  0.0779  0.0314  0.1829
    82BTZ   C5056907   0.002   1.531  14.045 -0.1258  0.3126  0.1712
    82BTZ   C5156908   0.081   1.523  14.283 -0.0119 -0.1334  0.1204
    82BTZ   C5256909  -0.017   1.486  14.180 -0.1770  0.2384  0.1397
    92RH    C5356910  -0.098   1.478  13.948  0.0047 -0.0224  0.1395
    82BTZ    N456911   0.057   1.478  14.406 -0.0716 -0.1814  0.0911
    82BTZ    N556912  -0.119   1.411  14.221 -0.3697  0.4892  0.1256
    82BTZ    S656913  -0.094   1.383  14.396 -0.3473  0.2558  0.0870
    92RH    C5456914  -0.119   1.489  13.816 -0.0480 -0.0407  0.1464
    92RH     S756915  -0.016   1.581  13.696 -0.0808 -0.0812  0.0872
    92RH    C5556916  -0.234   1.427  13.747 -0.0894 -0.0305  0.2053
    92RH     O256917  -0.322   1.358  13.800 -0.0802 -0.0045  0.2544
    92RH     N656918  -0.232   1.455  13.608 -0.1418 -0.0546  0.1995
    92RH    C5656919  -0.130   1.533  13.559 -0.1475 -0.0828  0.1433
    92RH    C5756920  -0.325   1.398  13.516 -0.3126 -0.2248 -0.2234
    92RH    C5856921  -0.462   1.474  13.503 -0.6403 -0.0101 -0.6551
    92RH     S856922  -0.104   1.581  13.399 -0.2049 -0.1149  0.1242
    72IDQ   C5956923   0.566   1.404  14.659  0.2683  0.4074 -0.7374
    72IDQ   C6056924   0.633   1.286  14.732  0.1612  0.1198 -0.1758
    72IDQ   C6156925   0.579   1.229  14.871 -0.1596 -1.8431  0.8248
    72IDQ   C6256926   0.433   1.208  14.905 -0.1466  0.0332  0.2605
    72IDQ   C6356927   0.382   1.077  14.837  0.2367  0.2228 -0.4434
    72IDQ   C6456928   0.418   0.942  14.906  0.0144  0.6185  1.1289
    72IDQ   C6556929   0.356   0.825  14.835 -0.3894  0.0856  0.3352
    72IDQ   C6656930   0.341   1.857  14.780  0.1049 -0.7450 -0.7966
    72IDQ   C6756931   0.268   1.914  14.672  0.7895 -0.3428  1.4099
    72IDQ   C6856932   0.239   2.066  14.686 -0.2340  0.5744  0.4534
    72IDQ   C6956933   0.178   2.139  14.565  0.2493 -0.6188  0.2579
    72IDQ   C7056934   0.226   2.136  14.422  0.0084  0.9122 -1.8353
    72IDQ   C7156935   0.145   2.226  14.330 -0.2841  0.6762  0.1506
    72IDQ   C7256936   0.205   2.234  14.189 -1.0325 -0.7844 -1.1551
    11RH     C156937   1.258   6.186  25.408 -0.1017  0.0418 -0.5693
    11RH     C256938   1.384   6.126  25.357  0.0528  0.1349 -0.3004
    11RH     N156939   1.144   6.125  25.350  0.0655 -0.0533 -0.7997
    11RH     S156940   1.345   5.993  25.237  0.4078  0.0916 -0.3701
    11RH     C356941   1.164   6.023  25.260  0.3350 -0.0476 -0.7496
    11RH     C456942   1.016   6.181  25.403 -1.1009 -0.1150  0.2917
    11RH     S256943   1.047   5.934  25.177  0.5755 -0.1483 -0.9856
    11RH     O156944   1.250   6.278  25.491 -0.3468  0.0446 -0.5941
    11RH     C556945   1.505   6.167  25.395 -0.0577  0.2345 -0.0504
    21BTZ    C656946   1.639   6.136  25.343 -0.4029  0.5364  0.1177
    21BTZ    C756947   1.660   6.043  25.245 -0.6831  0.3979  0.1888
    21BTZ    C856948   1.753   6.204  25.400 -0.2006  0.2546  0.0515
    21BTZ    C956949   1.793   6.011  25.198 -0.7783 -0.0217  0.1965
    21BTZ   C1056950   1.904   6.073  25.249 -0.5930 -0.3019  0.1346
    21BTZ   C1156951   1.887   6.171  25.351 -0.2973 -0.1719  0.0596
    21BTZ    N256952   1.745   6.297  25.495  0.0777  0.3530 -0.0200
    21BTZ    N356953   1.988   6.238  25.408 -0.0967 -0.4162 -0.0052
    21BTZ    S356954   1.914   6.347  25.529  0.2312 -0.1048 -0.0813
    31IDT   C1256955   2.037   6.031  25.196 -0.4004 -0.1858 -0.1054
    31IDT   C1356956   2.155   6.097  25.213 -0.6618  0.2406  0.0858
    31IDT   C1456957   2.266   6.030  25.152 -0.3424  0.7019  0.1473
    31IDT   C1556958   2.232   5.913  25.088  0.1632  0.6303  0.0035
    31IDT    S456959   2.056   5.877  25.100  0.2751 -0.0330 -0.2224
    4IDB    C1656960   2.344   5.851  25.019 -0.3247 -0.1237 -0.1088
    4IDB    C1756961   2.459   5.932  25.046 -0.4587  0.2517 -0.6161
    51IDQ   C1856962   2.422   6.057  25.140  0.5311  0.1081 -0.6588
    4IDB    C1956963   2.585   5.893  25.002 -0.3837  0.1382 -0.3109
    51IDQ   C2056964   2.510   6.017  25.265 -0.2024 -0.7288 -1.0556
    51IDQ   C2156965   2.468   6.196  25.101  0.5673  0.2105  0.0846
    51IDQ   C2256966   2.525   6.233  24.957 -0.2020 -0.3853 -0.4668
    51IDQ   C2356967   2.451   6.010  25.412  0.2152 -0.3987 -0.2252
    51IDQ   C2456968   2.578   6.384  24.941  0.8699 -0.9058 -0.4536
    51IDQ   C2556969   2.504   6.512  24.992  0.2144  0.8310  0.5323
    51IDQ   C2656970   2.587   6.632  25.013  0.8277 -0.4106 -0.1299
    51IDQ   C2756971   2.619   6.711  24.881 -0.0599  0.3743  0.4758
    51IDQ   C2856972   2.515   6.803  24.816 -0.6241 -0.1725  0.2497
    51IDQ   C2956973   2.443   6.902  24.899 -0.1365 -0.5653  0.0431
    51IDQ   C3056974   2.399   6.136  25.475  0.9375  0.5808 -0.5660
    51IDQ   C3156975   2.444   6.179  25.604 -0.3392 -0.0524 -1.0320
    51IDQ   C3256976   2.483   6.082  25.719 -0.1646  0.0675  0.3351
    51IDQ   C3356977   2.363   6.040  25.786  0.4569  0.1511 -0.4684
    51IDQ   C3456978   2.383   5.911  25.860 -0.4236 -0.3770 -0.3860
    51IDQ   C3556979   2.288   5.891  25.975  1.1128 -0.5086  0.0295
    4IDB    C3656980   2.354   5.732  24.946 -0.1133 -0.6180  0.7119
    4IDB    C3756981   2.484   5.694  24.902 -0.0393 -0.7269  1.0133
    11RH    C3856982   0.948   6.121  25.523  0.1558 -0.1841 -0.7998
    4IDB    C3956983   2.595   5.774  24.929 -0.1723 -0.3562  0.5098
    62IDT   C4056984   2.712   5.712  24.880 -0.1316  0.3254 -0.7858
    72IDQ   C4156985   2.531   5.578  24.813  0.1879 -0.7441 -0.1981
    62IDT   C4256986   2.686   5.597  24.808  0.1894  0.1534 -0.6351
    72IDQ   C4356987   2.452   5.594  24.677 -0.3293 -0.0729  0.6197
    72IDQ   C4456988   2.491   5.444  24.890 -0.6780 -0.7843  0.4318
    62IDT    S556989   2.887   5.753  24.878 -0.1431  0.4112 -0.2464
    62IDT   C4556990   2.917   5.607  24.775  0.3087  0.1998  0.1751
    62IDT   C4656991   2.801   5.538  24.749  0.4386  0.0823 -0.0920
    82BTZ   C4756992   3.053   5.565  24.738 -0.0413 -0.4544 -0.0509
    82BTZ   C4856993   3.156   5.600  24.822 -0.0643 -0.4734 -0.0143
    82BTZ   C4956994   3.294   5.586  24.782 -0.0570 -0.1451 -0.1087
    82BTZ   C5056995   3.329   5.537  24.659 -0.0267  0.2015 -0.2383
    82BTZ   C5156996   3.085   5.514  24.608 -0.0092 -0.0979 -0.1855
    82BTZ   C5256997   3.225   5.500  24.568 -0.0018  0.2358 -0.2813
    92RH    C5356998   3.466   5.520  24.621 -0.2262  0.5675 -0.3728
    82BTZ    N456999   2.993   5.476  24.518  0.0153 -0.0440 -0.2332
    82BTZ    N557000   3.246   5.451  24.445  0.0286  0.5577 -0.4048
    82BTZ    S657001   3.085   5.421  24.375  0.0495  0.4459 -0.4048
    92RH    C5457002   3.580   5.532  24.691 -0.2081  0.2216 -0.3371
    92RH     S757003   3.597   5.598  24.861 -0.1396 -0.4416 -0.0825
    92RH    C5557004   3.713   5.493  24.639 -0.2419  0.3285 -0.5054
    92RH     O257005   3.735   5.445  24.526 -0.2902  0.7422 -0.6957
    92RH     N657006   3.815   5.517  24.734 -0.2124 -0.1047 -0.4229
    92RH    C5657007   3.779   5.571  24.855 -0.1591 -0.5457 -0.2093
    92RH    C5757008   3.956   5.493  24.698 -0.3546  0.2146  0.8677
    92RH    C5857009   4.016   5.359  24.742 -0.4540 -1.4924 -0.2578
    92RH     S857010   3.881   5.609  24.985 -0.1153 -1.1104 -0.0725
    72IDQ   C5957011   2.542   5.308  24.833  0.1954 -0.3433  0.3402
    72IDQ   C6057012   2.439   5.194  24.858  0.5647  0.1926 -0.1801
    72IDQ   C6157013   2.438   5.076  24.970 -0.8250  0.2871  0.4155
    72IDQ   C6257014   2.559   4.981  24.972 -0.7972  0.8834  0.3088
    72IDQ   C6357015   2.541   4.871  25.074 -1.5316  0.4909 -0.1407
    72IDQ   C6457016   2.497   4.898  25.219 -0.1884  0.6579 -0.5069
    72IDQ   C6557017   2.516   4.778  25.318  0.6240  0.1861  0.5519
    72IDQ   C6657018   2.541   5.627  24.541  1.2746  0.0630 -1.2849
    72IDQ   C6757019   2.603   5.523  24.456 -0.0555  0.9600  0.4278
    72IDQ   C6857020   2.505   5.434  24.371  0.0482 -0.0447  0.5334
    72IDQ   C6957021   2.428   5.509  24.270  0.6315 -0.5144  0.3149
    72IDQ   C7057022   2.309   5.441  24.199 -0.1870 -0.3685  0.0369
    72IDQ   C7157023   2.236   5.553  24.128 -0.9025 -0.3106  0.5666
    72IDQ   C7257024   2.304   5.589  23.994 -0.3855 -0.0973 -0.7210
    11RH     C157025   4.557   2.364   0.026  0.0669  0.3073  0.2437
    11RH     C257026   4.697   2.329   0.058  0.0924  0.1097 -0.0700
    11RH     N157027   4.467   2.310   0.121  0.1725  0.0949  0.2243
    11RH     S157028   4.703   2.228   0.211  0.2537 -0.3424 -0.3706
    11RH     C357029   4.519   2.236   0.225  0.2797 -0.2486 -0.0670
    11RH     C457030   4.324   2.316   0.087  0.1046 -0.4724 -0.8607
    11RH     S257031   4.434   2.161   0.350  0.4174 -0.5544 -0.1541
    11RH     O157032   4.520   2.431  -0.072 -0.0336  0.6196  0.4964
    11RH     C557033   4.802   2.368  -0.016  0.0078  0.2500 -0.1164
    21BTZ    C657034   4.944   2.351  -0.000  0.4425 -0.0172 -0.2625
    21BTZ    C757035   4.995   2.285   0.108  0.4132  0.0473 -0.2088
    21BTZ    C857036   5.036   2.411  -0.093  0.4652  0.1214 -0.1521
    21BTZ    C957037   5.137   2.273   0.131  0.4048  0.2496 -0.0450
    21BTZ   C1057038   5.228   2.329   0.044  0.4257  0.3872  0.0649
    21BTZ   C1157039   5.180   2.400  -0.070  0.4566  0.3269  0.0148
    21BTZ    N257040   4.998   2.479  -0.202  0.4944  0.0763 -0.1898
    21BTZ    N357041   5.259   2.458  -0.161  0.4790  0.4472  0.1101
    21BTZ    S357042   5.149   2.531  -0.282  0.5125  0.2996 -0.0108
    31IDT   C1257043   5.365   2.298   0.067  0.7969 -0.2537 -1.2985
    31IDT   C1357044   5.465   2.391   0.061  1.0245 -0.4976 -1.3407
    31IDT   C1457045   5.591   2.340   0.105  0.7679 -0.6108 -0.7173
    31IDT   C1557046   5.588   2.208   0.144  0.3438 -0.4542 -0.1971
    31IDT    S457047   5.423   2.137   0.128  0.2356 -0.1485 -0.4587
    4IDB    C1657048   5.725   2.165   0.184 -0.0648 -0.2212 -0.7853
    4IDB    C1757049   5.820   2.261   0.138 -0.0638 -0.2037 -0.7467
    51IDQ   C1857050   5.733   2.391   0.094 -0.3688  0.1893  0.6197
    4IDB    C1957051   5.956   2.244   0.160 -0.0837 -0.0827 -0.5215
    51IDQ   C2057052   5.785   2.510   0.183  0.1750 -0.2515  0.4772
    51IDQ   C2157053   5.761   2.435  -0.055 -1.2133  0.3490 -0.5749
    51IDQ   C2257054   5.865   2.361  -0.141 -0.5058  0.1290  0.3520
    51IDQ   C2357055   5.688   2.555   0.300 -0.4731  0.2376  0.2733
    51IDQ   C2457056   5.894   2.419  -0.275 -0.1467 -0.2479 -0.1207
    51IDQ   C2557057   5.924   2.570  -0.293  0.0437  0.2901  0.1957
    51IDQ   C2657058   5.979   2.622  -0.432  1.0898 -0.1118  0.6974
    51IDQ   C2757059   6.059   2.750  -0.422 -0.6169  1.0924 -0.1076
    51IDQ   C2857060   6.190   2.765  -0.346 -0.3731  0.0815 -0.0273
    51IDQ   C2957061   6.181   2.768  -0.195 -0.4039 -0.5144  0.4176
    51IDQ   C3057062   5.693   2.695   0.337  0.5040 -0.7239 -0.5006
    51IDQ   C3157063   5.627   2.728   0.474 -0.0319  0.6981  0.2384
    51IDQ   C3257064   5.724   2.810   0.560 -0.1132  0.4608 -0.1205
    51IDQ   C3357065   5.640   2.827   0.677  0.5382  0.0979 -0.1200
    51IDQ   C3457066   5.675   2.946   0.768  0.5501  1.6327 -0.3250
    51IDQ   C3557067   5.574   2.952   0.892  0.3521  0.4373 -0.4761
    4IDB    C3657068   5.766   2.050   0.253 -0.0861 -0.1170 -0.5975
    4IDB    C3757069   5.906   2.034   0.275 -0.1063  0.0059 -0.3686
    11RH    C3857070   4.253   2.445   0.133 -0.2337  0.8211  0.1563
    4IDB    C3957071   5.997   2.129   0.229 -0.1049  0.0214 -0.3337
    62IDT   C4057072   6.132   2.075   0.237  0.2908  0.5570 -0.6161
    72IDQ   C4157073   5.978   1.921   0.348  0.0358 -0.3693  0.3201
    62IDT   C4257074   6.125   1.967   0.322 -0.1338  0.9535 -0.1342
    72IDQ   C4357075   5.948   1.782   0.293 -0.5150  0.5103  0.1713
    72IDQ   C4457076   5.981   1.952   0.501  0.6206  0.5231 -0.3466
    62IDT    S557077   6.302   2.119   0.197  0.4813  0.0882 -0.3352
    62IDT   C4557078   6.357   1.982   0.303 -0.0489  0.4716  0.4576
    62IDT   C4657079   6.253   1.914   0.360 -0.3263  0.9058  0.4735
    82BTZ   C4757080   6.497   1.948   0.303  0.0701  0.6024  0.0632
    82BTZ   C4857081   6.563   1.930   0.184  0.0678  0.8247  0.0272
    82BTZ   C4957082   6.706   1.914   0.179  0.0656  0.8127 -0.0034
    82BTZ   C5057083   6.783   1.916   0.293  0.0653  0.5787  0.0021
    82BTZ   C5157084   6.573   1.951   0.424  0.0700  0.3526  0.0704
    82BTZ   C5257085   6.718   1.935   0.419  0.0676  0.3405  0.0394
    92RH    C5357086   6.931   1.906   0.306  0.0662  0.0924  0.0920
    82BTZ    N457087   6.520   1.968   0.546  0.0721  0.1227  0.1043
    82BTZ    N557088   6.782   1.938   0.536  0.0677  0.1008  0.0483
    82BTZ    S657089   6.657   1.964   0.661  0.0711 -0.1243  0.0978
    92RH    C5457090   7.032   1.895   0.218 -0.0373  0.0359 -0.0203
    92RH     S757091   7.018   1.870   0.037 -0.2531 -0.0359  0.0060
    92RH    C5557092   7.175   1.901   0.257  0.0091  0.0224 -0.1890
    92RH     O257093   7.218   1.917   0.372  0.1465  0.0609 -0.2454
    92RH     N657094   7.259   1.886   0.145 -0.1241 -0.0412 -0.2812
    92RH    C5657095   7.201   1.869   0.021 -0.2716 -0.0802 -0.2070
    92RH    C5757096   7.410   1.881   0.156  0.1617  0.0910 -0.6614
    92RH    C5857097   7.469   1.752   0.207 -0.0559  0.6156 -0.8160
    92RH     S857098   7.279   1.849  -0.127 -0.4480 -0.1572 -0.2894
    72IDQ   C5957099   5.852   1.964   0.588  0.5209 -0.1853  0.3206
    72IDQ   C6057100   5.882   1.927   0.733 -0.1688  0.3956  0.3892
    72IDQ   C6157101   5.780   1.974   0.840  0.6442  0.2465  0.8922
    72IDQ   C6257102   5.857   2.028   0.971 -0.7373  0.7055  0.0967
    72IDQ   C6357103   5.945   2.151   0.965  0.0261  0.1890  0.2014
    72IDQ   C6457104   5.984   2.223   1.096  0.8938  0.1442 -0.3524
    72IDQ   C6557105   6.097   2.312   1.058 -0.5553  0.7407  0.8183
    72IDQ   C6657106   5.879   1.687   0.384 -0.1401  0.1459 -0.4841
    72IDQ   C6757107   5.823   1.574   0.305  0.3227  0.0026 -0.0561
    72IDQ   C6857108   5.907   1.456   0.255 -0.5013  0.4007  0.0221
    72IDQ   C6957109   5.824   1.349   0.158  0.0024  0.9145 -0.3413
    72IDQ   C7057110   5.916   1.280   0.064 -0.7122  0.3622 -0.5705
    72IDQ   C7157111   5.851   1.183  -0.030 -0.0694 -0.6112  0.4093
    72IDQ   C7257112   5.920   1.110  -0.140  0.5892  0.5710  0.3104
    11RH     C157113   1.371   5.742  18.113 -0.1722  0.0484  0.1435
    11RH     C257114   1.455   5.862  18.092 -0.0753 -0.0273  0.0887
    11RH     N157115   1.397   5.644  18.014 -0.3073  0.0143  0.1425
    11RH     S157116   1.562   5.840  17.945 -0.1682 -0.1388  0.0381
    11RH     C357117   1.491   5.672  17.917 -0.3305 -0.0798  0.0925
    11RH     C457118   1.323   5.515  17.997  0.4462  0.0541 -1.1395
    11RH     S257119   1.540   5.573  17.789 -0.4807 -0.1377  0.0801
    11RH     O157120   1.288   5.725  18.204 -0.1415  0.1321  0.1860
    11RH     C557121   1.450   5.970  18.172  0.0589 -0.0135  0.0785
    21BTZ    C657122   1.516   6.100  18.164 -0.2458  0.1389 -0.3215
    21BTZ    C757123   1.615   6.129  18.073 -0.2327 -0.0520 -0.3695
    21BTZ    C857124   1.482   6.199  18.262  0.0536  0.1738 -0.2489
    21BTZ    C957125   1.684   6.256  18.074  0.0731 -0.2173 -0.3490
    21BTZ   C1057126   1.654   6.353  18.166  0.3653 -0.1914 -0.2810
    21BTZ   C1157127   1.552   6.327  18.263  0.3645  0.0058 -0.2284
    21BTZ    N257128   1.387   6.182  18.355  0.0724  0.3530 -0.1974
    21BTZ    N357129   1.514   6.414  18.357  0.6330  0.0501 -0.1597
    21BTZ    S357130   1.384   6.333  18.450  0.4971  0.3138 -0.1176
    31IDT   C1257131   1.725   6.487  18.159 -0.4274  0.9387 -0.1152
    31IDT   C1357132   1.752   6.576  18.259 -0.0547  0.9845 -0.2542
    31IDT   C1457133   1.828   6.689  18.214  0.4183  0.6052 -0.4292
    31IDT   C1557134   1.858   6.686  18.079  0.4094  0.2686 -0.4243
    31IDT    S457135   1.794   6.539  17.999 -0.2043  0.4071 -0.1968
    4IDB    C1657136   1.920   6.807  18.043 -0.8709  0.5929  0.1418
    4IDB    C1757137   1.935   6.897  18.153 -0.9831  0.6318  0.1259
    51IDQ   C1857138   1.874   6.825  18.279  0.0203 -0.2887 -0.4384
    4IDB    C1957139   1.999   7.020  18.136 -0.4752  0.3911  0.2687
    51IDQ   C2057140   1.986   6.822  18.390 -1.0229  0.3040 -0.3259
    51IDQ   C2157141   1.751   6.898  18.346  0.3732  0.0541 -0.2795
    51IDQ   C2257142   1.692   7.041  18.307 -0.7368  0.5214 -0.5315
    51IDQ   C2357143   2.051   6.696  18.445  0.7380  0.2024 -0.7884
    51IDQ   C2457144   1.590   7.082  18.405  0.4303  0.3897 -0.2814
    51IDQ   C2557145   1.538   7.221  18.378 -1.2351  0.4787  0.2180
    51IDQ   C2657146   1.605   7.343  18.455 -0.1128  0.4784  0.8250
    51IDQ   C2757147   1.552   7.455  18.365  1.1429  0.0288  0.6904
    51IDQ   C2857148   1.620   7.588  18.363 -0.4169  0.6009  0.7649
    51IDQ   C2957149   1.703   7.637  18.487 -0.4147  1.2991  0.4496
    51IDQ   C3057150   1.977   6.594  18.547 -0.7876  0.4332 -0.4643
    51IDQ   C3157151   1.919   6.663  18.673 -0.1896  0.1433 -0.0559
    51IDQ   C3257152   2.016   6.732  18.762 -0.6726 -0.2499 -0.1315
    51IDQ   C3357153   1.959   6.827  18.865 -1.1962 -1.2955  0.0038
    51IDQ   C3457154   2.035   6.961  18.852 -0.0658 -0.3514 -0.5539
    51IDQ   C3557155   1.986   7.075  18.950  0.2889 -0.3774 -0.0595
    4IDB    C3657156   1.969   6.839  17.916 -0.2459  0.3109  0.3028
    4IDB    C3757157   2.034   6.965  17.901  0.2671  0.0677  0.4478
    11RH    C3857158   1.394   5.386  18.052  0.5838  0.3465 -0.4475
    4IDB    C3957159   2.048   7.052  18.009  0.1497  0.1093  0.4292
    62IDT   C4057160   2.101   7.173  17.960  0.0567 -0.2592  0.0875
    72IDQ   C4157161   2.112   7.021  17.776  0.1636 -0.9681 -0.1323
    62IDT   C4257162   2.151   7.164  17.832  0.4345  0.0279  0.2108
    72IDQ   C4357163   2.001   7.036  17.666 -0.1614  0.2114  0.6822
    72IDQ   C4457164   2.215   6.915  17.725  0.6464 -0.4985  0.6581
    62IDT    S557165   2.144   7.329  18.038  0.0249 -0.5220  0.6418
    62IDT   C4557166   2.231   7.377  17.886  0.5495 -0.2149  1.0298
    62IDT   C4657167   2.224   7.279  17.789  0.7135  0.0533  0.7439
    82BTZ   C4757168   2.319   7.494  17.870  0.3255 -0.0190 -0.0480
    82BTZ   C4857169   2.368   7.543  17.988  0.2505  0.1243 -0.0763
    82BTZ   C4957170   2.454   7.658  17.992  0.1556  0.1978 -0.1512
    82BTZ   C5057171   2.491   7.725  17.877  0.1357  0.1279 -0.1989
    82BTZ   C5157172   2.354   7.560  17.747  0.3085 -0.0970 -0.0954
    82BTZ   C5257173   2.442   7.677  17.751  0.2121 -0.0223 -0.1717
    92RH    C5357174   2.578   7.841  17.864 -0.0208 -0.0258  0.3173
    82BTZ    N457175   2.313   7.521  17.626  0.3757 -0.2367 -0.0744
    82BTZ    N557176   2.471   7.733  17.634  0.2017 -0.1020 -0.2127
    82BTZ    S657177   2.385   7.636  17.510  0.3173 -0.2796 -0.1537
    92RH    C5457178   2.643   7.922  17.948 -0.0174 -0.0067  0.2956
    92RH     S757179   2.642   7.914  18.131  0.3236 -0.2249  0.2884
    92RH    C5557180   2.728   8.035  17.903 -0.2999  0.2017  0.2742
    92RH     O257181   2.749   8.067  17.785 -0.5679  0.3799  0.2742
    92RH     N657182   2.785   8.103  18.013 -0.2286  0.1745  0.2548
    92RH    C5657183   2.755   8.059  18.140  0.0765 -0.0302  0.2580
    92RH    C5757184   2.863   8.228  17.989 -0.5037  0.2350 -0.6366
    92RH    C5857185   3.004   8.211  17.944  0.2803  0.1983 -1.1803
    92RH     S857186   2.809   8.123  18.287  0.2223 -0.1058  0.2370
    72IDQ   C5957187   2.361   6.961  17.737  0.0764  1.2416 -0.3925
    72IDQ   C6057188   2.424   7.041  17.623  0.5948 -0.0852  0.1385
    72IDQ   C6157189   2.571   7.092  17.645  0.2806 -0.2074  1.0720
    72IDQ   C6257190   2.645   7.145  17.516 -0.2688  0.3145  0.7279
    72IDQ   C6357191   2.794   7.193  17.548  0.0096  0.8722  0.5612
    72IDQ   C6457192   2.858   7.296  17.446  0.4531  0.3028 -0.8984
    72IDQ   C6557193   2.807   7.435  17.448 -0.3755 -0.3786  0.7252
    72IDQ   C6657194   2.033   7.080  17.522 -0.2012 -0.0041  0.2120
    72IDQ   C6757195   1.898   7.110  17.453  0.0030  0.3530  1.1398
    72IDQ   C6857196   1.903   7.122  17.295  0.6719 -0.5503  0.3486
    72IDQ   C6957197   1.921   6.995  17.218 -0.3419 -0.9445 -0.1873
    72IDQ   C7057198   1.839   6.880  17.255  0.2101 -0.3032  0.0786
    72IDQ   C7157199   1.860   6.754  17.177  0.3161  0.9796  0.1141
    72IDQ   C7257200   1.743   6.649  17.172 -0.8191 -0.7293  0.0532
    11RH     C157201   1.592   4.019  21.247  0.1408  0.1448  0.2980
    11RH     C257202   1.709   4.052  21.162  0.1500 -0.0747  0.2232
    11RH     N157203   1.605   4.074  21.376  0.3336  0.1129  0.2935
    11RH     S157204   1.828   4.155  21.258  0.4116 -0.3089  0.1513
    11RH     C357205   1.717   4.148  21.405  0.4962 -0.1054  0.2241
    11RH     C457206   1.499   4.044  21.468 -0.1789 -0.5603  0.4931
    11RH     S257207   1.756   4.224  21.550  0.7400 -0.1889  0.2027
    11RH     O157208   1.494   3.951  21.212 -0.0145  0.3351  0.3586
    11RH     C557209   1.722   4.012  21.035 -0.0118 -0.0920  0.2116
    21BTZ    C657210   1.832   4.019  20.937  0.2249 -0.1801  0.1464
    21BTZ    C757211   1.943   4.096  20.962  0.3093 -0.3220  0.2103
    21BTZ    C857212   1.829   3.938  20.819  0.1374 -0.0825  0.0806
    21BTZ    C957213   2.056   4.096  20.872  0.3119 -0.3750  0.2131
    21BTZ   C1057214   2.057   4.020  20.758  0.2301 -0.2860  0.1522
    21BTZ   C1157215   1.944   3.938  20.728  0.1400 -0.1364  0.0834
    21BTZ    N257216   1.727   3.859  20.785  0.0508  0.0582  0.0148
    21BTZ    N357217   1.934   3.860  20.620  0.0556 -0.0390  0.0205
    21BTZ    S357218   1.774   3.781  20.631 -0.0327  0.1291 -0.0465
    31IDT   C1257219   2.182   4.014  20.682 -0.1524  0.0863 -0.0618
    31IDT   C1357220   2.216   3.951  20.565 -0.2443  0.0957 -0.0935
    31IDT   C1457221   2.354   3.963  20.532 -0.2326 -0.0625 -0.1049
    31IDT   C1557222   2.427   4.035  20.624 -0.1319 -0.1933 -0.0810
    31IDT    S457223   2.325   4.094  20.760 -0.0432 -0.1254 -0.0436
    4IDB    C1657224   2.567   4.051  20.578  0.8245  0.7028  0.4477
    4IDB    C1757225   2.581   3.984  20.453  0.4733  0.8534  0.3266
    51IDQ   C1857226   2.448   3.911  20.413 -0.5929 -0.8957 -1.8713
    4IDB    C1957227   2.703   3.981  20.386  0.4112  0.5101  0.2238
    51IDQ   C2057228   2.403   3.950  20.271  0.2820  0.6726  0.4454
    51IDQ   C2157229   2.451   3.753  20.432 -0.7374  0.0941  0.1571
    51IDQ   C2257230   2.573   3.667  20.428  0.1890  0.2872  0.2550
    51IDQ   C2357231   2.266   4.020  20.245 -0.1306  0.0769 -0.0332
    51IDQ   C2457232   2.551   3.518  20.457  0.1844  0.1929 -0.3422
    51IDQ   C2557233   2.479   3.437  20.351 -0.2920  0.5607 -1.1671
    51IDQ   C2657234   2.469   3.282  20.362 -0.4080  0.6813 -0.3681
    51IDQ   C2757235   2.583   3.198  20.420 -0.9168 -0.3322 -0.3475
    51IDQ   C2857236   2.703   3.150  20.341 -0.1812  0.1383 -0.0381
    51IDQ   C2957237   2.671   3.040  20.247  0.0387 -0.6105  0.8719
    51IDQ   C3057238   2.206   4.009  20.099  0.0754 -0.4857  0.7408
    51IDQ   C3157239   2.304   4.028  19.989  0.0101 -0.6164  0.2442
    51IDQ   C3257240   2.245   4.002  19.849 -0.2876  0.1642 -0.9669
    51IDQ   C3357241   2.340   4.040  19.740 -1.1735 -0.7739  0.3217
    51IDQ   C3457242   2.436   3.924  19.694  0.3425  0.2369  0.1554
    51IDQ   C3557243   2.372   3.821  19.604 -0.7891  0.5633 -0.5262
    4IDB    C3657244   2.677   4.116  20.638  1.1173  0.2047  0.4659
    4IDB    C3757245   2.800   4.112  20.568  1.0487 -0.1410  0.3595
    11RH    C3857246   1.378   4.139  21.493 -0.6383  0.6331  0.7779
    4IDB    C3957247   2.812   4.046  20.445  0.7041  0.0118  0.2422
    62IDT   C4057248   2.941   4.058  20.391  0.1686 -0.2994  0.0928
    72IDQ   C4157249   2.937   4.173  20.598 -0.0920 -0.1141 -0.6170
    62IDT   C4257250   3.023   4.129  20.475  0.3459 -0.6430  0.2155
    72IDQ   C4357251   2.995   4.115  20.734 -0.6183 -0.8258  0.0824
    72IDQ   C4457252   2.938   4.335  20.583  0.2992  0.1156  0.2926
    62IDT    S557253   3.025   4.009  20.240 -0.1017  0.1802 -0.2162
    62IDT   C4557254   3.174   4.093  20.302  0.0465 -0.1241 -0.1601
    62IDT   C4657255   3.155   4.149  20.425  0.2770 -0.5447  0.0730
    82BTZ   C4757256   3.299   4.081  20.223 -0.0686 -0.0205 -0.2701
    82BTZ   C4857257   3.300   3.995  20.116 -0.0761 -0.0396 -0.2551
    82BTZ   C4957258   3.416   3.981  20.031 -0.0108 -0.2049 -0.1397
    82BTZ   C5057259   3.530   4.053  20.054  0.0619 -0.3506 -0.0400
    82BTZ   C5157260   3.416   4.158  20.250  0.0064 -0.1693 -0.1693
    82BTZ   C5257261   3.534   4.144  20.164  0.0727 -0.3371 -0.0515
    92RH    C5357262   3.648   4.024  19.969 -0.1366 -0.3118  0.2721
    82BTZ    N457263   3.427   4.245  20.352  0.0210 -0.1669 -0.1726
    82BTZ    N557264   3.640   4.220  20.196  0.1406 -0.4697  0.0391
    82BTZ    S657265   3.592   4.314  20.341  0.1223 -0.3836 -0.0227
    92RH    C5457266   3.661   3.944  19.863 -0.0005 -0.1037  0.1292
    92RH     S757267   3.530   3.840  19.787  0.0890  0.0662 -0.2633
    92RH    C5557268   3.788   3.926  19.789  0.1016  0.0250  0.2718
    92RH     O257269   3.895   3.982  19.815  0.0741 -0.0433  0.5350
    92RH     N657270   3.773   3.835  19.682  0.2377  0.2396  0.0686
    92RH    C5657271   3.649   3.778  19.661  0.2571  0.2989 -0.2189
    92RH    C5757272   3.874   3.816  19.576 -0.2864 -1.0132  0.1749
    92RH    C5857273   4.012   3.745  19.597  0.2735 -0.6431 -0.1371
    92RH     S857274   3.605   3.668  19.541  0.4075  0.5426 -0.5026
    72IDQ   C5957275   2.834   4.409  20.682 -0.0311  0.2351  0.4649
    72IDQ   C6057276   2.830   4.558  20.650  0.1897  0.2513  0.0957
    72IDQ   C6157277   2.767   4.649  20.752 -0.4538 -0.2080 -0.0005
    72IDQ   C6257278   2.834   4.785  20.746 -0.5771 -0.2436 -0.4041
    72IDQ   C6357279   2.778   4.896  20.845 -0.3433  0.5746  0.8724
    72IDQ   C6457280   2.682   4.993  20.769 -0.2582 -0.1336 -0.5174
    72IDQ   C6557281   2.566   5.056  20.842 -0.9530  0.2204 -0.9404
    72IDQ   C6657282   3.069   3.979  20.741 -0.0231  0.6337 -0.0082
    72IDQ   C6757283   2.968   3.866  20.704  0.3854  0.5633  0.1782
    72IDQ   C6857284   2.869   3.823  20.816  0.1558  0.4906  0.7280
    72IDQ   C6957285   2.778   3.703  20.774 -0.5969 -0.0561 -0.0251
    72IDQ   C7057286   2.856   3.561  20.756 -0.0182  0.8439 -1.0777
    72IDQ   C7157287   2.908   3.513  20.622 -0.9904  0.5926  0.2600
    72IDQ   C7257288   2.998   3.388  20.645  0.0855  0.4763  0.7141
    11RH     C157289   1.166   2.221  24.221 -0.6349  0.5010 -0.1745
    11RH     C257290   1.094   2.096  24.185 -0.3144  0.3459 -0.2789
    11RH     N157291   1.305   2.200  24.233 -0.6466  0.7120  0.4228
    11RH     S157292   1.215   1.959  24.169 -0.0493  0.4876  0.4152
    11RH     C357293   1.354   2.073  24.211 -0.3747  0.7449  0.8097
    11RH     C457294   1.390   2.313  24.255  1.0258 -0.6843 -0.0287
    11RH     S257295   1.514   2.021  24.218 -0.3256  0.9785  1.5388
    11RH     O157296   1.113   2.332  24.240 -0.8678  0.4559 -0.5555
    11RH     C557297   0.962   2.089  24.168 -0.2396  0.1357 -0.8071
    21BTZ    C657298   0.873   1.989  24.132  0.2313 -0.1248 -0.0616
    21BTZ    C757299   0.909   1.865  24.087  0.2168 -0.1516  0.0010
    21BTZ    C857300   0.733   2.023  24.138  0.2370 -0.0904 -0.1178
    21BTZ    C957301   0.811   1.768  24.046  0.2072 -0.1460  0.0110
    21BTZ   C1057302   0.676   1.795  24.050  0.2120 -0.1136 -0.0419
    21BTZ   C1157303   0.634   1.924  24.096  0.2272 -0.0848 -0.1078
    21BTZ    N257304   0.686   2.140  24.180  0.2509 -0.0623 -0.1812
    21BTZ    N357305   0.506   1.962  24.105  0.2332 -0.0521 -0.1631
    21BTZ    S357306   0.508   2.129  24.167  0.2521 -0.0267 -0.2314
    31IDT   C1257307   0.586   1.691  23.996  0.5283 -0.1191  0.1210
    31IDT   C1357308   0.450   1.686  24.009  0.5984 -0.2886  0.8769
    31IDT   C1457309   0.390   1.587  23.926  0.2476 -0.2941  1.1306
    31IDT   C1557310   0.480   1.516  23.849 -0.0914 -0.1292  0.5720
    31IDT    S457311   0.649   1.570  23.876  0.0083  0.0474 -0.3276
    4IDB    C1657312   0.410   1.429  23.756 -0.1353  0.5195 -0.4711
    4IDB    C1757313   0.269   1.431  23.782 -0.1005  0.0502 -0.2303
    51IDQ   C1857314   0.247   1.536  23.894  0.3831 -0.1200  0.5724
    4IDB    C1957315   0.183   1.346  23.714  0.0849 -0.3688  0.0489
    51IDQ   C2057316   0.162   1.624  23.787  0.1835  0.0486 -0.8239
    51IDQ   C2157317   0.169   1.496  24.030 -1.0028  0.5138  0.6902
    51IDQ   C2257318   0.135   1.351  24.076 -0.3507  0.1071 -0.4684
    51IDQ   C2357319   0.196   1.772  23.743  0.1417  0.0901  0.0281
    51IDQ   C2457320   0.168   1.323  24.218  0.0733 -0.5713 -0.7692
    51IDQ   C2557321   0.102   1.407  24.339 -0.2187 -0.7253  0.9222
    51IDQ   C2657322  -0.050   1.389  24.333  0.0244 -0.0719 -0.0751
    51IDQ   C2757323  -0.111   1.456  24.455 -0.5946 -0.4964  0.0286
    51IDQ   C2857324  -0.121   1.607  24.432  0.5133  0.8732 -0.6954
    51IDQ   C2957325  -0.221   1.679  24.529  0.3028  0.2089 -0.0852
    51IDQ   C3057326   0.088   1.840  23.664 -0.3188  0.1839  1.5702
    51IDQ   C3157327   0.124   1.984  23.626  0.1018 -1.1185  0.9374
    51IDQ   C3257328   0.093   2.093  23.732 -0.9823 -0.5521 -0.2969
    51IDQ   C3357329  -0.038   2.114  23.794  1.2113  0.6304  0.2641
    51IDQ   C3457330  -0.058   2.247  23.848  0.0631 -0.0454 -0.3711
    51IDQ   C3557331  -0.195   2.276  23.917  0.3464  0.1067 -0.3453
    4IDB    C3657332   0.465   1.341  23.661  0.0163  0.5724 -0.4325
    4IDB    C3757333   0.375   1.255  23.592  0.2049  0.1401 -0.1454
    11RH    C3857334   1.405   2.407  24.135  0.3646 -0.7420  0.4279
    4IDB    C3957335   0.238   1.258  23.619  0.2365 -0.3158  0.0871
    62IDT   C4057336   0.166   1.156  23.546  0.1722 -0.7398  0.3212
    72IDQ   C4157337   0.399   1.138  23.491 -0.3713 -0.1293 -0.2647
    62IDT   C4257338   0.260   1.085  23.473 -0.0216 -1.0995  0.4144
    72IDQ   C4357339   0.490   1.025  23.561 -0.3241 -0.1593 -0.3972
    72IDQ   C4457340   0.459   1.198  23.351  1.1366 -0.3833  0.6975
    62IDT    S557341  -0.000   1.094  23.519 -0.0698  0.0272 -0.0017
    62IDT   C4557342   0.069   0.970  23.405 -0.4381 -0.1895  0.0068
    62IDT   C4657343   0.205   0.980  23.393 -0.3669 -0.7890  0.2370
    82BTZ   C4757344  -0.009   0.873  23.332 -0.1974 -0.5662  0.6459
    82BTZ   C4857345  -0.143   0.900  23.337 -0.1913 -0.5472  0.7100
    82BTZ   C4957346  -0.236   0.840  23.245 -0.1869 -0.2006  0.4768
    82BTZ   C5057347  -0.195   0.753  23.147 -0.1888  0.1266  0.1797
    82BTZ   C5157348   0.039   0.782  23.232 -0.1998 -0.2311  0.3376
    82BTZ   C5257349  -0.056   0.722  23.138 -0.1954  0.1213  0.1006
    92RH    C5357350  -0.296   0.683  23.062 -0.2662 -0.4656  0.2842
    82BTZ    N457351   0.167   0.748  23.216 -0.2060 -0.2141  0.2470
    82BTZ    N557352  -0.003   0.638  23.047 -0.1981  0.4214 -0.1802
    82BTZ    S657353   0.173   0.634  23.079 -0.2062  0.2631 -0.1536
    92RH    C5457354  -0.430   0.688  23.055 -0.2499 -0.1886  0.1059
    92RH     S757355  -0.543   0.770  23.173 -0.2277  0.2789 -0.1913
    92RH    C5557356  -0.508   0.624  22.946 -0.2471 -0.2208  0.1230
    92RH     O257357  -0.460   0.561  22.850 -0.2594 -0.5019  0.3004
    92RH     N657358  -0.647   0.644  22.964 -0.2286  0.1133 -0.0918
    92RH    C5657359  -0.689   0.716  23.073 -0.2161  0.4092 -0.2789
    92RH    C5757360  -0.753   0.570  22.873 -1.0647  0.0895 -0.3799
    92RH    C5857361  -0.808   0.654  22.754  0.8794  0.2869  0.5098
    92RH     S857362  -0.847   0.754  23.117 -0.1932  0.8348 -0.5507
    72IDQ   C5957363   0.594   1.273  23.366  1.1831  0.7547  0.6237
    72IDQ   C6057364   0.695   1.300  23.252  1.0442  1.3574  0.1955
    72IDQ   C6157365   0.767   1.182  23.192 -0.5032  0.2554  0.2095
    72IDQ   C6257366   0.851   1.239  23.077  0.3754  0.9409 -0.4189
    72IDQ   C6357367   0.898   1.131  22.973  0.4691  0.1100 -0.7917
    72IDQ   C6457368   0.998   1.155  22.865 -0.3344 -0.4148  1.1356
    72IDQ   C6557369   0.970   1.087  22.726  0.0117  0.3104 -0.2814
    72IDQ   C6657370   0.587   0.927  23.481  0.6177  0.3146 -0.2357
    72IDQ   C6757371   0.513   0.810  23.408 -0.6160 -0.1696  0.1791
    72IDQ   C6857372   0.612   0.714  23.340 -0.1609  0.5471  0.3997
    72IDQ   C6957373   0.662   0.740  23.199  0.7834 -0.6882  0.7424
    72IDQ   C7057374   0.541   0.732  23.095  0.8498 -0.0079  0.0435
    72IDQ   C7157375   0.578   0.779  22.954  0.4106 -1.1384 -0.1286
    72IDQ   C7257376   0.561   0.930  22.946 -0.8865 -0.6242 -1.0576
    11RH     C157377   4.041   5.591  23.945  0.0653 -0.0868  0.2437
    11RH     C257378   4.088   5.678  23.834 -0.0441 -0.2850  0.0405
    11RH     N157379   4.144   5.566  24.038  0.1614  0.0679  0.1799
    11RH     S157380   4.264   5.721  23.859 -0.0130 -0.2551 -0.2223
    11RH     C357381   4.268   5.622  24.015  0.1426  0.0179 -0.0505
    11RH     C457382   4.130   5.455  24.134  0.0365 -0.1436 -0.3547
    11RH     S257383   4.407   5.608  24.109  0.2415  0.1725 -0.1721
    11RH     O157384   3.927   5.545  23.957  0.0737 -0.0561  0.4463
    11RH     C557385   4.009   5.717  23.733 -0.1478 -0.4564  0.0540
    21BTZ    C657386   4.028   5.802  23.616 -0.3706  0.1788  0.1944
    21BTZ    C757387   4.140   5.873  23.582 -0.2593  0.0505  0.2918
    21BTZ    C857388   3.920   5.796  23.522 -0.2145  0.1342  0.0157
    21BTZ    C957389   4.152   5.941  23.455  0.0091 -0.1264  0.2203
    21BTZ   C1057390   4.051   5.937  23.362  0.1655 -0.1751  0.0506
    21BTZ   C1157391   3.932   5.864  23.393  0.0581 -0.0458 -0.0572
    21BTZ    N257392   3.806   5.730  23.544 -0.3007  0.2471 -0.0930
    21BTZ    N357393   3.827   5.854  23.311  0.1913 -0.0774 -0.2246
    21BTZ    S357394   3.706   5.754  23.397 -0.0312  0.1258 -0.2970
    31IDT   C1257395   4.082   5.979  23.229 -0.0974 -0.3527 -0.0429
    31IDT   C1357396   4.006   5.971  23.116 -0.0889 -0.5805 -0.0339
    31IDT   C1457397   4.075   6.017  22.999 -0.1202 -0.7035 -0.1006
    31IDT   C1557398   4.204   6.059  23.024 -0.1528 -0.5698 -0.1615
    31IDT    S457399   4.249   6.045  23.197 -0.1463 -0.2760 -0.1374
    4IDB    C1657400   4.267   6.081  22.899  0.5024  0.2309  0.0827
    4IDB    C1757401   4.184   6.029  22.795 -0.1506  0.6447  0.3896
    51IDQ   C1857402   4.040   6.011  22.844 -0.4778  0.0502 -0.7156
    4IDB    C1957403   4.229   6.020  22.664 -0.6199  0.2655  0.2437
    51IDQ   C2057404   3.970   6.138  22.786  1.5376  0.3168 -0.2394
    51IDQ   C2157405   3.949   5.886  22.810 -0.9433  0.3034 -0.0500
    51IDQ   C2257406   4.015   5.775  22.737 -0.9669 -0.0288  0.2886
    51IDQ   C2357407   3.921   6.237  22.890  0.2512 -0.2497  0.1091
    51IDQ   C2457408   3.928   5.655  22.699  0.1091 -1.3863 -0.0740
    51IDQ   C2557409   3.951   5.510  22.750 -1.1034  0.2633  0.1759
    51IDQ   C2657410   3.973   5.488  22.903  0.4105  0.7302  1.3430
    51IDQ   C2757411   4.111   5.504  22.963  0.2396 -0.0943 -0.4225
    51IDQ   C2857412   4.211   5.395  22.945  0.7321  0.4457  1.0131
    51IDQ   C2957413   4.186   5.277  23.043 -0.4416 -0.4992  0.7365
    51IDQ   C3057414   3.836   6.360  22.854  0.1328 -0.3757  0.2884
    51IDQ   C3157415   3.743   6.346  22.740  0.6355 -0.5287 -0.0643
    51IDQ   C3257416   3.682   6.483  22.727 -0.8060 -0.7035  0.6421
    51IDQ   C3357417   3.592   6.480  22.602 -0.7094  0.0176 -0.6770
    51IDQ   C3457418   3.504   6.599  22.554 -0.5460  0.1664  0.4699
    51IDQ   C3557419   3.576   6.729  22.529 -0.2853 -0.2464  0.1643
    4IDB    C3657420   4.398   6.124  22.872  0.6903 -0.5697 -0.3743
    4IDB    C3757421   4.443   6.115  22.737  0.2037 -0.9475 -0.5169
    11RH    C3857422   4.080   5.506  24.272 -0.0696  0.3967 -0.6793
    4IDB    C3957423   4.360   6.064  22.637 -0.4321 -0.5351 -0.2129
    62IDT   C4057424   4.435   6.049  22.519 -0.5097 -0.2405  0.1033
    72IDQ   C4157425   4.570   6.166  22.674 -0.4647  0.0767  0.9241
    62IDT   C4257426   4.559   6.107  22.527 -0.5405 -0.1880  0.2189
    72IDQ   C4357427   4.697   6.108  22.745 -0.0951  0.2599  0.8518
    72IDQ   C4457428   4.578   6.327  22.657 -0.2101  0.7738 -0.8459
    62IDT    S557429   4.410   5.960  22.365 -0.4180 -0.0469 -0.0243
    62IDT   C4557430   4.579   6.008  22.316 -0.4265  0.1022  0.0926
    62IDT   C4657431   4.641   6.084  22.412 -0.4936  0.0058  0.2131
    82BTZ   C4757432   4.610   5.995  22.174 -0.3580  0.5610 -0.3047
    82BTZ   C4857433   4.509   6.012  22.084 -0.3655  0.1209 -0.3796
    82BTZ   C4957434   4.530   5.993  21.942 -0.3246 -0.3524 -0.3157
    82BTZ   C5057435   4.653   5.959  21.891 -0.2760 -0.3847 -0.1777
    82BTZ   C5157436   4.741   5.959  22.126 -0.3079  0.5468 -0.1593
    82BTZ   C5257437   4.762   5.941  21.982 -0.2663  0.0657 -0.0944
    92RH    C5357438   4.678   5.935  21.748  0.1481 -0.0687 -0.5643
    82BTZ    N457439   4.847   5.941  22.205 -0.2956  0.9501 -0.0758
    82BTZ    N557440   4.886   5.907  21.945 -0.2205  0.0823  0.0410
    82BTZ    S657441   4.982   5.898  22.096 -0.2293  0.7271  0.0930
    92RH    C5457442   4.595   5.946  21.643  0.0169  0.1762 -0.4368
    92RH     S757443   4.427   6.019  21.644  0.1531  0.4939 -0.1324
    92RH    C5557444   4.628   5.898  21.507 -0.2685  0.2279 -0.5260
    92RH     O257445   4.735   5.844  21.474 -0.4174  0.0546 -0.7253
    92RH     N657446   4.523   5.922  21.417 -0.3550  0.5041 -0.3546
    92RH    C5657447   4.409   5.983  21.464 -0.1737  0.6799 -0.1383
    92RH    C5757448   4.537   5.858  21.285 -0.7293  0.3645 -0.1335
    92RH    C5857449   4.493   5.708  21.280 -0.6348 -0.2138 -0.1238
    92RH     S857450   4.269   6.022  21.378 -0.2257  1.0160  0.0944
    72IDQ   C5957451   4.542   6.421  22.767 -0.3020  0.1461 -0.9868
    72IDQ   C6057452   4.561   6.553  22.708 -0.3414  0.1787  0.4164
    72IDQ   C6157453   4.503   6.670  22.781  0.0569 -0.6174 -0.0790
    72IDQ   C6257454   4.498   6.798  22.695  0.2094  0.2808 -0.2290
    72IDQ   C6357455   4.421   6.899  22.765  0.4853 -0.0743  1.1313
    72IDQ   C6457456   4.374   7.012  22.674  0.5574  0.7410 -0.3658
    72IDQ   C6557457   4.239   7.011  22.607 -0.2918  0.5319  0.5807
    72IDQ   C6657458   4.695   5.967  22.796 -0.5467  0.4531 -0.0738
    72IDQ   C6757459   4.767   5.865  22.698  0.6897 -0.4908 -0.2304
    72IDQ   C6857460   4.725   5.724  22.745  0.3563  0.6559  0.1072
    72IDQ   C6957461   4.580   5.667  22.761 -0.7870  0.0593 -0.5150
    72IDQ   C7057462   4.525   5.633  22.625  0.3450  0.5249 -0.1006
    72IDQ   C7157463   4.425   5.515  22.659 -1.4794  0.3900  0.4597
    72IDQ   C7257464   4.345   5.504  22.534  0.0704 -0.0697 -0.4922
    11RH     C157465   3.460   5.991  21.831  0.5216  0.0182 -0.3643
    11RH     C257466   3.534   5.879  21.895  0.3785 -0.0503 -0.3181
    11RH     N157467   3.458   6.105  21.914  0.1172 -0.1526 -0.1326
    11RH     S157468   3.596   5.931  22.060 -0.2784 -0.3349  0.0271
    11RH     C357469   3.521   6.098  22.037 -0.3324 -0.3495  0.0935
    11RH     C457470   3.360   6.220  21.889  0.3989  1.0504  0.2888
    11RH     S257471   3.534   6.220  22.153 -0.8681 -0.5772  0.3934
    11RH     O157472   3.406   5.987  21.720  0.9404  0.2012 -0.5774
    11RH     C557473   3.550   5.759  21.838  0.6928  0.0807 -0.5056
    21BTZ    C657474   3.590   5.630  21.889 -0.5687  0.1271  0.1243
    21BTZ    C757475   3.630   5.609  22.018 -0.4705  0.1925  0.1040
    21BTZ    C857476   3.585   5.518  21.799 -0.3622  0.1312  0.1068
    21BTZ    C957477   3.668   5.478  22.065 -0.1667  0.2646  0.0658
    21BTZ   C1057478   3.665   5.368  21.983  0.0386  0.2714  0.0478
    21BTZ   C1157479   3.623   5.385  21.847 -0.0532  0.2047  0.0677
    21BTZ    N257480   3.547   5.526  21.672 -0.4311  0.0718  0.1235
    21BTZ    N357481   3.616   5.286  21.758  0.1261  0.2040  0.0529
    21BTZ    S357482   3.558   5.360  21.606 -0.0971  0.1076  0.0892
    31IDT   C1257483   3.687   5.237  22.047  1.0627  0.0530 -0.3979
    31IDT   C1357484   3.655   5.113  21.999  0.7961  0.2086 -0.6328
    31IDT   C1457485   3.690   5.008  22.090 -0.2121  0.0143 -0.4497
    31IDT   C1557486   3.748   5.052  22.207 -0.7193 -0.2899 -0.0755
    31IDT    S457487   3.764   5.231  22.211  0.0474 -0.3546  0.0758
    4IDB    C1657488   3.776   4.944  22.300  0.1789 -0.1951  0.3163
    4IDB    C1757489   3.727   4.825  22.240 -0.0464 -0.0943  0.2999
    51IDQ   C1857490   3.684   4.855  22.090 -0.1516 -0.5160 -0.1623
    4IDB    C1957491   3.725   4.705  22.309  0.2965 -0.2296  0.0816
    51IDQ   C2057492   3.786   4.784  21.997 -0.3631  0.6224 -1.3941
    51IDQ   C2157493   3.545   4.806  22.029  0.2162 -0.2772 -0.2778
    51IDQ   C2257494   3.445   4.771  22.138  0.0270 -0.1673  0.4597
    51IDQ   C2357495   3.884   4.867  21.914  0.4517 -0.6680 -0.2735
    51IDQ   C2457496   3.310   4.723  22.081  0.7149 -0.9177  0.2214
    51IDQ   C2557497   3.201   4.707  22.189 -0.9315 -0.0959  0.5610
    51IDQ   C2657498   3.071   4.664  22.129  0.3711 -0.1338  0.0402
    51IDQ   C2757499   2.942   4.714  22.204 -0.0981 -0.2415 -0.1279
    51IDQ   C2857500   2.839   4.729  22.097 -0.9567  0.4393 -0.2796
    51IDQ   C2957501   2.727   4.837  22.113 -0.6311  0.3659 -0.3433
    51IDQ   C3057502   4.005   4.793  21.847 -0.1709 -0.2649 -0.9541
    51IDQ   C3157503   3.975   4.681  21.758  0.0995 -0.1585  1.2764
    51IDQ   C3257504   3.902   4.699  21.624  0.7336  0.6716 -0.3389
    51IDQ   C3357505   3.988   4.756  21.521 -0.4174 -0.5402 -1.0507
    51IDQ   C3457506   3.926   4.760  21.380 -0.4084  0.6020 -0.9475
    51IDQ   C3557507   3.859   4.899  21.347  0.2947  0.9089 -0.2916
    4IDB    C3657508   3.825   4.944  22.432  0.7522 -0.4333  0.1130
    4IDB    C3757509   3.822   4.820  22.502  1.0963 -0.5690 -0.1087
    11RH    C3857510   3.400   6.341  21.820  0.1873 -0.6121  0.5372
    4IDB    C3957511   3.773   4.704  22.441  0.8698 -0.4678 -0.1216
    62IDT   C4057512   3.792   4.594  22.525 -0.1629 -0.0636  0.0422
    72IDQ   C4157513   3.870   4.794  22.645 -0.7378  0.9234  0.2865
    62IDT   C4257514   3.851   4.635  22.642 -0.3986  0.2949  0.0386
    72IDQ   C4357515   3.798   4.869  22.756 -0.0326  0.2786 -1.0358
    72IDQ   C4457516   4.016   4.850  22.666 -0.1017  0.2428  0.5622
    62IDT    S557517   3.756   4.418  22.526  0.0299 -0.1018  0.4226
    62IDT   C4557518   3.827   4.409  22.694 -0.2311  0.3930  0.5629
    62IDT   C4657519   3.871   4.531  22.738 -0.4374  0.5534  0.3328
    82BTZ   C4757520   3.841   4.271  22.760  0.0561 -0.3681  0.0681
    82BTZ   C4857521   3.785   4.166  22.693  0.1538 -0.4734  0.1516
    82BTZ   C4957522   3.794   4.031  22.743  0.3163 -0.4317  0.2365
    82BTZ   C5057523   3.858   4.002  22.860  0.3810 -0.2847  0.2379
    82BTZ   C5157524   3.910   4.246  22.883  0.1183 -0.2128  0.0658
    82BTZ   C5257525   3.919   4.109  22.934  0.2835 -0.1704  0.1521
    92RH    C5357526   3.865   3.872  22.913 -0.1348  0.3339 -0.2160
    82BTZ    N457527   3.969   4.341  22.957  0.0349 -0.1000 -0.0110
    82BTZ    N557528   3.985   4.093  23.049  0.3328 -0.0236  0.1450
    82BTZ    S657529   4.039   4.257  23.098  0.1666  0.0686  0.0234
    92RH    C5457530   3.818   3.754  22.872  0.0684  0.2197 -0.1245
    92RH     S757531   3.736   3.718  22.711  0.4897 -0.1346 -0.2657
    92RH    C5557532   3.825   3.630  22.953 -0.0211  0.3687  0.1125
    92RH     O257533   3.875   3.621  23.066 -0.2891  0.6121  0.2532
    92RH     N657534   3.768   3.520  22.885  0.2398  0.1986  0.1634
    92RH    C5657535   3.715   3.541  22.760  0.5272 -0.0686 -0.0038
    92RH    C5757536   3.770   3.384  22.953 -0.6924 -0.0846  0.0889
    92RH    C5857537   3.898   3.301  22.918  0.7066  0.0483 -0.0844
    92RH     S857538   3.641   3.428  22.658  0.8723 -0.3119  0.0134
    72IDQ   C5957539   4.132   4.826  22.560  0.1159 -0.8108 -0.3729
    72IDQ   C6057540   4.211   4.953  22.534 -0.4030 -1.0793 -0.9767
    72IDQ   C6157541   4.331   4.944  22.636  0.1116  0.4494  0.7672
    72IDQ   C6257542   4.358   5.088  22.665 -0.5831 -0.0382 -0.7536
    72IDQ   C6357543   4.468   5.113  22.769 -0.6600 -1.2337  0.1480
    72IDQ   C6457544   4.609   5.133  22.713  0.3716 -0.8273  1.5181
    72IDQ   C6557545   4.676   5.233  22.803  0.2250 -0.2701 -0.4195
    72IDQ   C6657546   3.657   4.817  22.798 -1.1543 -0.4988  0.4285
    72IDQ   C6757547   3.614   4.937  22.869 -0.0321 -0.1697 -0.6856
    72IDQ   C6857548   3.456   4.956  22.895  0.4431 -0.1673  0.2131
    72IDQ   C6957549   3.418   5.085  22.963  0.2438 -0.5196  0.0109
    72IDQ   C7057550   3.263   5.087  23.013 -1.1403 -0.6411  0.0789
    72IDQ   C7157551   3.235   5.222  23.070  0.8982 -0.7449  0.0386
    72IDQ   C7257552   3.088   5.251  23.097 -0.2930  0.0208  0.8240
    11RH     C157553   4.953   4.276  14.243 -0.0457  0.1291 -0.1478
    11RH     C257554   4.928   4.411  14.186 -0.2831  0.1651  0.0350
    11RH     N157555   5.058   4.210  14.177 -0.0788  0.3143 -0.3862
    11RH     S157556   5.045   4.441  14.047 -0.5342  0.4401 -0.1187
    11RH     C357557   5.121   4.275  14.073 -0.3136  0.4941 -0.4172
    11RH     C457558   5.108   4.077  14.218  0.3448  0.8654 -1.3364
    11RH     S257559   5.248   4.219  13.978 -0.4025  0.7336 -0.6800
    11RH     O157560   4.891   4.226  14.338  0.1588 -0.0404 -0.1023
    11RH     C557561   4.833   4.494  14.230 -0.3031  0.0153  0.2748
    21BTZ    C657562   4.782   4.620  14.179  0.2052  0.0482 -0.1884
    21BTZ    C757563   4.832   4.686  14.070  0.3333  0.1949 -0.0401
    21BTZ    C857564   4.664   4.671  14.242  0.1872  0.0191 -0.1979
    21BTZ    C957565   4.770   4.805  14.018  0.4494  0.3194  0.1054
    21BTZ   C1057566   4.657   4.858  14.075  0.4373  0.2970  0.1022
    21BTZ   C1157567   4.600   4.793  14.189  0.3052  0.1454 -0.0501
    21BTZ    N257568   4.605   4.615  14.348  0.0674 -0.1187 -0.3355
    21BTZ    N357569   4.491   4.834  14.253  0.2803  0.1094 -0.0684
    21BTZ    S357570   4.463   4.718  14.386  0.1014 -0.0924 -0.2807
    31IDT   C1257571   4.591   4.971  13.997 -0.4985  0.5215  0.1992
    31IDT   C1357572   4.515   5.077  14.039 -0.6146  0.6750 -0.3765
    31IDT   C1457573   4.472   5.160  13.932 -0.3190  0.3052 -0.7915
    31IDT   C1557574   4.514   5.119  13.807  0.0235 -0.1320 -0.5355
    31IDT    S457575   4.613   4.969  13.817 -0.0020 -0.1087  0.2585
    4IDB    C1657576   4.469   5.214  13.712 -0.1181  0.2108 -0.0907
    4IDB    C1757577   4.385   5.310  13.775  0.1220  0.4021 -0.0579
    51IDQ   C1857578   4.393   5.291  13.928 -0.0001  0.5925  0.0910
    4IDB    C1957579   4.323   5.410  13.701 -0.0524  0.2594 -0.1063
    51IDQ   C2057580   4.466   5.423  13.999  0.5312  1.2643 -0.2528
    51IDQ   C2157581   4.257   5.268  14.001  0.5223 -1.1595  0.8350
    51IDQ   C2257582   4.142   5.203  13.917  0.7693 -0.4085 -0.1067
    51IDQ   C2357583   4.621   5.414  14.045  0.3831  0.2751  0.5429
    51IDQ   C2457584   4.000   5.189  13.974 -0.6826  0.7100  0.1828
    51IDQ   C2557585   3.985   5.092  14.091  0.1923 -0.3982  0.0950
    51IDQ   C2657586   4.041   5.127  14.228  0.0566 -0.0984 -0.8705
    51IDQ   C2757587   4.003   5.021  14.336 -1.3648 -0.3405 -0.1709
    51IDQ   C2857588   3.975   5.104  14.457  0.7898  0.1258  0.1010
    51IDQ   C2957589   4.027   5.051  14.580 -0.9975  0.5115 -0.2675
    51IDQ   C3057590   4.680   5.512  14.151 -0.2659 -0.5371 -0.0170
    51IDQ   C3157591   4.620   5.487  14.290 -0.2049  0.6506 -0.8967
    51IDQ   C3257592   4.627   5.353  14.373  0.9973  0.2603 -0.9063
    51IDQ   C3357593   4.754   5.279  14.408 -0.5775  0.2308  0.2546
    51IDQ   C3457594   4.747   5.132  14.452 -0.6210  0.7607  0.1842
    51IDQ   C3557595   4.794   5.151  14.594 -0.2911 -1.1674 -0.8611
    4IDB    C3657596   4.492   5.217  13.573 -0.5370 -0.1266 -0.1719
    4IDB    C3757597   4.428   5.320  13.500 -0.7099 -0.2682 -0.2203
    11RH    C3857598   5.218   4.069  14.324  1.3658  1.0528  0.5038
    4IDB    C3957599   4.345   5.414  13.563 -0.4712 -0.0781 -0.1875
    62IDT   C4057600   4.310   5.520  13.465 -1.1855 -0.5079  0.0889
    72IDQ   C4157601   4.434   5.359  13.350  0.2029 -0.2420 -0.6184
    62IDT   C4257602   4.355   5.488  13.339 -1.6620 -0.9655  0.0310
    72IDQ   C4357603   4.365   5.245  13.261  0.8721  1.0847 -0.7942
    72IDQ   C4457604   4.583   5.371  13.315 -0.4172  1.2194  0.2258
    62IDT    S557605   4.218   5.675  13.466  0.0825  0.2792  0.1553
    62IDT   C4557606   4.246   5.687  13.286 -0.1080 -0.0690  0.0988
    62IDT   C4657607   4.319   5.582  13.238 -1.0537 -0.7181  0.0370
    82BTZ   C4757608   4.166   5.783  13.203  0.3002  0.3604 -0.0871
    82BTZ   C4857609   4.078   5.867  13.266  0.3972  0.4942 -0.1297
    82BTZ   C4957610   3.986   5.949  13.191  0.3272  0.3842 -0.1638
    82BTZ   C5057611   3.981   5.947  13.055  0.1604  0.1406 -0.1561
    82BTZ   C5157612   4.166   5.777  13.060  0.1249  0.1045 -0.0777
    82BTZ   C5257613   4.072   5.861  12.984  0.0538 -0.0073 -0.1125
    92RH    C5357614   3.891   6.021  12.965  0.0486 -0.0262 -0.3638
    82BTZ    N457615   4.247   5.700  12.987  0.0179 -0.0449 -0.0377
    82BTZ    N557616   4.077   5.850  12.851 -0.1104 -0.2465 -0.1009
    82BTZ    S657617   4.205   5.730  12.816 -0.1826 -0.3408 -0.0441
    92RH    C5457618   3.794   6.109  12.990  0.0411 -0.1128 -0.0794
    92RH     S757619   3.736   6.166  13.155  0.3363 -0.3139  0.0953
    92RH    C5557620   3.715   6.176  12.884 -0.2171 -0.0559  0.1445
    92RH     O257621   3.730   6.160  12.762 -0.4523  0.0752  0.0968
    92RH     N657622   3.619   6.264  12.938 -0.1645 -0.1715  0.4264
    92RH    C5657623   3.610   6.275  13.075  0.1042 -0.3135  0.4559
    92RH    C5757624   3.554   6.347  12.836  0.1055  0.0594  0.1309
    92RH    C5857625   3.423   6.279  12.796 -0.4305 -1.0595  0.4091
    92RH     S857626   3.505   6.372  13.165  0.2217 -0.4693  0.7648
    72IDQ   C5957627   4.631   5.445  13.188 -0.3796  1.0961 -0.2309
    72IDQ   C6057628   4.783   5.419  13.167 -0.1159  0.5399 -0.1067
    72IDQ   C6157629   4.857   5.497  13.051  0.8044 -0.4600  0.3639
    72IDQ   C6257630   4.826   5.457  12.899 -1.2463  0.4627  0.2602
    72IDQ   C6357631   4.865   5.314  12.858 -0.7203  0.1198  0.3586
    72IDQ   C6457632   4.859   5.294  12.704 -0.2124  0.3172 -0.1971
    72IDQ   C6557633   4.915   5.154  12.671 -0.3512  0.7825  0.1217
    72IDQ   C6657634   4.228   5.171  13.314 -0.9843 -0.5473 -0.4500
    72IDQ   C6757635   4.095   5.223  13.279  0.9737 -0.8004  1.2858
    72IDQ   C6857636   3.968   5.162  13.319 -0.2249 -0.1175 -0.0698
    72IDQ   C6957637   3.967   5.114  13.467  0.3633 -0.9277 -0.0494
    72IDQ   C7057638   3.844   5.029  13.527  1.6128 -0.4651  0.4426
    72IDQ   C7157639   3.723   5.118  13.532 -0.2831 -0.1528 -0.7974
    72IDQ   C7257640   3.690   5.139  13.677  0.6153 -1.3103 -0.2177
    11RH     C157641   0.264   0.101  22.593  0.2142  0.1456 -0.0763
    11RH     C257642   0.138   0.048  22.536  0.1589  0.3661 -0.1607
    11RH     N157643   0.345  -0.003  22.646 -0.0481  0.0157  0.0692
    11RH     S157644   0.133  -0.134  22.556 -0.2344  0.3883 -0.0413
    11RH     C357645   0.298  -0.132  22.638 -0.3068  0.1053  0.1130
    11RH     C457646   0.483   0.022  22.685 -0.3576 -0.1923 -0.6825
    11RH     S257647   0.373  -0.273  22.693 -0.6468 -0.0139  0.2809
    11RH     O157648   0.298   0.220  22.596  0.4575  0.0791 -0.1259
    11RH     C557649   0.045   0.125  22.480  0.3703  0.5210 -0.3018
    21BTZ    C657650  -0.076   0.107  22.410  0.2903  0.1249 -0.1964
    21BTZ    C757651  -0.142  -0.012  22.393  0.6710 -0.0429 -0.5178
    21BTZ    C857652  -0.127   0.224  22.343  0.0820  0.0861 -0.1092
    21BTZ    C957653  -0.259  -0.023  22.310  0.8649 -0.2559 -0.7677
    21BTZ   C1057654  -0.311   0.086  22.244  0.6780 -0.3007 -0.6960
    21BTZ   C1157655  -0.246   0.213  22.259  0.2791 -0.1303 -0.3629
    21BTZ    N257656  -0.072   0.345  22.352 -0.2894  0.2364  0.1955
    21BTZ    N357657  -0.287   0.326  22.200  0.0660 -0.1540 -0.2632
    21BTZ    S357658  -0.172   0.453  22.251 -0.4051  0.1049  0.1696
    31IDT   C1257659  -0.434   0.064  22.172  0.6401 -0.3885 -0.5285
    31IDT   C1357660  -0.488   0.144  22.075  1.2136 -0.6567 -1.0791
    31IDT   C1457661  -0.599   0.084  22.008  1.0995 -0.5212 -1.0118
    31IDT   C1557662  -0.631  -0.042  22.054  0.4401 -0.1498 -0.4119
    31IDT    S457663  -0.521  -0.095  22.187 -0.0925  0.0593  0.1206
    4IDB    C1657664  -0.750  -0.093  21.990  0.3434  0.2538 -0.1308
    4IDB    C1757665  -0.787   0.005  21.893  0.1274  0.0772 -0.2255
    51IDQ   C1857666  -0.690   0.122  21.897 -0.2020  0.3016  0.1263
    4IDB    C1957667  -0.903  -0.011  21.817  0.0166 -0.1170 -0.0198
    51IDQ   C2057668  -0.628   0.106  21.753  0.1631  1.2391 -0.2484
    51IDQ   C2157669  -0.763   0.258  21.913 -0.1663  0.2097  1.1043
    51IDQ   C2257670  -0.901   0.267  21.999 -0.0838 -1.1247 -0.3410
    51IDQ   C2357671  -0.501   0.025  21.727  0.1194 -0.0454  0.9453
    51IDQ   C2457672  -0.896   0.245  22.148 -0.3010  1.0399  0.5392
    51IDQ   C2557673  -0.833   0.371  22.223  0.6148  0.6046  0.0039
    51IDQ   C2657674  -0.821   0.362  22.373  0.6668  0.3006 -0.6081
    51IDQ   C2757675  -0.959   0.347  22.444 -0.6010  0.1553  0.4145
    51IDQ   C2857676  -0.946   0.311  22.592  0.4925  0.8949 -0.6887
    51IDQ   C2957677  -1.079   0.239  22.627 -0.4225  0.6370 -0.1800
    51IDQ   C3057678  -0.363   0.087  21.765 -0.2997 -0.2112 -0.4919
    51IDQ   C3157679  -0.237  -0.007  21.780  1.0852  0.7331 -0.9780
    51IDQ   C3257680  -0.165   0.021  21.921 -0.2777 -0.5283  0.2339
    51IDQ   C3357681  -0.088   0.154  21.907 -0.4963 -0.2680 -1.4512
    51IDQ   C3457682  -0.016   0.202  22.033  0.7068  0.8853  0.1501
    51IDQ   C3557683   0.060   0.319  21.992  0.2125  0.3704  0.9220
    4IDB    C3657684  -0.828  -0.207  22.012  0.4501  0.2371  0.1721
    4IDB    C3757685  -0.945  -0.222  21.933  0.3344  0.0374  0.3796
    11RH    C3857686   0.570   0.025  22.564 -1.8367  0.0428 -0.4410
    4IDB    C3957687  -0.980  -0.126  21.838  0.1234 -0.1339  0.2834
    62IDT   C4057688  -1.101  -0.175  21.765  0.4849 -0.8488  0.3227
    72IDQ   C4157689  -1.059  -0.327  21.936 -0.4053  0.6764  0.5929
    62IDT   C4257690  -1.153  -0.288  21.824 -0.0290 -0.7155  0.1369
    72IDQ   C4357691  -1.120  -0.322  22.082 -0.1851  0.2750  0.3687
    72IDQ   C4457692  -1.007  -0.468  21.887 -0.1085 -0.3326 -0.7881
    62IDT    S557693  -1.200  -0.121  21.625  0.7732 -0.2183  0.3547
    62IDT   C4557694  -1.312  -0.261  21.656  0.1538  0.2130  0.1036
    62IDT   C4657695  -1.272  -0.337  21.763 -0.2168 -0.1150  0.0134
    82BTZ   C4757696  -1.407  -0.302  21.553  0.0478 -0.3045 -0.4090
    82BTZ   C4857697  -1.376  -0.281  21.421 -0.0881 -0.2691 -0.4358
    82BTZ   C4957698  -1.468  -0.316  21.315 -0.3109  0.0137 -0.3381
    82BTZ   C5057699  -1.590  -0.371  21.341 -0.3975  0.2603 -0.2142
    82BTZ   C5157700  -1.535  -0.360  21.585 -0.0353 -0.0528 -0.2809
    82BTZ   C5257701  -1.628  -0.395  21.478 -0.2619  0.2345 -0.1812
    92RH    C5357702  -1.679  -0.402  21.230 -0.3349  0.2092 -0.0754
    82BTZ    N457703  -1.576  -0.385  21.710  0.0811 -0.0597 -0.2427
    82BTZ    N557704  -1.744  -0.448  21.515 -0.3273  0.4587 -0.0639
    82BTZ    S657705  -1.740  -0.456  21.694 -0.0979  0.3086 -0.0752
    92RH    C5457706  -1.674  -0.382  21.098 -0.0279  0.1328 -0.0768
    92RH     S757707  -1.557  -0.274  21.007  0.2912 -0.0475  0.1144
    92RH    C5557708  -1.767  -0.448  21.002  0.1040  0.1848 -0.2408
    92RH     O257709  -1.857  -0.527  21.032 -0.0507  0.3030 -0.3929
    92RH     N657710  -1.739  -0.409  20.869  0.4344  0.0823 -0.2038
    92RH    C5657711  -1.636  -0.321  20.847  0.5835 -0.0455 -0.0305
    92RH    C5757712  -1.831  -0.448  20.769  0.4841  0.0908  0.2924
    92RH    C5857713  -1.804  -0.582  20.691 -0.4060 -0.9129  0.2129
    92RH     S857714  -1.583  -0.259  20.699  0.9718 -0.1844  0.0482
    72IDQ   C5957715  -0.890  -0.495  21.787  0.3287 -0.3924 -0.3855
    72IDQ   C6057716  -0.828  -0.624  21.775 -0.7718  0.2936 -0.1591
    72IDQ   C6157717  -0.715  -0.621  21.676  0.4714 -0.6975  0.1247
    72IDQ   C6257718  -0.678  -0.748  21.602  0.1686  0.3517 -0.0170
    72IDQ   C6357719  -0.546  -0.817  21.604 -0.9817 -0.1423 -0.8318
    72IDQ   C6457720  -0.511  -0.846  21.749  0.7775 -0.0451 -0.5096
    72IDQ   C6557721  -0.390  -0.949  21.755  0.3282 -0.2242  0.8488
    72IDQ   C6657722  -1.260  -0.254  22.098 -0.0492 -0.1159 -0.8173
    72IDQ   C6757723  -1.281  -0.230  22.247 -0.4819 -0.5969 -0.2914
    72IDQ   C6857724  -1.428  -0.193  22.264 -0.1521  0.0913  0.4051
    72IDQ   C6957725  -1.452  -0.128  22.397  0.2158 -0.0432 -0.5133
    72IDQ   C7057726  -1.600  -0.079  22.408 -1.0970 -0.0692  0.9591
    72IDQ   C7157727  -1.639  -0.074  22.545  0.3106  0.0021 -0.5723
    72IDQ   C7257728  -1.572   0.026  22.641 -0.1905 -0.1520  0.5725
    11RH     C157729   6.517   1.016  20.168  0.0013  0.1078  0.2127
    11RH     C257730   6.576   1.122  20.254  0.1965 -0.0096  0.2255
    11RH     N157731   6.546   1.040  20.032 -0.0169  0.1102  0.2092
    11RH     S157732   6.664   1.245  20.151  0.3433 -0.1091  0.2331
    11RH     C357733   6.620   1.151  19.998  0.1397  0.0091  0.2184
    11RH     C457734   6.511   0.930  19.930 -0.3060  1.2815 -2.0927
    11RH     S257735   6.668   1.201  19.844  0.1554 -0.0112  0.2165
    11RH     O157736   6.451   0.919  20.207 -0.1320  0.1944  0.2050
    11RH     C557737   6.563   1.124  20.387  0.2514 -0.0354  0.2312
    21BTZ    C657738   6.620   1.204  20.495 -0.5628 -0.1089  0.1897
    21BTZ    C757739   6.701   1.312  20.473 -0.4576 -0.2089  0.0815
    21BTZ    C857740   6.579   1.174  20.629 -0.5054  0.0016  0.2313
    21BTZ    C957741   6.746   1.396  20.581 -0.2921 -0.2053  0.0100
    21BTZ   C1057742   6.710   1.372  20.711 -0.2318 -0.1018  0.0463
    21BTZ   C1157743   6.626   1.260  20.739 -0.3370  0.0052  0.1583
    21BTZ    N257744   6.501   1.072  20.663 -0.5960  0.1048  0.3347
    21BTZ    N357745   6.584   1.226  20.861 -0.2923  0.1113  0.2036
    21BTZ    S357746   6.482   1.080  20.841 -0.4673  0.2132  0.3431
    31IDT   C1257747   6.747   1.477  20.815  1.0688 -0.3805  0.1440
    31IDT   C1357748   6.780   1.460  20.947  2.0392 -0.2459 -0.0682
    31IDT   C1457749   6.841   1.577  21.003  1.2777  0.2792 -0.3014
    31IDT   C1557750   6.854   1.682  20.916 -0.2745  0.5479 -0.2677
    31IDT    S457751   6.790   1.642  20.752 -0.8978  0.1529  0.0641
    4IDB    C1657752   6.923   1.794  20.977  0.4368 -0.0697  0.4425
    4IDB    C1757753   6.941   1.765  21.115  0.4736 -0.3040  0.3896
    51IDQ   C1857754   6.902   1.612  21.140  0.3726  0.2637  0.0189
    4IDB    C1957755   6.985   1.862  21.204  0.1363 -0.3500  0.6115
    51IDQ   C2057756   7.039   1.542  21.183 -0.5265  0.0006  0.6249
    51IDQ   C2157757   6.802   1.589  21.256  0.8482  0.0928  0.0206
    51IDQ   C2257758   6.737   1.705  21.332 -0.1472  0.7928  0.1581
    51IDQ   C2357759   7.116   1.438  21.107 -0.3438  0.8038 -0.0221
    51IDQ   C2457760   6.623   1.674  21.437 -0.6125  0.1062  0.0334
    51IDQ   C2557761   6.569   1.791  21.513 -0.5752 -0.6819 -0.6485
    51IDQ   C2657762   6.663   1.923  21.521  0.4087  0.2704  0.1044
    51IDQ   C2757763   6.609   2.039  21.614 -1.0066  1.1433  0.8077
    51IDQ   C2857764   6.560   1.994  21.748 -0.8294  1.1920 -0.5277
    51IDQ   C2957765   6.657   1.908  21.845  1.1452 -0.4370  0.4048
    51IDQ   C3057766   7.089   1.322  21.197 -0.1903 -0.3029 -0.2870
    51IDQ   C3157767   7.096   1.195  21.124  0.5940  0.3668  0.3541
    51IDQ   C3257768   7.083   1.075  21.214 -0.3853 -0.0952 -1.2554
    51IDQ   C3357769   7.138   0.954  21.142 -0.1314  0.5860 -0.6245
    51IDQ   C3457770   7.084   0.812  21.147  0.4997  0.6639 -0.5116
    51IDQ   C3557771   7.153   0.714  21.246 -0.2208 -0.5955  0.2590
    4IDB    C3657772   6.949   1.922  20.926  0.0597  0.1213  0.7191
    4IDB    C3757773   6.994   2.021  21.018 -0.2817  0.0710  0.9437
    11RH    C3857774   6.611   0.813  19.906  0.4782  0.0137 -0.2540
    4IDB    C3957775   7.011   1.990  21.153 -0.2408 -0.1590  0.8887
    62IDT   C4057776   7.074   2.106  21.222  0.3492 -0.1867  0.2146
    72IDQ   C4157777   7.030   2.170  20.994 -0.2729 -0.1398 -0.5374
    62IDT   C4257778   7.099   2.205  21.129  0.6309 -0.3426  0.1202
    72IDQ   C4357779   6.902   2.260  20.975 -0.1658 -0.2061 -0.2101
    72IDQ   C4457780   7.117   2.173  20.861 -0.0504 -0.5985 -0.1241
    62IDT    S557781   7.157   2.138  21.378 -0.2678  0.1654  0.4792
    62IDT   C4557782   7.224   2.291  21.306 -0.1042  0.0791  0.4462
    62IDT   C4657783   7.183   2.310  21.176  0.3750 -0.1925  0.2513
    82BTZ   C4757784   7.319   2.388  21.373  0.0799  0.0692 -0.0221
    82BTZ   C4857785   7.366   2.348  21.495  0.1543  0.0083 -0.0710
    82BTZ   C4957786   7.446   2.436  21.577  0.3259 -0.0826 -0.1392
    82BTZ   C5057787   7.477   2.563  21.537  0.4229 -0.1126 -0.1575
    82BTZ   C5157788   7.349   2.520  21.326  0.1764  0.0409 -0.0396
    82BTZ   C5257789   7.430   2.609  21.410  0.3508 -0.0515 -0.1082
    92RH    C5357790   7.554   2.655  21.612  0.1559 -0.0762  0.2353
    82BTZ    N457791   7.308   2.569  21.209  0.1179  0.0939  0.0038
    82BTZ    N557792   7.454   2.731  21.360  0.4326 -0.0728 -0.1211
    82BTZ    S657793   7.373   2.736  21.201  0.2869  0.0264 -0.0446
    92RH    C5457794   7.605   2.651  21.736  0.0869 -0.2215  0.2594
    92RH     S757795   7.593   2.512  21.855 -0.2118 -0.2585  0.1889
    92RH    C5557796   7.681   2.763  21.797  0.2482 -0.3797  0.3505
    92RH     O257797   7.706   2.871  21.742  0.4620 -0.3965  0.4134
    92RH     N657798   7.723   2.731  21.928  0.1284 -0.5132  0.3574
    92RH    C5657799   7.689   2.608  21.979 -0.1092 -0.4813  0.2823
    92RH    C5757800   7.820   2.824  21.990 -0.0507  0.8685 -0.8352
    92RH    C5857801   7.803   2.881  22.130 -0.0765 -0.2688  0.0839
    92RH     S857802   7.727   2.546  22.132 -0.2915 -0.6173  0.2723
    72IDQ   C5957803   7.173   2.296  20.795  1.1200 -0.1562  0.2752
    72IDQ   C6057804   7.331   2.324  20.802 -0.4614  0.4324 -0.2116
    72IDQ   C6157805   7.356   2.475  20.775 -0.5179 -0.4070 -0.1095
    72IDQ   C6257806   7.505   2.517  20.776  0.9730 -0.5280  0.4287
    72IDQ   C6357807   7.597   2.468  20.891  1.5545 -0.4436 -0.4678
    72IDQ   C6457808   7.626   2.564  21.010 -0.6929  0.4275  0.8767
    72IDQ   C6557809   7.701   2.691  20.992 -0.5020 -1.1559  0.2680
    72IDQ   C6657810   6.815   2.273  20.850  0.7071  0.1062  0.0602
    72IDQ   C6757811   6.704   2.384  20.867  0.4395  0.2882 -0.8737
    72IDQ   C6857812   6.602   2.353  20.986 -0.4504  1.3727 -0.5371
    72IDQ   C6957813   6.526   2.473  21.044  0.7875 -0.2073 -0.7918
    72IDQ   C7057814   6.592   2.542  21.156  0.6440  0.3785 -0.7088
    72IDQ   C7157815   6.547   2.688  21.180  0.2036 -0.4297  0.1039
    72IDQ   C7257816   6.664   2.780  21.216  0.3472  0.3112 -0.6918
    11RH     C157817   0.897   0.142   2.073  0.0130  0.1966  0.0761
    11RH     C257818   1.014   0.103   1.991 -0.0303  0.0009  0.1058
    11RH     N157819   0.935   0.179   2.204  0.0777  0.4674 -0.0183
    11RH     S157820   1.167   0.118   2.092  0.0168  0.1858  0.0077
    11RH     C357821   1.069   0.175   2.237  0.0915  0.5126 -0.0678
    11RH     C457822   0.836   0.211   2.300  0.3995  0.3710 -0.6998
    11RH     S257823   1.140   0.214   2.385  0.1641  0.8134 -0.1803
    11RH     O157824   0.779   0.143   2.034 -0.0040  0.1360  0.1262
    11RH     C557825   1.006   0.064   1.864 -0.0940 -0.2684  0.1919
    21BTZ    C657826   1.101   0.021   1.762  0.0130  0.3730 -0.1612
    21BTZ    C757827   1.236   0.014   1.787  0.0156  0.3718 -0.1753
    21BTZ    C857828   1.052  -0.028   1.637 -0.0274  0.1734 -0.0676
    21BTZ    C957829   1.328  -0.041   1.691 -0.0211  0.1758 -0.0986
    21BTZ   C1057830   1.285  -0.090   1.570 -0.0603 -0.0186 -0.0081
    21BTZ   C1157831   1.145  -0.085   1.539 -0.0646 -0.0259  0.0103
    21BTZ    N257832   0.923  -0.027   1.601 -0.0338  0.1540 -0.0451
    21BTZ    N357833   1.092  -0.128   1.425 -0.1011 -0.2053  0.0954
    21BTZ    S357834   0.916  -0.099   1.438 -0.0890 -0.1255  0.0792
    31IDT   C1257835   1.395  -0.150   1.499  0.1145  0.3652  0.0739
    31IDT   C1357836   1.478  -0.248   1.547  0.8211  0.8961 -0.0279
    31IDT   C1457837   1.547  -0.318   1.443  0.6122  0.8876 -0.1627
    31IDT   C1557838   1.517  -0.273   1.316 -0.2529  0.3515 -0.1646
    31IDT    S457839   1.398  -0.139   1.318 -0.8759 -0.1892  0.0058
    4IDB    C1657840   1.592  -0.349   1.212  0.2927  0.1103 -0.5118
    4IDB    C1757841   1.683  -0.440   1.275  0.5632  0.4761 -0.3689
    51IDQ   C1857842   1.650  -0.431   1.429 -0.0026 -0.7364 -0.6653
    4IDB    C1957843   1.768  -0.520   1.200  0.4675  0.2725 -0.2624
    51IDQ   C2057844   1.612  -0.577   1.484 -0.4434 -0.0636 -0.0911
    51IDQ   C2157845   1.780  -0.382   1.516  0.4303  0.6541  1.4588
    51IDQ   C2257846   1.921  -0.400   1.458 -0.5507  0.6660  0.1002
    51IDQ   C2357847   1.470  -0.602   1.539  0.0217  0.2132  1.2519
    51IDQ   C2457848   2.041  -0.366   1.559  0.8707  0.2222  0.5830
    51IDQ   C2557849   2.055  -0.220   1.586 -0.4508  0.3113 -0.0843
    51IDQ   C2657850   1.973  -0.140   1.685 -0.5685 -0.3682 -0.4740
    51IDQ   C2757851   1.983  -0.167   1.826 -0.4564  0.1445 -0.0175
    51IDQ   C2857852   1.869  -0.242   1.890  0.0814 -0.4343  0.0655
    51IDQ   C2957853   1.746  -0.166   1.883  0.7433  0.5466  0.3069
    51IDQ   C3057854   1.335  -0.579   1.450 -0.2861 -0.0697 -0.6597
    51IDQ   C3157855   1.345  -0.613   1.299  0.3514  1.1349 -0.1768
    51IDQ   C3257856   1.285  -0.516   1.190 -0.7646 -1.5465 -0.8168
    51IDQ   C3357857   1.142  -0.476   1.208  0.1690  0.7126 -1.5195
    51IDQ   C3457858   1.073  -0.400   1.107 -0.2546 -0.4965 -0.8877
    51IDQ   C3557859   1.094  -0.245   1.088 -0.5335  0.2255  0.3544
    4IDB    C3657860   1.587  -0.339   1.072 -0.0773 -0.4650 -0.5492
    4IDB    C3757861   1.675  -0.421   0.997 -0.1701 -0.6655 -0.4390
    11RH    C3857862   0.781   0.353   2.322 -0.0492 -0.5546 -1.0057
    4IDB    C3957863   1.763  -0.509   1.061  0.0974 -0.3028 -0.2998
    62IDT   C4057864   1.832  -0.581   0.960 -0.6222 -0.0941  0.2196
    72IDQ   C4157865   1.681  -0.439   0.843  1.4891  0.2739 -0.7730
    62IDT   C4257866   1.786  -0.550   0.833 -0.9744 -0.0218  0.3614
    72IDQ   C4357867   1.743  -0.315   0.779 -0.5957 -0.4295  0.0115
    72IDQ   C4457868   1.536  -0.456   0.783 -1.2646 -0.4882 -0.7450
    62IDT    S557869   1.964  -0.703   0.955 -0.2709  0.2966 -0.2459
    62IDT   C4557870   1.950  -0.705   0.774 -0.6364  0.5494 -0.2230
    62IDT   C4657871   1.853  -0.619   0.728 -0.9829  0.3421  0.1115
    82BTZ   C4757872   2.033  -0.800   0.689  0.0927 -0.0470 -0.2696
    82BTZ   C4857873   2.075  -0.918   0.747 -0.0405 -0.1438 -0.3704
    82BTZ   C4957874   2.158  -1.012   0.675 -0.2142 -0.2147 -0.4794
    82BTZ   C5057875   2.199  -0.988   0.547 -0.2544 -0.1886 -0.4876
    82BTZ   C5157876   2.074  -0.771   0.555  0.0572 -0.0160 -0.2737
    82BTZ   C5257877   2.158  -0.867   0.482 -0.1194 -0.0881 -0.3845
    92RH    C5357878   2.285  -1.074   0.469  0.2486  0.1970  0.4509
    82BTZ    N457879   2.040  -0.660   0.489  0.1761  0.0764 -0.1815
    82BTZ    N557880   2.192  -0.833   0.358 -0.1424 -0.0538 -0.3814
    82BTZ    S657881   2.116  -0.674   0.327  0.0649  0.0747 -0.2336
    92RH    C5457882   2.337  -1.195   0.494  0.2618  0.1253  0.0899
    92RH     S757883   2.315  -1.294   0.647  0.2631 -0.3421 -0.2097
    92RH    C5557884   2.423  -1.268   0.398  0.2777  0.4250 -0.1287
    92RH     O257885   2.456  -1.228   0.285  0.2808  0.7709 -0.0067
    92RH     N657886   2.464  -1.393   0.451  0.2894  0.2690 -0.5020
    92RH    C5657887   2.421  -1.428   0.577  0.2847 -0.1192 -0.6092
    92RH    C5757888   2.562  -1.482   0.380 -0.4388  0.6270 -0.0016
    92RH    C5857889   2.515  -1.581   0.271 -1.3827 -0.7142 -0.1987
    92RH     S857890   2.455  -1.570   0.662  0.2963 -0.3746 -1.0339
    72IDQ   C5957891   1.437  -0.545   0.853  0.5592 -0.1228  0.3624
    72IDQ   C6057892   1.387  -0.670   0.773 -0.1819 -0.1515  0.3607
    72IDQ   C6157893   1.356  -0.655   0.629 -1.7184 -0.4438  0.4308
    72IDQ   C6257894   1.241  -0.560   0.595  0.6209  0.0621  0.2726
    72IDQ   C6357895   1.235  -0.532   0.445  0.7068  0.0053  0.1829
    72IDQ   C6457896   1.338  -0.423   0.411 -0.4505  0.6896  0.2909
    72IDQ   C6557897   1.322  -0.406   0.258 -0.8246  0.5925  0.4392
    72IDQ   C6657898   1.690  -0.172   0.778 -1.2460  0.1800 -0.2733
    72IDQ   C6757899   1.782  -0.085   0.690  0.0260 -0.4857 -0.6675
    72IDQ   C6857900   1.737  -0.073   0.540  0.2760 -0.1666 -0.2265
    72IDQ   C6957901   1.837   0.020   0.457  0.9293  0.7048  0.4293
    72IDQ   C7057902   1.786   0.058   0.311  0.8577  0.2316  0.1605
    72IDQ   C7157903   1.860   0.182   0.275  0.1689  0.0779  0.1460
    72IDQ   C7257904   1.849   0.184   0.124 -0.3504 -0.4983  0.1665
    11RH     C157905   5.853   5.665  26.142 -0.2240 -0.0502  0.1049
    11RH     C257906   5.765   5.704  26.255 -0.2146  0.0167  0.0896
    11RH     N157907   5.792   5.692  26.018 -0.1184  0.1367  0.0935
    11RH     S157908   5.609   5.775  26.190 -0.0673  0.3209  0.0610
    11RH     C357909   5.667   5.749  26.017 -0.0254  0.3450  0.0710
    11RH     C457910   5.851   5.641  25.895  0.9058  0.3674  0.6808
    11RH     S257911   5.573   5.791  25.884  0.1090  0.5928  0.0534
    11RH     O157912   5.966   5.614  26.153 -0.3123 -0.2443  0.1249
    11RH     C557913   5.799   5.689  26.384 -0.3024 -0.1285  0.0959
    21BTZ    C657914   5.735   5.718  26.515 -0.1672 -0.1284 -0.4075
    21BTZ    C757915   5.612   5.778  26.522 -0.1378 -0.0446 -0.6027
    21BTZ    C857916   5.806   5.693  26.637 -0.2658  0.0564 -0.3099
    21BTZ    C957917   5.553   5.816  26.648 -0.2036  0.2232 -0.7124
    21BTZ   C1057918   5.617   5.794  26.767 -0.2986  0.4065 -0.6267
    21BTZ   C1157919   5.746   5.731  26.765 -0.3327  0.3283 -0.4220
    21BTZ    N257920   5.927   5.635  26.643 -0.3031 -0.0015 -0.1211
    21BTZ    N357921   5.818   5.705  26.874 -0.4238  0.4891 -0.3228
    21BTZ    S357922   5.969   5.627  26.817 -0.4278  0.2951 -0.0760
    31IDT   C1257923   5.543   5.822  26.894 -0.2284 -0.1274 -0.4379
    31IDT   C1357924   5.579   5.801  27.025  0.0777  0.0401 -0.4950
    31IDT   C1457925   5.486   5.857  27.118  0.2041  0.0070 -0.3476
    31IDT   C1557926   5.378   5.920  27.059 -0.0044 -0.1855 -0.1781
    31IDT    S457927   5.387   5.914  26.879 -0.3804 -0.3413 -0.1923
    4IDB    C1657928   5.306   5.991  27.163  0.1825 -0.3273 -0.0507
    4IDB    C1757929   5.379   5.975  27.285  0.2630 -0.0352 -0.0582
    51IDQ   C1857930   5.469   5.856  27.269 -0.3814 -0.2596 -0.1665
    4IDB    C1957931   5.366   6.066  27.389  0.2761  0.1750 -0.2409
    51IDQ   C2057932   5.598   5.867  27.358 -0.2470  1.4952  1.0066
    51IDQ   C2157933   5.415   5.716  27.302  0.8081  0.3974 -0.4167
    51IDQ   C2257934   5.267   5.692  27.353 -0.0305 -0.4258 -0.8014
    51IDQ   C2357935   5.741   5.879  27.285 -0.5578  0.4600 -0.3507
    51IDQ   C2457936   5.227   5.754  27.488 -0.5340 -0.7673  0.8490
    51IDQ   C2557937   5.076   5.754  27.514  0.3140 -0.1829  1.1872
    51IDQ   C2657938   5.014   5.888  27.446 -1.1471  0.4096 -0.3877
    51IDQ   C2757939   4.870   5.918  27.432  0.4746  0.3992  0.2489
    51IDQ   C2857940   4.800   5.973  27.558 -0.5255 -0.1845  0.7559
    51IDQ   C2957941   4.852   6.115  27.593  0.1734  0.6125  0.3063
    51IDQ   C3057942   5.854   5.954  27.354 -0.8560  0.0483 -0.3783
    51IDQ   C3157943   5.902   5.911  27.500 -0.5104 -1.5831  0.7654
    51IDQ   C3257944   5.972   6.030  27.561 -1.0700 -0.1307  0.0562
    51IDQ   C3357945   6.001   6.036  27.706  0.2059  0.5310  0.5010
    51IDQ   C3457946   6.078   6.157  27.767  0.7964 -0.6842  1.2596
    51IDQ   C3557947   6.116   6.155  27.912  0.1534 -0.1036  0.2576
    4IDB    C3657948   5.220   6.100  27.144  0.1144 -0.4115 -0.2270
    4IDB    C3757949   5.208   6.192  27.251  0.1291 -0.1937 -0.4125
    11RH    C3857950   5.981   5.714  25.852  0.5145 -0.2497 -0.4209
    4IDB    C3957951   5.280   6.175  27.370  0.2081  0.0908 -0.4171
    62IDT   C4057952   5.248   6.286  27.454  0.7714 -0.1429 -0.1231
    72IDQ   C4157953   5.128   6.325  27.246  0.1259  0.0032 -0.0665
    62IDT   C4257954   5.175   6.379  27.383  1.0620 -0.0995 -0.3662
    72IDQ   C4357955   4.977   6.304  27.257 -0.1833 -0.3488  0.4585
    72IDQ   C4457956   5.192   6.428  27.134 -0.0052  0.6558 -1.0245
    62IDT    S557957   5.284   6.343  27.621  0.1448 -0.2184  0.0420
    62IDT   C4557958   5.194   6.496  27.584  0.3171 -0.1853 -0.2402
    62IDT   C4657959   5.145   6.498  27.456  0.8055 -0.1231 -0.4334
    82BTZ   C4757960   5.199   6.612  27.681  0.0874 -0.0323  0.1151
    82BTZ   C4857961   5.318   6.632  27.746 -0.0567 -0.1048  0.4039
    82BTZ   C4957962   5.336   6.741  27.839 -0.2898 -0.2588  0.6366
    82BTZ   C5057963   5.236   6.830  27.866 -0.3782 -0.3401  0.5796
    82BTZ   C5157964   5.091   6.703  27.706  0.0030 -0.1127  0.0443
    82BTZ   C5257965   5.110   6.814  27.800 -0.2338 -0.2692  0.2809
    92RH    C5357966   5.274   6.947  27.937 -0.1821  0.4593  0.0185
    82BTZ    N457967   4.970   6.695  27.649  0.1270 -0.0541 -0.2284
    82BTZ    N557968   5.005   6.895  27.818 -0.3002 -0.3363  0.1984
    82BTZ    S657969   4.874   6.831  27.714 -0.0575 -0.1998 -0.1939
    92RH    C5457970   5.385   6.996  27.992 -0.0544  0.2269 -0.0286
    92RH     S757971   5.549   6.913  28.004 -0.1765 -0.0472 -0.2508
    92RH    C5557972   5.393   7.131  28.055  0.2152  0.1543  0.0973
    92RH     O257973   5.300   7.212  28.063  0.3523  0.2968  0.2575
    92RH     N657974   5.522   7.157  28.105  0.3017 -0.1026  0.0117
    92RH    C5657975   5.619   7.060  28.090  0.1345 -0.2445 -0.1674
    92RH    C5757976   5.551   7.303  28.143  0.7429  0.4331  0.3702
    92RH    C5857977   5.555   7.339  28.292  1.8007 -0.0463 -0.4208
    92RH     S857978   5.780   7.066  28.141  0.1892 -0.5521 -0.2995
    72IDQ   C5957979   5.139   6.565  27.087 -0.4699  0.4012 -0.4430
    72IDQ   C6057980   5.230   6.639  27.004  0.3138 -0.6244  0.8426
    72IDQ   C6157981   5.170   6.779  26.957  1.0133  0.7823  0.6926
    72IDQ   C6257982   5.218   6.837  26.821  0.2234  0.6681  0.4532
    72IDQ   C6357983   5.222   6.747  26.698 -0.4704 -0.3032 -0.4141
    72IDQ   C6457984   5.101   6.741  26.619 -0.0614  0.6187  1.3760
    72IDQ   C6557985   5.075   6.871  26.541  0.5144 -0.1655 -0.4732
    72IDQ   C6657986   4.886   6.282  27.130  0.2893 -0.1173 -0.5383
    72IDQ   C6757987   4.909   6.165  27.045  0.5204  0.8371  1.0901
    72IDQ   C6857988   4.786   6.126  26.958 -0.1677 -0.4811 -0.1355
    72IDQ   C6957989   4.719   6.232  26.862 -0.0663  0.1260 -1.2368
    72IDQ   C7057990   4.649   6.151  26.741 -0.1877 -1.0536 -0.6805
    72IDQ   C7157991   4.703   6.025  26.680 -1.2515 -0.0700  0.0410
    72IDQ   C7257992   4.715   6.023  26.533 -0.9269 -0.2348 -0.3321
    11RH     C157993   0.451   1.862  27.426  0.5195  0.3036  0.4158
    11RH     C257994   0.557   1.804  27.340  0.3353  0.1832  0.2689
    11RH     N157995   0.364   1.946  27.352  0.2152  0.0072  0.4327
    11RH     S157996   0.535   1.862  27.167 -0.2261 -0.3119  0.1650
    11RH     C357997   0.388   1.961  27.217 -0.1904 -0.3359  0.3195
    11RH     C457998   0.245   2.009  27.425  0.9305  0.0432 -0.6283
    11RH     S257999   0.300   2.054  27.107 -0.6088 -0.7317  0.3123
    11RH     O158000   0.438   1.842  27.548  0.8925  0.6223  0.5116
    11RH     C558001   0.652   1.721  27.385  0.5563  0.4103  0.2250
    21BTZ    C658002   0.758   1.639  27.333 -0.1623 -0.4814 -0.2475
    21BTZ    C758003   0.783   1.634  27.198 -0.1203 -0.3534 -0.2441
    21BTZ    C858004   0.834   1.554  27.420  0.0563 -0.3073 -0.2685
    21BTZ    C958005   0.884   1.546  27.143  0.1367 -0.0500 -0.2608
    21BTZ   C1058006   0.959   1.464  27.223  0.3514  0.1250 -0.2815
    21BTZ   C1158007   0.936   1.466  27.364  0.3175  0.0011 -0.2851
    21BTZ    N258008   0.819   1.550  27.553  0.0401 -0.4071 -0.2732
    21BTZ    N358009   1.003   1.390  27.452  0.5114  0.1493 -0.3047
    21BTZ    S358010   0.937   1.430  27.613  0.3650 -0.1047 -0.3010
    31IDT   C1258011   1.062   1.371  27.169 -0.1011 -0.1690 -0.2384
    31IDT   C1358012   1.046   1.271  27.077 -0.0635 -0.6820  0.3009
    31IDT   C1458013   1.166   1.198  27.053 -0.0254 -0.7455  0.6647
    31IDT   C1558014   1.275   1.242  27.126 -0.0337 -0.2827  0.4063
    31IDT    S458015   1.233   1.380  27.232 -0.0910  0.2748 -0.3256
    4IDB    C1658016   1.395   1.172  27.095  0.3715  0.4013  0.2602
    4IDB    C1758017   1.366   1.059  27.013  0.2312  0.4347  0.2627
    51IDQ   C1858018   1.214   1.068  26.974  0.2149  1.1242 -0.7754
    4IDB    C1958019   1.466   0.967  26.981  0.1150  0.3033  0.2767
    51IDQ   C2058020   1.201   1.066  26.823 -0.5419  0.0714  0.1568
    51IDQ   C2158021   1.124   0.946  27.036 -0.0328  1.0666 -0.6554
    51IDQ   C2258022   1.162   0.815  27.105  0.2896  0.9750 -0.0068
    51IDQ   C2358023   1.146   1.192  26.747 -0.2782  1.2436 -0.3055
    51IDQ   C2458024   1.063   0.736  27.199 -0.2042 -0.7535 -0.5979
    51IDQ   C2558025   1.034   0.795  27.331  0.4725 -0.3774 -0.3610
    51IDQ   C2658026   1.131   0.784  27.452 -0.0683  0.5540  0.3651
    51IDQ   C2758027   1.080   0.861  27.570  0.7681  1.3795 -1.1391
    51IDQ   C2858028   1.186   0.867  27.673  0.4346 -0.3022 -0.0714
    51IDQ   C2958029   1.167   0.993  27.758 -0.1964 -1.0567  0.8612
    51IDQ   C3058030   1.241   1.285  26.683 -0.6370 -0.7205 -0.2584
    51IDQ   C3158031   1.182   1.422  26.644 -1.3351  0.3069  0.0347
    51IDQ   C3258032   1.256   1.480  26.528 -1.5799 -0.7736  0.0822
    51IDQ   C3358033   1.195   1.608  26.487  0.5863 -1.1425  0.1067
    51IDQ   C3458034   1.046   1.590  26.438 -1.0584 -0.1114  0.2406
    51IDQ   C3558035   0.985   1.705  26.354 -1.1559 -0.0254 -0.0534
    4IDB    C3658036   1.525   1.194  27.145  0.3964  0.2351  0.2708
    4IDB    C3758037   1.625   1.100  27.111  0.2764  0.1024  0.2847
    11RH    C3858038   0.104   1.940  27.410 -0.4943 -0.8749  0.5379
    4IDB    C3958039   1.595   0.989  27.031  0.1399  0.1372  0.2877
    62IDT   C4058040   1.720   0.924  27.000  0.2939  0.9698  0.5170
    72IDQ   C4158041   1.776   1.111  27.131 -0.5661  0.3254 -0.3597
    62IDT   C4258042   1.828   0.982  27.062  0.6204  0.3279  0.5713
    72IDQ   C4358043   1.807   1.111  27.292  0.3658 -0.5958  0.6597
    72IDQ   C4458044   1.831   1.250  27.083  0.1681 -0.2417  0.2221
    62IDT    S558045   1.770   0.798  26.882 -0.3944  0.6926  0.5105
    62IDT   C4558046   1.943   0.833  26.925 -0.1948 -0.3261  0.5844
    62IDT   C4658047   1.955   0.931  27.020  0.3446 -0.4056  0.6094
    82BTZ   C4758048   2.059   0.772  26.849  0.0906  0.1592 -0.2902
    82BTZ   C4858049   2.029   0.686  26.747  0.0718  0.2126 -0.3295
    82BTZ   C4958050   2.131   0.609  26.680  0.0628  0.2694 -0.4082
    82BTZ   C5058051   2.263   0.620  26.715  0.0727  0.2726 -0.4468
    82BTZ   C5158052   2.196   0.787  26.889  0.1015  0.1602 -0.3276
    82BTZ   C5258053   2.300   0.709  26.821  0.0924  0.2178 -0.4072
    92RH    C5358054   2.364   0.544  26.649  0.3419  0.1755  0.1063
    82BTZ    N458055   2.237   0.868  26.987  0.1199  0.1111 -0.2947
    82BTZ    N558056   2.425   0.728  26.864  0.1034  0.2151 -0.4387
    82BTZ    S658057   2.415   0.848  26.996  0.1265  0.1372 -0.3655
    92RH    C5458058   2.369   0.442  26.562  0.2891  0.2303  0.0396
    92RH     S758059   2.227   0.350  26.492  0.2462  0.2784  0.0628
    92RH    C5558060   2.496   0.387  26.508  0.2563  0.2612 -0.0687
    92RH     O258061   2.610   0.428  26.535  0.2735  0.2406 -0.1087
    92RH     N658062   2.472   0.281  26.418  0.2019  0.3184 -0.1221
    92RH    C5658063   2.342   0.243  26.394  0.1869  0.3371 -0.0710
    92RH    C5758064   2.584   0.202  26.347  0.5226 -0.1563 -0.4546
    92RH    C5858065   2.644   0.280  26.229 -0.1312 -0.1172 -0.6325
    92RH     S858066   2.286   0.121  26.293  0.1252  0.4027 -0.1173
    72IDQ   C5958067   1.843   1.296  26.938  0.2181  0.0506 -0.1465
    72IDQ   C6058068   1.721   1.332  26.865 -0.6764  0.1198  0.5022
    72IDQ   C6158069   1.659   1.457  26.925  0.5536 -0.0949  0.0861
    72IDQ   C6258070   1.522   1.511  26.861 -0.9018  0.6132  0.0253
    72IDQ   C6358071   1.443   1.589  26.976 -0.9860  0.9300  0.0606
    72IDQ   C6458072   1.323   1.650  26.922  0.1571 -0.1733  0.7524
    72IDQ   C6558073   1.232   1.685  27.037  0.0993  0.0722  0.1827
    72IDQ   C6658074   1.923   1.042  27.354  0.3914  0.4871  0.4011
    72IDQ   C6758075   1.913   1.062  27.507 -0.1622  0.3014  0.1809
    72IDQ   C6858076   2.009   0.983  27.583 -0.0079  1.0601  0.1641
    72IDQ   C6958077   1.972   1.011  27.720  0.4313  0.0040 -0.0850
    72IDQ   C7058078   2.032   1.126  27.808  0.3710  0.9502  1.6260
    72IDQ   C7158079   1.955   1.137  27.935 -0.0587  0.1456 -0.9409
    72IDQ   C7258080   2.030   1.244  28.010 -0.2889  0.0809  0.0982
    11RH     C158081   6.156   6.465  22.882  0.1873 -0.0908  0.0358
    11RH     C258082   6.204   6.359  22.974  0.1270  0.0020  0.1745
    11RH     N158083   6.080   6.562  22.951 -0.0530 -0.1441 -0.1525
    11RH     S158084   6.146   6.394  23.145 -0.2418  0.0130  0.0488
    11RH     C358085   6.061   6.547  23.086 -0.2984 -0.1056 -0.1812
    11RH     C458086   6.044   6.700  22.895  0.1239  0.4191  0.2278
    11RH     S258087   5.975   6.648  23.190 -0.6119 -0.1540 -0.3901
    11RH     O158088   6.178   6.470  22.760  0.4176 -0.1199  0.0753
    11RH     C558089   6.278   6.255  22.934  0.3188  0.0661  0.3623
    21BTZ    C658090   6.331   6.131  23.006  0.7042  0.2928 -0.0476
    21BTZ    C758091   6.320   6.115  23.141  0.6392  0.3700 -0.0434
    21BTZ    C858092   6.397   6.030  22.930  0.4032  0.0612 -0.0067
    21BTZ    C958093   6.374   6.000  23.209  0.2775  0.2245  0.0005
    21BTZ   C1058094   6.438   5.900  23.140 -0.0185  0.0020  0.0409
    21BTZ   C1158095   6.452   5.912  22.998  0.0355 -0.0869  0.0377
    21BTZ    N258096   6.414   6.034  22.797  0.4321 -0.0336 -0.0067
    21BTZ    N358097   6.513   5.822  22.920 -0.2309 -0.3006  0.0734
    21BTZ    S358098   6.503   5.885  22.753 -0.0188 -0.3221  0.0521
    31IDT   C1258099   6.482   5.777  23.218 -0.3193 -0.5956 -0.0871
    31IDT   C1358100   6.570   5.682  23.174 -0.3346 -0.7440  0.1931
    31IDT   C1458101   6.599   5.583  23.272 -0.3630 -0.4669  0.4840
    31IDT   C1558102   6.534   5.601  23.392 -0.3692 -0.1067  0.4273
    31IDT    S458103   6.429   5.747  23.390 -0.3397 -0.0901 -0.0021
    4IDB    C1658104   6.555   5.479  23.465  0.8317  0.5052 -0.5133
    4IDB    C1758105   6.648   5.392  23.400  0.4382  0.1061 -0.5593
    51IDQ   C1858106   6.693   5.460  23.272 -0.5242  1.0233  1.1843
    4IDB    C1958107   6.689   5.273  23.460 -0.0130 -0.0566 -0.5675
    51IDQ   C2058108   6.857   5.463  23.284 -0.2704  0.2022 -0.0471
    51IDQ   C2158109   6.659   5.376  23.137  1.0404 -0.8095 -0.0895
    51IDQ   C2258110   6.564   5.263  23.143  0.6015 -0.3021 -0.4455
    51IDQ   C2358111   6.924   5.602  23.304  0.6834 -0.7675  0.4961
    51IDQ   C2458112   6.585   5.162  23.039 -0.4560  0.4717 -0.5054
    51IDQ   C2558113   6.488   5.044  23.039 -0.7420  1.0384 -0.8707
    51IDQ   C2658114   6.524   4.949  23.156  0.4979  0.4811  0.3930
    51IDQ   C2758115   6.465   4.810  23.130 -0.0445  0.4180 -0.1650
    51IDQ   C2858116   6.449   4.727  23.248 -0.1459  0.1787 -0.3502
    51IDQ   C2958117   6.587   4.709  23.312  0.5149 -0.0277  0.5252
    51IDQ   C3058118   6.958   5.642  23.448  0.7623  0.2058  0.6531
    51IDQ   C3158119   7.010   5.538  23.545 -0.2819  0.3430 -0.1821
    51IDQ   C3258120   7.146   5.465  23.498  0.7082  0.8310 -0.0454
    51IDQ   C3358121   7.129   5.314  23.494  1.4382 -0.1008 -0.5776
    51IDQ   C3458122   7.208   5.240  23.394  0.4246 -0.2950 -0.5264
    51IDQ   C3558123   7.163   5.101  23.357  0.4230  0.4098 -0.0758
    4IDB    C3658124   6.501   5.447  23.590  0.7755  0.7454 -0.4759
    4IDB    C3758125   6.544   5.325  23.650  0.3117  0.5741 -0.4849
    11RH    C3858126   6.172   6.797  22.894  0.6393  0.0123 -0.2572
    4IDB    C3958127   6.635   5.241  23.586 -0.0691  0.1835 -0.5299
    62IDT   C4058128   6.674   5.130  23.666 -0.0912 -0.7066 -0.3111
    72IDQ   C4158129   6.489   5.234  23.766  1.2860 -0.4082  0.4800
    62IDT   C4258130   6.597   5.125  23.781 -0.4694 -0.6247 -0.5584
    72IDQ   C4358131   6.352   5.161  23.714 -0.0406  0.1758 -0.2429
    72IDQ   C4458132   6.455   5.315  23.888 -0.3666 -0.2646 -0.2063
    62IDT    S558133   6.795   4.998  23.661  0.1619 -0.5098  0.3424
    62IDT   C4558134   6.732   4.940  23.822 -0.2787 -0.3178  0.2418
    62IDT   C4658135   6.630   5.018  23.869 -0.5759 -0.4048 -0.2456
    82BTZ   C4758136   6.801   4.832  23.899 -0.3105 -0.2054  0.0949
    82BTZ   C4858137   6.905   4.769  23.835 -0.3582 -0.1856 -0.0005
    82BTZ   C4958138   6.988   4.672  23.901 -0.2736 -0.1646 -0.0753
    82BTZ   C5058139   6.968   4.638  24.032 -0.1416 -0.1634 -0.0544
    82BTZ   C5158140   6.776   4.799  24.037 -0.1730 -0.2052  0.1202
    82BTZ   C5258141   6.861   4.701  24.104 -0.0869 -0.1838  0.0443
    92RH    C5358142   7.050   4.534  24.094 -0.4098 -0.2206 -0.0725
    82BTZ    N458143   6.679   4.854  24.110 -0.1150 -0.2233  0.2108
    82BTZ    N558144   6.832   4.676  24.232  0.0401 -0.1848  0.0739
    82BTZ    S658145   6.692   4.779  24.273  0.0554 -0.2136  0.2018
    92RH    C5458146   7.159   4.464  24.059 -0.2667 -0.0952  0.1187
    92RH     S758147   7.265   4.491  23.912 -0.0358  0.0281  0.3053
    92RH    C5558148   7.212   4.350  24.138 -0.2742 -0.0353  0.2103
    92RH     O258149   7.163   4.307  24.244 -0.4110 -0.0929  0.1235
    92RH     N658150   7.327   4.295  24.079 -0.1037  0.0982  0.4126
    92RH    C5658151   7.373   4.351  23.962  0.0396  0.1527  0.4945
    92RH    C5758152   7.391   4.184  24.152 -0.0725 -0.4186 -0.0855
    92RH    C5858153   7.319   4.052  24.156  0.7930 -0.4535  0.4323
    92RH     S858154   7.508   4.304  23.871  0.2549  0.3083  0.7310
    72IDQ   C5958155   6.408   5.243  24.010  0.9296  0.8619  0.4237
    72IDQ   C6058156   6.439   5.315  24.143  0.2659  0.1595  0.1242
    72IDQ   C6158157   6.392   5.246  24.275 -0.1736 -0.7876 -0.6910
    72IDQ   C6258158   6.457   5.312  24.405 -0.3622  0.7476 -1.6751
    72IDQ   C6358159   6.434   5.231  24.531  0.0177  1.2474 -1.0542
    72IDQ   C6458160   6.503   5.088  24.532  0.4210 -1.1728  0.8335
    72IDQ   C6558161   6.650   5.093  24.555 -0.5333  0.3929  0.9605
    72IDQ   C6658162   6.223   5.226  23.654  0.1208 -0.8739 -0.2178
    72IDQ   C6758163   6.131   5.133  23.590 -0.3532  0.4058 -0.5135
    72IDQ   C6858164   6.208   5.064  23.480  0.5646 -0.3190  0.4639
    72IDQ   C6958165   6.117   4.987  23.384 -0.4802  0.1005 -0.1313
    72IDQ   C7058166   6.007   4.895  23.426 -0.0195  0.9223 -0.3735
    72IDQ   C7158167   5.905   4.908  23.319 -0.3271  1.3642 -0.0559
    72IDQ   C7258168   5.761   4.926  23.370  0.1959  0.0891 -0.4754
    11RH     C158169   6.552   5.831  25.725  0.0033 -0.1540 -0.2313
    11RH     C258170   6.678   5.753  25.721 -0.0521 -0.2428 -0.2642
    11RH     N158171   6.569   5.954  25.792  0.1321 -0.1202 -0.3259
    11RH     S158172   6.811   5.847  25.806  0.0689 -0.2756 -0.4161
    11RH     C358173   6.694   5.984  25.842  0.1868 -0.1707 -0.4296
    11RH     C458174   6.455   6.051  25.796 -0.7328 -0.0387 -0.7201
    11RH     S258175   6.740   6.123  25.926  0.3374 -0.1456 -0.5541
    11RH     O158176   6.444   5.795  25.676 -0.0538 -0.1131 -0.1349
    11RH     C558177   6.689   5.633  25.663 -0.1726 -0.2895 -0.1897
    21BTZ    C658178   6.785   5.525  25.677 -0.0673 -0.0633 -0.0299
    21BTZ    C758179   6.896   5.528  25.757 -0.1122 -0.1163  0.0353
    21BTZ    C858180   6.763   5.410  25.595 -0.0854 -0.0619 -0.0267
    21BTZ    C958181   6.991   5.419  25.760 -0.1765 -0.1704  0.1054
    21BTZ   C1058182   6.974   5.307  25.683 -0.1960 -0.1713  0.1112
    21BTZ   C1158183   6.858   5.299  25.598 -0.1507 -0.1167  0.0453
    21BTZ    N258184   6.658   5.396  25.513 -0.0461 -0.0129 -0.0858
    21BTZ    N358185   6.831   5.196  25.518 -0.1642 -0.1119  0.0434
    21BTZ    S358186   6.678   5.236  25.435 -0.0920 -0.0353 -0.0519
    31IDT   C1258187   7.078   5.212  25.680  0.5682  1.0051  0.1420
    31IDT   C1358188   7.134   5.154  25.570  0.6099  0.9029  0.2170
    31IDT   C1458189   7.251   5.078  25.601  0.1996  0.3524  0.4292
    31IDT   C1558190   7.284   5.077  25.735 -0.1569  0.0325  0.5178
    31IDT    S458191   7.169   5.174  25.833  0.0010  0.4065  0.3376
    4IDB    C1658192   7.405   5.006  25.765  0.0138  0.1865  0.6262
    4IDB    C1758193   7.452   4.955  25.640  0.0148  0.6074  0.4506
    51IDQ   C1858194   7.349   4.984  25.530  0.7197  0.3412 -1.1537
    4IDB    C1958195   7.576   4.893  25.631 -0.1096  0.3796  0.3055
    51IDQ   C2058196   7.418   5.060  25.409 -0.5671  0.0400 -0.9895
    51IDQ   C2158197   7.264   4.872  25.485  0.7807  0.6926  0.7836
    51IDQ   C2258198   7.290   4.731  25.545 -0.7941  0.0147 -0.1165
    51IDQ   C2358199   7.381   5.210  25.363 -1.0316  0.4650  0.1278
    51IDQ   C2458200   7.225   4.623  25.463 -0.4626 -0.0773 -0.0786
    51IDQ   C2558201   7.097   4.552  25.511  0.7470 -0.2907  0.6017
    51IDQ   C2658202   7.123   4.509  25.647 -0.9885  0.2869 -0.1566
    51IDQ   C2758203   7.018   4.398  25.676 -0.5101 -0.2936  1.4129
    51IDQ   C2858204   7.006   4.314  25.801  0.4559 -0.2724 -0.2019
    51IDQ   C2958205   7.011   4.387  25.930 -0.0751 -0.1527  0.3241
    51IDQ   C3058206   7.456   5.324  25.441 -0.1687  0.4167 -0.2157
    51IDQ   C3158207   7.601   5.351  25.432 -0.4584 -0.5011 -0.2593
    51IDQ   C3258208   7.650   5.494  25.479 -0.5671  0.1533 -0.0596
    51IDQ   C3358209   7.604   5.621  25.411  0.0968  0.9847  0.7965
    51IDQ   C3458210   7.694   5.673  25.304 -0.3714  0.1818 -0.0689
    51IDQ   C3558211   7.653   5.798  25.257 -1.0539 -0.6990  1.4297
    4IDB    C3658212   7.483   4.995  25.882 -0.1124 -0.4690  0.6571
    4IDB    C3758213   7.609   4.931  25.870 -0.2384 -0.6931  0.5064
    11RH    C3858214   6.474   6.154  25.695 -0.3594 -0.5722  0.6267
    4IDB    C3958215   7.654   4.882  25.747 -0.2358 -0.2758  0.3355
    62IDT   C4058216   7.781   4.819  25.765  0.2353  0.2896  0.4141
    72IDQ   C4158217   7.707   4.890  25.979 -0.5120 -0.5352  0.1225
    62IDT   C4258218   7.819   4.822  25.898  0.3711  0.1605  0.3777
    72IDQ   C4358219   7.627   4.793  26.074  0.6368  1.0024 -0.2382
    72IDQ   C4458220   7.739   5.009  26.071  0.0826  0.5388  0.0191
    62IDT    S558221   7.905   4.742  25.661 -0.0514  0.0203  0.2698
    62IDT   C4558222   8.007   4.715  25.809  0.0315 -0.2666  0.1626
    62IDT   C4658223   7.947   4.763  25.923  0.2561 -0.1540  0.2356
    82BTZ   C4758224   8.148   4.672  25.788  0.2663  0.1297 -0.1759
    82BTZ   C4858225   8.217   4.701  25.673  0.2046 -0.0254 -0.2522
    82BTZ   C4958226   8.352   4.656  25.653  0.1523 -0.1563 -0.3161
    82BTZ   C5058227   8.419   4.583  25.747  0.1618 -0.1315 -0.3043
    82BTZ   C5158228   8.214   4.595  25.890  0.2787  0.1619 -0.1597
    82BTZ   C5258229   8.352   4.550  25.869  0.2255  0.0290 -0.2246
    92RH    C5358230   8.563   4.543  25.739  0.7553  0.9111  0.7675
    82BTZ    N458231   8.158   4.560  26.006  0.3367  0.3079 -0.0882
    82BTZ    N558232   8.406   4.479  25.968  0.2408  0.0683 -0.2055
    82BTZ    S658233   8.281   4.467  26.096  0.3256  0.2810 -0.1003
    92RH    C5458234   8.661   4.565  25.650  0.5633  0.6324  0.4826
    92RH     S758235   8.655   4.676  25.504  0.1640 -0.0101  0.0002
    92RH    C5558236   8.794   4.499  25.658  0.6488  0.8093  0.5159
    92RH     O258237   8.830   4.419  25.745  0.9030  1.2277  0.8068
    92RH     N658238   8.878   4.540  25.552  0.4021  0.4386  0.1719
    92RH    C5658239   8.828   4.630  25.460  0.1294 -0.0138 -0.1335
    92RH    C5758240   9.015   4.484  25.546 -0.2041  0.0346 -0.0552
    92RH    C5858241   9.134   4.576  25.567  0.3924 -0.1353  0.3324
    92RH     S858242   8.907   4.695  25.326 -0.1970 -0.5141 -0.5717
    72IDQ   C5958243   7.819   5.127  26.028 -0.2021 -0.0699  0.5179
    72IDQ   C6058244   7.872   5.227  26.126 -0.8059 -0.2061  0.1327
    72IDQ   C6158245   7.792   5.337  26.199 -0.2629 -0.0755  0.7239
    72IDQ   C6258246   7.660   5.306  26.262  0.8075  0.1450 -0.1222
    72IDQ   C6358247   7.586   5.431  26.327 -0.5000 -0.0550  0.4044
    72IDQ   C6458248   7.460   5.476  26.268  0.2630  0.4619  0.6481
    72IDQ   C6558249   7.332   5.396  26.265  0.8868  0.1031  0.0664
    72IDQ   C6658250   7.647   4.640  26.055 -0.4349  0.6639  1.1655
    72IDQ   C6758251   7.581   4.546  26.155  0.3387 -0.4215 -0.5076
    72IDQ   C6858252   7.629   4.412  26.159 -0.2572  0.5638  0.3073
    72IDQ   C6958253   7.514   4.313  26.124  0.5974  0.3406  0.3241
    72IDQ   C7058254   7.489   4.319  25.972  1.0955  0.2545 -0.8543
    72IDQ   C7158255   7.356   4.256  25.922 -0.2979 -1.0587  0.3196
    72IDQ   C7258256   7.303   4.120  25.959  0.3453 -0.3859 -0.1712
    11RH     C158257   7.169   3.034  17.023  0.0387  0.1141 -0.3581
    11RH     C258258   7.092   3.048  17.149  0.1539  0.0166 -0.2770
    11RH     N158259   7.103   2.951  16.931 -0.0050  0.1175 -0.3299
    11RH     S158260   6.938   2.950  17.138  0.1974 -0.0642 -0.1685
    11RH     C358261   6.982   2.896  16.967  0.0612  0.0347 -0.2360
    11RH     C458262   7.162   2.916  16.796 -0.5811  0.9601 -0.6765
    11RH     S258263   6.883   2.793  16.877  0.0292  0.0197 -0.1841
    11RH     O158264   7.278   3.088  16.999 -0.0145  0.1849 -0.4416
    11RH     C558265   7.133   3.122  17.253  0.2146 -0.0061 -0.2842
    21BTZ    C658266   7.074   3.155  17.382 -0.1531 -0.1576  0.1606
    21BTZ    C758267   6.956   3.100  17.424 -0.2147 -0.0485  0.1321
    21BTZ    C858268   7.138   3.252  17.465 -0.1810 -0.0774  0.0896
    21BTZ    C958269   6.896   3.137  17.550 -0.3064  0.1437  0.0334
    21BTZ   C1058270   6.954   3.229  17.633 -0.3360  0.2265 -0.0370
    21BTZ   C1158271   7.077   3.289  17.593 -0.2741  0.1179 -0.0110
    21BTZ    N258272   7.253   3.312  17.435 -0.1271 -0.1695  0.1092
    21BTZ    N358273   7.144   3.380  17.666 -0.2950  0.1829 -0.0725
    21BTZ    S358274   7.290   3.422  17.572 -0.1946 -0.0070 -0.0035
    31IDT   C1258275   6.884   3.262  17.751 -0.4497 -0.0485 -0.2345
    31IDT   C1358276   6.882   3.386  17.810 -0.1327  0.1503 -0.6318
    31IDT   C1458277   6.778   3.400  17.908  0.1687  0.5898 -0.3662
    31IDT   C1558278   6.701   3.286  17.924  0.0840  0.7287  0.2344
    31IDT    S458279   6.754   3.153  17.816 -0.3887  0.3097  0.5123
    4IDB    C1658280   6.586   3.308  18.015 -0.6187 -0.4711  0.3437
    4IDB    C1758281   6.605   3.438  18.070 -0.4365 -0.2927 -0.1287
    51IDQ   C1858282   6.733   3.502  18.011  0.3305 -0.3100 -0.3711
    4IDB    C1958283   6.514   3.490  18.162 -0.2733  0.1009 -0.1897
    51IDQ   C2058284   6.678   3.641  17.952  0.5743  0.0954 -0.2937
    51IDQ   C2158285   6.856   3.528  18.104 -0.2426  0.0985 -0.6886
    51IDQ   C2258286   6.857   3.516  18.263 -0.1608  0.6474  0.1715
    51IDQ   C2358287   6.653   3.687  17.818 -0.8503 -0.6815 -0.1196
    51IDQ   C2458288   6.990   3.564  18.311  0.7108  0.6770  0.2190
    51IDQ   C2558289   7.006   3.552  18.462  1.0620  0.0333  0.9675
    51IDQ   C2658290   6.926   3.648  18.542  0.3379  0.8716 -0.8109
    51IDQ   C2758291   6.982   3.636  18.689  0.2337  0.1666 -0.8723
    51IDQ   C2858292   6.913   3.742  18.774 -0.5934  0.8828 -0.5542
    51IDQ   C2958293   6.932   3.736  18.931  1.0675  0.5439 -0.3642
    51IDQ   C3058294   6.547   3.623  17.728 -0.0797  0.6356  0.2866
    51IDQ   C3158295   6.404   3.662  17.758 -0.4465 -0.2246 -0.1266
    51IDQ   C3258296   6.293   3.597  17.664  0.3614  0.5505  1.0876
    51IDQ   C3358297   6.300   3.444  17.687  0.2810 -0.1856 -0.2430
    51IDQ   C3458298   6.180   3.378  17.645 -1.0056  1.6687 -0.3920
    51IDQ   C3558299   6.182   3.236  17.711  0.2571 -0.2988  0.7835
    4IDB    C3658300   6.476   3.228  18.052 -0.6382 -0.2552  0.7625
    4IDB    C3758301   6.385   3.284  18.146 -0.4696  0.1468  0.6938
    11RH    C3858302   7.156   3.007  16.686  0.0573 -1.2029 -0.0694
    4IDB    C3958303   6.405   3.411  18.198 -0.2927  0.3169  0.2297
    62IDT   C4058304   6.293   3.452  18.273  0.0113 -0.3087  0.2919
    72IDQ   C4158305   6.263   3.220  18.216 -0.2208 -0.3976 -0.8219
    62IDT   C4258306   6.206   3.345  18.289  0.0005 -0.2772  0.4449
    72IDQ   C4358307   6.302   3.107  18.327 -1.1662  0.3643 -0.2460
    72IDQ   C4458308   6.179   3.131  18.123  0.0723  0.0958  0.6109
    62IDT    S558309   6.224   3.605  18.338 -0.1690 -0.1100 -0.3536
    62IDT   C4558310   6.075   3.512  18.386 -0.2539  0.0109 -0.3838
    62IDT   C4658311   6.083   3.380  18.353 -0.1495 -0.0965  0.0629
    82BTZ   C4758312   5.980   3.567  18.479  0.0231 -0.3770 -0.0022
    82BTZ   C4858313   6.017   3.687  18.535  0.1900 -0.4027 -0.0572
    82BTZ   C4958314   5.922   3.772  18.602  0.3438 -0.3221  0.0596
    82BTZ   C5058315   5.790   3.737  18.613  0.3303 -0.2159  0.2305
    82BTZ   C5158316   5.842   3.526  18.489  0.0021 -0.2670  0.1764
    82BTZ   C5258317   5.746   3.613  18.557  0.1585 -0.1850  0.2947
    92RH    C5358318   5.698   3.800  18.705  0.0797  0.0999  0.1298
    82BTZ    N458319   5.794   3.412  18.439 -0.1532 -0.2321  0.2451
    82BTZ    N558320   5.620   3.569  18.562  0.1287 -0.0842  0.4587
    82BTZ    S658321   5.620   3.411  18.477 -0.1052 -0.0899  0.4696
    92RH    C5458322   5.715   3.903  18.789  0.2086  0.1448  0.0510
    92RH     S758323   5.866   4.005  18.810  0.4687 -0.2738  0.2426
    92RH    C5558324   5.609   3.951  18.882  0.1578  0.5559 -0.2151
    92RH     O258325   5.495   3.903  18.892 -0.0064  0.9004 -0.3920
    92RH     N658326   5.654   4.060  18.959  0.3218  0.5110 -0.2460
    92RH    C5658327   5.783   4.106  18.940  0.4979  0.1143 -0.0367
    92RH    C5758328   5.563   4.120  19.051  0.1887  0.1277 -0.8818
    92RH    C5858329   5.552   4.064  19.192 -0.3069 -0.0216 -0.2529
    92RH     S858330   5.860   4.234  19.018  0.7137 -0.0238 -0.0219
    72IDQ   C5958331   6.032   3.171  18.102 -0.8017 -1.3056  0.5210
    72IDQ   C6058332   5.952   3.044  18.096  0.5647 -0.3091  0.1459
    72IDQ   C6158333   5.857   3.024  18.220  0.5169 -0.0875  1.0470
    72IDQ   C6258334   5.747   2.918  18.217  0.5069  0.3154 -0.8840
    72IDQ   C6358335   5.754   2.805  18.319  0.3696  0.0230  0.0652
    72IDQ   C6458336   5.744   2.830  18.473 -1.0211  0.2007 -0.1118
    72IDQ   C6558337   5.742   2.719  18.579  0.6784  0.0533  0.4228
    72IDQ   C6658338   6.409   3.116  18.438  0.2627 -0.9902 -0.6958
    72IDQ   C6758339   6.425   2.982  18.504  0.5346 -0.7072 -0.2954
    72IDQ   C6858340   6.540   2.959  18.606  0.0787 -0.5056  0.0159
    72IDQ   C6958341   6.543   2.821  18.675  0.0206 -0.5249  0.9574
    72IDQ   C7058342   6.682   2.773  18.720  0.6879 -0.1984  1.2294
    72IDQ   C7158343   6.675   2.635  18.780  0.2410 -0.9688 -0.9605
    72IDQ   C7258344   6.783   2.639  18.882  0.0179 -0.1351  0.6411
    11RH     C158345   4.608   6.234  23.320 -0.1827  0.1082  0.1631
    11RH     C258346   4.664   6.332  23.224 -0.1022  0.0606  0.1621
    11RH     N158347   4.644   6.102  23.288 -0.0058  0.1073  0.3631
    11RH     S158348   4.762   6.243  23.097  0.2007  0.0175  0.4236
    11RH     C358349   4.724   6.082  23.177  0.2065  0.0647  0.5217
    11RH     C458350   4.588   5.991  23.363 -0.5015  0.3174 -0.6168
    11RH     S258351   4.781   5.935  23.117  0.4444  0.0540  0.7715
    11RH     O158352   4.536   6.263  23.418 -0.3793  0.1451  0.0114
    11RH     C558353   4.645   6.464  23.232 -0.2360  0.0517 -0.0075
    21BTZ    C658354   4.701   6.573  23.151  0.3388  0.1562 -0.1251
    21BTZ    C758355   4.779   6.563  23.039  0.2326  0.1922 -0.2017
    21BTZ    C858356   4.668   6.703  23.201  0.3637  0.1405 -0.0668
    21BTZ    C958357   4.827   6.679  22.970  0.1462  0.2145 -0.2241
    21BTZ   C1058358   4.798   6.806  23.013  0.1660  0.2007 -0.1706
    21BTZ   C1158359   4.717   6.822  23.130  0.2760  0.1632 -0.0896
    21BTZ    N258360   4.593   6.726  23.309  0.4638  0.1060  0.0095
    21BTZ    N358361   4.682   6.940  23.182  0.3055  0.1467 -0.0324
    21BTZ    S358362   4.583   6.904  23.326  0.4498  0.1008  0.0564
    31IDT   C1258363   4.876   6.916  22.953 -0.2948  0.0997  0.1202
    31IDT   C1358364   4.954   7.009  23.017 -0.2865  0.0318  0.2089
    31IDT   C1458365   5.030   7.089  22.927  0.1278 -0.2457  0.3071
    31IDT   C1558366   5.011   7.059  22.794  0.4371 -0.3910  0.2959
    31IDT    S458367   4.894   6.924  22.772  0.2259 -0.1857  0.1568
    4IDB    C1658368   5.101   7.132  22.707  0.4017 -0.0040 -0.8518
    4IDB    C1758369   5.186   7.210  22.792  0.6227 -0.5581 -0.5493
    51IDQ   C1858370   5.138   7.196  22.939  1.1698  0.0416 -0.2493
    4IDB    C1958371   5.280   7.298  22.738  0.4321 -0.1458 -0.2243
    51IDQ   C2058372   5.270   7.155  23.005 -0.2981 -0.4355  0.0235
    51IDQ   C2158373   5.061   7.319  23.020  0.4056  1.2933  0.1302
    51IDQ   C2258374   5.071   7.447  22.953  0.7098 -0.4023 -0.2833
    51IDQ   C2358375   5.302   7.027  23.077 -0.5750  0.5610  0.0227
    51IDQ   C2458376   5.004   7.559  23.025  0.4268  0.5747 -0.8104
    51IDQ   C2558377   5.029   7.693  22.951 -0.8547 -0.5077 -0.1660
    51IDQ   C2658378   5.137   7.786  23.001 -0.1175 -0.3300 -0.8891
    51IDQ   C2758379   5.177   7.888  22.900  0.0414 -0.9395 -0.3079
    51IDQ   C2858380   5.092   8.017  22.880  0.2343  0.2126 -0.4962
    51IDQ   C2958381   4.937   8.011  22.896 -0.3177 -1.1281 -0.3252
    51IDQ   C3058382   5.297   6.909  22.977 -0.0027 -0.4663 -0.2664
    51IDQ   C3158383   5.368   6.778  23.000  0.2591 -0.1663 -0.3570
    51IDQ   C3258384   5.330   6.715  23.135 -0.8359  0.2913 -0.4946
    51IDQ   C3358385   5.398   6.580  23.159  0.4242  0.2720  0.0812
    51IDQ   C3458386   5.548   6.553  23.132  0.6389 -0.1511 -0.4430
    51IDQ   C3558387   5.632   6.644  23.227  0.2249 -0.6154 -0.4224
    4IDB    C3658388   5.110   7.141  22.568 -0.0138  0.9719 -0.8307
    4IDB    C3758389   5.206   7.231  22.514 -0.2036  1.3810 -0.4964
    11RH    C3858390   4.664   5.961  23.500  1.5843 -0.6467  0.4354
    4IDB    C3958391   5.288   7.307  22.598  0.0167  0.8301 -0.2040
    62IDT   C4058392   5.378   7.394  22.522  0.8651 -0.2665  0.3614
    72IDQ   C4158393   5.247   7.258  22.374 -0.1152 -0.1227 -0.0200
    62IDT   C4258394   5.371   7.355  22.390  1.3233 -0.7770  0.4811
    72IDQ   C4358395   5.137   7.320  22.286 -0.0562 -0.3978  0.2508
    72IDQ   C4458396   5.331   7.146  22.301 -0.2025 -0.1902 -0.7085
    62IDT    S558397   5.491   7.531  22.546 -0.0098  0.5272  0.0842
    62IDT   C4558398   5.525   7.528  22.367  0.3058  0.1065  0.1479
    62IDT   C4658399   5.454   7.431  22.302  1.0080 -0.5669  0.3605
    82BTZ   C4758400   5.618   7.627  22.307  0.2988  0.1999  0.1602
    82BTZ   C4858401   5.696   7.701  22.392  0.4565  0.1277  0.0782
    82BTZ   C4958402   5.801   7.787  22.343  0.4120  0.1158 -0.0386
    82BTZ   C5058403   5.827   7.799  22.209  0.2100  0.1762 -0.0733
    82BTZ   C5158404   5.642   7.637  22.166  0.0848  0.2650  0.1278
    82BTZ   C5258405   5.748   7.724  22.116  0.0397  0.2530  0.0091
    92RH    C5358406   5.929   7.883  22.153 -0.1204  0.1389  0.6683
    82BTZ    N458407   5.572   7.570  22.073 -0.0821  0.3381  0.1993
    82BTZ    N558408   5.764   7.728  21.984 -0.1636  0.3164 -0.0148
    82BTZ    S658409   5.642   7.617  21.915 -0.3086  0.3958  0.1170
    92RH    C5458410   6.030   7.959  22.195 -0.0740  0.2683  0.3357
    92RH     S758411   6.086   7.980  22.369  0.4113  0.4151  0.1642
    92RH    C5558412   6.114   8.041  22.105 -0.4220  0.3134  0.0458
    92RH     O258413   6.102   8.049  21.982 -0.7905  0.2386  0.0758
    92RH     N658414   6.213   8.112  22.177 -0.2846  0.4552 -0.2775
    92RH    C5658415   6.218   8.096  22.314  0.1311  0.5291 -0.2823
    92RH    C5758416   6.314   8.198  22.119 -0.2059 -0.1743  0.8848
    92RH    C5858417   6.424   8.117  22.047 -0.7861 -0.4487  0.2795
    92RH     S858418   6.326   8.168  22.423  0.3729  0.6979 -0.6304
    72IDQ   C5958419   5.374   7.016  22.374  0.2115 -0.2403 -0.1116
    72IDQ   C6058420   5.493   6.955  22.306 -0.1358  0.7303 -0.2856
    72IDQ   C6158421   5.587   6.854  22.376 -0.7771 -0.1397  0.2592
    72IDQ   C6258422   5.626   6.919  22.505 -0.0233  1.2236 -0.3424
    72IDQ   C6358423   5.744   6.841  22.582  0.4635  0.5349 -0.1279
    72IDQ   C6458424   5.851   6.912  22.666  0.1734 -0.2860  0.0727
    72IDQ   C6558425   5.790   6.971  22.789 -0.5545  0.3598  0.2797
    72IDQ   C6658426   5.086   7.462  22.305 -0.0521 -0.0888 -0.4493
    72IDQ   C6758427   4.995   7.493  22.424 -0.1280  0.0668  0.1129
    72IDQ   C6858428   4.943   7.638  22.436  0.1354  0.5904  0.2358
    72IDQ   C6958429   4.892   7.712  22.323 -0.8262 -1.1163  0.1790
    72IDQ   C7058430   4.834   7.853  22.362  0.4157  0.3913 -0.5827
    72IDQ   C7158431   4.900   7.943  22.470  0.5701 -0.0372  0.1714
    72IDQ   C7258432   4.845   8.078  22.440  0.7377 -1.0489 -1.1142
    11RH     C158433   2.823   6.458  19.409  0.0786 -0.0505  0.2546
    11RH     C258434   2.770   6.451  19.547 -0.1271 -0.0266  0.1783
    11RH     N158435   2.798   6.584  19.350  0.0691 -0.0978  0.1570
    11RH     S158436   2.690   6.610  19.591 -0.3196 -0.0678 -0.0182
    11RH     C358437   2.731   6.678  19.425 -0.1191 -0.1147  0.0105
    11RH     C458438   2.840   6.610  19.207  0.1856 -0.1258 -0.0724
    11RH     S258439   2.688   6.835  19.379 -0.1719 -0.1693 -0.1283
    11RH     O158440   2.883   6.367  19.349  0.2410 -0.0322  0.3881
    11RH     C558441   2.781   6.342  19.625 -0.1607  0.0186  0.2459
    21BTZ    C658442   2.730   6.319  19.758 -0.0342  0.0290 -0.5131
    21BTZ    C758443   2.664   6.413  19.833  0.1582  0.0994 -0.4301
    21BTZ    C858444   2.736   6.184  19.808 -0.1335  0.0176 -0.5312
    21BTZ    C958445   2.601   6.380  19.958  0.2622  0.1616 -0.3614
    21BTZ   C1058446   2.604   6.253  20.009  0.1736  0.1537 -0.3767
    21BTZ   C1158447   2.672   6.151  19.935 -0.0277  0.0811 -0.4616
    21BTZ    N258448   2.797   6.084  19.745 -0.3205 -0.0480 -0.6094
    21BTZ    N358449   2.682   6.024  19.975 -0.1298  0.0663 -0.4835
    21BTZ    S358450   2.775   5.939  19.848 -0.3704 -0.0314 -0.5967
    31IDT   C1258451   2.523   6.235  20.136  0.0887  0.4112 -0.0811
    31IDT   C1358452   2.494   6.120  20.204  0.4238  0.2583 -0.1879
    31IDT   C1458453   2.395   6.140  20.306  0.4471 -0.1006 -0.0925
    31IDT   C1558454   2.349   6.270  20.315  0.1306 -0.2234  0.0863
    31IDT    S458455   2.428   6.378  20.195 -0.2248  0.1092  0.1493
    4IDB    C1658456   2.254   6.284  20.423  0.0387  0.7077  0.2917
    4IDB    C1758457   2.247   6.165  20.502  0.7468  0.8388  0.5679
    51IDQ   C1858458   2.330   6.057  20.425 -0.7349  0.6262  0.0682
    4IDB    C1958459   2.177   6.163  20.622  0.3559  0.5818  0.3405
    51IDQ   C2058460   2.426   5.983  20.515 -0.6801 -0.1480 -0.3063
    51IDQ   C2158461   2.257   5.935  20.369  0.5723 -0.1022  0.2771
    51IDQ   C2258462   2.102   5.917  20.405  0.2439  0.3692  0.3458
    51IDQ   C2358463   2.576   5.966  20.490  0.6959  0.8521 -0.2921
    51IDQ   C2458464   2.047   5.796  20.319  0.5164 -0.3171 -0.0528
    51IDQ   C2558465   2.020   5.800  20.164 -0.2455  1.1710 -0.5701
    51IDQ   C2658466   2.076   5.904  20.072 -0.9520 -0.4521 -1.4851
    51IDQ   C2758467   2.091   5.852  19.930  0.8819 -0.2672 -0.8040
    51IDQ   C2858468   1.965   5.798  19.846 -0.4974  0.3117  1.0268
    51IDQ   C2958469   1.867   5.912  19.802 -0.7582  0.6176 -0.3038
    51IDQ   C3058470   2.635   5.877  20.594 -0.8085  0.4760 -0.4867
    51IDQ   C3158471   2.792   5.872  20.578  1.2865  0.4983 -0.1616
    51IDQ   C3258472   2.857   5.754  20.505 -0.2932  0.1624 -0.1805
    51IDQ   C3358473   3.005   5.738  20.534  0.7977  0.9239  0.6411
    51IDQ   C3458474   3.087   5.857  20.471  0.4727  1.3831  0.6651
    51IDQ   C3558475   3.226   5.850  20.524 -0.9949  0.5723 -0.3256
    4IDB    C3658476   2.191   6.402  20.464 -1.0717  0.3161 -0.2165
    4IDB    C3758477   2.119   6.398  20.587 -1.4567  0.0577 -0.4430
    11RH    C3858478   2.977   6.679  19.195  0.0308 -0.3305 -0.4121
    4IDB    C3958479   2.113   6.282  20.663 -0.7545  0.1904 -0.1679
    62IDT   C4058480   2.050   6.315  20.780 -0.0466  0.2268 -0.3273
    72IDQ   C4158481   2.050   6.514  20.664 -0.4929 -0.2116 -0.7831
    62IDT   C4258482   2.015   6.447  20.795  0.0784  0.2583 -0.3080
    72IDQ   C4358483   1.917   6.569  20.591 -0.4848 -0.1542 -0.2471
    72IDQ   C4458484   2.162   6.625  20.726  0.2731  0.2591 -0.8431
    62IDT    S558485   2.011   6.218  20.926 -0.2420  0.2195 -0.3841
    62IDT   C4558486   1.946   6.369  21.003 -0.1393  0.2616 -0.3786
    62IDT   C4658487   1.956   6.478  20.921  0.0263  0.2780 -0.3381
    82BTZ   C4758488   1.910   6.371  21.146  0.4093 -0.1025  0.2027
    82BTZ   C4858489   1.970   6.280  21.229  0.2397 -0.0600  0.3743
    82BTZ   C4958490   1.936   6.270  21.369 -0.0703 -0.0094  0.3033
    82BTZ   C5058491   1.841   6.351  21.425 -0.2103 -0.0012  0.0604
    82BTZ   C5158492   1.810   6.458  21.201  0.2728 -0.0960 -0.0539
    82BTZ   C5258493   1.775   6.448  21.343 -0.0422 -0.0446 -0.1264
    92RH    C5358494   1.830   6.334  21.573 -0.2021  0.0433 -0.1118
    82BTZ    N458495   1.744   6.550  21.130  0.4148 -0.1343 -0.2384
    82BTZ    N558496   1.681   6.532  21.386 -0.1536 -0.0416 -0.3691
    82BTZ    S658497   1.632   6.630  21.245  0.1458 -0.1058 -0.5181
    92RH    C5458498   1.877   6.245  21.661 -0.2011  0.0622 -0.0939
    92RH     S758499   1.985   6.101  21.625 -0.0855  0.1362 -0.0433
    92RH    C5558500   1.847   6.250  21.806 -0.2973  0.0247 -0.1116
    92RH     O258501   1.777   6.336  21.863 -0.3883 -0.0278 -0.1454
    92RH     N658502   1.910   6.144  21.876 -0.2733  0.0560 -0.0853
    92RH    C5658503   1.986   6.055  21.804 -0.1697  0.1140 -0.0486
    92RH    C5758504   1.902   6.135  22.022 -0.4523  1.2104  0.3951
    92RH    C5858505   1.798   6.034  22.091 -0.4010 -1.1189  0.4943
    92RH     S858506   2.070   5.921  21.862 -0.1205  0.1607 -0.0119
    72IDQ   C5958507   2.150   6.773  20.741 -0.7582  0.8363 -0.1572
    72IDQ   C6058508   2.258   6.833  20.828 -0.3632  0.1807 -1.0326
    72IDQ   C6158509   2.299   6.796  20.974 -0.0062 -0.6257 -0.1847
    72IDQ   C6258510   2.183   6.820  21.075  0.8706  0.2953  0.6298
    72IDQ   C6358511   2.191   6.836  21.230 -0.4904  1.5061  0.9215
    72IDQ   C6458512   2.320   6.774  21.287  0.4620 -0.7216  0.1819
    72IDQ   C6558513   2.330   6.806  21.439 -0.3395  0.6244 -0.2623
    72IDQ   C6658514   1.911   6.687  20.492 -0.0974  0.3468  0.4657
    72IDQ   C6758515   1.780   6.662  20.407  0.2619  0.8207  0.3775
    72IDQ   C6858516   1.781   6.761  20.302 -0.7882 -0.1146  0.2545
    72IDQ   C6958517   1.660   6.742  20.215  1.0070 -0.0483  0.0010
    72IDQ   C7058518   1.622   6.881  20.139 -0.4510  0.7432 -0.2882
    72IDQ   C7158519   1.643   7.014  20.216  1.1577  0.4287  0.4538
    72IDQ   C7258520   1.535   7.033  20.317 -0.4061 -0.1894  0.6603
    11RH     C158521   2.518   3.405   8.633 -0.1145 -0.2633 -0.4103
    11RH     C258522   2.432   3.483   8.541 -0.1323  0.0442 -0.1385
    11RH     N158523   2.629   3.481   8.677 -0.0377 -0.4506 -0.2769
    11RH     S158524   2.502   3.651   8.518 -0.0470  0.0671  0.2748
    11RH     C358525   2.642   3.611   8.631  0.0082 -0.3307  0.0687
    11RH     C458526   2.729   3.417   8.765 -0.0494 -0.5405 -0.7879
    11RH     S258527   2.763   3.722   8.668  0.1010 -0.5045  0.2899
    11RH     O158528   2.498   3.288   8.669 -0.1601 -0.3513 -0.7181
    11RH     C558529   2.321   3.434   8.484 -0.2011  0.2653 -0.1967
    21BTZ    C658530   2.223   3.474   8.379  0.2415 -0.3964 -0.1038
    21BTZ    C758531   2.238   3.588   8.305  0.2589 -0.3228  0.0131
    21BTZ    C858532   2.106   3.394   8.359  0.1296 -0.2495 -0.0389
    21BTZ    C958533   2.140   3.630   8.208  0.1681 -0.1026  0.1984
    21BTZ   C1058534   2.026   3.557   8.185  0.0600  0.0437  0.2664
    21BTZ   C1158535   2.006   3.436   8.260  0.0373 -0.0256  0.1493
    21BTZ    N258536   2.080   3.281   8.424  0.1020 -0.3020 -0.1400
    21BTZ    N358537   1.899   3.356   8.247 -0.0645  0.1018  0.1998
    21BTZ    S358538   1.923   3.222   8.362 -0.0462 -0.0626  0.0044
    31IDT   C1258539   1.927   3.606   8.085  0.0276 -0.1273 -0.1891
    31IDT   C1358540   1.818   3.542   8.032 -0.2500 -0.0681  0.3006
    31IDT   C1458541   1.738   3.627   7.950 -0.5045 -0.0598  0.5534
    31IDT   C1558542   1.786   3.756   7.939 -0.4229 -0.1124  0.2586
    31IDT    S458543   1.937   3.780   8.034 -0.0137 -0.1773 -0.3680
    4IDB    C1658544   1.695   3.832   7.858  0.3220 -1.1268 -0.5700
    4IDB    C1758545   1.592   3.746   7.807  0.0356 -0.7799 -0.5903
    51IDQ   C1858546   1.611   3.604   7.862  0.3887 -0.1142 -1.6366
    4IDB    C1958547   1.491   3.795   7.725 -0.1174 -0.3199 -0.1354
    51IDQ   C2058548   1.485   3.581   7.952 -0.8409  0.3654  0.4622
    51IDQ   C2158549   1.641   3.487   7.755  0.2387 -0.0551 -0.3028
    51IDQ   C2258550   1.676   3.516   7.611 -0.1663 -0.1387  1.3084
    51IDQ   C2358551   1.491   3.527   8.096  0.2207 -0.3897 -0.2032
    51IDQ   C2458552   1.692   3.383   7.532  0.1988 -0.0474  1.0458
    51IDQ   C2558553   1.653   3.385   7.385  1.0316  0.4042  0.1645
    51IDQ   C2658554   1.519   3.468   7.351  0.7157 -0.2430  0.0078
    51IDQ   C2758555   1.392   3.401   7.407 -0.4039 -0.1072 -0.2034
    51IDQ   C2858556   1.286   3.498   7.413  0.6696 -0.2624  0.0797
    51IDQ   C2958557   1.171   3.433   7.499 -0.2276  0.3147  0.4583
    51IDQ   C3058558   1.367   3.541   8.180  0.2580 -0.4815  0.2225
    51IDQ   C3158559   1.302   3.673   8.213  1.1446  0.0178 -0.2065
    51IDQ   C3258560   1.175   3.695   8.293  0.1675 -0.3100 -0.5729
    51IDQ   C3358561   1.036   3.627   8.255 -1.2431 -0.0246 -0.0016
    51IDQ   C3458562   0.915   3.627   8.355  0.2053 -0.4370  1.2633
    51IDQ   C3558563   0.811   3.522   8.320  0.3265 -0.2369  0.1296
    4IDB    C3658564   1.696   3.969   7.826  0.4577 -1.0146 -0.0911
    4IDB    C3758565   1.592   4.018   7.742  0.2980 -0.5426  0.3698
    11RH    C3858566   2.692   3.419   8.915  0.3856 -1.2503 -0.1624
    4IDB    C3958567   1.493   3.932   7.694  0.0183 -0.2077  0.3433
    62IDT   C4058568   1.397   4.014   7.617 -0.5171  0.1284  0.0112
    72IDQ   C4158569   1.570   4.162   7.683  0.2056 -0.0751  0.1625
    62IDT   C4258570   1.437   4.145   7.605 -0.3931  0.0726 -0.1930
    72IDQ   C4358571   1.686   4.227   7.585  0.1235  0.0413  0.0966
    72IDQ   C4458572   1.524   4.254   7.793  0.9679  0.0222 -0.5383
    62IDT    S558573   1.243   3.982   7.531 -0.4868  0.1141 -0.0382
    62IDT   C4558574   1.240   4.157   7.481 -0.2990  0.0291 -0.3474
    62IDT   C4658575   1.348   4.226   7.528 -0.2697  0.0165 -0.3960
    82BTZ   C4758576   1.133   4.229   7.409  0.2628 -0.1809  0.0481
    82BTZ   C4858577   1.004   4.202   7.445  0.2798 -0.4227 -0.0734
    82BTZ   C4958578   0.892   4.266   7.380  0.2167 -0.6733 -0.2174
    82BTZ   C5058579   0.911   4.358   7.280  0.1369 -0.6814 -0.2396
    82BTZ   C5158580   1.158   4.325   7.305  0.1802 -0.1787  0.0306
    82BTZ   C5258581   1.044   4.390   7.239  0.1161 -0.4333 -0.1156
    92RH    C5358582   0.797   4.422   7.218  0.1632  0.3441  0.5847
    82BTZ    N458583   1.279   4.360   7.262  0.1561  0.0441  0.1405
    82BTZ    N558584   1.075   4.478   7.143  0.0405 -0.4152 -0.1233
    82BTZ    S658585   1.253   4.481   7.133  0.0482 -0.0646  0.0600
    92RH    C5458586   0.666   4.421   7.245  0.1182  0.1694  0.3684
    92RH     S758587   0.582   4.331   7.381 -0.0137 -0.1071  0.1070
    92RH    C5558588   0.565   4.496   7.166  0.1706  0.1740  0.3060
    92RH     O258589   0.589   4.567   7.067  0.2605  0.3365  0.4437
    92RH     N658590   0.435   4.477   7.217  0.1051 -0.0331  0.0659
    92RH    C5658591   0.419   4.396   7.327  0.0067 -0.2031 -0.0720
    92RH    C5758592   0.316   4.568   7.166 -0.5188  0.2826  0.1508
    92RH    C5858593   0.283   4.697   7.234 -0.1604 -0.2169 -0.3499
    92RH     S858594   0.275   4.358   7.407 -0.0859 -0.4637 -0.3608
    72IDQ   C5958595   1.617   4.368   7.847  0.0109 -0.9978 -0.2862
    72IDQ   C6058596   1.633   4.399   7.995 -0.3415  0.4586 -0.2235
    72IDQ   C6158597   1.706   4.528   8.026  0.4978 -0.7060 -0.2503
    72IDQ   C6258598   1.703   4.582   8.171 -1.1071 -0.6425 -0.1924
    72IDQ   C6358599   1.770   4.512   8.286  0.8091  0.5991  0.0898
    72IDQ   C6458600   1.801   4.584   8.419 -0.5380  0.3695  0.5253
    72IDQ   C6558601   1.926   4.521   8.477 -0.0890 -0.0997  0.4290
    72IDQ   C6658602   1.735   4.151   7.462  0.1093 -0.2805 -0.2701
    72IDQ   C6758603   1.880   4.204   7.432  0.6057 -0.3724  0.1358
    72IDQ   C6858604   1.954   4.122   7.324  0.0654  0.2976 -0.6932
    72IDQ   C6958605   2.105   4.138   7.309 -1.1130  0.1021  1.1190
    72IDQ   C7058606   2.173   4.279   7.284  0.6176  0.2688  0.0640
    72IDQ   C7158607   2.318   4.285   7.266 -0.7700  0.4041  0.4721
    72IDQ   C7258608   2.408   4.233   7.378  0.0742  0.2053 -0.1996
    11RH     C158609   1.373   0.128   2.673  0.0006 -0.1239  0.0890
    11RH     C258610   1.238   0.127   2.734  0.1148  0.0082  0.3508
    11RH     N158611   1.458   0.220   2.739  0.2109 -0.1902 -0.0883
    11RH     S158612   1.231   0.246   2.873  0.4913  0.0366  0.3467
    11RH     C358613   1.407   0.292   2.845  0.4796 -0.1274 -0.0007
    11RH     C458614   1.596   0.250   2.690 -0.9086  0.5264  1.1218
    11RH     S258615   1.487   0.407   2.939  0.7661 -0.1843 -0.1711
    11RH     O158616   1.410   0.058   2.577 -0.2472 -0.1726  0.0280
    11RH     C558617   1.138   0.049   2.690 -0.0405  0.0912  0.5543
    21BTZ    C658618   0.997   0.033   2.729  0.0011 -0.0782  0.2139
    21BTZ    C758619   0.943   0.087   2.842 -0.1154 -0.1298  0.1830
    21BTZ    C858620   0.909  -0.017   2.627  0.1059 -0.1127  0.1393
    21BTZ    C958621   0.800   0.094   2.862 -0.1347 -0.2172  0.0780
    21BTZ   C1058622   0.712   0.048   2.768 -0.0375 -0.2530  0.0042
    21BTZ   C1158623   0.764  -0.010   2.647  0.0863 -0.2016  0.0326
    21BTZ    N258624   0.949  -0.072   2.513  0.2238 -0.0688  0.1600
    21BTZ    N358625   0.688  -0.059   2.549  0.1884 -0.2291 -0.0324
    21BTZ    S358626   0.801  -0.117   2.423  0.3166 -0.1407  0.0415
    31IDT   C1258627   0.561   0.049   2.808 -0.1794 -1.0585  0.3046
    31IDT   C1358628   0.505   0.008   2.926 -0.4692 -1.7359 -0.0504
    31IDT   C1458629   0.362   0.016   2.926 -0.4582 -1.5056 -0.2787
    31IDT   C1558630   0.309   0.061   2.807 -0.1608 -0.6533 -0.0994
    31IDT    S458631   0.436   0.099   2.686  0.1312 -0.0709  0.3766
    4IDB    C1658632   0.167   0.066   2.814  0.2670  0.1898 -0.2198
    4IDB    C1758633   0.128   0.034   2.948  0.3529 -0.5797 -0.3703
    51IDQ   C1858634   0.253   0.001   3.034  0.1785 -0.5499 -1.5671
    4IDB    C1958635  -0.006   0.038   2.986  0.4196 -0.3668 -0.1540
    51IDQ   C2058636   0.263   0.091   3.167 -0.9039  0.2431  0.6721
    51IDQ   C2158637   0.240  -0.150   3.091  0.4988  0.0402  0.2323
    51IDQ   C2258638   0.140  -0.253   3.025  0.3256  1.1562 -0.2706
    51IDQ   C2358639   0.386   0.154   3.230  0.1397 -0.8667  0.2080
    51IDQ   C2458640   0.116  -0.388   3.116 -0.0517 -0.2174 -0.1303
    51IDQ   C2558641   0.060  -0.345   3.263 -0.2950  0.5604  0.3591
    51IDQ   C2658642   0.062  -0.441   3.379  0.4258  0.0448  0.2448
    51IDQ   C2758643  -0.021  -0.562   3.353 -0.2767  1.5256  0.3772
    51IDQ   C2858644   0.066  -0.665   3.425 -0.1995  0.1657  0.3779
    51IDQ   C2958645  -0.020  -0.789   3.474 -0.7745 -1.1610 -0.1941
    51IDQ   C3058646   0.325   0.229   3.343 -0.0256 -0.0707  0.0666
    51IDQ   C3158647   0.437   0.290   3.429 -0.5692  1.1009 -0.4490
    51IDQ   C3258648   0.502   0.188   3.521  0.2021  0.3059  0.3231
    51IDQ   C3358649   0.624   0.256   3.568  1.1959  0.5413  0.4811
    51IDQ   C3458650   0.704   0.184   3.670 -0.5113 -0.6358  0.0031
    51IDQ   C3558651   0.819   0.109   3.611 -0.3732  0.7113  0.4101
    4IDB    C3658652   0.072   0.102   2.718  0.2473  1.1829  0.1503
    4IDB    C3758653  -0.064   0.106   2.759  0.3164  1.3865  0.3672
    11RH    C3858654   1.721   0.188   2.756  0.7422  0.8253  1.1544
    4IDB    C3958655  -0.101   0.074   2.890  0.4001  0.6263  0.2161
    62IDT   C4058656  -0.239   0.108   2.904  0.2365  0.5614  0.2073
    72IDQ   C4158657  -0.185   0.135   2.679  0.4165 -0.9755  0.7111
    62IDT   C4258658  -0.297   0.149   2.785 -0.1640 -0.0491  0.1842
    72IDQ   C4358659  -0.229   0.030   2.572 -0.1060  1.1995  0.2687
    72IDQ   C4458660  -0.186   0.276   2.598 -0.6773 -0.0229 -0.9466
    62IDT    S558661  -0.355   0.117   3.041  0.4034  0.3405  0.3637
    62IDT   C4558662  -0.481   0.179   2.926 -0.1017 -0.6121  0.3909
    62IDT   C4658663  -0.434   0.189   2.798 -0.3560 -0.7134  0.2878
    82BTZ   C4758664  -0.619   0.212   2.979 -0.2442  0.2799 -0.4638
    82BTZ   C4858665  -0.645   0.235   3.111 -0.4013  0.1913 -0.4785
    82BTZ   C4958666  -0.774   0.280   3.157 -0.5126 -0.0228 -0.5800
    82BTZ   C5058667  -0.877   0.302   3.069 -0.4668 -0.1480 -0.6666
    82BTZ   C5158668  -0.724   0.234   2.883 -0.1906  0.1552 -0.5519
    82BTZ   C5258669  -0.855   0.280   2.930 -0.3037 -0.0625 -0.6551
    92RH    C5358670  -1.009   0.325   3.127 -0.1364 -0.3649  0.0805
    82BTZ    N458671  -0.711   0.215   2.752 -0.0408  0.2238 -0.5474
    82BTZ    N558672  -0.948   0.298   2.835 -0.2449 -0.1688 -0.7335
    82BTZ    S658673  -0.870   0.256   2.680 -0.0380  0.0086 -0.6776
    92RH    C5458674  -1.054   0.325   3.253 -0.2029 -0.1967  0.0566
    92RH     S758675  -0.954   0.322   3.406 -0.2878 -0.1959  0.1124
    92RH    C5558676  -1.199   0.328   3.287 -0.2174  0.0217 -0.0215
    92RH     O258677  -1.292   0.331   3.206 -0.1713  0.0743 -0.0731
    92RH     N658678  -1.218   0.328   3.427 -0.2921  0.1678 -0.0310
    92RH    C5658679  -1.108   0.325   3.509 -0.3389  0.0930  0.0299
    92RH    C5758680  -1.364   0.329   3.471  0.2924  0.6544 -0.6332
    92RH    C5858681  -1.433   0.193   3.475  0.7685 -0.3056 -0.2288
    92RH     S858682  -1.104   0.324   3.677 -0.4295  0.2328  0.0333
    72IDQ   C5958683  -0.133   0.395   2.670 -0.0277  0.2274 -0.1949
    72IDQ   C6058684  -0.196   0.522   2.627  0.2744  1.0550  0.6148
    72IDQ   C6158685  -0.337   0.556   2.679 -0.2377  0.0753  0.0315
    72IDQ   C6258686  -0.335   0.703   2.731  0.0858 -0.9857 -0.2428
    72IDQ   C6358687  -0.441   0.738   2.824  0.7153  0.5195 -1.0165
    72IDQ   C6458688  -0.444   0.881   2.865  0.2396  0.1845  0.6939
    72IDQ   C6558689  -0.596   0.938   2.871  0.3968  0.6515 -0.2984
    72IDQ   C6658690  -0.122  -0.027   2.483  0.1394  0.0868 -1.7155
    72IDQ   C6758691  -0.164  -0.170   2.443  0.0896 -0.6289 -0.1939
    72IDQ   C6858692  -0.277  -0.172   2.329  0.2273  0.3669 -0.7391
    72IDQ   C6958693  -0.266  -0.085   2.213  0.9256  0.0055  0.2923
    72IDQ   C7058694  -0.325  -0.182   2.108 -0.2175 -0.0866  1.0711
    72IDQ   C7158695  -0.316  -0.123   1.970  1.5512 -0.4508  0.3569
    72IDQ   C7258696  -0.400  -0.189   1.864 -0.1286 -0.3119 -0.3368
    11RH     C158697   2.530   5.003  10.568  0.1587  0.1615 -0.0443
    11RH     C258698   2.663   4.938  10.556  0.1100  0.0499  0.0186
    11RH     N158699   2.543   5.142  10.587  0.2659  0.1576 -0.0827
    11RH     S158700   2.795   5.064  10.571  0.2082 -0.0531  0.0235
    11RH     C358701   2.669   5.197  10.592  0.3090  0.0563 -0.0577
    11RH     C458702   2.423   5.220  10.618  0.8803  0.0454  0.6495
    11RH     S258703   2.711   5.358  10.613  0.4337  0.0292 -0.0930
    11RH     O158704   2.421   4.944  10.562  0.1131  0.2488 -0.0629
    11RH     C558705   2.680   4.806  10.538  0.0092  0.0307  0.0635
    21BTZ    C658706   2.788   4.716  10.533 -0.1885 -0.0509 -0.2785
    21BTZ    C758707   2.917   4.759  10.553 -0.2162  0.0240 -0.2625
    21BTZ    C858708   2.767   4.579  10.495 -0.1147 -0.1070 -0.1192
    21BTZ    C958709   3.030   4.671  10.537 -0.1731  0.0471 -0.0906
    21BTZ   C1058710   3.015   4.540  10.501 -0.1024 -0.0045  0.0652
    21BTZ   C1158711   2.882   4.489  10.479 -0.0709 -0.0834  0.0556
    21BTZ    N258712   2.647   4.525  10.473 -0.0817 -0.1816 -0.1173
    21BTZ    N358713   2.854   4.364  10.443 -0.0026 -0.1390  0.1979
    21BTZ    S358714   2.676   4.354  10.429  0.0088 -0.2255  0.1125
    31IDT   C1258715   3.133   4.447  10.506  0.2394  0.1166  0.5452
    31IDT   C1358716   3.132   4.312  10.524  0.0122  0.1265  0.6068
    31IDT   C1458717   3.262   4.257  10.549 -0.0305 -0.1264  0.2859
    31IDT   C1558718   3.363   4.351  10.549  0.1633 -0.3305 -0.0218
    31IDT    S458719   3.301   4.517  10.518  0.4173 -0.2171  0.0719
    4IDB    C1658720   3.496   4.303  10.565  0.5535  0.2187  1.2625
    4IDB    C1758721   3.486   4.160  10.562  0.1802  0.2308  1.6518
    51IDQ   C1858722   3.335   4.121  10.581 -0.7895 -0.9229 -0.6960
    4IDB    C1958723   3.600   4.081  10.549 -0.1038 -0.0606  0.8204
    51IDQ   C2058724   3.303   4.007  10.487 -0.7041  0.6569  0.4189
    51IDQ   C2158725   3.297   4.070  10.724 -0.4348 -1.1916 -0.0234
    51IDQ   C2258726   3.393   4.080  10.848  0.1734  0.1440  1.4300
    51IDQ   C2358727   3.229   4.020  10.355 -0.3043  0.4331 -0.2882
    51IDQ   C2458728   3.452   3.969  10.915  0.7972  0.6486 -0.0690
    51IDQ   C2558729   3.563   3.902  10.849 -0.8737  1.0222 -0.0158
    51IDQ   C2658730   3.684   3.957  10.920  0.8867  0.2051 -0.2741
    51IDQ   C2758731   3.820   3.905  10.885 -0.6014  0.1304  0.5491
    51IDQ   C2858732   3.934   3.981  10.948  0.2930 -0.2351  0.6975
    51IDQ   C2958733   3.936   3.979  11.113 -0.0769  0.5251 -0.1846
    51IDQ   C3058734   3.276   3.919  10.246  0.1959  1.0898 -0.0943
    51IDQ   C3158735   3.283   3.974  10.099  0.3402 -0.7733  0.0622
    51IDQ   C3258736   3.257   3.860   9.996 -0.1982 -1.6987 -0.7560
    51IDQ   C3358737   3.129   3.777   9.984 -0.5971 -0.6179 -0.3723
    51IDQ   C3458738   3.143   3.696   9.859 -0.1491 -0.3518  0.9006
    51IDQ   C3558739   3.026   3.615   9.800 -0.6850 -0.2634 -0.4186
    4IDB    C3658740   3.621   4.367  10.556  0.6450 -0.0871  0.0317
    4IDB    C3758741   3.736   4.284  10.543  0.3512 -0.3823 -0.8049
    11RH    C3858742   2.361   5.285  10.500  0.4155  0.0969 -0.4894
    4IDB    C3958743   3.724   4.145  10.539 -0.0122 -0.3663 -0.4105
    62IDT   C4058744   3.854   4.089  10.541 -0.1243 -0.4190  0.1351
    72IDQ   C4158745   3.883   4.331  10.559  0.3963 -0.3545  0.3318
    62IDT   C4258746   3.944   4.192  10.555 -0.1901 -0.3959  0.3886
    72IDQ   C4358747   3.913   4.409  10.696  0.5772  0.1437  0.5080
    72IDQ   C4458748   3.947   4.425  10.444 -0.0814  0.8387 -0.2696
    62IDT    S558749   3.936   3.931  10.516 -0.0213 -0.3358 -0.0609
    62IDT   C4558750   4.096   4.017  10.527 -0.0751 -0.2710  0.2241
    62IDT   C4658751   4.081   4.152  10.548 -0.1624 -0.3121  0.4396
    82BTZ   C4758752   4.226   3.944  10.524  0.0926 -0.0919  0.2571
    82BTZ   C4858753   4.221   3.809  10.551  0.0564 -0.0979  0.2205
    82BTZ   C4958754   4.339   3.727  10.549  0.0027 -0.1701 -0.0110
    82BTZ   C5058755   4.463   3.779  10.520 -0.0147 -0.2363 -0.2056
    82BTZ   C5158756   4.353   4.003  10.493  0.0762 -0.1595  0.0587
    82BTZ   C5258757   4.473   3.919  10.491  0.0217 -0.2329 -0.1764
    92RH    C5358758   4.582   3.707  10.517 -0.0737 -0.0970 -0.2058
    82BTZ    N458759   4.371   4.132  10.465  0.1076 -0.1611  0.0720
    82BTZ    N558760   4.588   3.981  10.461  0.0093 -0.2934 -0.3526
    82BTZ    S658761   4.546   4.153  10.434  0.0680 -0.2583 -0.2219
    92RH    C5458762   4.613   3.578  10.535 -0.0926 -0.0783 -0.0274
    92RH     S758763   4.496   3.438  10.547 -0.1173 -0.0333  0.2605
    92RH    C5558764   4.752   3.528  10.546 -0.0967 -0.0918 -0.0372
    92RH     O258765   4.855   3.598  10.542 -0.0833 -0.1215 -0.2077
    92RH     N658766   4.756   3.388  10.564 -0.1179 -0.0666  0.1752
    92RH    C5658767   4.636   3.320  10.567 -0.1316 -0.0345  0.3541
    92RH    C5758768   4.889   3.321  10.562  0.5268  0.0534  0.3528
    92RH    C5858769   4.938   3.318  10.423 -0.8344  0.0404  0.3628
    92RH     S858770   4.613   3.154  10.587 -0.1575 -0.0001  0.6225
    72IDQ   C5958771   3.906   4.399  10.296  0.0175 -0.8347 -1.0361
    72IDQ   C6058772   3.991   4.489  10.204  0.5323  0.8135 -0.8620
    72IDQ   C6158773   3.982   4.443  10.056 -0.5946  0.3059 -0.7035
    72IDQ   C6258774   4.045   4.553   9.982  0.3159 -0.5950 -0.2267
    72IDQ   C6358775   4.097   4.508   9.843  0.2405  0.1181  0.3628
    72IDQ   C6458776   3.983   4.501   9.738  0.8508  0.6904  0.7435
    72IDQ   C6558777   4.033   4.407   9.631  0.2118  0.6466 -0.1777
    72IDQ   C6658778   3.819   4.389  10.814 -0.5979  0.6622 -0.0857
    72IDQ   C6758779   3.875   4.458  10.935 -0.1341 -1.2913  0.5374
    72IDQ   C6858780   3.839   4.393  11.058 -1.1741  0.1935  0.0270
    72IDQ   C6958781   3.877   4.469  11.183  0.3682 -0.2480  1.0618
    72IDQ   C7058782   3.771   4.571  11.243 -0.0133  0.2290  0.0820
    72IDQ   C7158783   3.635   4.523  11.255 -0.3136  0.0353  0.0548
    72IDQ   C7258784   3.556   4.653  11.274 -0.1892 -0.7724 -0.3176
    11RH     C158785   0.374   2.057  22.959  0.2022 -0.2019 -0.0191
    11RH     C258786   0.273   2.080  23.066  0.1375  0.0342 -0.1302
    11RH     N158787   0.450   2.174  22.935  0.4621 -0.3616  0.0226
    11RH     S158788   0.284   2.253  23.126  0.4225  0.0307 -0.1728
    11RH     C358789   0.422   2.287  23.008  0.6134 -0.2825 -0.0424
    11RH     C458790   0.531   2.175  22.813 -1.2286  0.6429 -0.5474
    11RH     S258791   0.498   2.437  22.999  0.9265 -0.4360 -0.0129
    11RH     O158792   0.391   1.951  22.898  0.0514 -0.2571  0.0329
    11RH     C558793   0.188   1.986  23.108 -0.0961  0.2175 -0.1873
    21BTZ    C658794   0.069   1.988  23.189 -0.2511 -0.0345 -0.6630
    21BTZ    C758795   0.029   2.099  23.259 -0.0660 -0.0274 -0.5670
    21BTZ    C858796  -0.001   1.865  23.209 -0.0494 -0.0902 -0.2823
    21BTZ    C958797  -0.081   2.094  23.351  0.3239 -0.0743 -0.0939
    21BTZ   C1058798  -0.152   1.979  23.374  0.5281 -0.1282  0.2815
    21BTZ   C1158799  -0.114   1.860  23.303  0.3469 -0.1378  0.1984
    21BTZ    N258800   0.028   1.750  23.148 -0.1987 -0.1024 -0.3309
    21BTZ    N358801  -0.174   1.742  23.317  0.5161 -0.1884  0.5350
    21BTZ    S358802  -0.089   1.629  23.208  0.1686 -0.1769  0.2458
    31IDT   C1258803  -0.265   1.982  23.471  0.1684  0.3080 -0.0064
    31IDT   C1358804  -0.304   1.878  23.551  0.0384 -0.0333 -0.5026
    31IDT   C1458805  -0.401   1.916  23.649 -0.0170 -0.4119 -0.4058
    31IDT   C1558806  -0.436   2.049  23.644  0.0700 -0.3618  0.1635
    31IDT    S458807  -0.349   2.137  23.513  0.2305  0.1736  0.6248
    4IDB    C1658808  -0.534   2.076  23.735 -0.2948  0.1189 -0.1392
    4IDB    C1758809  -0.559   1.961  23.816 -0.0730  0.1972  0.0391
    51IDQ   C1858810  -0.495   1.840  23.751 -1.3459  0.3606 -1.1967
    4IDB    C1958811  -0.639   1.969  23.929  0.0754  0.2621  0.1413
    51IDQ   C2058812  -0.427   1.749  23.865  0.1743  0.3973 -0.3808
    51IDQ   C2158813  -0.570   1.731  23.670 -0.9712 -0.0624 -0.1504
    51IDQ   C2258814  -0.711   1.769  23.630  0.1411  0.1512  0.4272
    51IDQ   C2358815  -0.279   1.717  23.869 -0.4679  0.3427 -0.1130
    51IDQ   C2458816  -0.776   1.640  23.582  0.1815  0.1026  0.1415
    51IDQ   C2558817  -0.897   1.655  23.478 -0.7084  0.2424 -0.4300
    51IDQ   C2658818  -1.026   1.582  23.523  0.0467 -0.1621 -0.5040
    51IDQ   C2758819  -1.161   1.628  23.472 -0.0075 -0.2302  0.1704
    51IDQ   C2858820  -1.190   1.778  23.450 -0.3008  1.3933 -0.2249
    51IDQ   C2958821  -1.332   1.805  23.424  0.1679 -0.0225 -0.5527
    51IDQ   C3058822  -0.196   1.763  23.995 -0.5327  0.3364  0.4294
    51IDQ   C3158823  -0.223   1.906  24.027 -0.9058  1.0850 -0.8883
    51IDQ   C3258824  -0.174   1.941  24.174  0.4215  0.1671 -0.4705
    51IDQ   C3358825  -0.278   1.999  24.281 -0.3009  0.1858  0.4201
    51IDQ   C3458826  -0.359   2.122  24.234 -0.4886 -0.8948 -0.1316
    51IDQ   C3558827  -0.433   2.174  24.358  0.9174  0.3289  0.0184
    4IDB    C3658828  -0.591   2.200  23.767 -0.3694  0.1050 -0.2179
    4IDB    C3758829  -0.673   2.207  23.883 -0.2154  0.1721 -0.1121
    11RH    C3858830   0.673   2.122  22.829 -0.3130  0.2184  0.5622
    4IDB    C3958831  -0.696   2.093  23.961  0.0006  0.2483  0.0622
    62IDT   C4058832  -0.782   2.127  24.075  0.4475 -0.8446  0.6603
    72IDQ   C4158833  -0.747   2.329  23.951 -0.4861 -0.3014 -0.5480
    62IDT   C4258834  -0.811   2.262  24.074  0.6489 -0.8013  0.3633
    72IDQ   C4358835  -0.846   2.400  23.853  0.4971  0.0044  1.0213
    72IDQ   C4458836  -0.661   2.434  24.028  0.3952  0.1457 -0.3042
    62IDT    S558837  -0.845   2.046  24.222 -0.2167 -0.5458  0.5471
    62IDT   C4558838  -0.911   2.206  24.278 -0.1860 -0.3695  0.0828
    62IDT   C4658839  -0.884   2.307  24.189  0.2910 -0.5327  0.0362
    82BTZ   C4758840  -0.976   2.215  24.411  0.0607  0.0689  0.2686
    82BTZ   C4858841  -0.920   2.144  24.515 -0.1787  0.1798  0.4768
    82BTZ   C4958842  -0.983   2.137  24.644 -0.5023  0.2877  0.3285
    82BTZ   C5058843  -1.101   2.200  24.671 -0.5860  0.2843 -0.0284
    82BTZ   C5158844  -1.100   2.284  24.434 -0.0148  0.0606 -0.1059
    82BTZ   C5258845  -1.164   2.276  24.566 -0.3438  0.1702 -0.2565
    92RH    C5358846  -1.150   2.209  24.812  0.2966  0.3927 -0.1465
    82BTZ    N458847  -1.164   2.356  24.342  0.1975 -0.0423 -0.3362
    82BTZ    N558848  -1.279   2.343  24.580 -0.3958  0.1554 -0.6080
    82BTZ    S658849  -1.311   2.419  24.421 -0.0186 -0.0026 -0.7639
    92RH    C5458850  -1.107   2.151  24.924  0.1413  0.3668 -0.0997
    92RH     S758851  -0.989   2.011  24.936  0.1038  0.3463  0.0306
    92RH    C5558852  -1.150   2.192  25.060 -0.0296  0.3504 -0.1483
    92RH     O258853  -1.229   2.284  25.086 -0.0491  0.3583 -0.2365
    92RH     N658854  -1.089   2.113  25.160 -0.1720  0.3238 -0.0819
    92RH    C5658855  -1.002   2.013  25.120 -0.1360  0.3169  0.0148
    92RH    C5758856  -1.118   2.128  25.307 -0.1106 -0.0194  0.7200
    92RH    C5858857  -1.201   2.011  25.363  0.1816  0.1406  0.0929
    92RH     S858858  -0.917   1.906  25.218 -0.2807  0.2869  0.1073
    72IDQ   C5958859  -0.518   2.452  23.974 -0.8707  0.1868  0.4148
    72IDQ   C6058860  -0.454   2.583  24.033 -0.5734 -1.0259  0.3609
    72IDQ   C6158861  -0.450   2.612  24.186  0.4912  0.1822 -0.4952
    72IDQ   C6258862  -0.422   2.749  24.241  0.4740 -0.7307 -0.6239
    72IDQ   C6358863  -0.503   2.851  24.170 -0.0251 -1.1271 -0.1158
    72IDQ   C6458864  -0.507   2.999  24.234  0.5828 -0.3064 -0.3326
    72IDQ   C6558865  -0.550   3.017  24.380 -0.1314 -0.4186  0.4696
    72IDQ   C6658866  -0.786   2.482  23.732  0.9193 -0.5880 -0.4412
    72IDQ   C6758867  -0.895   2.547  23.645 -0.1179 -0.6293 -0.6513
    72IDQ   C6858868  -0.829   2.614  23.523  0.3335  0.1255  0.0308
    72IDQ   C6958869  -0.910   2.688  23.412 -0.3342 -0.2069  0.9305
    72IDQ   C7058870  -0.802   2.703  23.306  0.5152 -0.3468 -0.8695
    72IDQ   C7158871  -0.814   2.847  23.269  0.5112 -0.6841  0.2459
    72IDQ   C7258872  -0.693   2.866  23.168 -0.4265 -0.0692  0.1836
    11RH     C158873   1.776   4.530  22.488  0.0235  0.6173  0.2432
    11RH     C258874   1.671   4.427  22.471  0.1625  0.5187 -0.0434
    11RH     N158875   1.805   4.554  22.624 -0.0760  0.3439  0.3127
    11RH     S158876   1.616   4.368  22.636  0.1534  0.0727 -0.2033
    11RH     C358877   1.735   4.482  22.719 -0.0336  0.0381  0.1163
    11RH     C458878   1.921   4.642  22.657 -0.7471 -0.5832  0.3088
    11RH     S258879   1.749   4.492  22.886 -0.1307 -0.3242  0.1464
    11RH     O158880   1.834   4.589  22.395 -0.0049  0.9021  0.4072
    11RH     C558881   1.626   4.386  22.352  0.2750  0.7306 -0.1607
    21BTZ    C658882   1.542   4.279  22.320 -0.1877  0.0783  0.1831
    21BTZ    C758883   1.494   4.190  22.412 -0.0817  0.0062  0.1693
    21BTZ    C858884   1.502   4.264  22.183 -0.0144 -0.0709  0.1473
    21BTZ    C958885   1.405   4.083  22.376  0.1980 -0.2148  0.1192
    21BTZ   C1058886   1.363   4.065  22.247  0.3712 -0.3632  0.0829
    21BTZ   C1158887   1.410   4.156  22.146  0.2699 -0.2955  0.0958
    21BTZ    N258888   1.542   4.344  22.084 -0.0940 -0.0201  0.1559
    21BTZ    N358889   1.377   4.148  22.017  0.4188 -0.4252  0.0639
    21BTZ    S358890   1.463   4.283  21.935  0.1971 -0.2621  0.0979
    31IDT   C1258891   1.281   3.949  22.219  0.6393  0.2598  0.3005
    31IDT   C1358892   1.174   3.934  22.135  0.1080  0.5334  0.9036
    31IDT   C1458893   1.129   3.799  22.125 -0.3637  0.6606  1.2240
    31IDT   C1558894   1.201   3.710  22.201 -0.1958  0.4852  0.8684
    31IDT    S458895   1.333   3.791  22.293  0.5801  0.1424  0.0925
    4IDB    C1658896   1.153   3.579  22.178  0.0213  0.0969 -0.4008
    4IDB    C1758897   1.039   3.583  22.092 -0.2474 -0.2992 -0.0730
    51IDQ   C1858898   1.025   3.730  22.032  0.3917  0.8944 -0.1385
    4IDB    C1958899   0.972   3.467  22.056  0.0461 -0.5345  0.1315
    51IDQ   C2058900   1.052   3.722  21.876  1.7307 -0.8485 -0.0370
    51IDQ   C2158901   0.886   3.797  22.048  0.5865 -0.2464  0.3879
    51IDQ   C2258902   0.800   3.739  22.157  0.5672  0.5248 -0.1949
    51IDQ   C2358903   1.171   3.776  21.805  0.7387 -0.7950 -0.8347
    51IDQ   C2458904   0.668   3.809  22.157  0.4489  0.2643 -0.3887
    51IDQ   C2558905   0.660   3.935  22.235 -0.2343 -0.8605  0.7938
    51IDQ   C2658906   0.621   3.916  22.375 -0.4314 -0.8951 -0.6243
    51IDQ   C2758907   0.628   4.038  22.465  0.2397  0.5728  0.1352
    51IDQ   C2858908   0.560   4.006  22.604  0.2885 -0.4325 -0.7027
    51IDQ   C2958909   0.569   4.120  22.703  0.2197 -0.9293 -0.1043
    51IDQ   C3058910   1.179   3.924  21.787 -0.1809 -0.0084 -0.3173
    51IDQ   C3158911   1.100   3.978  21.667  0.2803  0.3415 -1.4126
    51IDQ   C3258912   1.006   4.094  21.708  0.5269  0.3639 -0.0390
    51IDQ   C3358913   0.927   4.135  21.588  0.5827  1.2603 -0.2225
    51IDQ   C3458914   0.833   4.243  21.621  0.4521 -1.2539 -0.8161
    51IDQ   C3558915   0.702   4.193  21.677 -0.0189  0.1357 -0.2354
    4IDB    C3658916   1.201   3.457  22.229  0.5888  0.2609 -0.5260
    4IDB    C3758917   1.131   3.339  22.191  0.8820  0.0162 -0.3123
    11RH    C3858918   2.051   4.580  22.704 -0.0159  0.2823  0.5204
    4IDB    C3958919   1.020   3.345  22.107  0.6136 -0.3704  0.0068
    62IDT   C4058920   0.978   3.219  22.071 -0.2836 -0.0910 -0.1398
    72IDQ   C4158921   1.154   3.191  22.233 -0.0346  0.0846  0.0529
    62IDT   C4258922   1.054   3.127  22.141  0.4047  0.1631 -0.5350
    72IDQ   C4358923   1.159   3.155  22.388  0.6909  0.2585  0.3959
    72IDQ   C4458924   1.291   3.127  22.179 -0.1979 -0.1934 -0.4288
    62IDT    S558925   0.857   3.138  21.965 -0.1203 -0.5269  0.0007
    62IDT   C4558926   0.918   2.977  22.025  0.9207 -0.3331 -0.5068
    62IDT   C4658927   1.021   2.991  22.115  1.0864  0.0266 -0.7434
    82BTZ   C4758928   0.851   2.856  21.978 -0.1480 -0.2200  0.3229
    82BTZ   C4858929   0.779   2.861  21.862 -0.2211 -0.2620  0.3657
    82BTZ   C4958930   0.705   2.747  21.813 -0.1587 -0.3148  0.3943
    82BTZ   C5058931   0.703   2.628  21.882 -0.0233 -0.3256  0.3797
    82BTZ   C5158932   0.852   2.734  22.053 -0.0059 -0.2294  0.3061
    82BTZ   C5258933   0.777   2.618  22.004  0.0575 -0.2831  0.3352
    92RH    C5358934   0.643   2.507  21.830 -0.1742 -0.1748  0.0297
    82BTZ    N458935   0.919   2.716  22.168  0.0759 -0.1917  0.2646
    82BTZ    N558936   0.783   2.507  22.079  0.1902 -0.2887  0.3171
    82BTZ    S658937   0.887   2.548  22.219  0.2409 -0.2241  0.2606
    92RH    C5458938   0.576   2.488  21.716 -0.1904 -0.0820  0.0243
    92RH     S758939   0.541   2.614  21.586 -0.3514  0.0639  0.2077
    92RH    C5558940   0.517   2.358  21.675 -0.0761 -0.0838 -0.1378
    92RH     O258941   0.523   2.253  21.741  0.0458 -0.1695 -0.2847
    92RH     N658942   0.452   2.367  21.550 -0.1225  0.0259 -0.1062
    92RH    C5658943   0.451   2.489  21.485 -0.2599  0.1155  0.0615
    92RH    C5758944   0.380   2.241  21.504 -0.0803 -0.4021 -0.0633
    92RH    C5858945   0.450   2.156  21.403  0.3385 -0.4724  0.5539
    92RH     S858946   0.382   2.526  21.337 -0.3408  0.2536  0.1340
    72IDQ   C5958947   1.430   3.160  22.243 -0.4036  0.6593 -0.0035
    72IDQ   C6058948   1.545   3.134  22.139 -0.1498 -0.0398 -0.4482
    72IDQ   C6158949   1.678   3.082  22.196 -0.9934  0.2203 -0.3805
    72IDQ   C6258950   1.781   3.191  22.226 -0.2736 -0.5574  0.7186
    72IDQ   C6358951   1.812   3.282  22.107 -0.7260  0.0206 -0.5575
    72IDQ   C6458952   1.921   3.377  22.162  0.6323 -0.7538 -0.6802
    72IDQ   C6558953   1.882   3.506  22.086  1.2086 -0.5991 -0.0384
    72IDQ   C6658954   1.053   3.223  22.473 -0.3293 -0.0618 -0.0846
    72IDQ   C6758955   1.048   3.159  22.615 -0.6248 -0.7601 -0.1711
    72IDQ   C6858956   0.971   3.243  22.716 -0.0289  0.9229 -0.5017
    72IDQ   C6958957   0.850   3.329  22.669  0.9886 -0.0197  0.4287
    72IDQ   C7058958   0.804   3.436  22.767  0.1750  0.1010  0.0172
    72IDQ   C7158959   0.691   3.519  22.720  0.1286  1.2368  0.5888
    72IDQ   C7258960   0.686   3.657  22.769  0.4415 -0.6262 -0.3425
    11RH     C158961   6.708   1.730  14.810 -0.1495  0.0040 -0.0954
    11RH     C258962   6.809   1.739  14.918 -0.1005 -0.0103 -0.1397
    11RH     N158963   6.764   1.678  14.691 -0.1880  0.0797 -0.1465
    11RH     S158964   6.971   1.678  14.856 -0.1082  0.0766 -0.2464
    11RH     C358965   6.897   1.644  14.691 -0.1758  0.1277 -0.2270
    11RH     C458966   6.691   1.671  14.557  0.3474  0.6889  0.3220
    11RH     S258967   6.987   1.580  14.563 -0.2145  0.2197 -0.3006
    11RH     O158968   6.589   1.764  14.820 -0.1568 -0.0433 -0.0217
    11RH     C558969   6.783   1.785  15.041 -0.0578 -0.0774 -0.1049
    21BTZ    C658970   6.864   1.807  15.159 -0.1551  0.3792 -0.0964
    21BTZ    C758971   7.000   1.791  15.163 -0.1463  0.4363 -0.1662
    21BTZ    C858972   6.799   1.867  15.271 -0.1523  0.1318  0.0401
    21BTZ    C958973   7.078   1.833  15.276 -0.1343  0.2545 -0.1056
    21BTZ   C1058974   7.020   1.891  15.386 -0.1315  0.0159  0.0241
    21BTZ   C1158975   6.878   1.910  15.387 -0.1404 -0.0530  0.1016
    21BTZ    N258976   6.667   1.888  15.280 -0.1602  0.0538  0.1183
    21BTZ    N358977   6.810   1.966  15.488 -0.1386 -0.2794  0.2286
    21BTZ    S358978   6.638   1.966  15.438 -0.1523 -0.2657  0.2767
    31IDT   C1258979   7.114   1.930  15.499 -0.0366  0.1498 -0.1020
    31IDT   C1358980   7.090   1.935  15.634 -0.0536 -0.7670 -0.0603
    31IDT   C1458981   7.209   1.944  15.712 -0.0546 -1.4745  0.0358
    31IDT   C1558982   7.325   1.946  15.638 -0.0386 -1.1027  0.0681
    31IDT    S458983   7.292   1.937  15.462 -0.0206  0.1841 -0.0219
    4IDB    C1658984   7.441   1.972  15.725  0.1940 -0.3008  0.3881
    4IDB    C1758985   7.402   1.971  15.862  0.2653  0.1102  0.4141
    51IDQ   C1858986   7.248   1.950  15.869  1.0248  0.4261  0.0057
    4IDB    C1958987   7.497   1.980  15.963  0.3369  0.1850  0.3404
    51IDQ   C2058988   7.190   1.823  15.951 -0.3494 -0.1816 -0.2770
    51IDQ   C2158989   7.175   2.080  15.937  0.3777  1.3268 -0.2153
    51IDQ   C2258990   7.250   2.208  15.955  0.2629 -0.2474  0.1618
    51IDQ   C2358991   7.150   1.689  15.885 -0.9256  0.2215 -0.3175
    51IDQ   C2458992   7.265   2.282  15.823  0.0266  0.2554 -0.5169
    51IDQ   C2558993   7.132   2.341  15.764 -0.3175 -0.2840  0.1908
    51IDQ   C2658994   7.154   2.490  15.723  0.7595  0.8887  0.8918
    51IDQ   C2758995   7.027   2.578  15.703  0.1505  0.6452  0.4487
    51IDQ   C2858996   6.923   2.552  15.810  0.3293 -0.0696 -0.5115
    51IDQ   C2958997   6.942   2.638  15.932 -0.5506 -1.2496  0.2717
    51IDQ   C3058998   7.265   1.611  15.833  0.5944  0.0313  0.3378
    51IDQ   C3158999   7.394   1.575  15.909  1.4633  0.5474  0.8214
    51IDQ   C3259000   7.518   1.570  15.831 -0.2972 -0.9407  0.5193
    51IDQ   C3359001   7.557   1.482  15.711  0.4668 -0.4242 -0.5580
    51IDQ   C3459002   7.697   1.489  15.648 -0.2324 -0.3781 -0.6454
    51IDQ   C3559003   7.800   1.419  15.736  0.2215 -0.3418  0.2512
    4IDB    C3659004   7.576   1.982  15.687  0.1938 -0.6413  0.2871
    4IDB    C3759005   7.671   1.991  15.792  0.2675 -0.5589  0.2127
    11RH    C3859006   6.629   1.540  14.500 -0.0986  0.6684  0.8502
    4IDB    C3959007   7.632   1.990  15.926  0.3367 -0.1555  0.2395
    62IDT   C4059008   7.752   2.018  16.004  0.1611 -0.2109 -0.2038
    72IDQ   C4159009   7.821   2.010  15.776  0.3672  0.7987 -0.2026
    62IDT   C4259010   7.860   2.040  15.921  0.4431 -0.8715 -0.0279
    72IDQ   C4359011   7.849   2.138  15.689  0.1894  0.2448  0.0221
    72IDQ   C4459012   7.880   1.897  15.696 -0.4286  0.5166  0.0264
    62IDT    S559013   7.792   2.051  16.176 -0.1798  0.3623 -0.2277
    62IDT   C4559014   7.961   2.095  16.124  0.0901 -0.3563  0.0135
    62IDT   C4659015   7.978   2.084  15.989  0.4034 -0.9546  0.0956
    82BTZ   C4759016   8.060   2.124  16.232  0.0187  0.0298  0.1321
    82BTZ   C4859017   8.035   2.089  16.362  0.1852 -0.0336  0.1478
    82BTZ   C4959018   8.132   2.112  16.466  0.3068 -0.0554  0.0405
    82BTZ   C5059019   8.254   2.168  16.441  0.2617 -0.0138 -0.0829
    82BTZ   C5159020   8.187   2.184  16.200 -0.0347  0.0752  0.0052
    82BTZ   C5259021   8.285   2.207  16.306  0.0888  0.0530 -0.1040
    92RH    C5359022   8.353   2.196  16.554  0.1367  0.7050  0.0498
    82BTZ    N459023   8.223   2.222  16.077 -0.1933  0.1380 -0.0229
    82BTZ    N559024   8.400   2.263  16.268  0.0296  0.0980 -0.2198
    82BTZ    S659025   8.388   2.290  16.092 -0.1912  0.1723 -0.1933
    92RH    C5459026   8.346   2.177  16.686  0.0317  0.3986  0.0019
    92RH     S759027   8.204   2.109  16.780  0.0207  0.0206 -0.2864
    92RH    C5559028   8.456   2.211  16.779 -0.0961  0.3172  0.1831
    92RH     O259029   8.566   2.259  16.747 -0.1207  0.5183  0.3958
    92RH     N659030   8.421   2.181  16.913 -0.1895 -0.0245  0.0841
    92RH    C5659031   8.297   2.127  16.938 -0.1522 -0.2267 -0.1545
    92RH    C5759032   8.515   2.223  17.021 -0.1287  1.1108  0.4585
    92RH    C5859033   8.500   2.359  17.077 -0.0936 -0.1641 -0.2198
    92RH     S859034   8.231   2.083  17.087 -0.2439 -0.6390 -0.3147
    72IDQ   C5959035   8.028   1.868  15.712  0.0055  0.1677 -0.7233
    72IDQ   C6059036   8.081   1.790  15.596  0.0259 -0.1632  0.2370
    72IDQ   C6159037   8.121   1.880  15.484 -1.1506 -0.0960  0.2740
    72IDQ   C6259038   8.183   1.801  15.368 -0.9385  0.1122 -0.5254
    72IDQ   C6359039   8.244   1.885  15.250  0.3392  0.0786 -0.4176
    72IDQ   C6459040   8.338   2.002  15.235 -0.8565 -0.4267 -0.5902
    72IDQ   C6559041   8.478   1.984  15.271  0.5078  0.7947 -0.6825
    72IDQ   C6659042   7.804   2.280  15.724 -0.6479  0.2804  0.1145
    72IDQ   C6759043   7.852   2.378  15.607  0.2247  0.3467  1.1271
    72IDQ   C6859044   7.854   2.520  15.674  0.3890  0.1618  0.9289
    72IDQ   C6959045   7.904   2.630  15.588  0.2719  0.7127 -0.6987
    72IDQ   C7059046   7.910   2.751  15.682  0.5039 -0.3157  0.2969
    72IDQ   C7159047   7.943   2.882  15.616 -0.2003  0.6902 -0.3470
    72IDQ   C7259048   8.076   2.902  15.548 -0.5871  0.6033 -0.4864
    11RH     C159049   7.176   7.298  27.080 -0.0120  0.4400  0.0501
    11RH     C259050   7.028   7.304  27.086 -0.0293  0.4358 -0.3181
    11RH     N159051   7.235   7.420  27.118 -0.1195  0.5218 -0.0465
    11RH     S159052   6.976   7.471  27.142 -0.1857  0.5399 -0.7665
    11RH     C359053   7.152   7.524  27.155 -0.2205  0.5838 -0.4454
    11RH     C459054   7.382   7.419  27.128 -0.7595 -0.9214 -0.6384
    11RH     S259055   7.196   7.679  27.204 -0.3588  0.6856 -0.6394
    11RH     O159056   7.243   7.199  27.046  0.0834  0.3799  0.4010
    11RH     C559057   6.949   7.201  27.055  0.0584  0.3655 -0.3111
    21BTZ    C659058   6.804   7.190  27.045  0.0357 -0.4789  0.3659
    21BTZ    C759059   6.719   7.296  27.062  0.1886 -0.2947  0.0172
    21BTZ    C859060   6.750   7.065  27.000 -0.0708 -0.3957  0.2580
    21BTZ    C959061   6.577   7.284  27.037  0.2444 -0.0211 -0.4520
    21BTZ   C1059062   6.521   7.166  26.995  0.1469  0.0676 -0.5720
    21BTZ   C1159063   6.606   7.053  26.975 -0.0141 -0.1177 -0.2189
    21BTZ    N259064   6.823   6.955  26.980 -0.2224 -0.5565  0.5674
    21BTZ    N359065   6.564   6.933  26.934 -0.1200 -0.0550 -0.2933
    21BTZ    S359066   6.709   6.828  26.926 -0.3006 -0.3550  0.2562
    31IDT   C1259067   6.365   7.158  26.984 -0.0121  0.5238  0.1403
    31IDT   C1359068   6.287   7.053  26.944 -0.0075  0.6366 -0.1664
    31IDT   C1459069   6.147   7.077  26.962 -0.0187  0.6535 -0.2737
    31IDT   C1559070   6.118   7.201  27.016 -0.0316  0.5539 -0.0508
    31IDT    S459071   6.266   7.296  27.049 -0.0309  0.4300  0.3161
    4IDB    C1659072   5.971   7.206  27.029  0.1141  0.5801 -1.1307
    4IDB    C1759073   5.913   7.084  26.984  0.5106  0.2877 -0.8569
    51IDQ   C1859074   6.024   6.992  26.928  0.3319 -0.7007  0.4449
    4IDB    C1959075   5.776   7.062  26.994  0.6270 -0.2901 -0.4607
    51IDQ   C2059076   6.019   6.852  27.017  0.0126  0.5713  0.4475
    51IDQ   C2159077   6.012   6.953  26.774 -0.2999 -1.1168 -0.6790
    51IDQ   C2259078   5.903   7.005  26.663  0.6715 -0.0814 -0.2885
    51IDQ   C2359079   6.130   6.803  27.112 -1.1589  0.0022 -0.4132
    51IDQ   C2459080   5.878   7.136  26.580 -0.5738 -0.6510  0.4474
    51IDQ   C2559081   5.886   7.269  26.670  0.7197  0.4618  0.2961
    51IDQ   C2659082   5.878   7.406  26.595  0.5693 -0.1090  0.4934
    51IDQ   C2759083   5.882   7.524  26.691 -0.9852  0.2105 -0.1891
    51IDQ   C2859084   5.952   7.652  26.644  0.2190  0.2033 -1.2175
    51IDQ   C2959085   5.993   7.751  26.754  0.0407  0.3005 -0.1489
    51IDQ   C3059086   6.116   6.676  27.198 -0.6102 -0.5834 -0.6692
    51IDQ   C3159087   6.156   6.548  27.128  0.2256 -0.8056  0.6222
    51IDQ   C3259088   6.110   6.439  27.206 -0.3610 -0.0822 -0.4593
    51IDQ   C3359089   6.143   6.320  27.121  0.6284 -0.4239  0.0446
    51IDQ   C3459090   6.125   6.191  27.207 -0.9980  0.2173 -0.1600
    51IDQ   C3559091   6.252   6.159  27.283  0.0708  0.2236  0.3530
    4IDB    C3659092   5.892   7.308  27.085 -0.1700  0.2944 -1.0080
    4IDB    C3759093   5.752   7.283  27.094 -0.0457 -0.2960 -0.6013
    11RH    C3859094   7.445   7.398  27.266  0.7480 -0.1089  0.8810
    4IDB    C3959095   5.697   7.163  27.050  0.3428 -0.5758 -0.3375
    62IDT   C4059096   5.565   7.153  27.097 -0.2070  0.3985 -0.5741
    72IDQ   C4159097   5.644   7.380  27.147  0.8424  0.3804 -1.0193
    62IDT   C4259098   5.526   7.275  27.148 -0.5149  0.1588 -0.2208
    72IDQ   C4359099   5.623   7.511  27.053  0.5150 -0.7437  0.3798
    72IDQ   C4459100   5.675   7.411  27.302  0.4967  0.0395 -0.5958
    62IDT    S559101   5.436   7.029  27.114  0.2250 -0.0647 -0.6220
    62IDT   C4559102   5.332   7.155  27.193 -0.0468 -0.5835 -0.1378
    62IDT   C4659103   5.394   7.276  27.202 -0.4251 -0.3967  0.0262
    82BTZ   C4759104   5.189   7.126  27.236 -0.5105 -0.1354 -0.1577
    82BTZ   C4859105   5.147   6.997  27.220 -0.6605 -0.0992 -0.0577
    82BTZ   C4959106   5.018   6.952  27.269 -0.6412  0.0452  0.1287
    82BTZ   C5059107   4.932   7.037  27.333 -0.4718  0.1532  0.2149
    82BTZ   C5159108   5.102   7.219  27.302 -0.3301 -0.0261 -0.0734
    82BTZ   C5259109   4.971   7.174  27.352 -0.3104  0.1206  0.1159
    92RH    C5359110   4.806   6.997  27.382 -0.3002 -0.0169 -0.4114
    82BTZ    N459111   5.132   7.348  27.324 -0.1734 -0.0483 -0.1569
    82BTZ    N559112   4.896   7.266  27.412 -0.1380  0.2166  0.1850
    82BTZ    S659113   4.991   7.418  27.409  0.0094  0.1214  0.0071
    92RH    C5459114   4.738   6.882  27.380 -0.1663 -0.0937 -0.5069
    92RH     S759115   4.788   6.727  27.294  0.1465 -0.0485 -0.4096
    92RH    C5559116   4.609   6.861  27.449 -0.2553 -0.2319 -0.7129
    92RH     O259117   4.548   6.946  27.516 -0.4597 -0.2918 -0.8197
    92RH     N659118   4.560   6.730  27.430 -0.0765 -0.2895 -0.7761
    92RH    C5659119   4.635   6.643  27.354  0.1448 -0.2143 -0.6452
    92RH    C5759120   4.417   6.694  27.466  0.0360  0.3304 -1.3195
    92RH    C5859121   4.369   6.620  27.593  0.2910 -0.4904 -0.8863
    92RH     S859122   4.600   6.482  27.316  0.3868 -0.2592 -0.6838
    72IDQ   C5959123   5.781   7.508  27.333 -0.4818 -0.5117 -0.5113
    72IDQ   C6059124   5.807   7.545  27.489  0.4628  0.0637 -0.8788
    72IDQ   C6159125   5.681   7.607  27.545  0.7049 -1.1642 -0.2234
    72IDQ   C6259126   5.694   7.685  27.677 -0.4001 -0.6651 -0.8600
    72IDQ   C6359127   5.784   7.815  27.688  0.5389  0.4322 -0.0123
    72IDQ   C6459128   5.799   7.889  27.816  0.4617 -0.5924  0.2644
    72IDQ   C6559129   5.773   7.817  27.953 -0.3831  0.0988  0.6292
    72IDQ   C6659130   5.542   7.490  26.925 -0.0180 -0.0600 -0.1647
    72IDQ   C6759131   5.544   7.611  26.835 -0.0846  0.5195 -1.3756
    72IDQ   C6859132   5.475   7.623  26.702  0.1958  0.6471  0.3967
    72IDQ   C6959133   5.482   7.773  26.664 -0.6554 -0.4778  0.0362
    72IDQ   C7059134   5.518   7.805  26.516  0.0255  0.4668 -0.6705
    72IDQ   C7159135   5.433   7.909  26.447  0.6554 -0.3755  0.0258
    72IDQ   C7259136   5.467   7.948  26.306  0.5256 -0.2671 -0.1925
    11RH     C159137   3.080   2.869  18.256  0.1027  0.2322 -0.2313
    11RH     C259138   3.185   2.804  18.338 -0.1414  0.0204 -0.0844
    11RH     N159139   3.079   3.009  18.276  0.1157  0.1945  0.0494
    11RH     S159140   3.276   2.930  18.435 -0.3380 -0.2144  0.4139
    11RH     C359141   3.171   3.064  18.363 -0.0882 -0.0215  0.4039
    11RH     C459142   2.993   3.091  18.199  0.1161  0.5080  0.5573
    11RH     S259143   3.191   3.226  18.403 -0.1204 -0.1109  0.7858
    11RH     O159144   3.001   2.811  18.180  0.2769  0.4209 -0.5584
    11RH     C559145   3.206   2.672  18.338 -0.2018  0.0095 -0.2933
    21BTZ    C659146   3.314   2.583  18.390 -0.0542 -0.5061 -0.0481
    21BTZ    C759147   3.422   2.632  18.459 -0.0725 -0.5831  0.0367
    21BTZ    C859148   3.302   2.441  18.373 -0.0828 -0.4913 -0.1564
    21BTZ    C959149   3.523   2.545  18.514 -0.1193 -0.6490  0.0186
    21BTZ   C1059150   3.515   2.409  18.501 -0.1478 -0.6378 -0.0833
    21BTZ   C1159151   3.405   2.352  18.430 -0.1304 -0.5583 -0.1740
    21BTZ    N259152   3.202   2.381  18.308 -0.0690 -0.4190 -0.2441
    21BTZ    N359153   3.387   2.222  18.411 -0.1549 -0.5399 -0.2770
    21BTZ    S359154   3.235   2.205  18.317 -0.1173 -0.4339 -0.3566
    31IDT   C1259155   3.628   2.328  18.551 -0.0557  0.4278 -0.6192
    31IDT   C1359156   3.629   2.209  18.619 -0.5570  0.4855 -0.5007
    31IDT   C1459157   3.761   2.164  18.650 -0.7551  0.1161 -0.1793
    31IDT   C1559158   3.861   2.249  18.607 -0.4069 -0.2248 -0.0508
    31IDT    S459159   3.796   2.393  18.523  0.2045 -0.1033 -0.3294
    4IDB    C1659160   3.992   2.208  18.661  0.0950  0.2634  0.3724
    4IDB    C1759161   3.968   2.097  18.748  0.2339  0.0949  0.1988
    51IDQ   C1859162   3.824   2.048  18.724  0.1128  0.4840 -0.4502
    4IDB    C1959163   4.068   2.048  18.831  0.3474 -0.0251 -0.0080
    51IDQ   C2059164   3.843   1.921  18.625  0.5526 -0.2067 -0.3765
    51IDQ   C2159165   3.739   1.998  18.851 -0.6065  0.5034  0.1967
    51IDQ   C2259166   3.782   2.047  18.987  0.0237 -0.2509  0.1854
    51IDQ   C2359167   3.804   1.932  18.476 -0.0000 -0.4648  0.3996
    51IDQ   C2459168   3.675   2.056  19.086  0.4384  0.4393 -0.4896
    51IDQ   C2559169   3.593   1.937  19.138  0.6697 -0.7445  0.3744
    51IDQ   C2659170   3.458   1.981  19.208  0.0244  0.6507  0.1920
    51IDQ   C2759171   3.405   1.868  19.290  0.0605 -0.4367 -0.1239
    51IDQ   C2859172   3.273   1.871  19.381  0.1592  0.0963 -0.2994
    51IDQ   C2959173   3.247   1.987  19.465 -0.1668  0.0954  0.3396
    51IDQ   C3059174   3.827   1.819  18.364 -0.3087 -0.2424  0.6379
    51IDQ   C3159175   3.780   1.676  18.397  1.3215  0.8853  0.1653
    51IDQ   C3259176   3.819   1.553  18.312  0.3735  0.0032  0.4592
    51IDQ   C3359177   3.839   1.421  18.379  0.0306 -0.4699 -0.0425
    51IDQ   C3459178   3.921   1.415  18.511 -0.6645 -0.0810 -0.8065
    51IDQ   C3559179   3.952   1.282  18.580  0.7619 -0.3237 -0.1456
    4IDB    C3659180   4.117   2.270  18.656  0.0689  0.3132  0.3400
    4IDB    C3759181   4.218   2.219  18.742  0.1863  0.1888  0.1283
    11RH    C3859182   3.034   3.117  18.058  0.1689  0.0445 -0.6314
    4IDB    C3959183   4.193   2.111  18.826  0.3214  0.0247 -0.0400
    62IDT   C4059184   4.306   2.072  18.901  0.0557 -0.1376 -0.2157
    72IDQ   C4159185   4.358   2.260  18.763  0.0056 -0.0661  0.6934
    62IDT   C4259186   4.406   2.163  18.874  0.1490 -0.3291 -0.5150
    72IDQ   C4359187   4.365   2.416  18.818 -0.8022  0.4844  0.7855
    72IDQ   C4459188   4.450   2.259  18.628  0.8086 -0.2507 -0.6812
    62IDT    S559189   4.357   1.948  19.019 -0.0897  0.2275  0.2379
    62IDT   C4559190   4.520   2.028  19.026 -0.0132  0.0957 -0.0135
    62IDT   C4659191   4.528   2.138  18.944  0.1103 -0.1974 -0.4010
    82BTZ   C4759192   4.627   1.977  19.131 -0.0686 -0.3921  0.0388
    82BTZ   C4859193   4.631   1.842  19.155  0.0308 -0.3707  0.1454
    82BTZ   C4959194   4.684   1.788  19.278  0.0125 -0.2319  0.2146
    82BTZ   C5059195   4.733   1.869  19.377 -0.1050 -0.1146  0.1768
    82BTZ   C5159196   4.677   2.066  19.231 -0.1932 -0.2726 -0.0043
    82BTZ   C5259197   4.731   2.011  19.356 -0.2120 -0.1315  0.0663
    92RH    C5359198   4.770   1.811  19.505 -0.1876 -0.2815 -0.5409
    82BTZ    N459199   4.679   2.199  19.220 -0.2973 -0.2800 -0.1063
    82BTZ    N559200   4.775   2.101  19.445 -0.3307 -0.0255  0.0200
    82BTZ    S659201   4.750   2.261  19.371 -0.4259 -0.1031 -0.1179
    92RH    C5459202   4.769   1.685  19.550 -0.1457 -0.2029 -0.3209
    92RH     S759203   4.709   1.536  19.461 -0.1680 -0.3694 -0.0325
    92RH    C5559204   4.816   1.646  19.685 -0.0719  0.0397 -0.2770
    92RH     O259205   4.862   1.724  19.771 -0.0411  0.1960 -0.4349
    92RH     N659206   4.803   1.507  19.707 -0.0399  0.0745 -0.0278
    92RH    C5659207   4.750   1.430  19.606 -0.0788 -0.1106  0.1321
    92RH    C5759208   4.817   1.445  19.846  0.2112 -0.8805 -0.0604
    92RH    C5859209   4.705   1.481  19.942 -0.4181  0.0618  0.2530
    92RH     S859210   4.724   1.264  19.606 -0.0530 -0.1152  0.4358
    72IDQ   C5959211   4.468   2.122  18.559 -0.1623  0.3134 -0.7385
    72IDQ   C6059212   4.479   2.127  18.401  0.5675  0.1432 -0.4933
    72IDQ   C6159213   4.437   1.991  18.352 -0.5633  0.3105  0.6428
    72IDQ   C6259214   4.324   1.977  18.246 -0.7233  0.0372  0.7717
    72IDQ   C6359215   4.186   2.047  18.274 -0.6574 -0.6252  1.0925
    72IDQ   C6459216   4.191   2.203  18.258  0.0389  0.0921 -0.4350
    72IDQ   C6559217   4.056   2.259  18.268 -0.5705  0.4521 -0.2026
    72IDQ   C6659218   4.430   2.449  18.949 -0.6007 -0.1437 -0.0444
    72IDQ   C6759219   4.446   2.599  18.940  0.4318 -0.3956  0.6684
    72IDQ   C6859220   4.517   2.656  19.065 -0.6315  0.3629  0.0304
    72IDQ   C6959221   4.564   2.794  19.040  0.2247 -1.1634  0.5531
    72IDQ   C7059222   4.710   2.799  19.106  1.6294  0.0765  0.3101
    72IDQ   C7159223   4.782   2.921  19.081  0.1599 -0.8692  0.5189
    72IDQ   C7259224   4.742   3.036  19.173  0.1248 -0.1884  0.9711
    11RH     C159225   0.976   5.650  17.984 -0.1546 -0.0374 -0.1707
    11RH     C259226   0.975   5.788  18.040  0.0565 -0.1400  0.0901
    11RH     N159227   0.881   5.568  18.049 -0.3834  0.0233 -0.4262
    11RH     S159228   0.850   5.800  18.173 -0.0596 -0.1499 -0.0172
    11RH     C359229   0.804   5.623  18.149 -0.3814 -0.0181 -0.4015
    11RH     C459230   0.872   5.423  18.025 -1.2285  0.0026  0.1077
    11RH     S259231   0.685   5.547  18.241 -0.6264  0.0376 -0.6704
    11RH     O159232   1.049   5.610  17.893 -0.1380 -0.0067 -0.1698
    11RH     C559233   1.055   5.886  17.996  0.2933 -0.2122  0.3599
    21BTZ    C659234   1.079   6.027  18.030 -0.5172  0.0458  0.1759
    21BTZ    C759235   1.010   6.089  18.131 -0.3283  0.0148  0.3271
    21BTZ    C859236   1.179   6.102  17.960 -0.4386 -0.0235  0.2141
    21BTZ    C959237   1.035   6.226  18.167 -0.0547 -0.0849  0.5207
    21BTZ   C1059238   1.129   6.301  18.103  0.0298 -0.1537  0.5642
    21BTZ   C1159239   1.205   6.242  17.997 -0.1604 -0.1249  0.4115
    21BTZ    N259240   1.254   6.053  17.860 -0.6041 -0.0020  0.0792
    21BTZ    N359241   1.299   6.305  17.927 -0.1023 -0.1849  0.4354
    21BTZ    S359242   1.361   6.186  17.808 -0.4071 -0.1129  0.2014
    31IDT   C1259243   1.130   6.447  18.133 -0.0778  0.3902 -0.4819
    31IDT   C1359244   1.244   6.522  18.149 -0.0147  0.3242 -0.6247
    31IDT   C1459245   1.218   6.654  18.197  0.1652  0.1622 -0.0644
    31IDT   C1559246   1.084   6.681  18.218  0.2402  0.1038  0.5081
    31IDT    S459247   0.980   6.539  18.179  0.0874  0.2507  0.3813
    4IDB    C1659248   1.070   6.818  18.263  0.5623 -0.1861  0.0290
    4IDB    C1759249   1.199   6.871  18.293  0.3788 -0.1972  0.8688
    51IDQ   C1859250   1.314   6.774  18.246  0.1925  0.0702  0.2802
    4IDB    C1959251   1.215   7.002  18.335  0.1476 -0.1070  0.6758
    51IDQ   C2059252   1.392   6.842  18.118 -0.2099  0.4086 -0.1628
    51IDQ   C2159253   1.407   6.718  18.354 -0.1021 -1.1976  0.6219
    51IDQ   C2259254   1.373   6.738  18.497  0.6401  0.8901 -0.4335
    51IDQ   C2359255   1.337   6.811  17.979  0.4086 -0.1927 -0.6467
    51IDQ   C2459256   1.495   6.740  18.577  0.0040 -0.5560  0.2840
    51IDQ   C2559257   1.472   6.745  18.728  0.4421 -0.2696  1.3734
    51IDQ   C2659258   1.590   6.678  18.800 -0.8608 -0.1974  0.0135
    51IDQ   C2759259   1.618   6.709  18.951  0.3254  0.5146  0.8974
    51IDQ   C2859260   1.698   6.600  19.003 -0.5458  1.0505  1.0706
    51IDQ   C2959261   1.765   6.629  19.128 -0.4971  0.6190  0.2742
    51IDQ   C3059262   1.209   6.890  17.946  0.8654 -0.2351 -0.1494
    51IDQ   C3159263   1.129   6.852  17.818  0.0353 -0.2425  0.0292
    51IDQ   C3259264   1.005   6.936  17.786 -0.4009  0.7911 -0.8142
    51IDQ   C3359265   0.940   6.897  17.657  0.3730 -0.0095  0.3599
    51IDQ   C3459266   0.907   6.758  17.637  0.3437  1.1026  0.1499
    51IDQ   C3559267   0.936   6.746  17.485  0.2241  1.2622 -0.0235
    4IDB    C3659268   0.955   6.898  18.274  0.5153 -0.0838 -1.0161
    4IDB    C3759269   0.973   7.032  18.316  0.2780  0.0075 -1.1988
    11RH    C3859270   0.807   5.370  17.901  0.6162  0.3300  0.0424
    4IDB    C3959271   1.100   7.082  18.346  0.1005 -0.0047 -0.3695
    62IDT   C4059272   1.101   7.217  18.380  0.2542 -0.1692  0.1300
    72IDQ   C4159273   0.877   7.149  18.357  0.4882  0.2165  0.2358
    62IDT   C4259274   0.971   7.262  18.382  0.2247 -0.2638  0.3409
    72IDQ   C4359275   0.798   7.113  18.491  0.6918 -0.4477 -0.7707
    72IDQ   C4459276   0.790   7.213  18.243 -0.5416  0.7279 -0.5833
    62IDT    S559277   1.218   7.346  18.426  0.2217 -0.1342  0.1156
    62IDT   C4559278   1.078   7.459  18.448  0.1673 -0.2554  0.4088
    62IDT   C4659279   0.958   7.399  18.421  0.1756 -0.3128  0.4992
    82BTZ   C4759280   1.100   7.603  18.456  0.1928  0.3651  0.4336
    82BTZ   C4859281   1.224   7.634  18.407  0.2214  0.2960  0.4601
    82BTZ   C4959282   1.276   7.769  18.413  0.2774  0.2758  0.4334
    82BTZ   C5059283   1.204   7.871  18.469  0.3047  0.3246  0.3787
    82BTZ   C5159284   1.021   7.707  18.515  0.2195  0.4182  0.3757
    82BTZ   C5259285   1.074   7.843  18.521  0.2764  0.3976  0.3486
    92RH    C5359286   1.260   8.001  18.484  0.0663 -0.3170 -0.0709
    82BTZ    N459287   0.899   7.688  18.566  0.1960  0.4871  0.3452
    82BTZ    N559288   0.994   7.934  18.578  0.2986  0.4500  0.2952
    82BTZ    S659289   0.845   7.848  18.626  0.2466  0.5295  0.2776
    92RH    C5459290   1.379   8.057  18.464  0.0516 -0.2615 -0.0043
    92RH     S759291   1.520   7.985  18.371  0.0216 -0.0541 -0.2140
    92RH    C5559292   1.417   8.191  18.516  0.0576 -0.3638  0.2575
    92RH     O259293   1.344   8.266  18.583  0.0767 -0.5099  0.4435
    92RH     N659294   1.549   8.225  18.480  0.0388 -0.2741  0.2726
    92RH    C5659295   1.622   8.135  18.406  0.0184 -0.1124  0.0548
    92RH    C5759296   1.607   8.362  18.515  0.2059  0.1178 -1.3046
    92RH    C5859297   1.613   8.477  18.408  1.0061 -0.3719 -0.1972
    92RH     S859298   1.781   8.151  18.350 -0.0065  0.0204  0.0224
    72IDQ   C5959299   0.643   7.177  18.221  0.3341  0.0602  0.3911
    72IDQ   C6059300   0.561   7.290  18.154  0.7131  0.5701  0.0370
    72IDQ   C6159301   0.406   7.272  18.126 -0.4905  0.7672 -0.7074
    72IDQ   C6259302   0.401   7.150  18.028  0.0161 -0.5513 -0.1941
    72IDQ   C6359303   0.357   7.183  17.893 -0.6014 -0.6025  0.2820
    72IDQ   C6459304   0.375   7.071  17.788 -0.1104  0.3105  0.0199
    72IDQ   C6559305   0.298   7.096  17.660  0.6142 -0.9834 -0.3898
    72IDQ   C6659306   0.722   7.216  18.572 -1.8993  0.1147  0.1589
    72IDQ   C6759307   0.659   7.150  18.693  0.6865 -0.4978 -0.1599
    72IDQ   C6859308   0.733   7.068  18.789 -1.5111  0.3153 -0.2512
    72IDQ   C6959309   0.716   7.108  18.936 -0.7993  0.0644  0.1517
    72IDQ   C7059310   0.768   7.003  19.035  0.3418 -0.5995  0.5568
    72IDQ   C7159311   0.823   7.076  19.152 -0.5309  0.9607 -0.0111
    72IDQ   C7259312   0.726   7.120  19.257 -0.5399  0.0684 -0.2308
    11RH     C159313   4.580   0.580   0.506 -0.0747  0.2170 -0.3721
    11RH     C259314   4.515   0.675   0.600 -0.0352 -0.0910 -0.0302
    11RH     N159315   4.489   0.534   0.408 -0.1115  0.5520 -0.4996
    11RH     S159316   4.339   0.697   0.554 -0.0489  0.0799  0.1013
    11RH     C359317   4.359   0.580   0.413 -0.1062  0.5500 -0.3017
    11RH     C459318   4.531   0.416   0.326  0.6191 -0.6369 -0.0079
    11RH     S259319   4.232   0.540   0.309 -0.1445  0.9089 -0.3937
    11RH     O159320   4.699   0.544   0.510 -0.0764  0.1919 -0.5319
    11RH     C559321   4.579   0.733   0.702  0.0041 -0.4375  0.1472
    21BTZ    C659322   4.532   0.814   0.814 -0.4010 -0.5397  0.1773
    21BTZ    C759323   4.403   0.856   0.834 -0.3906 -0.4614  0.0791
    21BTZ    C859324   4.635   0.864   0.900 -0.3792 -0.3147  0.0225
    21BTZ    C959325   4.369   0.949   0.939 -0.3587 -0.1603 -0.1745
    21BTZ   C1059326   4.464   1.000   1.024 -0.3371  0.0622 -0.3294
    21BTZ   C1159327   4.601   0.958   1.007 -0.3467 -0.0086 -0.2352
    21BTZ    N259328   4.764   0.830   0.891 -0.3865 -0.3634  0.0969
    21BTZ    N359329   4.702   1.000   1.083 -0.3277  0.1887 -0.3680
    21BTZ    S359330   4.849   0.919   1.020 -0.3511 -0.0128 -0.1648
    31IDT   C1259331   4.424   1.095   1.129  0.3317  0.5066  0.5280
    31IDT   C1359332   4.495   1.190   1.199  0.0845  0.6263  0.6211
    31IDT   C1459333   4.415   1.260   1.295 -0.1583  0.4949  0.5181
    31IDT   C1559334   4.284   1.219   1.299 -0.0977  0.2748  0.3464
    31IDT    S459335   4.250   1.088   1.182  0.2748  0.2163  0.3013
    4IDB    C1659336   4.212   1.310   1.378  0.2887  0.3282 -0.3005
    4IDB    C1759337   4.298   1.409   1.434  0.2356 -0.0284  0.4352
    51IDQ   C1859338   4.443   1.374   1.393 -0.2433  0.8075 -0.0335
    4IDB    C1959339   4.246   1.516   1.506  0.1049 -0.0959  0.4420
    51IDQ   C2059340   4.513   1.509   1.336  0.0016 -0.5171 -0.2988
    51IDQ   C2159341   4.534   1.318   1.502 -1.2175  0.1096 -0.7134
    51IDQ   C2259342   4.500   1.244   1.635  0.5244 -0.0353  0.1676
    51IDQ   C2359343   4.557   1.536   1.195  0.1801 -0.6944  0.0506
    51IDQ   C2459344   4.413   1.321   1.745 -0.1556  0.3883 -0.4343
    51IDQ   C2559345   4.452   1.270   1.881  0.3167  0.1404  0.1747
    51IDQ   C2659346   4.404   1.347   1.996 -0.4423 -0.4934  0.4416
    51IDQ   C2759347   4.479   1.316   2.125 -0.5882  0.6668 -0.0995
    51IDQ   C2859348   4.432   1.180   2.189 -0.2160 -0.5632 -0.9408
    51IDQ   C2959349   4.525   1.109   2.285 -0.2564 -0.0239  0.1535
    51IDQ   C3059350   4.583   1.677   1.156 -0.5410 -0.3060  0.0325
    51IDQ   C3159351   4.657   1.708   1.021  0.2118  0.2205  0.7175
    51IDQ   C3259352   4.676   1.849   0.976  0.3117 -0.9641 -0.1341
    51IDQ   C3359353   4.737   1.880   0.834 -0.4361 -0.2083  1.0115
    51IDQ   C3459354   4.854   1.786   0.774 -0.0221 -0.2481  0.3056
    51IDQ   C3559355   4.988   1.787   0.836  0.5832  0.1015  0.0364
    4IDB    C3659356   4.072   1.318   1.394  0.2109  0.6211 -1.0381
    4IDB    C3759357   4.021   1.428   1.468  0.0774  0.5469 -1.0195
    11RH    C3859358   4.587   0.454   0.187 -0.1877  0.7324 -0.2561
    4IDB    C3959359   4.107   1.524   1.522  0.0268  0.1970 -0.2956
    62IDT   C4059360   4.027   1.622   1.589 -0.4387 -0.1488 -0.2563
    72IDQ   C4159361   3.871   1.452   1.512 -0.2706 -1.1853  0.4453
    62IDT   C4259362   3.893   1.590   1.585 -0.5269  0.1468  0.1885
    72IDQ   C4359363   3.822   1.333   1.610  0.8236 -0.7039  0.9747
    72IDQ   C4459364   3.779   1.449   1.385  0.3989 -0.3436  0.3209
    62IDT    S559365   4.058   1.765   1.693  0.2414 -0.3047 -0.2403
    62IDT   C4559366   3.880   1.774   1.728  0.3773  0.0556  0.3978
    62IDT   C4659367   3.810   1.676   1.663 -0.0657  0.2628  0.5588
    82BTZ   C4759368   3.834   1.864   1.839  0.2778  0.7766 -0.2804
    82BTZ   C4859369   3.925   1.913   1.928  0.1882  0.8780 -0.2436
    82BTZ   C4959370   3.885   1.990   2.043  0.0185  0.4542 -0.0134
    82BTZ   C5059371   3.754   2.019   2.069 -0.0611 -0.0703  0.1797
    82BTZ   C5159372   3.695   1.891   1.861  0.1998  0.2337 -0.0839
    82BTZ   C5259373   3.654   1.969   1.978  0.0274 -0.1971  0.1501
    92RH    C5359374   3.712   2.080   2.193  0.3189 -0.7436 -0.2576
    82BTZ    N459375   3.596   1.849   1.782  0.2743  0.0848 -0.0976
    82BTZ    N559376   3.523   1.990   1.993 -0.0368 -0.6922  0.3245
    82BTZ    S659377   3.444   1.909   1.854  0.1238 -0.6274  0.1942
    92RH    C5459378   3.765   2.107   2.313  0.2033 -0.3636 -0.2885
    92RH     S759379   3.934   2.065   2.371  0.3560  0.3562 -0.1953
    92RH    C5559380   3.690   2.176   2.421 -0.0758 -0.4740 -0.4073
    92RH     O259381   3.574   2.218   2.413 -0.2328 -0.9216 -0.4906
    92RH     N659382   3.770   2.191   2.537 -0.1455  0.0002 -0.4153
    92RH    C5659383   3.898   2.141   2.535  0.0437  0.4768 -0.3177
    92RH    C5759384   3.706   2.277   2.653  0.1751  0.1687 -0.0127
    92RH    C5859385   3.673   2.198   2.778  0.7381  0.0918  0.3106
    92RH     S859386   4.012   2.146   2.659  0.0118  1.0934 -0.3042
    72IDQ   C5959387   3.657   1.544   1.370  0.6438 -0.3038 -0.3167
    72IDQ   C6059388   3.573   1.558   1.241  0.3412  1.5371 -0.3450
    72IDQ   C6159389   3.628   1.630   1.129 -0.5617  0.6217 -0.3955
    72IDQ   C6259390   3.607   1.780   1.169 -0.9140 -0.1905  0.1470
    72IDQ   C6359391   3.670   1.869   1.055  0.1242 -0.0727 -0.1633
    72IDQ   C6459392   3.625   2.014   1.044 -0.1255 -0.4500  0.3885
    72IDQ   C6559393   3.658   2.066   0.903  0.7648  1.2130 -0.2073
    72IDQ   C6659394   3.830   1.342   1.762  0.4179  0.7079  0.1761
    72IDQ   C6759395   3.982   1.346   1.813  0.5692 -0.2206  0.5627
    72IDQ   C6859396   4.008   1.284   1.947 -0.7838  0.5016  0.5150
    72IDQ   C6959397   4.001   1.121   1.959 -1.2698 -0.6423 -0.2891
    72IDQ   C7059398   4.085   1.036   1.862  0.1172  0.6654  0.3532
    72IDQ   C7159399   4.026   1.012   1.722 -0.2384 -1.0280 -0.5822
    72IDQ   C7259400   4.131   0.964   1.631  0.1111 -0.4196  0.2230
    11RH     C159401   0.678   5.516  23.439  0.4244 -0.4480 -0.6204
    11RH     C259402   0.688   5.427  23.557  0.2385 -0.1177 -0.3505
    11RH     N159403   0.545   5.522  23.390  0.3666 -0.0571 -0.4258
    11RH     S159404   0.523   5.356  23.596 -0.0002  0.6852  0.1407
    11RH     C359405   0.448   5.448  23.455  0.1571  0.5455 -0.0339
    11RH     C459406   0.517   5.564  23.255  0.4203  0.3360  0.0403
    11RH     S259407   0.285   5.437  23.417  0.0477  1.1014  0.2646
    11RH     O159408   0.772   5.579  23.388  0.6091 -0.9974 -0.9732
    11RH     C559409   0.802   5.404  23.623  0.2499 -0.3824 -0.4610
    21BTZ    C659410   0.851   5.309  23.731 -0.1734  0.5908  0.5251
    21BTZ    C759411   0.774   5.211  23.789 -0.1525  0.4436  0.3095
    21BTZ    C859412   0.979   5.339  23.787 -0.0059  0.2109  0.3557
    21BTZ    C959413   0.820   5.139  23.906  0.0329 -0.0808 -0.0806
    21BTZ   C1059414   0.941   5.165  23.963  0.1970 -0.4571 -0.2539
    21BTZ   C1159415   1.025   5.266  23.906  0.1825 -0.3221 -0.0401
    21BTZ    N259416   1.062   5.432  23.739 -0.0080  0.3072  0.5369
    21BTZ    N359417   1.145   5.300  23.953  0.3319 -0.6542 -0.1783
    21BTZ    S359418   1.206   5.429  23.845  0.2359 -0.2917  0.2020
    31IDT   C1259419   0.996   5.064  24.056  0.3574  0.0706 -0.1619
    31IDT   C1359420   1.116   4.998  24.054  0.4272  0.1738  0.3433
    31IDT   C1459421   1.139   4.920  24.171  0.0246  0.2350  0.4644
    31IDT   C1559422   1.036   4.925  24.263 -0.3538  0.1791  0.0525
    31IDT    S459423   0.902   5.031  24.208 -0.2286  0.0432 -0.5251
    4IDB    C1659424   1.066   4.848  24.379  0.0690  0.0016 -0.1780
    4IDB    C1759425   1.199   4.797  24.364 -0.0122 -0.1346 -0.4444
    51IDQ   C1859426   1.255   4.841  24.223 -0.8493 -0.1423 -0.3080
    4IDB    C1959427   1.261   4.730  24.469  0.2647  0.1165 -0.4478
    51IDQ   C2059428   1.398   4.917  24.248  0.2875  0.4522  0.3628
    51IDQ   C2159429   1.303   4.720  24.126  0.0123 -0.3752 -0.0590
    51IDQ   C2259430   1.300   4.579  24.169  0.7277  0.0379 -0.1647
    51IDQ   C2359431   1.413   5.067  24.237 -0.5187  0.1160 -0.1606
    51IDQ   C2459432   1.374   4.474  24.083 -1.0289  0.1281  0.1592
    51IDQ   C2559433   1.402   4.330  24.131 -1.0709  0.5225 -0.0186
    51IDQ   C2659434   1.501   4.323  24.255  0.2720 -0.6174  1.0946
    51IDQ   C2759435   1.516   4.191  24.324  0.3769  0.9570  0.3131
    51IDQ   C2859436   1.566   4.191  24.472 -0.4471  0.5320  0.4939
    51IDQ   C2959437   1.590   4.051  24.531 -0.1742 -0.5139  0.6205
    51IDQ   C3059438   1.478   5.130  24.119 -0.2557 -0.1679 -0.0428
    51IDQ   C3159439   1.621   5.097  24.065 -0.1710  0.4227 -0.1974
    51IDQ   C3259440   1.750   5.111  24.154  1.4562  0.8505  0.5402
    51IDQ   C3359441   1.775   5.247  24.200  0.3545 -1.1472 -0.0687
    51IDQ   C3459442   1.918   5.282  24.243 -0.8322 -0.2151  0.3255
    51IDQ   C3559443   1.932   5.418  24.319 -0.3887  0.9968  0.8341
    4IDB    C3659444   0.996   4.834  24.499  0.4301  0.3918  0.0873
    4IDB    C3759445   1.061   4.766  24.605  0.7096  0.6441  0.0787
    11RH    C3859446   0.483   5.712  23.237 -0.3343 -0.3748 -0.1651
    4IDB    C3959447   1.191   4.716  24.590  0.6258  0.5067 -0.1831
    62IDT   C4059448   1.231   4.649  24.715  0.4807  0.1614  0.1445
    72IDQ   C4159449   1.004   4.722  24.742  0.8425 -1.3194 -0.4165
    62IDT   C4259450   1.122   4.636  24.799  0.4665  0.7000  0.2179
    72IDQ   C4359451   0.865   4.641  24.732  0.1324  0.4412  0.2761
    72IDQ   C4459452   0.963   4.858  24.825 -1.0971  0.8112  0.4792
    62IDT    S559453   1.376   4.564  24.779  0.2787 -0.0235  0.3611
    62IDT   C4559454   1.277   4.513  24.923  0.1810  0.6710  0.5491
    62IDT   C4659455   1.148   4.559  24.917  0.2970  0.9888  0.4463
    82BTZ   C4759456   1.339   4.422  25.021 -0.0541  0.4574  0.0648
    82BTZ   C4859457   1.471   4.391  24.997 -0.1329  0.3554 -0.2508
    82BTZ   C4959458   1.553   4.328  25.097 -0.0557 -0.0998 -0.5960
    82BTZ   C5059459   1.504   4.296  25.221  0.1003 -0.4521 -0.6238
    82BTZ   C5159460   1.283   4.390  25.149  0.1094  0.0999  0.0491
    82BTZ   C5259461   1.367   4.326  25.250  0.1879 -0.3628 -0.3014
    92RH    C5359462   1.581   4.228  25.328  0.2281 -0.0777  0.0724
    82BTZ    N459463   1.156   4.415  25.183  0.1986  0.1571  0.3390
    82BTZ    N559464   1.307   4.299  25.367  0.3402 -0.6773 -0.2933
    82BTZ    S659465   1.138   4.356  25.351  0.3908 -0.3896  0.1709
    92RH    C5459466   1.702   4.172  25.338  0.1516 -0.2476  0.0482
    92RH     S759467   1.821   4.142  25.201  0.2726  0.0124  0.0953
    92RH    C5559468   1.759   4.124  25.466 -0.0499 -0.6880 -0.0229
    92RH     O259469   1.704   4.130  25.577 -0.1696 -0.9468 -0.0677
    92RH     N659470   1.888   4.069  25.447 -0.0920 -0.7833 -0.0348
    92RH    C5659471   1.941   4.068  25.320  0.0511 -0.4733  0.0191
    92RH    C5759472   1.941   3.979  25.553  0.0073 -0.1524 -0.3532
    92RH    C5859473   2.010   4.042  25.677  0.9374 -0.0351  0.3515
    92RH     S859474   2.091   4.008  25.271  0.0384 -0.5053  0.0186
    72IDQ   C5959475   1.075   4.959  24.825 -1.2087 -0.0768  0.9215
    72IDQ   C6059476   1.015   5.095  24.875  0.1982  0.0770 -0.9978
    72IDQ   C6159477   0.932   5.182  24.779  0.0057 -0.4780 -1.0067
    72IDQ   C6259478   0.819   5.261  24.849 -0.2375 -0.4375 -0.2371
    72IDQ   C6359479   0.697   5.315  24.764 -0.4901 -0.2554 -0.7309
    72IDQ   C6459480   0.580   5.396  24.821  0.8169  0.2212  0.2444
    72IDQ   C6559481   0.495   5.314  24.927 -0.0789 -0.8625  0.1671
    72IDQ   C6659482   0.859   4.548  24.611  0.3044  1.0400  0.4992
    72IDQ   C6759483   0.727   4.466  24.587  0.9600  0.2888  0.5733
    72IDQ   C6859484   0.598   4.533  24.557  0.4191  0.0912  0.1970
    72IDQ   C6959485   0.564   4.578  24.419  0.3639  0.2834  0.3330
    72IDQ   C7059486   0.657   4.670  24.337 -0.0016 -0.0391  0.1191
    72IDQ   C7159487   0.681   4.600  24.206  0.0502  0.7683  0.2613
    72IDQ   C7259488   0.751   4.690  24.101 -0.4455  0.4948  0.6024
    11RH     C159489   5.091   4.366   3.744 -0.3552 -0.4090  0.2869
    11RH     C259490   5.071   4.337   3.600 -0.0982 -0.1056  0.1850
    11RH     N159491   5.196   4.288   3.798 -0.2966 -0.3557  0.2509
    11RH     S159492   5.190   4.208   3.546  0.2037  0.2297  0.0486
    11RH     C359493   5.261   4.200   3.715 -0.0242 -0.0468  0.1326
    11RH     C459494   5.259   4.325   3.930  0.1305 -0.4714 -0.4693
    11RH     S259495   5.389   4.097   3.755  0.1004  0.0803  0.0671
    11RH     O159496   5.026   4.448   3.811 -0.5941 -0.6788  0.3914
    11RH     C559497   4.978   4.397   3.525 -0.0959 -0.0896  0.1951
    21BTZ    C659498   4.934   4.385   3.382  0.1441  0.1497 -0.3453
    21BTZ    C759499   4.993   4.294   3.298  0.0354  0.1851 -0.4616
    21BTZ    C859500   4.827   4.466   3.330 -0.1314 -0.0422 -0.0872
    21BTZ    C959501   4.951   4.278   3.161 -0.3467  0.0348 -0.3310
    21BTZ   C1059502   4.850   4.354   3.107 -0.6195 -0.1506 -0.0844
    21BTZ   C1159503   4.785   4.450   3.191 -0.5198 -0.1949  0.0455
    21BTZ    N259504   4.762   4.558   3.402 -0.0600 -0.0945  0.0461
    21BTZ    N359505   4.686   4.530   3.150 -0.7603 -0.3699  0.2855
    21BTZ    S359506   4.641   4.630   3.292 -0.4950 -0.3464  0.3534
    31IDT   C1259507   4.826   4.350   2.967 -0.0470  0.1703 -0.4144
    31IDT   C1359508   4.717   4.296   2.904 -0.2830  0.9035 -0.6533
    31IDT   C1459509   4.731   4.292   2.762 -0.2342  1.3118 -0.6612
    31IDT   C1559510   4.850   4.343   2.716  0.0389  0.8939 -0.4287
    31IDT    S459511   4.955   4.400   2.850  0.2574 -0.0580 -0.1798
    4IDB    C1659512   4.851   4.332   2.566 -0.5565  0.7680 -0.0827
    4IDB    C1759513   4.728   4.273   2.524 -0.0588 -0.2856 -0.1320
    51IDQ   C1859514   4.640   4.256   2.647  0.9813 -0.3452  0.3654
    4IDB    C1959515   4.698   4.257   2.389  0.0845 -0.4431 -0.1452
    51IDQ   C2059516   4.517   4.352   2.628  0.4300  0.0357  0.5921
    51IDQ   C2159517   4.570   4.105   2.657 -0.7226 -0.7182 -0.5235
    51IDQ   C2259518   4.628   3.988   2.577 -0.1860  0.6871 -0.9882
    51IDQ   C2359519   4.510   4.488   2.703  0.2561  0.7155 -0.3127
    51IDQ   C2459520   4.525   3.871   2.548 -0.0969 -1.2883 -0.9031
    51IDQ   C2559521   4.568   3.756   2.457 -1.0417  0.6236 -0.8046
    51IDQ   C2659522   4.578   3.797   2.312  0.6168  0.4917  0.5745
    51IDQ   C2759523   4.614   3.672   2.236  0.5067 -0.3114  0.2976
    51IDQ   C2859524   4.685   3.687   2.102 -0.3429  0.3587  0.5021
    51IDQ   C2959525   4.838   3.720   2.126 -0.2388  0.2942  0.0858
    51IDQ   C3059526   4.606   4.596   2.666 -0.7105  0.0874  0.6034
    51IDQ   C3159527   4.616   4.646   2.522  0.4606 -0.1502  0.3473
    51IDQ   C3259528   4.508   4.685   2.429  0.1124  0.1994 -0.6607
    51IDQ   C3359529   4.561   4.721   2.295 -0.2118 -0.5527  0.7519
    51IDQ   C3459530   4.489   4.839   2.225 -0.0937  0.5846 -0.4679
    51IDQ   C3559531   4.531   4.979   2.277  1.2333  0.5361  1.2010
    4IDB    C3659532   4.946   4.376   2.472 -0.9162  1.6755 -0.0461
    4IDB    C3759533   4.914   4.359   2.334 -0.7634  1.4988 -0.0603
    11RH    C3859534   5.361   4.435   3.930  0.3081 -0.2306 -0.5444
    4IDB    C3959535   4.793   4.301   2.295 -0.2755  0.4642 -0.1086
    62IDT   C4059536   4.787   4.290   2.152 -0.1449  0.1089  0.2507
    72IDQ   C4159537   5.001   4.386   2.208  0.4422 -0.2887 -0.8669
    62IDT   C4259538   4.911   4.324   2.103 -0.1900  0.4032  0.3406
    72IDQ   C4359539   5.139   4.309   2.222  0.2304  0.0283 -0.7045
    72IDQ   C4459540   5.041   4.535   2.203 -0.8452 -0.0285  0.2587
    62IDT    S559541   4.673   4.246   2.021  0.1542 -0.5029  0.1896
    62IDT   C4559542   4.805   4.278   1.901  0.2051 -0.3193  0.2942
    62IDT   C4659543   4.922   4.318   1.961  0.0080  0.1618  0.3654
    82BTZ   C4759544   4.790   4.250   1.754  0.1040 -0.2329  0.4416
    82BTZ   C4859545   4.709   4.149   1.710  0.1459 -0.2861  0.4859
    82BTZ   C4959546   4.685   4.126   1.569 -0.0416 -0.2027  0.5037
    82BTZ   C5059547   4.743   4.205   1.473 -0.2705 -0.0660  0.4770
    82BTZ   C5159548   4.853   4.335   1.657 -0.1328 -0.0904  0.4123
    82BTZ   C5259549   4.829   4.312   1.514 -0.3234 -0.0056  0.4303
    92RH    C5359550   4.735   4.189   1.333 -0.0765 -0.1188  0.1720
    82BTZ    N459551   4.934   4.437   1.688 -0.1955 -0.0268  0.3684
    82BTZ    N559552   4.890   4.396   1.430 -0.5393  0.1262  0.4010
    82BTZ    S659553   4.984   4.509   1.532 -0.5077  0.1478  0.3480
    92RH    C5459554   4.680   4.104   1.246  0.2767 -0.2389  0.0615
    92RH     S759555   4.590   3.949   1.285  0.5353 -0.4367 -0.1177
    92RH    C5559556   4.684   4.124   1.099  0.5192 -0.2290  0.0680
    92RH     O259557   4.737   4.219   1.040  0.4268 -0.1110  0.1743
    92RH     N659558   4.618   4.019   1.031  0.8774 -0.3730 -0.0638
    92RH    C5659559   4.561   3.918   1.105  0.9514 -0.4968 -0.1752
    92RH    C5759560   4.620   4.020   0.881 -0.1247 -0.1766  0.4156
    92RH    C5859561   4.720   3.937   0.802  0.1487  1.1498  0.3033
    92RH     S859562   4.478   3.783   1.050  1.3523 -0.6793 -0.3419
    72IDQ   C5959563   4.936   4.652   2.204  1.2864  0.8664 -0.8492
    72IDQ   C6059564   4.965   4.775   2.288 -0.8771 -0.7806  0.3810
    72IDQ   C6159565   5.018   4.765   2.428  0.5035 -0.3760 -0.3070
    72IDQ   C6259566   5.083   4.909   2.448  1.1192 -0.4517  0.5701
    72IDQ   C6359567   5.138   4.957   2.580 -0.1367  1.0853  0.4931
    72IDQ   C6459568   5.197   5.098   2.566  0.0182  0.3899 -0.8604
    72IDQ   C6559569   5.320   5.129   2.652 -0.4581  0.1179  0.5194
    72IDQ   C6659570   5.159   4.158   2.195 -0.5938  1.1194  0.3240
    72IDQ   C6759571   5.062   4.063   2.266  0.1577  0.2949 -0.2514
    72IDQ   C6859572   5.072   4.049   2.422 -0.0900  0.1417  0.7593
    72IDQ   C6959573   5.001   3.924   2.463  0.1080  0.0080  0.4971
    72IDQ   C7059574   4.959   3.919   2.614 -0.6919 -0.9432  0.4743
    72IDQ   C7159575   5.069   3.963   2.714  0.8357 -0.4968 -0.3953
    72IDQ   C7259576   5.014   3.963   2.850 -0.1267  0.5413 -0.4913
    11RH     C159577   5.373   3.360  24.225  0.0061 -0.4017 -0.0262
    11RH     C259578   5.469   3.370  24.338 -0.1446 -0.0327  0.0710
    11RH     N159579   5.440   3.365  24.101  0.1364 -0.4069  0.0424
    11RH     S159580   5.640   3.386  24.273 -0.1053  0.2831  0.2468
    11RH     C359581   5.577   3.379  24.100  0.1081 -0.0874  0.1831
    11RH     C459582   5.359   3.343  23.986 -0.8712  0.5341  0.9582
    11RH     S259583   5.679   3.387  23.966  0.2414 -0.0207  0.2885
    11RH     O159584   5.250   3.348  24.236  0.0200 -0.6760 -0.1531
    11RH     C559585   5.432   3.368  24.467 -0.2855  0.0464  0.0333
    21BTZ    C659586   5.499   3.406  24.585 -0.1470 -0.0501  0.0864
    21BTZ    C759587   5.622   3.466  24.585 -0.1668 -0.0093  0.0129
    21BTZ    C859588   5.427   3.397  24.709 -0.1189  0.0259  0.1082
    21BTZ    C959589   5.681   3.519  24.705 -0.1601  0.1075 -0.0415
    21BTZ   C1059590   5.616   3.513  24.826 -0.1336  0.1833 -0.0234
    21BTZ   C1159591   5.486   3.451  24.831 -0.1121  0.1446  0.0525
    21BTZ    N259592   5.306   3.341  24.722 -0.0978 -0.0038  0.1779
    21BTZ    N359593   5.414   3.439  24.943 -0.0855  0.2103  0.0777
    21BTZ    S359594   5.263   3.356  24.895 -0.0676  0.1214  0.1754
    31IDT   C1259595   5.678   3.569  24.945 -0.9862  0.1527  0.1905
    31IDT   C1359596   5.683   3.524  25.075 -1.2447  0.2220  0.2241
    31IDT   C1459597   5.761   3.609  25.160 -0.7150 -0.1838  0.1502
    31IDT   C1559598   5.816   3.717  25.096 -0.0506 -0.5642  0.0588
    31IDT    S459599   5.773   3.722  24.921 -0.0447 -0.4367  0.0605
    4IDB    C1659600   5.890   3.805  25.178 -0.6861  0.4247  0.3112
    4IDB    C1759601   5.899   3.744  25.307 -0.1179  0.1114  0.1278
    51IDQ   C1859602   5.811   3.612  25.305  0.1330 -0.2283 -0.7877
    4IDB    C1959603   5.967   3.806  25.411  0.4256 -0.1877 -0.0447
    51IDQ   C2059604   5.905   3.490  25.347 -0.9919  0.4973  0.6083
    51IDQ   C2159605   5.695   3.601  25.409  1.0511 -0.9391  0.1177
    51IDQ   C2259606   5.640   3.728  25.492 -1.4863 -0.3193 -0.3523
    51IDQ   C2359607   5.947   3.361  25.256 -0.7463 -0.7400  0.4694
    51IDQ   C2459608   5.596   3.861  25.428  0.6417  0.1860  0.5319
    51IDQ   C2559609   5.525   3.955  25.510  0.4345 -0.8276 -1.0503
    51IDQ   C2659610   5.601   4.030  25.621  0.2825  0.7407 -0.3325
    51IDQ   C2759611   5.522   4.135  25.696  0.8570 -0.2276 -0.1021
    51IDQ   C2859612   5.375   4.109  25.741  0.1267  0.8353  0.7219
    51IDQ   C2959613   5.353   4.036  25.873  1.6166  0.7157  0.6858
    51IDQ   C3059614   6.030   3.386  25.129 -0.5533 -0.5814 -0.6643
    51IDQ   C3159615   6.044   3.262  25.047 -0.8407  0.3810  0.7276
    51IDQ   C3259616   6.185   3.223  25.006 -0.4752  0.4242 -0.1761
    51IDQ   C3359617   6.209   3.168  24.870 -0.0618 -0.3350 -0.3126
    51IDQ   C3459618   6.160   3.257  24.753 -0.0059 -0.0147  0.5146
    51IDQ   C3559619   6.024   3.212  24.686 -0.4705  0.2831  0.1836
    4IDB    C3659620   5.950   3.930  25.153 -0.7141  0.4405  0.3223
    4IDB    C3759621   6.019   3.991  25.260 -0.1541  0.1323  0.1445
    11RH    C3859622   5.350   3.189  23.959 -0.0175 -0.3443  0.9062
    4IDB    C3959623   6.027   3.930  25.385  0.3975 -0.1719 -0.0343
    62IDT   C4059624   6.112   4.004  25.471 -0.1338  0.0822  0.4801
    72IDQ   C4159625   6.063   4.141  25.279  0.1670 -0.6303  1.0800
    62IDT   C4259626   6.132   4.130  25.418  0.0092  0.1072  0.5932
    72IDQ   C4359627   5.930   4.228  25.279 -0.2117  0.0934 -1.2710
    72IDQ   C4459628   6.155   4.207  25.165 -0.0898  0.5758 -0.2618
    62IDT    S559629   6.199   3.982  25.627  0.2182 -0.3113  0.2325
    62IDT   C4559630   6.261   4.153  25.612  0.5565 -0.4269  0.2981
    62IDT   C4659631   6.216   4.214  25.498  0.3997 -0.1806  0.4902
    82BTZ   C4759632   6.358   4.221  25.705 -0.1421  0.2632 -0.0239
    82BTZ   C4859633   6.393   4.148  25.815 -0.0316  0.2170 -0.0906
    82BTZ   C4959634   6.487   4.198  25.913  0.0658  0.1761 -0.1621
    82BTZ   C5059635   6.544   4.322  25.900  0.0524  0.1819 -0.1680
    82BTZ   C5159636   6.416   4.351  25.687 -0.1606  0.2710 -0.0267
    82BTZ   C5259637   6.510   4.402  25.787 -0.0616  0.2297 -0.0992
    92RH    C5359638   6.637   4.369  26.005 -0.1026 -0.0570  0.3355
    82BTZ    N459639   6.389   4.432  25.584 -0.2643  0.3144  0.0339
    82BTZ    N559640   6.560   4.524  25.764 -0.0858  0.2396 -0.0973
    82BTZ    S659641   6.486   4.580  25.611 -0.2392  0.3040 -0.0002
    92RH    C5459642   6.679   4.312  26.118  0.0612  0.0089  0.3080
    92RH     S759643   6.667   4.134  26.162  0.3826 -0.0141  0.3095
    92RH    C5559644   6.745   4.386  26.228  0.0039  0.1144  0.2713
    92RH     O259645   6.768   4.508  26.229 -0.1979  0.1534  0.2618
    92RH     N659646   6.779   4.300  26.335  0.2103  0.1669  0.2485
    92RH    C5659647   6.749   4.166  26.324  0.4258  0.1163  0.2618
    92RH    C5759648   6.840   4.359  26.462  0.9037 -0.0910  0.1591
    92RH    C5859649   6.989   4.398  26.458 -0.2140  0.3044  0.1898
    92RH     S859650   6.779   4.044  26.436  0.6961  0.1615  0.2398
    72IDQ   C5959651   6.261   4.105  25.104 -0.8378 -0.2694  0.0236
    72IDQ   C6059652   6.364   4.148  24.995 -0.0954  0.9912  0.1450
    72IDQ   C6159653   6.386   4.297  24.976  0.4544 -0.0672  0.7751
    72IDQ   C6259654   6.493   4.361  25.062 -0.1701 -0.0118 -0.3039
    72IDQ   C6359655   6.504   4.515  25.053  0.0744  0.2307 -0.2671
    72IDQ   C6459656   6.578   4.568  25.173  0.1946 -0.3318  0.2663
    72IDQ   C6559657   6.630   4.714  25.160  0.3879  0.1485  0.2467
    72IDQ   C6659658   5.862   4.283  25.410  0.3294  0.1829  0.2170
    72IDQ   C6759659   5.791   4.415  25.389 -0.6854  0.1972  0.7137
    72IDQ   C6859660   5.874   4.539  25.410  0.9649 -0.2131  0.2356
    72IDQ   C6959661   5.949   4.580  25.284  0.4932 -0.1924  0.6661
    72IDQ   C7059662   6.025   4.714  25.275 -0.3993  0.7304 -0.5239
    72IDQ   C7159663   6.156   4.720  25.356 -0.0449  0.7536  1.8698
    72IDQ   C7259664   6.225   4.840  25.291 -0.4405  0.1157  0.1644
    11RH     C159665   3.259   6.171  28.536  0.2210  0.1651  0.1221
    11RH     C259666   3.260   6.085  28.415 -0.1367  0.1209  0.1473
    11RH     N159667   3.257   6.308  28.502  0.0864  0.1520  0.0776
    11RH     S159668   3.258   6.190  28.265 -0.6264  0.0648  0.1120
    11RH     C359669   3.256   6.343  28.369 -0.3352  0.1029  0.0648
    11RH     C459670   3.259   6.416  28.613 -0.5640  0.6804  0.8184
    11RH     S259671   3.253   6.497  28.302 -0.5749  0.0776  0.0143
    11RH     O159672   3.260   6.130  28.653  0.5940  0.2085  0.1364
    11RH     C559673   3.263   5.952  28.419 -0.0950  0.1228  0.1903
    21BTZ    C659674   3.262   5.838  28.317  0.0464  0.1328  0.3248
    21BTZ    C759675   3.244   5.852  28.182  0.2145  0.3674  0.3257
    21BTZ    C859676   3.297   5.709  28.369 -0.1749  0.0061  0.1636
    21BTZ    C959677   3.259   5.741  28.091  0.1742  0.4883  0.1688
    21BTZ   C1059678   3.293   5.616  28.136 -0.0342  0.3745  0.0117
    21BTZ   C1159679   3.313   5.596  28.277 -0.2158  0.1290  0.0038
    21BTZ    N259680   3.317   5.683  28.498 -0.3522 -0.2224  0.1464
    21BTZ    N359681   3.346   5.479  28.332 -0.4261 -0.0008 -0.1411
    21BTZ    S359682   3.358   5.510  28.508 -0.5838 -0.2919 -0.0786
    31IDT   C1259683   3.322   5.518  28.034  0.1206  0.2464 -0.1273
    31IDT   C1359684   3.332   5.383  28.058  0.3063  0.3033  0.1159
    31IDT   C1459685   3.348   5.306  27.939  0.1826  0.0894  0.2375
    31IDT   C1559686   3.350   5.381  27.823 -0.0975 -0.1312  0.0890
    31IDT    S459687   3.332   5.556  27.856 -0.2275 -0.0851 -0.2198
    4IDB    C1659688   3.371   5.291  27.702 -0.5765  0.1274 -0.1785
    4IDB    C1759689   3.363   5.157  27.751  0.0013  0.0459 -0.2871
    51IDQ   C1859690   3.371   5.156  27.902  0.9608  0.2786 -0.6309
    4IDB    C1959691   3.342   5.050  27.664  0.3577  0.0333 -0.3624
    51IDQ   C2059692   3.263   5.052  27.939  1.2214  0.1894 -0.0462
    51IDQ   C2159693   3.501   5.097  27.957 -0.4748 -0.6479 -0.0696
    51IDQ   C2259694   3.636   5.097  27.870 -0.1121  0.0904  0.0613
    51IDQ   C2359695   3.116   5.076  27.994 -0.8228  1.1307  0.1695
    51IDQ   C2459696   3.743   5.010  27.934 -0.1484  0.0408 -0.7042
    51IDQ   C2559697   3.875   4.970  27.867  0.9780  0.6479 -0.2613
    51IDQ   C2659698   3.942   4.840  27.933 -0.0837 -0.4526  0.0793
    51IDQ   C2759699   3.982   4.845  28.083  0.8955  1.2592  0.7607
    51IDQ   C2859700   4.040   4.707  28.120 -0.3520 -0.0763  0.3101
    51IDQ   C2959701   4.193   4.710  28.098 -0.6578  0.1906 -0.2896
    51IDQ   C3059702   3.017   5.158  27.910 -0.3087 -0.0897 -0.5002
    51IDQ   C3159703   2.994   5.096  27.766 -0.0360 -0.6458 -0.1794
    51IDQ   C3259704   2.899   5.169  27.678 -0.9219  0.9983 -0.7495
    51IDQ   C3359705   2.782   5.077  27.634 -0.1958  1.6035 -0.5572
    51IDQ   C3459706   2.690   5.117  27.523 -0.3142 -0.5435 -0.1560
    51IDQ   C3559707   2.607   4.997  27.476  0.1681 -0.4039 -0.0868
    4IDB    C3659708   3.358   5.319  27.565 -0.8023  0.1973 -0.1435
    4IDB    C3759709   3.336   5.208  27.478 -0.4318  0.1832 -0.2213
    11RH    C3859710   3.134   6.492  28.644 -0.9594  0.5027  0.5666
    4IDB    C3959711   3.329   5.078  27.527  0.1318  0.1030 -0.3274
    62IDT   C4059712   3.317   4.986  27.417  0.0368 -0.1668  0.2760
    72IDQ   C4159713   3.299   5.206  27.329 -0.8021 -0.4570 -0.9492
    62IDT   C4259714   3.308   5.058  27.300 -0.2417  0.1221  0.4730
    72IDQ   C4359715   3.382   5.312  27.250  0.1313  0.2128 -0.1831
    72IDQ   C4459716   3.152   5.271  27.312 -0.7687  0.6341 -0.3555
    62IDT    S559717   3.291   4.810  27.389  0.1482 -0.1221 -0.1200
    62IDT   C4559718   3.269   4.846  27.212 -0.2049  0.3053  0.0074
    62IDT   C4659719   3.281   4.979  27.184 -0.3787  0.3896  0.3214
    82BTZ   C4759720   3.237   4.735  27.127 -0.2997  0.1820  0.1452
    82BTZ   C4859721   3.271   4.607  27.163 -0.2371  0.1832  0.0901
    82BTZ   C4959722   3.255   4.496  27.073 -0.0033  0.2421 -0.0248
    82BTZ   C5059723   3.205   4.513  26.946  0.1677  0.2999 -0.0847
    82BTZ   C5159724   3.184   4.758  26.996 -0.1270  0.2412  0.0849
    82BTZ   C5259725   3.168   4.645  26.904  0.1107  0.3011 -0.0324
    92RH    C5359726   3.218   4.405  26.843  0.3454  0.2062 -0.4962
    82BTZ    N459727   3.148   4.877  26.949 -0.1667  0.2460  0.1287
    82BTZ    N559728   3.119   4.673  26.783  0.2620  0.3542 -0.0825
    82BTZ    S659729   3.090   4.850  26.782  0.1038  0.3294  0.0199
    92RH    C5459730   3.274   4.283  26.836  0.1855  0.1109 -0.1564
    92RH     S759731   3.357   4.193  26.972 -0.1991  0.2523  0.1781
    92RH    C5559732   3.276   4.201  26.713  0.3009 -0.1326  0.0052
    92RH     O259733   3.228   4.234  26.603  0.5538 -0.2744 -0.1497
    92RH     N659734   3.341   4.078  26.734  0.0850 -0.1868  0.3681
    92RH    C5659735   3.391   4.051  26.860 -0.1891 -0.0168  0.5159
    92RH    C5759736   3.350   3.978  26.623  1.5180 -0.5112 -0.1213
    92RH    C5859737   3.453   4.003  26.513  0.8452 -0.5758  0.3096
    92RH     S859738   3.472   3.912  26.911 -0.4827 -0.0366  0.9379
    72IDQ   C5959739   3.054   5.231  27.205  0.0050 -0.0797 -0.0925
    72IDQ   C6059740   2.947   5.112  27.212  0.2950 -0.0387 -0.5838
    72IDQ   C6159741   2.840   5.117  27.101 -0.0010  0.2696 -0.0127
    72IDQ   C6259742   2.742   4.999  27.102  0.6957 -0.1043  0.0976
    72IDQ   C6359743   2.783   4.865  27.144 -0.0781  0.4624 -1.6100
    72IDQ   C6459744   2.820   4.766  27.038  0.5882 -0.4148  0.9724
    72IDQ   C6559745   2.888   4.641  27.096  0.0285  0.5604 -0.7205
    72IDQ   C6659746   3.503   5.275  27.172 -0.7357 -0.0999  0.4913
    72IDQ   C6759747   3.633   5.303  27.263 -0.3883 -0.4223  0.8171
    72IDQ   C6859748   3.761   5.299  27.180  0.1644 -0.4536  0.6737
    72IDQ   C6959749   3.882   5.321  27.258 -0.6208  0.3810  0.0163
    72IDQ   C7059750   3.892   5.454  27.339  0.9393  0.4349  0.1709
    72IDQ   C7159751   4.034   5.499  27.372  0.5205 -0.7454  0.1749
    72IDQ   C7259752   4.035   5.653  27.405  0.3017  0.7341 -0.4082
    11RH     C159753   6.234   6.577  24.742 -0.0654 -0.1289  0.3877
    11RH     C259754   6.379   6.545  24.741 -0.0513 -0.0633  0.1807
    11RH     N159755   6.164   6.499  24.836  0.1249 -0.0702  0.5796
    11RH     S159756   6.414   6.413  24.865  0.2116  0.0713  0.2517
    11RH     C359757   6.236   6.407  24.911  0.2899  0.0342  0.5512
    11RH     C459758   6.025   6.527  24.854  0.9231 -0.6252 -0.1635
    11RH     S259759   6.177   6.303  25.030  0.5316  0.1211  0.7501
    11RH     O159760   6.179   6.662  24.670 -0.2224 -0.2235  0.3963
    11RH     C559761   6.468   6.605  24.661 -0.2098 -0.0999 -0.0236
    21BTZ    C659762   6.614   6.606  24.659 -0.2749  0.5619  0.1030
    21BTZ    C759763   6.691   6.536  24.749 -0.3273  0.2843 -0.0629
    21BTZ    C859764   6.679   6.693  24.565 -0.1742  0.4462  0.0644
    21BTZ    C959765   6.834   6.549  24.751 -0.2836 -0.1183 -0.2747
    21BTZ   C1059766   6.901   6.632  24.664 -0.1876 -0.2427 -0.3197
    21BTZ   C1159767   6.825   6.706  24.568 -0.1297  0.0371 -0.1512
    21BTZ    N259768   6.615   6.766  24.473 -0.1158  0.6895  0.2131
    21BTZ    N359769   6.878   6.790  24.479 -0.0354 -0.0488 -0.1745
    21BTZ    S359770   6.741   6.856  24.384  0.0013  0.3997  0.0823
    31IDT   C1259771   7.047   6.627  24.656 -0.0554 -0.0944 -0.9479
    31IDT   C1359772   7.124   6.739  24.636 -0.1364 -0.0951 -1.2774
    31IDT   C1459773   7.263   6.714  24.655 -0.1251  0.0780 -1.1334
    31IDT   C1559774   7.294   6.584  24.689 -0.0356  0.2114 -0.6939
    31IDT    S459775   7.147   6.481  24.700  0.0421  0.1273 -0.4258
    4IDB    C1659776   7.436   6.567  24.719 -0.1544  0.1787  0.8106
    4IDB    C1759777   7.497   6.695  24.706  0.0006  0.0353 -0.0086
    51IDQ   C1859778   7.391   6.792  24.643  0.1393 -0.5190  0.1984
    4IDB    C1959779   7.631   6.715  24.738  0.0678  0.0509 -0.2894
    51IDQ   C2059780   7.404   6.924  24.725 -0.7744  0.2635 -0.2604
    51IDQ   C2159781   7.411   6.820  24.485  0.0683  0.2077 -0.4376
    51IDQ   C2259782   7.522   6.732  24.408  0.5146 -1.2838  1.3397
    51IDQ   C2359783   7.315   6.959  24.844 -0.5530 -0.0545  0.4398
    51IDQ   C2459784   7.639   6.813  24.343 -0.1849  0.2415  1.1134
    51IDQ   C2559785   7.611   6.889  24.212  0.4012 -0.0622 -0.1183
    51IDQ   C2659786   7.569   6.825  24.085  0.0639 -0.0861 -0.7264
    51IDQ   C2759787   7.533   6.926  23.985 -0.3980 -0.6430  0.5445
    51IDQ   C2859788   7.538   6.877  23.841 -0.9102 -0.0079 -0.3975
    51IDQ   C2959789   7.495   6.989  23.750  1.2715  0.9117  1.0497
    51IDQ   C3059790   7.350   7.076  24.928  0.0998  0.4643 -0.2308
    51IDQ   C3159791   7.281   7.102  25.062  1.2908 -0.1940 -1.6364
    51IDQ   C3259792   7.130   7.141  25.068 -0.4484  0.3431  0.7484
    51IDQ   C3359793   7.073   7.113  25.210  0.2777  0.7536 -0.3778
    51IDQ   C3459794   6.945   7.168  25.249 -0.4984  0.0770 -0.0903
    51IDQ   C3559795   6.878   7.090  25.357  0.4256 -0.0348  0.9067
    4IDB    C3659796   7.510   6.456  24.764 -0.2435  0.3393  1.3561
    4IDB    C3759797   7.646   6.478  24.797 -0.1728  0.3527  1.0586
    11RH    C3859798   5.997   6.630  24.957 -1.3885  0.6069  0.4505
    4IDB    C3959799   7.704   6.604  24.784 -0.0212  0.2114  0.2570
    62IDT   C4059800   7.845   6.588  24.817 -0.3448  0.4732 -0.0130
    72IDQ   C4159801   7.752   6.371  24.828 -0.3952 -0.0902  0.7047
    62IDT   C4259802   7.877   6.457  24.843 -0.5982  0.3403 -0.3567
    72IDQ   C4359803   7.766   6.247  24.732 -0.3783  0.2036  0.3595
    72IDQ   C4459804   7.709   6.292  24.960 -0.3007 -0.6269  0.6719
    62IDT    S559805   7.989   6.696  24.826 -0.0176  0.0732 -0.3508
    62IDT   C4559806   8.090   6.550  24.867 -0.2520 -0.2694 -0.9702
    62IDT   C4659807   8.016   6.435  24.871 -0.5461 -0.0798 -0.8988
    82BTZ   C4759808   8.245   6.567  24.896  0.2571  0.0136  0.0071
    82BTZ   C4859809   8.303   6.684  24.857  0.2387 -0.0104 -0.0939
    82BTZ   C4959810   8.446   6.703  24.860  0.2407 -0.0126 -0.1836
    82BTZ   C5059811   8.530   6.603  24.901  0.2611  0.0091 -0.1724
    82BTZ   C5159812   8.329   6.460  24.941  0.2788  0.0370  0.0224
    82BTZ   C5259813   8.474   6.478  24.943  0.2808  0.0348 -0.0682
    92RH    C5359814   8.674   6.625  24.916  0.4645 -0.2778 -0.2124
    82BTZ    N459815   8.284   6.340  24.981  0.2979  0.0616  0.1168
    82BTZ    N559816   8.546   6.374  24.986  0.3015  0.0576 -0.0477
    82BTZ    S659817   8.428   6.245  25.025  0.3198  0.0833  0.0926
    92RH    C5459818   8.753   6.731  24.895  0.3356 -0.1529 -0.0715
    92RH     S759819   8.698   6.902  24.857  0.1280 -0.1856  0.0803
    92RH    C5559820   8.901   6.725  24.897  0.3423  0.0377 -0.0157
    92RH     O259821   8.969   6.624  24.920  0.4654  0.1032 -0.0906
    92RH     N659822   8.958   6.852  24.871  0.1889  0.1396  0.1373
    92RH    C5659823   8.873   6.958  24.847  0.0601  0.0539  0.2098
    92RH    C5759824   9.104   6.865  24.850 -0.6487  0.1915 -0.2914
    92RH    C5859825   9.198   6.899  24.957 -0.7457 -0.5891 -0.1245
    92RH     S859826   8.915   7.118  24.814 -0.1338  0.1438  0.3905
    72IDQ   C5959827   7.652   6.355  25.096 -0.9933 -0.2025  0.6421
    72IDQ   C6059828   7.649   6.254  25.204 -0.8302  0.6955 -0.4099
    72IDQ   C6159829   7.595   6.306  25.340  0.1590 -0.0644 -0.2234
    72IDQ   C6259830   7.590   6.214  25.456 -0.0984 -0.3477 -0.1212
    72IDQ   C6359831   7.724   6.171  25.523  0.4625  0.4922  0.8951
    72IDQ   C6459832   7.845   6.264  25.510 -0.9574 -0.2182 -0.0252
    72IDQ   C6559833   7.976   6.194  25.558  0.5028  0.5016 -0.4852
    72IDQ   C6659834   7.788   6.236  24.580  0.0876 -0.0673 -1.2168
    72IDQ   C6759835   7.830   6.348  24.485 -0.4841 -0.4413  0.3743
    72IDQ   C6859836   7.792   6.310  24.333 -0.1635  0.0399 -0.8607
    72IDQ   C6959837   7.838   6.417  24.237  0.3748  0.7305 -0.4275
    72IDQ   C7059838   7.822   6.363  24.103 -0.9480  0.7484 -0.1130
    72IDQ   C7159839   7.825   6.480  24.020  0.2257  0.0464  0.3109
    72IDQ   C7259840   7.867   6.459  23.880  0.1191  0.2515 -0.2989
    11RH     C159841   4.153   7.229  18.750  0.0558  0.4172 -0.2384
    11RH     C259842   4.183   7.370  18.785  0.2685  0.3780 -0.2618
    11RH     N159843   4.145   7.211  18.610 -0.2691  0.4653 -0.2293
    11RH     S159844   4.200   7.469  18.631  0.0276  0.4069 -0.2701
    11RH     C359845   4.166   7.320  18.529 -0.3424  0.4694 -0.2422
    11RH     C459846   4.112   7.078  18.548  0.7360  0.2570 -0.5994
    11RH     S259847   4.163   7.325  18.360 -0.7075  0.5219 -0.2351
    11RH     O159848   4.136   7.137  18.831  0.1450  0.4100 -0.2279
    11RH     C559849   4.195   7.414  18.910  0.5870  0.3293 -0.2748
    21BTZ    C659850   4.210   7.546  18.965  0.3784 -0.3977 -0.0279
    21BTZ    C759851   4.201   7.661  18.891  0.7601 -0.5129 -0.2613
    21BTZ    C859852   4.252   7.554  19.101  0.1479 -0.2334  0.0329
    21BTZ    C959853   4.232   7.790  18.948  0.9334 -0.4728 -0.4458
    21BTZ   C1059854   4.272   7.803  19.078  0.7248 -0.3176 -0.3956
    21BTZ   C1159855   4.283   7.685  19.159  0.3241 -0.1926 -0.1545
    21BTZ    N259856   4.264   7.449  19.183 -0.2266 -0.1106  0.2537
    21BTZ    N359857   4.322   7.686  19.287  0.0912 -0.0371 -0.0839
    21BTZ    S359858   4.318   7.515  19.340 -0.3727  0.0660  0.2314
    31IDT   C1259859   4.284   7.938  19.132 -0.2501  0.0482  0.3897
    31IDT   C1359860   4.287   7.979  19.263 -0.1515  0.1044  0.3705
    31IDT   C1459861   4.306   8.120  19.277  0.2688  0.0586  0.3037
    31IDT   C1559862   4.317   8.188  19.158  0.4930 -0.0326  0.2717
    31IDT    S459863   4.305   8.077  19.016  0.1864 -0.0679  0.3238
    4IDB    C1659864   4.318   8.332  19.180  0.2176  0.5099 -0.3951
    4IDB    C1759865   4.308   8.354  19.321 -0.2618  0.1545 -0.3681
    51IDQ   C1859866   4.316   8.214  19.393 -0.4984 -1.2673 -0.6200
    4IDB    C1959867   4.316   8.482  19.374 -0.2198  0.0012  0.0027
    51IDQ   C2059868   4.460   8.220  19.471 -0.1809 -0.5165  0.1365
    51IDQ   C2159869   4.206   8.190  19.507  0.3963  0.3552  0.0498
    51IDQ   C2259870   4.095   8.290  19.530 -0.7610 -0.8803  0.4865
    51IDQ   C2359871   4.560   8.104  19.448  0.1308  0.3056 -0.2387
    51IDQ   C2459872   4.001   8.235  19.638 -0.4297 -0.0110  0.1453
    51IDQ   C2559873   3.863   8.303  19.641 -0.2980  0.5745 -0.6304
    51IDQ   C2659874   3.775   8.294  19.517 -0.0757  0.9255 -0.5970
    51IDQ   C2759875   3.645   8.364  19.539 -0.1594  1.2576 -0.9440
    51IDQ   C2859876   3.564   8.351  19.413 -0.7586  1.1254  0.0144
    51IDQ   C2959877   3.605   8.444  19.299 -0.9717 -0.0114 -0.5959
    51IDQ   C3059878   4.698   8.121  19.513 -0.5139 -0.0174  1.1973
    51IDQ   C3159879   4.815   8.040  19.452  0.1787  0.9654  0.1400
    51IDQ   C3259880   4.930   8.032  19.545  0.2582 -0.6112  0.4417
    51IDQ   C3359881   5.059   7.967  19.482 -0.3182  0.5829 -0.4374
    51IDQ   C3459882   5.193   7.950  19.564 -0.5013 -0.6072 -0.2566
    51IDQ   C3559883   5.251   8.080  19.604  0.2218  0.8362 -0.1746
    4IDB    C3659884   4.336   8.439  19.091  0.7452  0.7152 -0.0501
    4IDB    C3759885   4.344   8.569  19.147  0.7802  0.5541  0.3257
    11RH    C3859886   4.222   6.976  18.535 -0.1856 -0.2891 -0.6354
    4IDB    C3959887   4.335   8.589  19.285  0.3080  0.2065  0.3476
    62IDT   C4059888   4.352   8.732  19.314  0.0669 -0.1272  0.3788
    72IDQ   C4159889   4.381   8.703  19.077  0.4704  0.6256  0.1304
    62IDT   C4259890   4.367   8.803  19.197  0.7906 -0.3811  0.3076
    72IDQ   C4359891   4.288   8.751  18.957  0.5024  0.8099 -1.0820
    72IDQ   C4459892   4.532   8.700  19.016 -0.1572 -0.3781 -0.2700
    62IDT    S559893   4.333   8.840  19.456 -0.1930  0.1891  0.1068
    62IDT   C4559894   4.347   8.982  19.344  0.7360 -0.0502 -0.0996
    62IDT   C4659895   4.364   8.944  19.214  1.1699 -0.3379  0.0362
    82BTZ   C4759896   4.330   9.117  19.387  0.3456  0.3105 -0.6021
    82BTZ   C4859897   4.419   9.171  19.476  0.3965  0.2166 -0.5951
    82BTZ   C4959898   4.407   9.308  19.521  0.3808  0.1470 -0.3872
    82BTZ   C5059899   4.306   9.389  19.478  0.3141  0.1713 -0.1855
    82BTZ   C5159900   4.222   9.198  19.339  0.2749  0.3395 -0.3958
    82BTZ   C5259901   4.210   9.337  19.385  0.2588  0.2687 -0.1845
    92RH    C5359902   4.296   9.526  19.516  0.5680 -0.1925 -0.1089
    82BTZ    N459903   4.129   9.156  19.253  0.2207  0.4288 -0.3805
    82BTZ    N559904   4.107   9.406  19.336  0.1917  0.3011  0.0010
    82BTZ    S659905   4.019   9.295  19.227  0.1454  0.4261 -0.0899
    92RH    C5459906   4.368   9.599  19.601  0.3620 -0.1073 -0.0081
    92RH     S759907   4.472   9.537  19.739  0.0829  0.0263  0.2665
    92RH    C5559908   4.374   9.747  19.597  0.3284 -0.1087 -0.1059
    92RH     O259909   4.315   9.820  19.515  0.4834 -0.1870 -0.2909
    92RH     N659910   4.457   9.798  19.699  0.0938 -0.0080  0.0372
    92RH    C5659911   4.519   9.709  19.784 -0.0648  0.0739  0.2379
    92RH    C5759912   4.470   9.948  19.711 -0.8720  0.8247  0.6629
    92RH    C5859913   4.390   9.990  19.832 -0.8780 -0.1776 -0.7798
    92RH     S859914   4.622   9.744  19.913 -0.3526  0.2006  0.4363
    72IDQ   C5959915   4.615   8.831  18.991  0.0161  0.3226 -0.0221
    72IDQ   C6059916   4.707   8.817  18.866  0.6187 -0.8504  0.1869
    72IDQ   C6159917   4.689   8.894  18.734  0.7636 -0.1046  0.1384
    72IDQ   C6259918   4.553   8.948  18.725 -1.2663  0.5845  0.1014
    72IDQ   C6359919   4.516   8.996  18.589 -0.4226 -0.4241  0.3830
    72IDQ   C6459920   4.364   9.009  18.598  0.6638  0.0033 -0.1838
    72IDQ   C6559921   4.289   9.052  18.469 -0.4094  0.4081  0.6165
    72IDQ   C6659922   4.130   8.754  18.982 -0.0439 -1.0856  0.0643
    72IDQ   C6759923   4.100   8.901  18.992  0.0543  0.3714 -0.4886
    72IDQ   C6859924   3.954   8.948  18.972 -0.3416 -0.1235 -0.2783
    72IDQ   C6959925   3.843   8.848  18.905 -0.2860 -0.7369  0.4696
    72IDQ   C7059926   3.704   8.897  18.932  0.4059 -0.5471  0.3528
    72IDQ   C7159927   3.622   8.995  18.847  0.7308  1.3235  0.3499
    72IDQ   C7259928   3.610   8.956  18.697 -0.7557  0.3375  0.0295
    11RH     C159929   3.286   2.148  24.212  0.2289  0.3146 -0.0696
    11RH     C259930   3.237   2.259  24.126 -0.0998  0.1865 -0.0496
    11RH     N159931   3.267   2.023  24.150  0.2051  0.2395  0.0896
    11RH     S159932   3.169   2.190  23.970 -0.4185 -0.0242  0.1780
    11RH     C359933   3.209   2.019  24.025 -0.1022  0.0671  0.2351
    11RH     C459934   3.300   1.901  24.224  0.5044 -0.5601 -0.4626
    11RH     S259935   3.176   1.883  23.931 -0.1972 -0.0527  0.4387
    11RH     O159936   3.337   2.162  24.324  0.4948  0.4689 -0.2074
    11RH     C559937   3.242   2.387  24.161 -0.1462  0.2243 -0.1797
    21BTZ    C659938   3.226   2.518  24.084  0.2100  0.0805 -0.2893
    21BTZ    C759939   3.199   2.528  23.950  0.2300  0.0867 -0.2923
    21BTZ    C859940   3.234   2.638  24.162  0.0922  0.0709 -0.2618
    21BTZ    C959941   3.180   2.656  23.887  0.1358  0.0839 -0.2694
    21BTZ   C1059942   3.186   2.773  23.957  0.0217  0.0748 -0.2428
    21BTZ   C1159943   3.214   2.768  24.097 -0.0036  0.0679 -0.2375
    21BTZ    N259944   3.260   2.641  24.293  0.0618  0.0641 -0.2556
    21BTZ    N359945   3.223   2.875  24.176 -0.1109  0.0589 -0.2127
    21BTZ    S359946   3.259   2.814  24.341 -0.0938  0.0536 -0.2184
    31IDT   C1259947   3.140   2.900  23.890  0.2290 -0.2366 -0.1442
    31IDT   C1359948   3.141   3.025  23.946  0.6485 -0.2010 -0.2198
    31IDT   C1459949   3.065   3.120  23.872  0.6838 -0.0750 -0.0954
    31IDT   C1559950   3.006   3.069  23.758  0.2926 -0.0138  0.0753
    31IDT    S459951   3.043   2.895  23.736 -0.1551 -0.1119  0.0921
    4IDB    C1659952   2.948   3.168  23.680 -0.0293 -0.0659  0.7426
    4IDB    C1759953   2.968   3.296  23.740 -0.4401  0.1108  0.5188
    51IDQ   C1859954   3.030   3.277  23.880  0.4601  0.0255 -1.1452
    4IDB    C1959955   2.927   3.412  23.677 -0.3905 -0.0998  0.0898
    51IDQ   C2059956   3.144   3.382  23.904  0.9737  0.0553  0.1592
    51IDQ   C2159957   2.930   3.302  24.004 -0.3660  1.1927  0.3603
    51IDQ   C2259958   2.781   3.344  23.980 -0.2204 -0.0079 -0.7874
    51IDQ   C2359959   3.277   3.332  23.929 -0.5157 -0.4276 -0.1996
    51IDQ   C2459960   2.685   3.316  24.100 -0.1588 -0.5402 -0.3372
    51IDQ   C2559961   2.538   3.345  24.075 -1.0655 -0.5733 -0.3075
    51IDQ   C2659962   2.459   3.298  24.192  0.1848 -0.4864  0.0670
    51IDQ   C2759963   2.321   3.359  24.198  0.2138 -0.5215  1.2593
    51IDQ   C2859964   2.228   3.304  24.298  0.4202 -0.3325  0.1809
    51IDQ   C2959965   2.250   3.417  24.404 -0.0970  0.2983  1.0217
    51IDQ   C3059966   3.318   3.321  24.078 -0.1378 -0.4418  0.1988
    51IDQ   C3159967   3.472   3.297  24.085 -0.1992 -0.2934 -0.0133
    51IDQ   C3259968   3.541   3.340  24.219  0.1523 -0.0527 -0.5555
    51IDQ   C3359969   3.483   3.268  24.340  1.0961 -0.8210  0.3760
    51IDQ   C3459970   3.486   3.117  24.331  0.3004 -0.0677 -0.1577
    51IDQ   C3559971   3.558   3.056  24.446  0.0047 -0.0786 -0.0521
    4IDB    C3659972   2.885   3.156  23.555  0.4366 -0.4568  0.5374
    4IDB    C3759973   2.842   3.276  23.492  0.4804 -0.6675  0.0987
    11RH    C3859974   3.445   1.868  24.211  0.3188 -0.6908  0.7909
    4IDB    C3959975   2.863   3.400  23.552  0.0754 -0.4906 -0.1154
    62IDT   C4059976   2.822   3.512  23.460 -0.0547 -0.2548 -0.2546
    72IDQ   C4159977   2.753   3.306  23.365  0.6860  0.1047 -0.4459
    62IDT   C4259978   2.766   3.455  23.348  0.6185  0.1436 -0.8121
    72IDQ   C4359979   2.617   3.255  23.402  1.5323 -0.2925 -0.2965
    72IDQ   C4459980   2.808   3.241  23.234  0.7401 -0.2884  0.9890
    62IDT    S559981   2.828   3.691  23.448 -0.0536 -0.1997  0.4642
    62IDT   C4559982   2.751   3.678  23.284  0.9036  0.3877 -0.0524
    62IDT   C4659983   2.726   3.548  23.248  1.1613  0.5074 -0.6990
    82BTZ   C4759984   2.737   3.801  23.197 -0.2049 -0.1448 -0.1085
    82BTZ   C4859985   2.804   3.907  23.251 -0.1298 -0.1950 -0.1035
    82BTZ   C4959986   2.795   4.040  23.194  0.0034 -0.1960 -0.1273
    82BTZ   C5059987   2.719   4.065  23.084  0.0614 -0.1467 -0.1558
    82BTZ   C5159988   2.655   3.823  23.082 -0.1485 -0.0920 -0.1383
    82BTZ   C5259989   2.646   3.957  23.024 -0.0131 -0.0930 -0.1626
    92RH    C5359990   2.712   4.199  23.021  0.6408  0.0705 -0.0994
    82BTZ    N459991   2.585   3.728  23.020 -0.2117 -0.0404 -0.1459
    82BTZ    N559992   2.568   3.970  22.916  0.0325 -0.0423 -0.1893
    82BTZ    S659993   2.502   3.807  22.883 -0.0984  0.0100 -0.1854
    92RH    C5459994   2.760   4.319  23.054  0.4685  0.1237 -0.0386
    92RH     S759995   2.862   4.360  23.200  0.4633  0.1831 -0.0510
    92RH    C5559996   2.737   4.442  22.973  0.2481  0.1432  0.0520
    92RH     O259997   2.672   4.448  22.867  0.1975  0.1131  0.0820
    92RH     N659998   2.800   4.554  23.031  0.0975  0.2013  0.1031
    92RH    C5659999   2.870   4.537  23.148  0.1703  0.2308  0.0634
    92RH    C5760000   2.806   4.686  22.954 -0.5941 -0.5938  0.2182
    92RH    C5860001   2.925   4.695  22.855  0.5148 -0.1879 -1.1151
    92RH     S860002   2.953   4.654  23.237  0.0252  0.2998  0.1087
    72IDQ   C5960003   2.946   3.257  23.195 -0.8577  0.4953  0.2975
    72IDQ   C6060004   2.985   3.153  23.090 -0.2622 -0.7879  0.8431
    72IDQ   C6160005   3.062   3.022  23.105  1.0706  0.8583 -0.8376
    72IDQ   C6260006   3.102   2.950  22.977  0.1445 -0.3337 -0.4971
    72IDQ   C6360007   2.996   2.936  22.865  0.8522  0.2062 -0.3140
    72IDQ   C6460008   3.057   2.889  22.735 -0.1816 -0.3247  0.4058
    72IDQ   C6560009   2.934   2.863  22.643 -0.3408  0.2742  0.1942
    72IDQ   C6660010   2.490   3.293  23.328  0.6486 -0.0864  0.3622
    72IDQ   C6760011   2.473   3.237  23.187 -0.2337 -1.4454  0.7154
    72IDQ   C6860012   2.356   3.291  23.110  0.4803 -0.0159  0.4648
    72IDQ   C6960013   2.347   3.430  23.063 -0.6624 -0.9520 -0.2218
    72IDQ   C7060014   2.211   3.490  23.117  0.0285 -0.2317  0.1633
    72IDQ   C7160015   2.186   3.636  23.109 -0.0380  0.3708 -0.4440
    72IDQ   C7260016   2.107   3.671  23.239 -0.5731 -0.2971 -0.3424
    11RH     C160017   6.584   1.264  27.339 -0.0632 -0.3458 -0.1001
    11RH     C260018   6.627   1.393  27.280  0.1096 -0.2597  0.2127
    11RH     N160019   6.489   1.283  27.442 -0.1779 -0.4800 -0.1800
    11RH     S160020   6.540   1.531  27.364  0.1100 -0.3607  0.3799
    11RH     C360021   6.451   1.411  27.473 -0.1181 -0.5118  0.0296
    11RH     C460022   6.426   1.162  27.509 -0.2181 -0.5985 -0.6712
    11RH     S260023   6.341   1.461  27.590 -0.2279 -0.6630 -0.0086
    11RH     O160024   6.625   1.152  27.304 -0.1054 -0.3076 -0.2742
    11RH     C560025   6.717   1.403  27.181  0.2420 -0.1284  0.3441
    21BTZ    C660026   6.771   1.519  27.108 -0.3282  0.3370  0.1388
    21BTZ    C760027   6.735   1.648  27.141 -0.1017  0.4208  0.0639
    21BTZ    C860028   6.869   1.499  27.006 -0.2977  0.1058  0.2117
    21BTZ    C960029   6.793   1.762  27.075  0.1647  0.2826  0.0563
    21BTZ   C1060030   6.888   1.748  26.976  0.2040  0.0609  0.1243
    21BTZ   C1160031   6.929   1.615  26.939 -0.0269 -0.0347  0.2046
    21BTZ    N260032   6.913   1.380  26.966 -0.5026  0.0049  0.2890
    21BTZ    N360033   7.019   1.589  26.844 -0.0144 -0.2484  0.2756
    21BTZ    S360034   7.033   1.411  26.837 -0.3552 -0.2797  0.3560
    31IDT   C1260035   6.940   1.873  26.924 -0.4035 -0.0599 -0.2892
    31IDT   C1360036   7.068   1.892  26.878 -0.3647 -0.2098 -0.2451
    31IDT   C1460037   7.097   2.030  26.853 -0.1129 -0.2156  0.0086
    31IDT   C1560038   6.993   2.116  26.879  0.0414 -0.0706  0.1582
    31IDT    S460039   6.847   2.028  26.937 -0.1215  0.0861 -0.0118
    4IDB    C1660040   7.027   2.246  26.848 -0.0630  0.6749 -0.0367
    4IDB    C1760041   7.155   2.248  26.784 -0.0352  0.2587  0.0043
    51IDQ   C1860042   7.213   2.109  26.786 -0.7144  0.6316  0.4230
    4IDB    C1960043   7.210   2.367  26.737  0.2878  0.0551 -0.1392
    51IDQ   C2060044   7.261   2.056  26.639  0.1711  0.2461  0.3113
    51IDQ   C2160045   7.343   2.086  26.866 -0.2262 -0.2494 -0.3910
    51IDQ   C2260046   7.400   2.164  26.986  0.6105 -1.0054  0.5519
    51IDQ   C2360047   7.190   1.930  26.562 -0.9406 -0.7240  0.7667
    51IDQ   C2460048   7.308   2.172  27.111 -0.7007 -0.3569  0.6786
    51IDQ   C2560049   7.320   2.310  27.173 -0.2750 -0.8829  0.8796
    51IDQ   C2660050   7.228   2.325  27.297  0.7503  0.2251  0.0222
    51IDQ   C2760051   7.233   2.455  27.361  0.9231 -0.1934  0.7804
    51IDQ   C2860052   7.164   2.442  27.501 -0.5098  0.1939  0.3490
    51IDQ   C2960053   7.180   2.553  27.598  0.7012 -0.8594  0.3667
    51IDQ   C3060054   7.201   1.781  26.609  0.6288  0.2972 -0.3729
    51IDQ   C3160055   7.167   1.687  26.494 -0.6540  0.0836 -0.4584
    51IDQ   C3260056   7.216   1.536  26.534  0.4988 -1.5155  0.3065
    51IDQ   C3360057   7.244   1.433  26.426  0.0899 -0.6924  0.4365
    51IDQ   C3460058   7.275   1.292  26.451  1.2981  0.2299 -0.2825
    51IDQ   C3560059   7.164   1.231  26.546  0.1001 -0.2852 -0.2834
    4IDB    C3660060   6.953   2.365  26.865  0.2339  0.8907 -0.2227
    4IDB    C3760061   7.011   2.485  26.816  0.5617  0.6775 -0.3676
    11RH    C3860062   6.298   1.124  27.442  0.8070 -1.3508  0.3633
    4IDB    C3960063   7.136   2.485  26.754  0.5848  0.2708 -0.3254
    62IDT   C4060064   7.173   2.621  26.721  0.3464 -0.4611  0.4138
    72IDQ   C4160065   6.961   2.627  26.837 -0.2571  0.1765  0.1055
    62IDT   C4260066   7.073   2.708  26.761  0.6404 -0.4584  1.1864
    72IDQ   C4360067   6.976   2.658  26.992  1.8694 -0.8899  0.0373
    72IDQ   C4460068   6.819   2.655  26.781  0.7139 -0.3088 -0.9545
    62IDT    S560069   7.304   2.706  26.632  0.2026 -0.2716  0.3810
    62IDT   C4560070   7.212   2.862  26.654  0.5653 -0.1949  1.4666
    62IDT   C4660071   7.095   2.844  26.723  0.7648 -0.3078  1.7829
    82BTZ   C4760072   7.255   2.984  26.590  0.4735 -0.1623  0.0686
    82BTZ   C4860073   7.309   2.974  26.465  0.3428 -0.2550  0.0196
    82BTZ   C4960074   7.344   3.092  26.388  0.1570 -0.3080 -0.1502
    82BTZ   C5060075   7.326   3.218  26.438  0.1020 -0.2680 -0.2703
    82BTZ   C5160076   7.234   3.114  26.647  0.4228 -0.1172 -0.0529
    82BTZ   C5260077   7.270   3.233  26.570  0.2339 -0.1710 -0.2251
    92RH    C5360078   7.343   3.337  26.349 -0.2875  0.1980 -0.3028
    82BTZ    N460079   7.183   3.135  26.768  0.5378 -0.0274 -0.0200
    82BTZ    N560080   7.248   3.350  26.629  0.1969 -0.1244 -0.3314
    82BTZ    S660081   7.179   3.313  26.790  0.4065 -0.0072 -0.2125
    92RH    C5460082   7.389   3.356  26.225 -0.2635  0.2164 -0.2918
    92RH     S760083   7.413   3.228  26.096  0.2974  0.1446 -0.1216
    92RH    C5560084   7.428   3.489  26.172 -0.7044  0.3005 -0.4196
    92RH     O260085   7.424   3.596  26.235 -1.1394  0.3629 -0.5498
    92RH     N660086   7.473   3.480  26.038 -0.5712  0.3020 -0.3754
    92RH    C5660087   7.474   3.356  25.978 -0.0777  0.2292 -0.2279
    92RH    C5760088   7.511   3.606  25.971 -0.0600 -0.8721  0.4911
    92RH    C5860089   7.660   3.642  25.980 -0.3877  0.0702 -0.9412
    92RH     S860090   7.522   3.318  25.821  0.1773  0.2143 -0.1469
    72IDQ   C5960091   6.760   2.799  26.770 -0.2806 -1.0681 -0.8831
    72IDQ   C6060092   6.627   2.822  26.709 -0.1761  0.5955  1.0167
    72IDQ   C6160093   6.617   2.971  26.659  0.3901  1.0114 -0.1483
    72IDQ   C6260094   6.684   2.999  26.518  0.1152  1.1513  0.0757
    72IDQ   C6360095   6.724   3.147  26.511  0.6523 -0.5514 -0.1990
    72IDQ   C6460096   6.802   3.210  26.396  1.0190 -0.7018  0.2807
    72IDQ   C6560097   6.945   3.162  26.377 -0.1736  0.1111  0.4157
    72IDQ   C6660098   6.865   2.620  27.093  0.0810  0.1967  0.9100
    72IDQ   C6760099   6.892   2.631  27.242 -0.4824 -0.7496 -0.3710
    72IDQ   C6860100   6.783   2.614  27.349  0.0675  0.6648  0.0904
    72IDQ   C6960101   6.698   2.487  27.333  0.2554  0.1499 -0.0644
    72IDQ   C7060102   6.756   2.360  27.374 -1.1724  0.4587 -0.2639
    72IDQ   C7160103   6.662   2.242  27.356  0.9104 -0.5022  0.5108
    72IDQ   C7260104   6.640   2.214  27.204 -0.1576 -0.1100  0.1849
    11RH     C160105   4.427   1.585   0.233  0.0485  0.1041 -0.5643
    11RH     C260106   4.488   1.672   0.336  0.0501 -0.0196 -0.4600
    11RH     N160107   4.296   1.546   0.267  0.0152  0.1374 -0.6527
    11RH     S160108   4.367   1.699   0.472  0.0076 -0.0839 -0.4848
    11RH     C360109   4.244   1.593   0.386 -0.0101  0.0557 -0.6319
    11RH     C460110   4.214   1.461   0.181  0.4928 -0.0387  0.5009
    11RH     S260111   4.091   1.562   0.450 -0.0516  0.0729 -0.7220
    11RH     O160112   4.483   1.548   0.128  0.0728  0.1716 -0.5752
    11RH     C560113   4.611   1.722   0.327  0.0787 -0.0729 -0.3639
    21BTZ    C660114   4.690   1.828   0.389 -0.0563 -0.0396 -0.2733
    21BTZ    C760115   4.640   1.912   0.485 -0.1400 -0.0122 -0.3407
    21BTZ    C860116   4.818   1.858   0.331  0.0197 -0.0868 -0.1310
    21BTZ    C960117   4.713   2.029   0.529 -0.1532 -0.0296 -0.2720
    21BTZ   C1060118   4.835   2.061   0.477 -0.0828 -0.0745 -0.1362
    21BTZ   C1160119   4.891   1.977   0.376  0.0063 -0.1046 -0.0612
    21BTZ    N260120   4.877   1.784   0.237  0.1045 -0.1169 -0.0544
    21BTZ    N360121   5.010   1.998   0.317  0.0802 -0.1489  0.0714
    21BTZ    S360122   5.032   1.864   0.201  0.1722 -0.1703  0.1135
    31IDT   C1260123   4.910   2.174   0.524 -0.3937 -0.1830 -0.0138
    31IDT   C1360124   4.978   2.269   0.453  0.2650 -0.6447 -0.0150
    31IDT   C1460125   5.017   2.381   0.533  0.9333 -0.8453 -0.0426
    31IDT   C1560126   4.978   2.372   0.665  0.7888 -0.5387 -0.0627
    31IDT    S460127   4.889   2.220   0.699 -0.2139  0.0332 -0.0480
    4IDB    C1660128   5.022   2.488   0.742 -0.3251 -0.0808  0.7522
    4IDB    C1760129   5.073   2.579   0.645 -0.6156 -0.1802  0.5047
    51IDQ   C1860130   5.082   2.515   0.504 -0.7787 -0.1954 -0.4879
    4IDB    C1960131   5.113   2.707   0.681 -0.2318 -0.2423  0.3071
    51IDQ   C2060132   5.011   2.616   0.401  0.4446  0.8975 -0.0364
    51IDQ   C2160133   5.219   2.466   0.451 -0.3154 -0.8796  0.0276
    51IDQ   C2260134   5.345   2.476   0.532  0.2631  0.0414 -0.3746
    51IDQ   C2360135   4.877   2.586   0.329  1.1009 -0.4091  0.0779
    51IDQ   C2460136   5.419   2.348   0.549 -0.1791 -0.2400  0.6700
    51IDQ   C2560137   5.538   2.373   0.639 -0.6104  0.0364  0.6084
    51IDQ   C2660138   5.661   2.300   0.584  0.2643  0.2401 -0.6568
    51IDQ   C2760139   5.794   2.340   0.643  1.2883  1.1015 -0.1279
    51IDQ   C2860140   5.851   2.472   0.625  0.8369 -0.6187  0.2566
    51IDQ   C2960141   5.996   2.473   0.664  0.8788  0.3969 -0.4825
    51IDQ   C3060142   4.820   2.682   0.218 -0.2234  0.0421  0.3889
    51IDQ   C3160143   4.920   2.678   0.096 -0.4949  0.5707  0.2194
    51IDQ   C3260144   4.912   2.799  -0.013 -1.3677  0.1193  0.5786
    51IDQ   C3360145   4.811   2.783  -0.128 -0.0085  0.3894 -0.9354
    51IDQ   C3460146   4.879   2.852  -0.241  0.0041 -0.0264  0.5954
    51IDQ   C3560147   4.801   2.859  -0.365 -0.0085 -1.0034 -0.0379
    4IDB    C3660148   5.012   2.525   0.877  0.3556 -0.0427  0.8037
    4IDB    C3760149   5.053   2.656   0.912  0.7401 -0.1071  0.5994
    11RH    C3860150   4.133   1.556   0.089  0.5190 -0.0698  0.0715
    4IDB    C3960151   5.103   2.744   0.816  0.4489 -0.2041  0.3586
    62IDT   C4060152   5.123   2.878   0.878 -0.3904 -0.2173  0.2055
    72IDQ   C4160153   5.048   2.730   1.051  0.7279 -0.6830  1.2627
    62IDT   C4260154   5.087   2.875   1.011 -0.8564  0.1976  0.0927
    72IDQ   C4360155   5.140   2.658   1.150 -0.7453  0.7214  0.9537
    72IDQ   C4460156   4.902   2.715   1.112  0.0346  0.4343  0.6475
    62IDT    S560157   5.195   3.036   0.831  0.1186 -0.4905  0.0477
    62IDT   C4560158   5.171   3.093   1.002 -0.3480 -0.0058 -0.1732
    62IDT   C4660159   5.113   2.997   1.082 -0.8329  0.3177 -0.1216
    82BTZ   C4760160   5.204   3.231   1.050 -0.6573 -0.1124 -0.1041
    82BTZ   C4860161   5.267   3.312   0.960 -0.5597 -0.2436 -0.1538
    82BTZ   C4960162   5.303   3.448   0.991 -0.3041 -0.2989 -0.2019
    82BTZ   C5060163   5.276   3.503   1.114 -0.1460 -0.2229 -0.2001
    82BTZ   C5160164   5.173   3.284   1.180 -0.4994 -0.0287 -0.1001
    82BTZ   C5260165   5.210   3.422   1.212 -0.2395 -0.0849 -0.1490
    92RH    C5360166   5.323   3.642   1.156 -0.0424  0.0092  0.4690
    82BTZ    N460167   5.112   3.215   1.276 -0.5727  0.1004 -0.0540
    82BTZ    N560168   5.178   3.464   1.335 -0.1041 -0.0009 -0.1421
    82BTZ    S660169   5.098   3.326   1.416 -0.3069  0.1569 -0.0714
    92RH    C5460170   5.394   3.735   1.091 -0.0790 -0.0858  0.2924
    92RH     S760171   5.445   3.731   0.914  0.0136 -0.4520  0.3250
    92RH    C5560172   5.444   3.859   1.154 -0.2047  0.0986  0.0349
    92RH     O260173   5.427   3.891   1.273 -0.2893  0.3576 -0.0467
    92RH     N660174   5.516   3.939   1.062 -0.2177 -0.0572 -0.1118
    92RH    C5660175   5.529   3.894   0.933 -0.1181 -0.3439 -0.0032
    92RH    C5760176   5.587   4.067   1.100  0.5638 -0.3864 -0.2408
    92RH    C5860177   5.491   4.176   1.085  0.2330 -0.9798 -0.5393
    92RH     S860178   5.609   3.969   0.805 -0.1096 -0.5761 -0.1360
    72IDQ   C5960179   4.806   2.827   1.102  0.5613 -0.3168  0.4084
    72IDQ   C6060180   4.662   2.790   1.132 -0.3434 -0.1787 -0.4529
    72IDQ   C6160181   4.559   2.901   1.108 -0.2744  0.0123  0.6186
    72IDQ   C6260182   4.582   3.017   1.213  0.9264 -0.0993 -0.7047
    72IDQ   C6360183   4.449   3.041   1.283  0.4524 -0.2031 -0.2979
    72IDQ   C6460184   4.470   3.152   1.385  0.4577  0.2898 -0.2443
    72IDQ   C6560185   4.337   3.151   1.465  0.2120 -0.9154  0.1684
    72IDQ   C6660186   5.300   2.652   1.143 -1.0456  0.1335 -0.3030
    72IDQ   C6760187   5.352   2.520   1.211  0.1130 -0.2193  0.6678
    72IDQ   C6860188   5.511   2.496   1.194  0.2479 -0.5580  0.2835
    72IDQ   C6960189   5.552   2.361   1.243  0.3177 -0.2540 -0.7619
    72IDQ   C7060190   5.477   2.242   1.172 -0.1562  1.7362 -0.1489
    72IDQ   C7160191   5.509   2.226   1.021 -0.6909 -0.0646  0.4423
    72IDQ   C7260192   5.462   2.090   0.974  0.1130 -0.1173 -0.3451
   7.39375   7.39375  28.63050
