JACS unit cell with symmetry
808
    1  BTD   S2    1   1.066   1.605   2.195
    1  BTD   N1    2   1.053   1.769   2.190
    1  BTD   N2    3   1.001   1.565   2.052
    1  BTD   N3    4   0.800   1.812   1.703
    1  BTD   N4    5   0.856   2.084   1.895
    1  BTD   C5    6   0.957   1.925   2.034
    1  BTD   C6    7   0.997   1.797   2.078
    1  BTD   C7    8   0.968   1.682   1.998
    1  BTD   C8    9   0.901   1.699   1.873
    1  BTD  C15   10   0.865   1.827   1.823
    1  BTD  C16   11   0.884   1.948   1.909
    1  BTD  C43   12   0.753   2.149   1.818
    1  BTD  C44   13   0.611   2.097   1.855
    1  BTD  C45   14   0.573   2.072   2.004
    1  BTD  C46   15   0.567   2.204   2.086
    1  BTD  C47   16   0.495   2.177   1.789
    1  BTD  C48   17   0.478   2.171   1.635
    1  BTD  C49   18   0.389   2.277   1.563
    1  BTD  C50   19   0.410   2.302   1.411
    1  BTD  C75   20   0.788   1.910   1.584
    1  BTD  C76   21   0.926   1.974   1.549
    1  BTD  C77   22   0.925   2.060   1.420
    1  BTD  C78   23   0.780   2.028   1.375
    1  BTD  C79   24   1.047   1.880   1.531
    1  BTD  C80   25   1.026   1.748   1.452
    1  BTD  C81   26   1.122   1.629   1.476
    1  BTD  C82   27   1.254   1.624   1.393
    2  TTP   S1   28   1.032   2.124   2.233
    2  TTP   S5   29   0.849   2.431   2.014
    2  TTP   C1   30   0.908   2.501   2.160
    2  TTP   C2   31   0.969   2.410   2.238
    2  TTP   C3   32   0.971   2.279   2.186
    2  TTP   C4   33   0.966   2.053   2.091
    2  TTP  C17   34   0.906   2.145   2.006
    2  TTP  C18   35   0.905   2.278   2.058
    2  TTP  C32   36   1.027   2.434   2.379
    2  TTP  C33   37   1.179   2.419   2.402
    2  TTP  C34   38   1.237   2.454   2.541
    2  TTP  C35   39   1.390   2.448   2.512
    2  TTP  C36   40   1.436   2.595   2.488
    2  TTP  C37   41   1.368   2.708   2.570
    2  TTP  C38   42   1.452   2.828   2.622
    2  TTP  C39   43   1.342   2.873   2.720
    2  TTP  C40   44   1.387   2.914   2.864
    2  TTP  C41   45   1.306   3.022   2.941
    2  TTP  C42   46   1.368   3.088   3.067
    3  TTP   S1   47   0.868   1.434   1.749
    3  TTP   S5   48   0.646   1.609   1.438
    3  TTP   C1   49   0.640   1.434   1.421
    3  TTP   C2   50   0.711   1.369   1.517
    3  TTP   C3   51   0.772   1.457   1.606
    3  TTP   C4   52   0.866   1.604   1.775
    3  TTP  C17   53   0.803   1.676   1.672
    3  TTP  C18   54   0.744   1.591   1.577
    3  TTP  C32   55   0.729   1.215   1.526
    3  TTP  C33   56   0.847   1.162   1.438
    3  TTP  C34   57   0.865   1.009   1.443
    3  TTP  C35   58   0.893   0.966   1.590
    3  TTP  C36   59   0.907   0.815   1.622
    3  TTP  C37   60   0.784   0.721   1.608
    3  TTP  C38   61   0.870   0.594   1.636
    3  TTP  C39   62   0.776   0.494   1.565
    3  TTP  C40   63   0.770   0.496   1.409
    3  TTP  C41   64   0.663   0.583   1.338
    3  TTP  C42   65   0.698   0.727   1.288
    4  FIC   F1   66   0.576   3.150   1.788
    4  FIC   F2   67   0.617   3.286   2.017
    4  FIC   O1   68   0.786   2.674   1.925
    4  FIC   N5   69   0.825   3.157   2.426
    4  FIC   N6   70   0.996   2.760   2.515
    4  FIC  C19   71   0.891   2.636   2.202
    4  FIC  C20   72   0.839   2.750   2.150
    4  FIC  C21   73   0.784   2.761   2.016
    4  FIC  C22   74   0.738   2.900   2.001
    4  FIC  C23   75   0.677   2.954   1.884
    4  FIC  C24   76   0.635   3.087   1.905
    4  FIC  C25   77   0.655   3.155   2.017
    4  FIC  C26   78   0.712   3.101   2.122
    4  FIC  C27   79   0.755   2.973   2.109
    4  FIC  C28   80   0.823   2.881   2.210
    4  FIC  C29   81   0.865   2.909   2.351
    4  FIC  C30   82   0.845   3.053   2.390
    4  FIC  C31   83   0.932   2.823   2.446
    5  FIC   F1   84   0.181   1.706   0.808
    5  FIC   F2   85   0.127   1.455   0.745
    5  FIC   O1   86   0.502   1.643   1.224
    5  FIC   N5   87   0.276   1.041   0.951
    5  FIC   N6   88   0.470   1.024   1.325
    5  FIC  C19   89   0.563   1.363   1.323
    5  FIC  C20   90   0.482   1.400   1.221
    5  FIC  C21   91   0.457   1.541   1.178
    5  FIC  C22   92   0.372   1.532   1.058
    5  FIC  C23   93   0.320   1.639   0.985
    5  FIC  C24   94   0.244   1.608   0.881
    5  FIC  C25   95   0.212   1.475   0.848
    5  FIC  C26   96   0.260   1.372   0.922
    5  FIC  C27   97   0.342   1.401   1.027
    5  FIC  C28   98   0.406   1.315   1.131
    5  FIC  C29   99   0.393   1.177   1.136
    5  FIC  C30  100   0.328   1.103   1.034
    5  FIC  C31  101   0.437   1.094   1.245
    6  BTD   S2  102  -0.060   1.597  -0.200
    6  BTD   N1  103  -0.071   1.758  -0.189
    6  BTD   N2  104   0.019   1.565  -0.063
    6  BTD   N3  105   0.188   1.827   0.299
    6  BTD   N4  106   0.075   2.087   0.121
    6  BTD   C5  107   0.005   1.923  -0.020
    6  BTD   C6  108  -0.012   1.793  -0.076
    6  BTD   C7  109   0.039   1.682  -0.003
    6  BTD   C8  110   0.100   1.703   0.122
    6  BTD  C15  111   0.119   1.836   0.175
    6  BTD  C16  112   0.071   1.948   0.098
    6  BTD  C43  113   0.163   2.164   0.210
    6  BTD  C44  114   0.316   2.154   0.180
    6  BTD  C45  115   0.388   2.253   0.274
    6  BTD  C46  116   0.538   2.211   0.273
    6  BTD  C47  117   0.349   2.181   0.030
    6  BTD  C48  118   0.363   2.322  -0.033
    6  BTD  C49  119   0.377   2.290  -0.184
    6  BTD  C50  120   0.474   2.244  -0.298
    6  BTD  C75  121   0.175   1.915   0.415
    6  BTD  C76  122   0.026   1.945   0.451
    6  BTD  C77  123   0.017   2.033   0.578
    6  BTD  C78  124  -0.124   2.086   0.613
    6  BTD  C79  125  -0.059   1.818   0.471
    6  BTD  C80  126  -0.032   1.729   0.595
    6  BTD  C81  127  -0.124   1.604   0.590
    6  BTD  C82  128  -0.093   1.478   0.503
    7  TTP   S1  129  -0.122   2.113  -0.207
    7  TTP   S5  130  -0.023   2.432   0.050
    7  TTP   C1  131  -0.120   2.495  -0.082
    7  TTP   C2  132  -0.158   2.398  -0.170
    7  TTP   C3  133  -0.102   2.275  -0.137
    7  TTP   C4  134  -0.037   2.052  -0.076
    7  TTP  C17  135   0.014   2.143   0.015
    7  TTP  C18  136  -0.030   2.277  -0.025
    7  TTP  C32  137  -0.243   2.415  -0.298
    7  TTP  C33  138  -0.153   2.449  -0.420
    7  TTP  C34  139  -0.246   2.472  -0.541
    7  TTP  C35  140  -0.187   2.543  -0.666
    7  TTP  C36  141  -0.282   2.637  -0.747
    7  TTP  C37  142  -0.401   2.573  -0.824
    7  TTP  C38  143  -0.482   2.441  -0.836
    7  TTP  C39  144  -0.564   2.391  -0.713
    7  TTP  C40  145  -0.623   2.493  -0.613
    7  TTP  C41  146  -0.610   2.467  -0.460
    7  TTP  C42  147  -0.628   2.588  -0.365
    8  TTP   S1  148   0.183   1.444   0.237
    8  TTP   S5  149   0.385   1.647   0.545
    8  TTP   C1  150   0.416   1.474   0.567
    8  TTP   C2  151   0.351   1.400   0.466
    8  TTP   C3  152   0.274   1.480   0.382
    8  TTP   C4  153   0.160   1.616   0.216
    8  TTP  C17  154   0.214   1.691   0.320
    8  TTP  C18  155   0.284   1.614   0.415
    8  TTP  C32  156   0.344   1.246   0.459
    8  TTP  C33  157   0.239   1.179   0.553
    8  TTP  C34  158   0.232   1.024   0.537
    8  TTP  C35  159   0.123   0.974   0.635
    8  TTP  C36  160   0.139   0.820   0.641
    8  TTP  C37  161   0.106   0.782   0.493
    8  TTP  C38  162   0.100   0.628   0.464
    8  TTP  C39  163   0.038   0.577   0.332
    8  TTP  C40  164   0.129   0.509   0.225
    8  TTP  C41  165   0.204   0.378   0.259
    8  TTP  C42  166   0.226   0.271   0.150
    9  FIC   F1  167  -0.090   3.122   0.442
    9  FIC   F2  168  -0.199   3.276   0.250
    9  FIC   O1  169  -0.036   2.663   0.181
    9  FIC   N5  170  -0.352   3.163  -0.195
    9  FIC   N6  171  -0.304   2.782  -0.374
    9  FIC  C19  172  -0.164   2.632  -0.092
    9  FIC  C20  173  -0.155   2.743  -0.011
    9  FIC  C21  174  -0.092   2.751   0.116
    9  FIC  C22  175  -0.117   2.885   0.170
    9  FIC  C23  176  -0.087   2.935   0.301
    9  FIC  C24  177  -0.116   3.064   0.325
    9  FIC  C25  178  -0.176   3.143   0.216
    9  FIC  C26  179  -0.212   3.098   0.099
    9  FIC  C27  180  -0.177   2.963   0.071
    9  FIC  C28  181  -0.201   2.877  -0.045
    9  FIC  C29  182  -0.261   2.920  -0.161
    9  FIC  C30  183  -0.309   3.063  -0.174
    9  FIC  C31  184  -0.278   2.842  -0.280
   10  FIC   F1  185   0.872   1.797   1.158
   10  FIC   F2  186   0.919   1.554   1.239
   10  FIC   O1  187   0.560   1.703   0.736
   10  FIC   N5  188   0.742   1.134   1.089
   10  FIC   N6  189   0.552   1.079   0.711
   10  FIC  C19  190   0.492   1.416   0.668
   10  FIC  C20  191   0.572   1.462   0.767
   10  FIC  C21  192   0.603   1.609   0.800
   10  FIC  C22  193   0.682   1.611   0.915
   10  FIC  C23  194   0.739   1.721   0.982
   10  FIC  C24  195   0.815   1.704   1.091
   10  FIC  C25  196   0.844   1.575   1.134
   10  FIC  C26  197   0.788   1.456   1.075
   10  FIC  C27  198   0.705   1.478   0.963
   10  FIC  C28  199   0.639   1.388   0.870
   10  FIC  C29  200   0.643   1.249   0.882
   10  FIC  C30  201   0.700   1.184   1.001
   10  FIC  C31  202   0.587   1.155   0.789
   11  BTD   S2  203  -1.066  -1.605  -2.195
   11  BTD   N1  204  -1.053  -1.769  -2.190
   11  BTD   N2  205  -1.001  -1.565  -2.052
   11  BTD   N3  206  -0.800  -1.812  -1.703
   11  BTD   N4  207  -0.856  -2.084  -1.895
   11  BTD   C5  208  -0.957  -1.925  -2.034
   11  BTD   C6  209  -0.997  -1.797  -2.078
   11  BTD   C7  210  -0.968  -1.682  -1.998
   11  BTD   C8  211  -0.901  -1.699  -1.873
   11  BTD  C15  212  -0.865  -1.827  -1.823
   11  BTD  C16  213  -0.884  -1.948  -1.909
   11  BTD  C43  214  -0.753  -2.149  -1.818
   11  BTD  C44  215  -0.611  -2.097  -1.855
   11  BTD  C45  216  -0.573  -2.072  -2.004
   11  BTD  C46  217  -0.567  -2.204  -2.086
   11  BTD  C47  218  -0.495  -2.177  -1.789
   11  BTD  C48  219  -0.478  -2.171  -1.635
   11  BTD  C49  220  -0.389  -2.277  -1.563
   11  BTD  C50  221  -0.410  -2.302  -1.411
   11  BTD  C75  222  -0.788  -1.910  -1.584
   11  BTD  C76  223  -0.926  -1.974  -1.549
   11  BTD  C77  224  -0.925  -2.060  -1.420
   11  BTD  C78  225  -0.780  -2.028  -1.375
   11  BTD  C79  226  -1.047  -1.880  -1.531
   11  BTD  C80  227  -1.026  -1.748  -1.452
   11  BTD  C81  228  -1.122  -1.629  -1.476
   11  BTD  C82  229  -1.254  -1.624  -1.393
   12  TTP   S1  230  -1.032  -2.124  -2.233
   12  TTP   S5  231  -0.849  -2.431  -2.014
   12  TTP   C1  232  -0.908  -2.501  -2.160
   12  TTP   C2  233  -0.969  -2.410  -2.238
   12  TTP   C3  234  -0.971  -2.279  -2.186
   12  TTP   C4  235  -0.966  -2.053  -2.091
   12  TTP  C17  236  -0.906  -2.145  -2.006
   12  TTP  C18  237  -0.905  -2.278  -2.058
   12  TTP  C32  238  -1.027  -2.434  -2.379
   12  TTP  C33  239  -1.179  -2.419  -2.402
   12  TTP  C34  240  -1.237  -2.454  -2.541
   12  TTP  C35  241  -1.390  -2.448  -2.512
   12  TTP  C36  242  -1.436  -2.595  -2.488
   12  TTP  C37  243  -1.368  -2.708  -2.570
   12  TTP  C38  244  -1.452  -2.828  -2.622
   12  TTP  C39  245  -1.342  -2.873  -2.720
   12  TTP  C40  246  -1.387  -2.914  -2.864
   12  TTP  C41  247  -1.306  -3.022  -2.941
   12  TTP  C42  248  -1.368  -3.088  -3.067
   13  TTP   S1  249  -0.868  -1.434  -1.749
   13  TTP   S5  250  -0.646  -1.609  -1.438
   13  TTP   C1  251  -0.640  -1.434  -1.421
   13  TTP   C2  252  -0.711  -1.369  -1.517
   13  TTP   C3  253  -0.772  -1.457  -1.606
   13  TTP   C4  254  -0.866  -1.604  -1.775
   13  TTP  C17  255  -0.803  -1.676  -1.672
   13  TTP  C18  256  -0.744  -1.591  -1.577
   13  TTP  C32  257  -0.729  -1.215  -1.526
   13  TTP  C33  258  -0.847  -1.162  -1.438
   13  TTP  C34  259  -0.865  -1.009  -1.443
   13  TTP  C35  260  -0.893  -0.966  -1.590
   13  TTP  C36  261  -0.907  -0.815  -1.622
   13  TTP  C37  262  -0.784  -0.721  -1.608
   13  TTP  C38  263  -0.870  -0.594  -1.636
   13  TTP  C39  264  -0.776  -0.494  -1.565
   13  TTP  C40  265  -0.770  -0.496  -1.409
   13  TTP  C41  266  -0.663  -0.583  -1.338
   13  TTP  C42  267  -0.698  -0.727  -1.288
   14  FIC   F1  268  -0.576  -3.150  -1.788
   14  FIC   F2  269  -0.617  -3.286  -2.017
   14  FIC   O1  270  -0.786  -2.674  -1.925
   14  FIC   N5  271  -0.825  -3.157  -2.426
   14  FIC   N6  272  -0.996  -2.760  -2.515
   14  FIC  C19  273  -0.891  -2.636  -2.202
   14  FIC  C20  274  -0.839  -2.750  -2.150
   14  FIC  C21  275  -0.784  -2.761  -2.016
   14  FIC  C22  276  -0.738  -2.900  -2.001
   14  FIC  C23  277  -0.677  -2.954  -1.884
   14  FIC  C24  278  -0.635  -3.087  -1.905
   14  FIC  C25  279  -0.655  -3.155  -2.017
   14  FIC  C26  280  -0.712  -3.101  -2.122
   14  FIC  C27  281  -0.755  -2.973  -2.109
   14  FIC  C28  282  -0.823  -2.881  -2.210
   14  FIC  C29  283  -0.865  -2.909  -2.351
   14  FIC  C30  284  -0.844  -3.053  -2.390
   14  FIC  C31  285  -0.932  -2.823  -2.446
   15  FIC   F1  286  -0.181  -1.706  -0.808
   15  FIC   F2  287  -0.127  -1.455  -0.745
   15  FIC   O1  288  -0.502  -1.643  -1.224
   15  FIC   N5  289  -0.276  -1.041  -0.951
   15  FIC   N6  290  -0.470  -1.024  -1.325
   15  FIC  C19  291  -0.563  -1.363  -1.323
   15  FIC  C20  292  -0.482  -1.400  -1.221
   15  FIC  C21  293  -0.457  -1.541  -1.178
   15  FIC  C22  294  -0.372  -1.532  -1.058
   15  FIC  C23  295  -0.320  -1.639  -0.985
   15  FIC  C24  296  -0.244  -1.608  -0.881
   15  FIC  C25  297  -0.212  -1.475  -0.848
   15  FIC  C26  298  -0.260  -1.372  -0.922
   15  FIC  C27  299  -0.342  -1.401  -1.027
   15  FIC  C28  300  -0.406  -1.315  -1.131
   15  FIC  C29  301  -0.393  -1.177  -1.136
   15  FIC  C30  302  -0.328  -1.103  -1.034
   15  FIC  C31  303  -0.437  -1.094  -1.245
   16  BTD   S2  304   0.060  -1.597   0.200
   16  BTD   N1  305   0.071  -1.758   0.189
   16  BTD   N2  306  -0.019  -1.565   0.063
   16  BTD   N3  307  -0.188  -1.827  -0.299
   16  BTD   N4  308  -0.075  -2.087  -0.121
   16  BTD   C5  309  -0.005  -1.923   0.020
   16  BTD   C6  310   0.012  -1.793   0.076
   16  BTD   C7  311  -0.039  -1.682   0.003
   16  BTD   C8  312  -0.100  -1.703  -0.122
   16  BTD  C15  313  -0.119  -1.836  -0.175
   16  BTD  C16  314  -0.071  -1.948  -0.098
   16  BTD  C43  315  -0.163  -2.164  -0.210
   16  BTD  C44  316  -0.316  -2.154  -0.180
   16  BTD  C45  317  -0.388  -2.253  -0.274
   16  BTD  C46  318  -0.538  -2.211  -0.273
   16  BTD  C47  319  -0.349  -2.181  -0.030
   16  BTD  C48  320  -0.363  -2.322   0.033
   16  BTD  C49  321  -0.377  -2.290   0.184
   16  BTD  C50  322  -0.474  -2.244   0.298
   16  BTD  C75  323  -0.175  -1.915  -0.415
   16  BTD  C76  324  -0.026  -1.945  -0.451
   16  BTD  C77  325  -0.017  -2.033  -0.578
   16  BTD  C78  326   0.124  -2.086  -0.613
   16  BTD  C79  327   0.059  -1.818  -0.471
   16  BTD  C80  328   0.032  -1.729  -0.595
   16  BTD  C81  329   0.124  -1.604  -0.590
   16  BTD  C82  330   0.093  -1.478  -0.503
   17  TTP   S1  331   0.122  -2.113   0.207
   17  TTP   S5  332   0.023  -2.432  -0.050
   17  TTP   C1  333   0.120  -2.495   0.082
   17  TTP   C2  334   0.158  -2.398   0.170
   17  TTP   C3  335   0.102  -2.275   0.137
   17  TTP   C4  336   0.037  -2.052   0.076
   17  TTP  C17  337  -0.014  -2.143  -0.015
   17  TTP  C18  338   0.030  -2.277   0.025
   17  TTP  C32  339   0.243  -2.415   0.298
   17  TTP  C33  340   0.153  -2.449   0.420
   17  TTP  C34  341   0.246  -2.472   0.541
   17  TTP  C35  342   0.187  -2.543   0.666
   17  TTP  C36  343   0.282  -2.637   0.747
   17  TTP  C37  344   0.401  -2.573   0.824
   17  TTP  C38  345   0.482  -2.441   0.836
   17  TTP  C39  346   0.564  -2.391   0.713
   17  TTP  C40  347   0.623  -2.493   0.613
   17  TTP  C41  348   0.610  -2.467   0.460
   17  TTP  C42  349   0.628  -2.588   0.365
   18  TTP   S1  350  -0.183  -1.444  -0.237
   18  TTP   S5  351  -0.385  -1.647  -0.545
   18  TTP   C1  352  -0.416  -1.474  -0.567
   18  TTP   C2  353  -0.351  -1.400  -0.466
   18  TTP   C3  354  -0.274  -1.480  -0.382
   18  TTP   C4  355  -0.160  -1.616  -0.216
   18  TTP  C17  356  -0.214  -1.691  -0.320
   18  TTP  C18  357  -0.284  -1.614  -0.415
   18  TTP  C32  358  -0.344  -1.246  -0.459
   18  TTP  C33  359  -0.238  -1.179  -0.553
   18  TTP  C34  360  -0.232  -1.024  -0.537
   18  TTP  C35  361  -0.123  -0.974  -0.635
   18  TTP  C36  362  -0.139  -0.820  -0.641
   18  TTP  C37  363  -0.106  -0.782  -0.493
   18  TTP  C38  364  -0.100  -0.628  -0.464
   18  TTP  C39  365  -0.038  -0.577  -0.332
   18  TTP  C40  366  -0.129  -0.509  -0.225
   18  TTP  C41  367  -0.204  -0.378  -0.259
   18  TTP  C42  368  -0.226  -0.271  -0.150
   19  FIC   F1  369   0.090  -3.122  -0.442
   19  FIC   F2  370   0.199  -3.276  -0.250
   19  FIC   O1  371   0.036  -2.663  -0.181
   19  FIC   N5  372   0.352  -3.163   0.195
   19  FIC   N6  373   0.304  -2.782   0.374
   19  FIC  C19  374   0.164  -2.632   0.092
   19  FIC  C20  375   0.155  -2.743   0.011
   19  FIC  C21  376   0.092  -2.751  -0.116
   19  FIC  C22  377   0.117  -2.885  -0.170
   19  FIC  C23  378   0.087  -2.935  -0.301
   19  FIC  C24  379   0.116  -3.064  -0.325
   19  FIC  C25  380   0.176  -3.143  -0.216
   19  FIC  C26  381   0.212  -3.098  -0.099
   19  FIC  C27  382   0.177  -2.963  -0.071
   19  FIC  C28  383   0.201  -2.877   0.045
   19  FIC  C29  384   0.261  -2.920   0.161
   19  FIC  C30  385   0.309  -3.063   0.174
   19  FIC  C31  386   0.278  -2.842   0.280
   20  FIC   F1  387  -0.872  -1.797  -1.158
   20  FIC   F2  388  -0.919  -1.554  -1.239
   20  FIC   O1  389  -0.560  -1.703  -0.736
   20  FIC   N5  390  -0.742  -1.134  -1.089
   20  FIC   N6  391  -0.552  -1.079  -0.711
   20  FIC  C19  392  -0.492  -1.416  -0.668
   20  FIC  C20  393  -0.572  -1.462  -0.767
   20  FIC  C21  394  -0.603  -1.609  -0.800
   20  FIC  C22  395  -0.682  -1.611  -0.915
   20  FIC  C23  396  -0.739  -1.721  -0.982
   20  FIC  C24  397  -0.815  -1.704  -1.091
   20  FIC  C25  398  -0.844  -1.575  -1.134
   20  FIC  C26  399  -0.788  -1.456  -1.075
   20  FIC  C27  400  -0.705  -1.478  -0.963
   20  FIC  C28  401  -0.639  -1.388  -0.870
   20  FIC  C29  402  -0.643  -1.249  -0.882
   20  FIC  C30  403  -0.700  -1.184  -1.001
   20  FIC  C31  404  -0.587  -1.155  -0.789
   21  BTD   S2  405  -1.170   4.495  -1.196
   21  BTD   N1  406  -1.156   4.660  -1.192
   21  BTD   N2  407  -1.105   4.456  -1.054
   21  BTD   N3  408  -0.903   4.703  -0.704
   21  BTD   N4  409  -0.960   4.974  -0.897
   21  BTD   C5  410  -1.060   4.815  -1.035
   21  BTD   C6  411  -1.100   4.687  -1.079
   21  BTD   C7  412  -1.071   4.573  -0.999
   21  BTD   C8  413  -1.005   4.590  -0.875
   21  BTD  C15  414  -0.969   4.717  -0.825
   21  BTD  C16  415  -0.987   4.839  -0.910
   21  BTD  C43  416  -0.856   5.040  -0.820
   21  BTD  C44  417  -0.714   4.988  -0.856
   21  BTD  C45  418  -0.676   4.963  -1.006
   21  BTD  C46  419  -0.671   5.094  -1.087
   21  BTD  C47  420  -0.599   5.068  -0.790
   21  BTD  C48  421  -0.581   5.062  -0.637
   21  BTD  C49  422  -0.493   5.168  -0.565
   21  BTD  C50  423  -0.513   5.192  -0.413
   21  BTD  C75  424  -0.892   4.801  -0.586
   21  BTD  C76  425  -1.030   4.864  -0.551
   21  BTD  C77  426  -1.028   4.950  -0.422
   21  BTD  C78  427  -0.884   4.919  -0.376
   21  BTD  C79  428  -1.151   4.770  -0.532
   21  BTD  C80  429  -1.130   4.639  -0.453
   21  BTD  C81  430  -1.226   4.519  -0.478
   21  BTD  C82  431  -1.357   4.515  -0.394
   22  TTP   S1  432  -1.135   5.015  -1.234
   22  TTP   S5  433  -0.952   5.322  -1.016
   22  TTP   C1  434  -1.012   5.392  -1.162
   22  TTP   C2  435  -1.072   5.300  -1.239
   22  TTP   C3  436  -1.074   5.170  -1.188
   22  TTP   C4  437  -1.070   4.944  -1.092
   22  TTP  C17  438  -1.009   5.036  -1.008
   22  TTP  C18  439  -1.008   5.168  -1.060
   22  TTP  C32  440  -1.130   5.325  -1.381
   22  TTP  C33  441  -1.283   5.310  -1.403
   22  TTP  C34  442  -1.341   5.345  -1.543
   22  TTP  C35  443  -1.493   5.339  -1.514
   22  TTP  C36  444  -1.540   5.485  -1.489
   22  TTP  C37  445  -1.471   5.599  -1.572
   22  TTP  C38  446  -1.556   5.718  -1.623
   22  TTP  C39  447  -1.446   5.763  -1.721
   22  TTP  C40  448  -1.490   5.805  -1.865
   22  TTP  C41  449  -1.409   5.913  -1.943
   22  TTP  C42  450  -1.472   5.978  -2.069
   23  TTP   S1  451  -0.971   4.324  -0.750
   23  TTP   S5  452  -0.749   4.500  -0.440
   23  TTP   C1  453  -0.743   4.324  -0.422
   23  TTP   C2  454  -0.814   4.259  -0.518
   23  TTP   C3  455  -0.875   4.347  -0.607
   23  TTP   C4  456  -0.969   4.495  -0.776
   23  TTP  C17  457  -0.906   4.566  -0.674
   23  TTP  C18  458  -0.848   4.482  -0.578
   23  TTP  C32  459  -0.833   4.105  -0.528
   23  TTP  C33  460  -0.950   4.052  -0.440
   23  TTP  C34  461  -0.968   3.899  -0.445
   23  TTP  C35  462  -0.997   3.856  -0.591
   23  TTP  C36  463  -1.010   3.705  -0.624
   23  TTP  C37  464  -0.887   3.612  -0.609
   23  TTP  C38  465  -0.973   3.485  -0.638
   23  TTP  C39  466  -0.880   3.384  -0.566
   23  TTP  C40  467  -0.873   3.387  -0.411
   23  TTP  C41  468  -0.767   3.474  -0.339
   23  TTP  C42  469  -0.801   3.617  -0.290
   24  FIC   F1  470  -0.679   6.041  -0.789
   24  FIC   F2  471  -0.720   6.176  -1.018
   24  FIC   O1  472  -0.889   5.565  -0.926
   24  FIC   N5  473  -0.928   6.048  -1.428
   24  FIC   N6  474  -1.100   5.651  -1.516
   24  FIC  C19  475  -0.995   5.526  -1.204
   24  FIC  C20  476  -0.943   5.640  -1.152
   24  FIC  C21  477  -0.888   5.651  -1.018
   24  FIC  C22  478  -0.841   5.790  -1.002
   24  FIC  C23  479  -0.780   5.844  -0.885
   24  FIC  C24  480  -0.739   5.978  -0.907
   24  FIC  C25  481  -0.758   6.045  -1.019
   24  FIC  C26  482  -0.816   5.991  -1.124
   24  FIC  C27  483  -0.859   5.863  -1.111
   24  FIC  C28  484  -0.927   5.772  -1.211
   24  FIC  C29  485  -0.969   5.800  -1.353
   24  FIC  C30  486  -0.948   5.944  -1.392
   24  FIC  C31  487  -1.035   5.714  -1.448
   25  FIC   F1  488  -0.285   4.597   0.191
   25  FIC   F2  489  -0.230   4.345   0.253
   25  FIC   O1  490  -0.605   4.533  -0.226
   25  FIC   N5  491  -0.379   3.931   0.047
   25  FIC   N6  492  -0.574   3.915  -0.326
   25  FIC  C19  493  -0.667   4.254  -0.324
   25  FIC  C20  494  -0.585   4.291  -0.222
   25  FIC  C21  495  -0.560   4.431  -0.180
   25  FIC  C22  496  -0.476   4.423  -0.060
   25  FIC  C23  497  -0.423   4.529   0.013
   25  FIC  C24  498  -0.348   4.499   0.118
   25  FIC  C25  499  -0.315   4.366   0.150
   25  FIC  C26  500  -0.364   4.262   0.076
   25  FIC  C27  501  -0.445   4.291  -0.028
   25  FIC  C28  502  -0.510   4.205  -0.133
   25  FIC  C29  503  -0.496   4.067  -0.137
   25  FIC  C30  504  -0.432   3.993  -0.036
   25  FIC  C31  505  -0.541   3.985  -0.246
   26  BTD   S2  506  -0.043   4.487   1.199
   26  BTD   N1  507  -0.033   4.648   1.188
   26  BTD   N2  508  -0.122   4.456   1.061
   26  BTD   N3  509  -0.292   4.718   0.700
   26  BTD   N4  510  -0.178   4.978   0.877
   26  BTD   C5  511  -0.108   4.814   1.019
   26  BTD   C6  512  -0.091   4.683   1.075
   26  BTD   C7  513  -0.142   4.573   1.001
   26  BTD   C8  514  -0.204   4.594   0.877
   26  BTD  C15  515  -0.223   4.727   0.824
   26  BTD  C16  516  -0.175   4.838   0.900
   26  BTD  C43  517  -0.267   5.055   0.789
   26  BTD  C44  518  -0.419   5.045   0.819
   26  BTD  C45  519  -0.492   5.144   0.724
   26  BTD  C46  520  -0.642   5.102   0.726
   26  BTD  C47  521  -0.452   5.071   0.968
   26  BTD  C48  522  -0.467   5.212   1.032
   26  BTD  C49  523  -0.481   5.181   1.183
   26  BTD  C50  524  -0.577   5.135   1.296
   26  BTD  C75  525  -0.278   4.805   0.583
   26  BTD  C76  526  -0.130   4.835   0.548
   26  BTD  C77  527  -0.121   4.923   0.421
   26  BTD  C78  528   0.020   4.977   0.385
   26  BTD  C79  529  -0.044   4.708   0.527
   26  BTD  C80  530  -0.072   4.620   0.403
   26  BTD  C81  531   0.020   4.494   0.409
   26  BTD  C82  532  -0.011   4.369   0.496
   27  TTP   S1  533   0.018   5.004   1.205
   27  TTP   S5  534  -0.080   5.322   0.949
   27  TTP   C1  535   0.016   5.386   1.080
   27  TTP   C2  536   0.054   5.288   1.169
   27  TTP   C3  537  -0.001   5.166   1.135
   27  TTP   C4  538  -0.066   4.943   1.074
   27  TTP  C17  539  -0.117   5.033   0.983
   27  TTP  C18  540  -0.073   5.168   1.023
   27  TTP  C32  541   0.140   5.306   1.297
   27  TTP  C33  542   0.049   5.340   1.418
   27  TTP  C34  543   0.142   5.363   1.540
   27  TTP  C35  544   0.084   5.433   1.664
   27  TTP  C36  545   0.178   5.527   1.745
   27  TTP  C37  546   0.298   5.463   1.822
   27  TTP  C38  547   0.378   5.331   1.834
   27  TTP  C39  548   0.460   5.281   1.712
   27  TTP  C40  549   0.519   5.384   1.611
   27  TTP  C41  550   0.506   5.357   1.458
   27  TTP  C42  551   0.525   5.479   1.363
   28  TTP   S1  552  -0.286   4.335   0.762
   28  TTP   S5  553  -0.488   4.538   0.453
   28  TTP   C1  554  -0.519   4.365   0.432
   28  TTP   C2  555  -0.455   4.291   0.533
   28  TTP   C3  556  -0.378   4.371   0.617
   28  TTP   C4  557  -0.263   4.506   0.783
   28  TTP  C17  558  -0.317   4.581   0.679
   28  TTP  C18  559  -0.388   4.504   0.583
   28  TTP  C32  560  -0.447   4.136   0.539
   28  TTP  C33  561  -0.342   4.069   0.446
   28  TTP  C34  562  -0.335   3.915   0.461
   28  TTP  C35  563  -0.226   3.864   0.363
   28  TTP  C36  564  -0.242   3.710   0.358
   28  TTP  C37  565  -0.209   3.672   0.505
   28  TTP  C38  566  -0.204   3.518   0.535
   28  TTP  C39  567  -0.142   3.468   0.667
   28  TTP  C40  568  -0.233   3.400   0.774
   28  TTP  C41  569  -0.308   3.269   0.739
   28  TTP  C42  570  -0.330   3.161   0.848
   29  FIC   F1  571  -0.013   6.012   0.557
   29  FIC   F2  572   0.096   6.166   0.748
   29  FIC   O1  573  -0.068   5.553   0.817
   29  FIC   N5  574   0.248   6.054   1.193
   29  FIC   N6  575   0.200   5.673   1.372
   29  FIC  C19  576   0.060   5.523   1.090
   29  FIC  C20  577   0.051   5.634   1.010
   29  FIC  C21  578  -0.011   5.641   0.882
   29  FIC  C22  579   0.013   5.776   0.828
   29  FIC  C23  580  -0.016   5.825   0.698
   29  FIC  C24  581   0.012   5.954   0.673
   29  FIC  C25  582   0.072   6.033   0.783
   29  FIC  C26  583   0.108   5.989   0.899
   29  FIC  C27  584   0.073   5.854   0.927
   29  FIC  C28  585   0.097   5.767   1.043
   29  FIC  C29  586   0.157   5.810   1.160
   29  FIC  C30  587   0.205   5.954   1.172
   29  FIC  C31  588   0.175   5.733   1.279
   30  FIC   F1  589  -0.976   4.687  -0.160
   30  FIC   F2  590  -1.023   4.445  -0.241
   30  FIC   O1  591  -0.664   4.593   0.263
   30  FIC   N5  592  -0.846   4.024  -0.091
   30  FIC   N6  593  -0.655   3.969   0.287
   30  FIC  C19  594  -0.596   4.307   0.330
   30  FIC  C20  595  -0.675   4.353   0.231
   30  FIC  C21  596  -0.707   4.499   0.199
   30  FIC  C22  597  -0.786   4.501   0.083
   30  FIC  C23  598  -0.842   4.612   0.017
   30  FIC  C24  599  -0.918   4.595  -0.093
   30  FIC  C25  600  -0.947   4.466  -0.135
   30  FIC  C26  601  -0.892   4.347  -0.077
   30  FIC  C27  602  -0.809   4.368   0.036
   30  FIC  C28  603  -0.742   4.279   0.128
   30  FIC  C29  604  -0.747   4.139   0.116
   30  FIC  C30  605  -0.804   4.075  -0.003
   30  FIC  C31  606  -0.691   4.045   0.209
   31  BTD   S2  607   1.170  -4.495   1.196
   31  BTD   N1  608   1.156  -4.660   1.192
   31  BTD   N2  609   1.105  -4.456   1.054
   31  BTD   N3  610   0.903  -4.703   0.704
   31  BTD   N4  611   0.960  -4.974   0.897
   31  BTD   C5  612   1.060  -4.815   1.035
   31  BTD   C6  613   1.100  -4.687   1.079
   31  BTD   C7  614   1.071  -4.573   0.999
   31  BTD   C8  615   1.005  -4.590   0.875
   31  BTD  C15  616   0.969  -4.717   0.825
   31  BTD  C16  617   0.987  -4.839   0.910
   31  BTD  C43  618   0.856  -5.040   0.820
   31  BTD  C44  619   0.714  -4.988   0.856
   31  BTD  C45  620   0.676  -4.963   1.006
   31  BTD  C46  621   0.671  -5.094   1.087
   31  BTD  C47  622   0.599  -5.068   0.790
   31  BTD  C48  623   0.581  -5.062   0.637
   31  BTD  C49  624   0.493  -5.168   0.565
   31  BTD  C50  625   0.513  -5.192   0.413
   31  BTD  C75  626   0.892  -4.801   0.586
   31  BTD  C76  627   1.030  -4.864   0.551
   31  BTD  C77  628   1.028  -4.950   0.422
   31  BTD  C78  629   0.884  -4.919   0.376
   31  BTD  C79  630   1.151  -4.770   0.532
   31  BTD  C80  631   1.130  -4.639   0.453
   31  BTD  C81  632   1.226  -4.519   0.478
   31  BTD  C82  633   1.357  -4.515   0.394
   32  TTP   S1  634   1.135  -5.015   1.234
   32  TTP   S5  635   0.952  -5.322   1.016
   32  TTP   C1  636   1.012  -5.392   1.162
   32  TTP   C2  637   1.072  -5.300   1.239
   32  TTP   C3  638   1.074  -5.170   1.188
   32  TTP   C4  639   1.070  -4.944   1.092
   32  TTP  C17  640   1.009  -5.036   1.008
   32  TTP  C18  641   1.008  -5.168   1.060
   32  TTP  C32  642   1.130  -5.325   1.381
   32  TTP  C33  643   1.283  -5.310   1.403
   32  TTP  C34  644   1.341  -5.345   1.543
   32  TTP  C35  645   1.493  -5.339   1.514
   32  TTP  C36  646   1.540  -5.485   1.489
   32  TTP  C37  647   1.471  -5.599   1.572
   32  TTP  C38  648   1.556  -5.718   1.623
   32  TTP  C39  649   1.446  -5.763   1.721
   32  TTP  C40  650   1.490  -5.805   1.865
   32  TTP  C41  651   1.409  -5.913   1.943
   32  TTP  C42  652   1.472  -5.978   2.069
   33  TTP   S1  653   0.971  -4.324   0.750
   33  TTP   S5  654   0.749  -4.500   0.440
   33  TTP   C1  655   0.743  -4.324   0.422
   33  TTP   C2  656   0.814  -4.259   0.518
   33  TTP   C3  657   0.875  -4.347   0.607
   33  TTP   C4  658   0.969  -4.495   0.776
   33  TTP  C17  659   0.906  -4.566   0.674
   33  TTP  C18  660   0.848  -4.482   0.578
   33  TTP  C32  661   0.833  -4.105   0.528
   33  TTP  C33  662   0.950  -4.052   0.440
   33  TTP  C34  663   0.968  -3.899   0.445
   33  TTP  C35  664   0.997  -3.856   0.591
   33  TTP  C36  665   1.010  -3.705   0.624
   33  TTP  C37  666   0.887  -3.612   0.609
   33  TTP  C38  667   0.973  -3.485   0.638
   33  TTP  C39  668   0.880  -3.384   0.566
   33  TTP  C40  669   0.873  -3.387   0.411
   33  TTP  C41  670   0.767  -3.474   0.339
   33  TTP  C42  671   0.801  -3.617   0.290
   34  FIC   F1  672   0.679  -6.041   0.789
   34  FIC   F2  673   0.720  -6.176   1.018
   34  FIC   O1  674   0.889  -5.565   0.926
   34  FIC   N5  675   0.928  -6.048   1.428
   34  FIC   N6  676   1.100  -5.651   1.516
   34  FIC  C19  677   0.995  -5.526   1.204
   34  FIC  C20  678   0.943  -5.640   1.152
   34  FIC  C21  679   0.888  -5.651   1.018
   34  FIC  C22  680   0.841  -5.790   1.002
   34  FIC  C23  681   0.780  -5.844   0.885
   34  FIC  C24  682   0.739  -5.978   0.907
   34  FIC  C25  683   0.758  -6.045   1.019
   34  FIC  C26  684   0.816  -5.991   1.124
   34  FIC  C27  685   0.859  -5.863   1.111
   34  FIC  C28  686   0.927  -5.772   1.211
   34  FIC  C29  687   0.969  -5.800   1.353
   34  FIC  C30  688   0.948  -5.944   1.392
   34  FIC  C31  689   1.035  -5.714   1.448
   35  FIC   F1  690   0.285  -4.597  -0.191
   35  FIC   F2  691   0.230  -4.345  -0.253
   35  FIC   O1  692   0.605  -4.533   0.226
   35  FIC   N5  693   0.379  -3.931  -0.047
   35  FIC   N6  694   0.574  -3.915   0.326
   35  FIC  C19  695   0.667  -4.254   0.324
   35  FIC  C20  696   0.585  -4.291   0.222
   35  FIC  C21  697   0.560  -4.431   0.180
   35  FIC  C22  698   0.476  -4.423   0.060
   35  FIC  C23  699   0.423  -4.529  -0.013
   35  FIC  C24  700   0.348  -4.499  -0.118
   35  FIC  C25  701   0.315  -4.366  -0.150
   35  FIC  C26  702   0.364  -4.262  -0.076
   35  FIC  C27  703   0.445  -4.291   0.028
   35  FIC  C28  704   0.510  -4.205   0.133
   35  FIC  C29  705   0.496  -4.067   0.137
   35  FIC  C30  706   0.432  -3.993   0.036
   35  FIC  C31  707   0.541  -3.985   0.246
   36  BTD   S2  708   0.043  -4.487  -1.199
   36  BTD   N1  709   0.033  -4.648  -1.188
   36  BTD   N2  710   0.122  -4.456  -1.061
   36  BTD   N3  711   0.292  -4.718  -0.700
   36  BTD   N4  712   0.178  -4.978  -0.877
   36  BTD   C5  713   0.108  -4.814  -1.019
   36  BTD   C6  714   0.091  -4.683  -1.075
   36  BTD   C7  715   0.142  -4.573  -1.001
   36  BTD   C8  716   0.204  -4.594  -0.877
   36  BTD  C15  717   0.223  -4.727  -0.824
   36  BTD  C16  718   0.175  -4.838  -0.900
   36  BTD  C43  719   0.267  -5.055  -0.789
   36  BTD  C44  720   0.419  -5.045  -0.819
   36  BTD  C45  721   0.492  -5.144  -0.724
   36  BTD  C46  722   0.642  -5.102  -0.726
   36  BTD  C47  723   0.452  -5.071  -0.968
   36  BTD  C48  724   0.467  -5.212  -1.032
   36  BTD  C49  725   0.481  -5.181  -1.183
   36  BTD  C50  726   0.577  -5.135  -1.296
   36  BTD  C75  727   0.278  -4.805  -0.583
   36  BTD  C76  728   0.130  -4.835  -0.548
   36  BTD  C77  729   0.121  -4.923  -0.421
   36  BTD  C78  730  -0.020  -4.977  -0.385
   36  BTD  C79  731   0.044  -4.708  -0.527
   36  BTD  C80  732   0.072  -4.620  -0.403
   36  BTD  C81  733  -0.020  -4.494  -0.409
   36  BTD  C82  734   0.011  -4.369  -0.496
   37  TTP   S1  735  -0.018  -5.004  -1.205
   37  TTP   S5  736   0.080  -5.322  -0.949
   37  TTP   C1  737  -0.016  -5.386  -1.080
   37  TTP   C2  738  -0.054  -5.288  -1.169
   37  TTP   C3  739   0.001  -5.166  -1.135
   37  TTP   C4  740   0.066  -4.943  -1.074
   37  TTP  C17  741   0.117  -5.033  -0.983
   37  TTP  C18  742   0.073  -5.168  -1.023
   37  TTP  C32  743  -0.140  -5.306  -1.297
   37  TTP  C33  744  -0.049  -5.340  -1.418
   37  TTP  C34  745  -0.142  -5.363  -1.540
   37  TTP  C35  746  -0.084  -5.433  -1.664
   37  TTP  C36  747  -0.178  -5.527  -1.745
   37  TTP  C37  748  -0.298  -5.463  -1.822
   37  TTP  C38  749  -0.378  -5.331  -1.834
   37  TTP  C39  750  -0.460  -5.281  -1.712
   37  TTP  C40  751  -0.519  -5.384  -1.611
   37  TTP  C41  752  -0.506  -5.357  -1.458
   37  TTP  C42  753  -0.525  -5.479  -1.363
   38  TTP   S1  754   0.286  -4.335  -0.762
   38  TTP   S5  755   0.488  -4.538  -0.453
   38  TTP   C1  756   0.519  -4.365  -0.432
   38  TTP   C2  757   0.455  -4.291  -0.533
   38  TTP   C3  758   0.378  -4.371  -0.617
   38  TTP   C4  759   0.263  -4.506  -0.783
   38  TTP  C17  760   0.317  -4.581  -0.679
   38  TTP  C18  761   0.388  -4.504  -0.583
   38  TTP  C32  762   0.447  -4.136  -0.539
   38  TTP  C33  763   0.342  -4.069  -0.446
   38  TTP  C34  764   0.335  -3.915  -0.461
   38  TTP  C35  765   0.226  -3.864  -0.363
   38  TTP  C36  766   0.242  -3.710  -0.358
   38  TTP  C37  767   0.209  -3.672  -0.505
   38  TTP  C38  768   0.204  -3.518  -0.535
   38  TTP  C39  769   0.142  -3.468  -0.667
   38  TTP  C40  770   0.233  -3.400  -0.774
   38  TTP  C41  771   0.308  -3.269  -0.739
   38  TTP  C42  772   0.330  -3.161  -0.848
   39  FIC   F1  773   0.013  -6.012  -0.557
   39  FIC   F2  774  -0.096  -6.166  -0.748
   39  FIC   O1  775   0.068  -5.553  -0.817
   39  FIC   N5  776  -0.248  -6.054  -1.193
   39  FIC   N6  777  -0.200  -5.673  -1.372
   39  FIC  C19  778  -0.060  -5.523  -1.090
   39  FIC  C20  779  -0.051  -5.634  -1.010
   39  FIC  C21  780   0.011  -5.641  -0.882
   39  FIC  C22  781  -0.013  -5.776  -0.828
   39  FIC  C23  782   0.016  -5.825  -0.698
   39  FIC  C24  783  -0.012  -5.954  -0.673
   39  FIC  C25  784  -0.072  -6.033  -0.783
   39  FIC  C26  785  -0.108  -5.989  -0.899
   39  FIC  C27  786  -0.073  -5.854  -0.927
   39  FIC  C28  787  -0.097  -5.767  -1.043
   39  FIC  C29  788  -0.157  -5.810  -1.160
   39  FIC  C30  789  -0.205  -5.954  -1.172
   39  FIC  C31  790  -0.175  -5.733  -1.279
   40  FIC   F1  791   0.976  -4.687   0.160
   40  FIC   F2  792   1.023  -4.445   0.241
   40  FIC   O1  793   0.664  -4.593  -0.263
   40  FIC   N5  794   0.846  -4.024   0.091
   40  FIC   N6  795   0.655  -3.969  -0.287
   40  FIC  C19  796   0.596  -4.307  -0.330
   40  FIC  C20  797   0.675  -4.353  -0.231
   40  FIC  C21  798   0.707  -4.499  -0.199
   40  FIC  C22  799   0.786  -4.501  -0.083
   40  FIC  C23  800   0.842  -4.612  -0.017
   40  FIC  C24  801   0.918  -4.595   0.093
   40  FIC  C25  802   0.947  -4.466   0.135
   40  FIC  C26  803   0.892  -4.347   0.077
   40  FIC  C27  804   0.809  -4.368  -0.036
   40  FIC  C28  805   0.742  -4.279  -0.128
   40  FIC  C29  806   0.747  -4.139  -0.116
   40  FIC  C30  807   0.804  -4.075   0.003
   40  FIC  C31  808   0.691  -4.045  -0.209
1.5117 5.7812 1.996882 0 0 0 0 -0.207168 0 
