JACS y6 equilibrated
12928
    1BTD     S2    1   0.896   1.374   2.643 -0.0372  0.0891 -0.0109
    1BTD     N1    2   0.878   1.553   2.642 -0.0958  0.0831 -0.0591
    1BTD     N2    3   0.833   1.352   2.476  0.0957  0.0353 -0.0544
    1BTD     N3    4   0.673   1.630   2.134  0.2609 -0.0851 -0.2301
    1BTD     N4    5   0.729   1.878   2.338  0.0248 -0.0262 -0.2359
    1BTD     C5    6   0.799   1.719   2.481 -0.0300  0.0253 -0.1514
    1BTD     C6    7   0.829   1.585   2.523 -0.0174  0.0433 -0.1028
    1BTD     C7    8   0.803   1.473   2.430  0.0899  0.0166 -0.1002
    1BTD     C8    9   0.750   1.500   2.300  0.1791 -0.0269 -0.1462
    1BTD    C15   10   0.723   1.633   2.262  0.1629 -0.0432 -0.1927
    1BTD    C16   11   0.747   1.742   2.352  0.0596 -0.0174 -0.1953
    1BTD    C43   12   0.642   1.950   2.249  0.0624  0.0787  0.7561
    1BTD    C44   13   0.499   1.982   2.282  0.7254 -0.0246 -0.2316
    1BTD    C45   14   0.421   1.871   2.332  0.5710 -0.4075 -0.1454
    1BTD    C46   15   0.316   1.894   2.444 -0.1993  0.3825  0.6079
    1BTD    C47   16   0.421   2.089   2.194  0.4663 -0.3829  0.0447
    1BTD    C48   17   0.396   2.069   2.044 -0.0774 -0.2332  0.2031
    1BTD    C49   18   0.337   1.937   1.997  0.7777 -0.1333 -0.0096
    1BTD    C50   19   0.316   1.922   1.844  0.1886  0.5586 -0.4170
    1BTD    C75   20   0.672   1.734   2.030  0.2477 -0.9999  0.0237
    1BTD    C76   21   0.803   1.774   1.961 -0.0005 -0.2798 -0.1437
    1BTD    C77   22   0.795   1.910   1.893  0.9186  0.4052 -1.0054
    1BTD    C78   23   0.699   1.949   1.786 -0.0297  0.3069  0.2426
    1BTD    C79   24   0.866   1.663   1.878 -0.3417  0.3160 -0.2508
    1BTD    C80   25   1.012   1.679   1.846  0.4254 -0.2146  0.5034
    1BTD    C81   26   1.071   1.555   1.777 -0.0436  0.0493  0.0518
    1BTD    C82   27   1.111   1.576   1.634 -0.4179 -0.0326  0.0017
    2TTP     S1   28   0.853   1.921   2.711  0.2128  0.0557 -0.1018
    2TTP     S5   29   0.717   2.238   2.455  0.1142  0.0350 -0.0749
    2TTP     C1   30   0.759   2.309   2.617  0.0670  0.0303 -0.0606
    2TTP     C2   31   0.804   2.215   2.706  0.0947  0.0364 -0.0680
    2TTP     C3   32   0.806   2.084   2.649  0.1541  0.0451 -0.0854
    2TTP     C4   33   0.811   1.850   2.549  0.2599  0.0604 -0.1162
    2TTP    C17   34   0.766   1.944   2.460  0.2323  0.0543 -0.1087
    2TTP    C18   35   0.764   2.075   2.517  0.1728  0.0457 -0.0914
    2TTP    C32   36   0.850   2.240   2.849  0.1336 -0.2319  0.9293
    2TTP    C33   37   0.991   2.223   2.895 -0.9505 -0.6777 -0.1608
    2TTP    C34   38   1.102   2.313   2.825  0.2627  0.1122  0.4526
    2TTP    C35   39   1.233   2.308   2.894 -0.9060  0.2828  0.1658
    2TTP    C36   40   1.357   2.364   2.817  0.2075  0.2103 -0.8637
    2TTP    C37   41   1.343   2.484   2.726  0.3961 -0.2387  0.0282
    2TTP    C38   42   1.473   2.489   2.636 -0.6365 -0.0006  0.3560
    2TTP    C39   43   1.454   2.584   2.512  0.2735  0.1011  0.0619
    2TTP    C40   44   1.406   2.728   2.545  0.5987  0.0884 -0.0198
    2TTP    C41   45   1.501   2.821   2.627  0.3237 -0.4022  0.2605
    2TTP    C42   46   1.453   2.963   2.614  0.4601 -0.1125 -0.1228
    3TTP     S1   47   0.690   1.236   2.157  0.1842 -0.2260 -0.0133
    3TTP     S5   48   0.465   1.461   1.867  0.4413  0.2571  0.1604
    3TTP     C1   49   0.441   1.284   1.835  0.4032  0.3105 -0.1053
    3TTP     C2   50   0.508   1.204   1.922  0.3215  0.1645 -0.1746
    3TTP     C3   51   0.582   1.280   2.018  0.2861  0.0051 -0.0204
    3TTP     C4   52   0.714   1.414   2.190  0.2223 -0.2795  0.2524
    3TTP    C17   53   0.646   1.494   2.102  0.3039 -0.1334  0.3217
    3TTP    C18   54   0.572   1.418   2.006  0.3393  0.0259  0.1674
    3TTP    C32   55   0.519   1.050   1.924 -0.0879 -0.6879  1.0593
    3TTP    C33   56   0.662   1.002   1.895 -0.0254  0.3524 -0.5898
    3TTP    C34   57   0.687   0.848   1.904  0.6197  0.1822 -0.1728
    3TTP    C35   58   0.689   0.771   2.045  0.0633 -0.1913  0.3953
    3TTP    C36   59   0.708   0.620   2.031  0.3230  0.1597 -0.3286
    3TTP    C37   60   0.750   0.540   2.160 -0.0152 -0.9418  0.4836
    3TTP    C38   61   0.888   0.565   2.219  0.1234  0.2073 -0.1875
    3TTP    C39   62   0.913   0.499   2.354  0.2323 -0.3947 -0.2873
    3TTP    C40   63   1.045   0.554   2.412 -0.1729  0.3094 -0.5923
    3TTP    C41   64   1.079   0.501   2.552  0.0574 -0.0481 -0.6908
    3TTP    C42   65   1.216   0.557   2.605  0.1312  0.1399 -0.1248
    4FIC     F1   66   0.584   2.999   2.207 -0.0527 -0.0055  0.0776
    4FIC     F2   67   0.502   3.109   2.442  0.0731  0.0303  0.1048
    4FIC     O1   68   0.759   2.515   2.375 -0.2993 -0.1197  0.0052
    4FIC     N5   69   0.509   2.921   2.900  0.0782  0.0005  0.0927
    4FIC     N6   70   0.662   2.520   2.984 -0.1398 -0.0960  0.0305
    4FIC    C19   71   0.742   2.447   2.659 -0.2667 -0.1260  0.0056
    4FIC    C20   72   0.702   2.565   2.608 -0.2096 -0.0988  0.0228
    4FIC    C21   73   0.713   2.592   2.460 -0.2310 -0.0973  0.0212
    4FIC    C22   74   0.660   2.728   2.439 -0.1553 -0.0644  0.0426
    4FIC    C23   75   0.650   2.797   2.318 -0.1449 -0.0517  0.0491
    4FIC    C24   76   0.597   2.925   2.322 -0.0673 -0.0197  0.0701
    4FIC    C25   77   0.555   2.981   2.444 -0.0026 -0.0013  0.0842
    4FIC    C26   78   0.564   2.913   2.564 -0.0126 -0.0139  0.0779
    4FIC    C27   79   0.618   2.783   2.562 -0.0906 -0.0461  0.0566
    4FIC    C28   80   0.642   2.685   2.671 -0.1214 -0.0665  0.0450
    4FIC    C29   81   0.614   2.703   2.804 -0.0767 -0.0572  0.0532
    4FIC    C30   82   0.556   2.822   2.856  0.0083 -0.0256  0.0749
    4FIC    C31   83   0.641   2.602   2.902 -0.1117 -0.0786  0.0407
    5FIC     F1   84  -0.103   1.567   1.283  0.3380  0.1143  0.0684
    5FIC     F2   85  -0.163   1.310   1.219 -0.0437  0.1427  0.3082
    5FIC     O1   86   0.273   1.492   1.665  0.3844 -0.0852 -0.0165
    5FIC     N5   87   0.018   0.886   1.399 -0.5595  0.0414  0.5925
    5FIC     N6   88   0.324   0.879   1.711 -0.4462 -0.1203  0.4779
    5FIC    C19   89   0.349   1.219   1.740  0.0362 -0.1289  0.1825
    5FIC    C20   90   0.257   1.248   1.646  0.0394 -0.0799  0.1945
    5FIC    C21   91   0.223   1.391   1.614  0.2241 -0.0602  0.0879
    5FIC    C22   92   0.120   1.386   1.508  0.1767 -0.0058  0.1322
    5FIC    C23   93   0.058   1.494   1.446  0.3011  0.0286  0.0664
    5FIC    C24   94  -0.037   1.465   1.349  0.2231  0.0783  0.1280
    5FIC    C25   95  -0.068   1.333   1.316  0.0263  0.0928  0.2515
    5FIC    C26   96  -0.007   1.225   1.378 -0.0988  0.0587  0.3178
    5FIC    C27   97   0.090   1.252   1.476 -0.0223  0.0083  0.2570
    5FIC    C28   98   0.173   1.162   1.560 -0.1144 -0.0367  0.3002
    5FIC    C29   99   0.172   1.024   1.557 -0.3058 -0.0380  0.4160
    5FIC    C30  100   0.087   0.948   1.470 -0.4446  0.0057  0.5126
    5FIC    C31  101   0.255   0.945   1.642 -0.3819 -0.0832  0.4494
    1BTD     S2  102   6.075   1.473   0.281 -0.3516  0.0695  0.2656
    1BTD     N1  103   6.069   1.652   0.293 -0.7135  0.0446  0.4945
    1BTD     N2  104   6.157   1.451   0.439  0.1116  0.0554  0.0277
    1BTD     N3  105   6.313   1.729   0.784  0.4017 -0.0184 -0.0437
    1BTD     N4  106   6.205   1.978   0.603 -0.6150 -0.0316  0.5316
    1BTD     C5  107   6.141   1.819   0.457 -0.6499  0.0050  0.5069
    1BTD     C6  108   6.126   1.685   0.408 -0.4824  0.0280  0.3874
    1BTD     C7  109   6.175   1.572   0.490 -0.0207  0.0340  0.1260
    1BTD     C8  110   6.237   1.599   0.617  0.2509  0.0167 -0.0027
    1BTD    C15  111   6.251   1.732   0.660  0.0730 -0.0055  0.1218
    1BTD    C16  112   6.203   1.841   0.581 -0.3720 -0.0113  0.3736
    1BTD    C43  113   6.298   2.065   0.686 -0.6300 -0.4111  0.2770
    1BTD    C44  114   6.450   2.036   0.662 -0.7797 -0.4420  0.4981
    1BTD    C45  115   6.540   2.105   0.766  0.1855 -0.8123 -0.5902
    1BTD    C46  116   6.667   2.026   0.794 -0.4577 -0.3372 -0.1726
    1BTD    C47  117   6.505   2.047   0.518  0.0092  0.0933  0.3526
    1BTD    C48  118   6.533   2.188   0.460 -0.2267  0.1685 -0.3128
    1BTD    C49  119   6.561   2.179   0.313 -0.0614  0.5494 -0.0338
    1BTD    C50  120   6.568   2.311   0.243 -0.8294 -0.2978  0.0345
    1BTD    C75  121   6.306   1.824   0.893 -0.3765  0.6091 -0.7525
    1BTD    C76  122   6.213   1.813   1.020  0.3726  0.4115  0.5720
    1BTD    C77  123   6.243   1.927   1.114 -0.5537 -0.3095  0.1611
    1BTD    C78  124   6.179   1.915   1.251  0.5386  0.1943 -1.0017
    1BTD    C79  125   6.069   1.776   0.988 -0.2593  0.5948 -0.0055
    1BTD    C80  126   6.027   1.639   0.935  0.5515  0.1958  0.4332
    1BTD    C81  127   6.046   1.522   1.027  0.2974 -0.3398 -0.2469
    1BTD    C82  128   5.997   1.393   0.970 -0.8544 -0.1494 -0.3339
    2TTP     S1  129   6.025   2.021   0.263  0.1073 -0.0430  0.2548
    2TTP     S5  130   6.166   2.337   0.519 -0.0746  0.0881  0.1940
    2TTP     C1  131   6.080   2.411   0.377 -0.0941  0.0119  0.1656
    2TTP     C2  132   6.032   2.318   0.290 -0.0391 -0.0331  0.1827
    2TTP     C3  133   6.061   2.185   0.332  0.0204 -0.0089  0.2189
    2TTP     C4  134   6.111   1.947   0.405  0.1267  0.0332  0.2832
    2TTP    C17  135   6.160   2.040   0.492  0.0718  0.0781  0.2661
    2TTP    C18  136   6.131   2.173   0.450  0.0122  0.0540  0.2300
    2TTP    C32  137   5.959   2.351   0.157  0.7847  0.7493 -0.5286
    2TTP    C33  138   6.005   2.293   0.022  0.3013  0.8559  0.2189
    2TTP    C34  139   5.903   2.342  -0.083  0.2128 -1.1386 -0.3469
    2TTP    C35  140   5.950   2.335  -0.227  0.4627 -0.4690  0.0224
    2TTP    C36  141   5.892   2.429  -0.332  0.8096 -0.4191  0.4592
    2TTP    C37  142   5.928   2.581  -0.347  0.0093  0.3697  0.6220
    2TTP    C38  143   5.841   2.650  -0.452 -0.3278  0.7405  0.3095
    2TTP    C39  144   5.872   2.796  -0.461 -0.7068  0.0093  0.2974
    2TTP    C40  145   5.812   2.869  -0.578 -0.0567  0.3011  0.3885
    2TTP    C41  146   5.838   3.019  -0.554  0.3251  0.5122  0.2481
    2TTP    C42  147   5.803   3.104  -0.671 -0.7074 -0.4114  0.5523
    3TTP     S1  148   6.335   1.345   0.735 -0.0871  0.1116 -0.2234
    3TTP     S5  149   6.526   1.566   1.051 -0.4102 -0.1248  0.1383
    3TTP     C1  150   6.571   1.390   1.067 -0.3358 -0.1202 -0.0145
    3TTP     C2  151   6.515   1.312   0.971 -0.2315 -0.0470 -0.1352
    3TTP     C3  152   6.434   1.388   0.880 -0.2068  0.0082 -0.1114
    3TTP     C4  153   6.290   1.521   0.719 -0.1614  0.1070 -0.0706
    3TTP    C17  154   6.347   1.599   0.815 -0.2657  0.0337  0.0501
    3TTP    C18  155   6.427   1.524   0.906 -0.2905 -0.0215  0.0263
    3TTP    C32  156   6.525   1.161   0.973 -0.0876 -0.2794 -0.0620
    3TTP    C33  157   6.401   1.079   0.988  0.0399 -0.0091 -0.3727
    3TTP    C34  158   6.410   0.929   0.973 -0.0938  0.8287  0.1570
    3TTP    C35  159   6.269   0.865   1.016  0.3711 -0.8986 -0.3493
    3TTP    C36  160   6.248   0.714   1.003  0.2987 -0.3186 -0.5723
    3TTP    C37  161   6.346   0.623   1.075 -0.3639  0.0861  0.4561
    3TTP    C38  162   6.319   0.478   1.066 -0.7088 -0.0303 -0.6870
    3TTP    C39  163   6.308   0.418   0.930 -0.7120 -0.3988  0.5716
    3TTP    C40  164   6.298   0.271   0.912  0.1679  1.1293  0.3930
    3TTP    C41  165   6.313   0.229   0.764  0.0120 -0.2791  0.3180
    3TTP    C42  166   6.330   0.080   0.729 -0.1193  0.5340 -0.6171
    4FIC     F1  167   6.089   3.082   0.848 -0.1824 -0.0414  0.0299
    4FIC     F2  168   6.068   3.231   0.621  0.0317 -0.0408  0.0101
    4FIC     O1  169   6.074   2.581   0.642 -0.4861 -0.0449  0.0595
    4FIC     N5  170   6.027   3.089   0.149  0.1229 -0.0425  0.0028
    4FIC     N6  171   6.020   2.668   0.034 -0.1577 -0.0454  0.0299
    4FIC    C19  172   6.049   2.546   0.353 -0.3897 -0.0457  0.0512
    4FIC    C20  173   6.053   2.666   0.413 -0.3214 -0.0448  0.0445
    4FIC    C21  174   6.066   2.676   0.563 -0.3777 -0.0445  0.0494
    4FIC    C22  175   6.068   2.820   0.595 -0.2791 -0.0435  0.0399
    4FIC    C23  176   6.079   2.879   0.721 -0.2871 -0.0429  0.0403
    4FIC    C24  177   6.078   3.017   0.727 -0.1809 -0.0420  0.0301
    4FIC    C25  178   6.068   3.094   0.610 -0.0708 -0.0417  0.0200
    4FIC    C26  179   6.057   3.036   0.484 -0.0622 -0.0423  0.0195
    4FIC    C27  180   6.057   2.896   0.476 -0.1686 -0.0432  0.0297
    4FIC    C28  181   6.048   2.805   0.360 -0.1903 -0.0440  0.0321
    4FIC    C29  182   6.036   2.841   0.228 -0.1050 -0.0439  0.0244
    4FIC    C30  183   6.031   2.978   0.185  0.0200 -0.0432  0.0125
    4FIC    C31  184   6.027   2.746   0.122 -0.1345 -0.0448  0.0275
    5FIC     F1  185   7.101   1.689   1.621 -0.1336  0.0301  0.0731
    5FIC     F2  186   7.161   1.434   1.693  0.0701 -0.0071 -0.2249
    5FIC     O1  187   6.735   1.603   1.232 -0.0900  0.1938 -0.0043
    5FIC     N5  188   6.986   1.005   1.519  0.3942  0.0563 -0.7085
    5FIC     N6  189   6.688   0.989   1.200  0.3872  0.1917 -0.7090
    5FIC    C19  190   6.662   1.328   1.162  0.1202  0.2164 -0.3165
    5FIC    C20  191   6.752   1.360   1.257  0.1012  0.1767 -0.2854
    5FIC    C21  192   6.784   1.504   1.287 -0.0090  0.1675 -0.1218
    5FIC    C22  193   6.885   1.502   1.395 -0.0015  0.1216 -0.1293
    5FIC    C23  194   6.945   1.612   1.456 -0.0831  0.0983 -0.0069
    5FIC    C24  195   7.038   1.586   1.556 -0.0567  0.0550 -0.0424
    5FIC    C25  196   7.068   1.454   1.593  0.0483  0.0360 -0.1961
    5FIC    C26  197   7.008   1.344   1.532  0.1302  0.0591 -0.3188
    5FIC    C27  198   6.915   1.369   1.431  0.1050  0.1029 -0.2851
    5FIC    C28  199   6.834   1.276   1.348  0.1723  0.1360 -0.3871
    5FIC    C29  200   6.836   1.139   1.353  0.2799  0.1300 -0.5455
    5FIC    C30  201   6.919   1.066   1.444  0.3423  0.0895 -0.6346
    5FIC    C31  202   6.755   1.057   1.269  0.3383  0.1640 -0.6345
    1BTD     S2  203   5.018   8.518   1.228  0.0835  0.0912 -0.0360
    1BTD     N1  204   5.059   8.433   1.380 -0.0124  0.0844 -0.0142
    1BTD     N2  205   5.064   8.681   1.290  0.2426  0.0598 -0.0694
    1BTD     N3  206   5.230   8.857   1.692  0.3936 -0.0172 -0.0982
    1BTD     N4  207   5.224   8.551   1.804  0.0794  0.0136 -0.0301
    1BTD     C5  208   5.145   8.498   1.600  0.0393  0.0470 -0.0233
    1BTD     C6  209   5.102   8.525   1.465  0.0746  0.0603 -0.0320
    1BTD     C7  210   5.105   8.664   1.415  0.2174  0.0463 -0.0629
    1BTD     C8  211   5.150   8.769   1.501  0.3177  0.0200 -0.0836
    1BTD    C15  212   5.192   8.738   1.632  0.2785  0.0078 -0.0741
    1BTD    C16  213   5.189   8.605   1.681  0.1410  0.0212 -0.0443
    1BTD    C43  214   5.302   8.599   1.918 -0.2023 -0.1097 -0.2871
    1BTD    C44  215   5.454   8.600   1.910 -0.2927  0.0262 -0.2256
    1BTD    C45  216   5.539   8.486   1.844  0.2510 -0.8171  0.0191
    1BTD    C46  217   5.518   8.456   1.697 -0.1695  0.8828  0.3172
    1BTD    C47  218   5.499   8.627   2.057  0.1496 -0.0487  0.4641
    1BTD    C48  219   5.640   8.670   2.071 -0.4790  1.2344  0.4158
    1BTD    C49  220   5.669   8.715   2.214  0.1260  0.7144 -0.1329
    1BTD    C50  221   5.810   8.767   2.242 -0.2856 -0.0893 -0.1081
    1BTD    C75  222   5.260   8.901   1.833 -0.4174  0.2084 -0.1978
    1BTD    C76  223   5.148   8.937   1.934  0.7882  0.0054  0.2039
    1BTD    C77  224   5.030   8.833   1.957  0.1866 -0.9035 -0.6012
    1BTD    C78  225   4.901   8.885   2.017  0.2922  0.1773  0.0118
    1BTD    C79  226   5.196   9.012   2.058  0.0824 -0.2733 -0.4670
    1BTD    C80  227   5.247   8.930   2.173  0.5501 -0.1260  0.4289
    1BTD    C81  228   5.296   9.014   2.295  0.5600 -0.2344  0.0549
    1BTD    C82  229   5.311   8.919   2.416  0.0074 -0.5424 -0.4916
    2TTP     S1  230   5.102   8.199   1.675 -0.0263  0.0728 -0.2048
    2TTP     S5  231   5.231   8.298   2.073 -0.3985 -0.4015  0.0353
    2TTP     C1  232   5.181   8.123   2.070 -0.0324 -0.5005 -0.3127
    2TTP     C2  233   5.139   8.082   1.947  0.1041 -0.3598 -0.4075
    2TTP     C3  234   5.143   8.187   1.851 -0.0755 -0.1688 -0.2085
    2TTP     C4  235   5.151   8.374   1.678 -0.3924  0.1719  0.1433
    2TTP    C17  236   5.193   8.415   1.802 -0.5287  0.0317  0.2380
    2TTP    C18  237   5.189   8.309   1.898 -0.3492 -0.1595  0.0390
    2TTP    C32  238   5.083   7.952   1.911  0.1351  0.0847 -0.0026
    2TTP    C33  239   5.170   7.876   1.809  0.8086 -0.2879 -0.0297
    2TTP    C34  240   5.139   7.732   1.816  0.2694 -0.2307  0.7342
    2TTP    C35  241   5.203   7.682   1.692 -0.4705  0.0125  0.2433
    2TTP    C36  242   5.171   7.533   1.676  0.4048  0.0582  0.0420
    2TTP    C37  243   5.215   7.493   1.535 -0.0544 -0.8062 -0.7319
    2TTP    C38  244   5.204   7.345   1.516  0.1750 -0.1443 -0.0661
    2TTP    C39  245   5.224   7.276   1.385  0.5101 -0.1540  0.1222
    2TTP    C40  246   5.161   7.337   1.261  0.1661  0.6205 -0.0969
    2TTP    C41  247   5.197   7.250   1.140 -0.1871 -0.4427 -0.1644
    2TTP    C42  248   5.126   7.299   1.014 -0.0118 -0.6708 -0.6707
    3TTP     S1  249   5.126   9.034   1.360 -0.0178 -0.4424  0.0310
    3TTP     S5  250   5.275   9.226   1.715 -0.1042 -0.2728 -0.0242
    3TTP     C1  251   5.232   9.355   1.593  0.0401 -0.3359 -0.1418
    3TTP     C2  252   5.183   9.303   1.476  0.0751 -0.3915 -0.1317
    3TTP     C3  253   5.178   9.160   1.479 -0.0104 -0.3870 -0.0307
    3TTP     C4  254   5.169   8.906   1.482 -0.1621 -0.3793  0.1486
    3TTP    C17  255   5.217   8.958   1.599 -0.1972 -0.3236  0.1385
    3TTP    C18  256   5.222   9.101   1.596 -0.1115 -0.3281  0.0375
    3TTP    C32  257   5.133   9.364   1.345  0.4320  0.3400  0.1318
    3TTP    C33  258   5.218   9.410   1.233 -0.0242  0.0427  0.0309
    3TTP    C34  259   5.148   9.439   1.097  0.0911  0.1792 -0.2151
    3TTP    C35  260   5.031   9.545   1.086 -0.1941  0.9904 -0.3198
    3TTP    C36  261   5.068   9.690   1.097  0.4208 -0.0269 -0.8253
    3TTP    C37  262   4.934   9.763   1.120 -0.2121 -0.3012  0.0508
    3TTP    C38  263   4.953   9.916   1.140 -0.1578  0.6151 -0.2277
    3TTP    C39  264   4.826   9.994   1.109 -0.2119  0.3433  0.2533
    3TTP    C40  265   4.839  10.142   1.128 -0.0009 -0.0174  0.1768
    3TTP    C41  266   4.729  10.221   1.061  0.8434  0.7725 -0.1095
    3TTP    C42  267   4.726  10.362   1.111  0.1487 -0.0307  0.3186
    4FIC     F1  268   5.279   8.190   2.883  0.1068  0.2131 -0.0799
    4FIC     F2  269   5.253   7.920   2.904 -0.0645  0.2393  0.0515
    4FIC     O1  270   5.221   8.259   2.349  0.2720 -0.0224 -0.1281
    4FIC     N5  271   5.174   7.581   2.553 -0.1925  0.1094  0.2059
    4FIC     N6  272   5.134   7.688   2.131 -0.0290 -0.0800  0.1416
    4FIC    C19  273   5.176   8.025   2.179  0.1673 -0.0808 -0.0198
    4FIC    C20  274   5.191   8.018   2.313  0.1323 -0.0229 -0.0128
    4FIC    C21  275   5.214   8.143   2.393  0.1905  0.0041 -0.0709
    4FIC    C22  276   5.227   8.100   2.534  0.1318  0.0677 -0.0461
    4FIC    C23  277   5.249   8.180   2.646  0.1553  0.1106 -0.0817
    4FIC    C24  278   5.257   8.117   2.769  0.0879  0.1680 -0.0477
    4FIC    C25  279   5.244   7.978   2.779  0.0000  0.1816  0.0200
    4FIC    C26  280   5.222   7.897   2.668 -0.0242  0.1388  0.0559
    4FIC    C27  281   5.213   7.959   2.543  0.0430  0.0805  0.0222
    4FIC    C28  282   5.191   7.904   2.407  0.0399  0.0254  0.0454
    4FIC    C29  283   5.173   7.771   2.375 -0.0343  0.0203  0.1086
    4FIC    C30  284   5.174   7.667   2.473 -0.1211  0.0693  0.1618
    4FIC    C31  285   5.152   7.726   2.241 -0.0309 -0.0348  0.1264
    5FIC     F1  286   5.665   9.847   2.084 -0.0768 -0.0947 -0.1443
    5FIC     F2  287   5.491  10.048   2.025 -0.1734 -0.1137  0.0772
    5FIC     O1  288   5.473   9.451   1.768 -0.1720  0.0176 -0.2272
    5FIC     N5  289   5.104  10.055   1.716 -0.3806 -0.0613  0.3366
    5FIC     N6  290   4.990   9.705   1.482 -0.4356  0.0303  0.2271
    5FIC    C19  291   5.239   9.503   1.600 -0.2984  0.0389 -0.0450
    5FIC    C20  292   5.294   9.594   1.682 -0.2706  0.0114 -0.0328
    5FIC    C21  293   5.414   9.560   1.765 -0.2056  0.0019 -0.1305
    5FIC    C22  294   5.448   9.682   1.842 -0.1897 -0.0286 -0.0885
    5FIC    C23  295   5.552   9.699   1.933 -0.1342 -0.0470 -0.1482
    5FIC    C24  296   5.564   9.823   1.993 -0.1301 -0.0755 -0.0903
    5FIC    C25  297   5.474   9.927   1.963 -0.1802 -0.0853  0.0238
    5FIC    C26  298   5.370   9.910   1.872 -0.2356 -0.0670  0.0840
    5FIC    C27  299   5.356   9.785   1.810 -0.2407 -0.0384  0.0268
    5FIC    C28  300   5.258   9.736   1.711 -0.2923 -0.0138  0.0655
    5FIC    C29  301   5.154   9.807   1.656 -0.3494 -0.0148  0.1721
    5FIC    C30  302   5.127   9.943   1.689 -0.3663 -0.0403  0.2621
    5FIC    C31  303   5.064   9.750   1.560 -0.3965  0.0100  0.2017
    1BTD     S2  304   6.273   9.219   3.635 -0.0600  0.1364  0.1756
    1BTD     N1  305   6.255   9.040   3.625 -0.4042  0.1638  0.2913
    1BTD     N2  306   6.227   9.247   3.463  0.3587  0.0856  0.0529
    1BTD     N3  307   6.101   8.983   3.096  0.5904  0.0317  0.0117
    1BTD     N4  308   6.135   8.728   3.296 -0.3494  0.1276  0.3055
    1BTD     C5  309   6.192   8.880   3.451 -0.3643  0.1435  0.2951
    1BTD     C6  310   6.217   9.013   3.501 -0.1999  0.1352  0.2354
    1BTD     C7  311   6.202   9.128   3.410  0.2271  0.0916  0.1019
    1BTD     C8  312   6.161   9.106   3.274  0.4684  0.0587  0.0349
    1BTD    C15  313   6.137   8.975   3.229  0.2944  0.0687  0.0972
    1BTD    C16  314   6.152   8.863   3.317 -0.1168  0.1107  0.2258
    1BTD    C43  315   6.048   8.652   3.200 -0.4706  0.0690 -0.0223
    1BTD    C44  316   5.894   8.653   3.221 -1.0576 -0.0781 -0.0454
    1BTD    C45  317   5.831   8.607   3.088  0.3164 -0.4211 -0.0630
    1BTD    C46  318   5.680   8.600   3.078  0.1124 -0.2442 -0.9991
    1BTD    C47  319   5.854   8.594   3.358 -0.0536  0.3473 -0.0421
    1BTD    C48  320   5.858   8.444   3.370 -0.4111 -0.4769 -0.2536
    1BTD    C49  321   5.805   8.395   3.500 -0.1417 -0.4699 -0.0373
    1BTD    C50  322   5.805   8.240   3.506 -0.5078  0.0279 -0.2575
    1BTD    C75  323   6.095   8.881   2.989  0.4860  0.5824 -0.2734
    1BTD    C76  324   6.198   8.860   2.883 -0.0691  0.5814  0.2130
    1BTD    C77  325   6.170   8.736   2.793  0.1123  0.0456  0.3462
    1BTD    C78  326   6.051   8.749   2.688  0.0719  0.4044  0.3360
    1BTD    C79  327   6.339   8.878   2.938  0.3144 -0.2296 -0.3893
    1BTD    C80  328   6.454   8.889   2.834 -1.1324 -0.3118 -0.4523
    1BTD    C81  329   6.465   8.996   2.731 -0.2816 -0.2356 -0.2226
    1BTD    C82  330   6.583   8.992   2.640  0.0723  0.2829  0.1641
    2TTP     S1  331   6.246   8.674   3.664 -0.0630  0.0420 -0.1522
    2TTP     S5  332   6.185   8.362   3.374  0.2530 -0.0024 -0.1713
    2TTP     C1  333   6.226   8.285   3.534  0.0893  0.0223 -0.1177
    2TTP     C2  334   6.247   8.377   3.633 -0.0179  0.0377 -0.1087
    2TTP     C3  335   6.232   8.511   3.586  0.0252  0.0303 -0.1438
    2TTP     C4  336   6.206   8.750   3.504  0.1005  0.0174 -0.2058
    2TTP    C17  337   6.185   8.658   3.405  0.2078  0.0024 -0.2149
    2TTP    C18  338   6.199   8.524   3.452  0.1645  0.0098 -0.1799
    2TTP    C32  339   6.281   8.354   3.778 -0.4637  0.5522 -0.4790
    2TTP    C33  340   6.418   8.400   3.826 -0.0839 -0.3915  0.4561
    2TTP    C34  341   6.531   8.323   3.783 -0.0265 -0.1204  0.4379
    2TTP    C35  342   6.544   8.173   3.790  0.4997  0.2534  0.5342
    2TTP    C36  343   6.506   8.097   3.914 -0.2194 -0.6309 -0.2362
    2TTP    C37  344   6.567   7.963   3.915  0.0790  0.1399 -0.3839
    2TTP    C38  345   6.518   7.859   4.015  0.9091 -0.0587  0.0288
    2TTP    C39  346   6.514   7.904   4.166  0.2879  0.0424 -0.2532
    2TTP    C40  347   6.457   7.801   4.262  0.2354  0.2425 -0.0391
    2TTP    C41  348   6.462   7.838   4.407  0.8841 -0.3808 -0.3040
    2TTP    C42  349   6.423   7.721   4.499 -0.3560  0.0438 -0.0896
    3TTP     S1  350   6.123   9.374   3.122 -0.0751  0.2479 -0.1875
    3TTP     S5  351   5.941   9.155   2.800 -0.2316  0.0277  0.0501
    3TTP     C1  352   5.933   9.332   2.761  0.0385 -0.0164 -0.2169
    3TTP     C2  353   5.989   9.411   2.858  0.1028  0.0489 -0.3061
    3TTP     C3  354   6.040   9.333   2.967 -0.0591  0.1364 -0.1666
    3TTP     C4  355   6.131   9.197   3.161 -0.3452  0.2921  0.0795
    3TTP    C17  356   6.076   9.119   3.064 -0.4095  0.2269  0.1687
    3TTP    C18  357   6.025   9.196   2.955 -0.2477  0.1392  0.0293
    3TTP    C32  358   5.984   9.563   2.862 -0.7031  0.5151  0.0866
    3TTP    C33  359   6.024   9.653   2.983 -0.0333  0.7110  0.2416
    3TTP    C34  360   6.041   9.803   2.973  0.9429 -0.6510  0.2643
    3TTP    C35  361   5.918   9.888   2.923 -0.2050 -0.0173  0.4149
    3TTP    C36  362   5.785   9.879   3.003 -0.3146  0.2353 -0.7645
    3TTP    C37  363   5.808   9.922   3.150 -0.4203  0.3929 -0.6335
    3TTP    C38  364   5.703   9.890   3.248  0.1670 -0.2781 -0.1111
    3TTP    C39  365   5.737   9.934   3.400  0.3747 -0.2661  0.7760
    3TTP    C40  366   5.608   9.916   3.485 -1.1621 -0.0837  0.4332
    3TTP    C41  367   5.639   9.934   3.635  0.8131  0.0027  0.7703
    3TTP    C42  368   5.512   9.956   3.717 -0.4543  0.2057  0.5627
    4FIC     F1  369   6.270   7.609   3.068 -0.0653 -0.0284  0.0386
    4FIC     F2  370   6.192   7.463   3.284  0.2297 -0.1479  0.0657
    4FIC     O1  371   6.293   8.106   3.281 -0.3365 -0.0579  0.1368
    4FIC     N5  372   6.096   7.609   3.747  0.4605 -0.3405  0.1746
    4FIC     N6  373   6.129   8.027   3.870  0.1888 -0.3393  0.2459
    4FIC    C19  374   6.226   8.144   3.563 -0.1512 -0.1827  0.1976
    4FIC    C20  375   6.223   8.024   3.501 -0.0944 -0.1705  0.1718
    4FIC    C21  376   6.259   8.013   3.355 -0.1972 -0.1049  0.1414
    4FIC    C22  377   6.246   7.870   3.320 -0.0993 -0.1086  0.1184
    4FIC    C23  378   6.269   7.811   3.196 -0.1431 -0.0597  0.0870
    4FIC    C24  379   6.250   7.674   3.187 -0.0299 -0.0744  0.0697
    4FIC    C25  380   6.209   7.599   3.299  0.1220 -0.1360  0.0838
    4FIC    C26  381   6.187   7.658   3.423  0.1664 -0.1849  0.1151
    4FIC    C27  382   6.205   7.797   3.434  0.0535 -0.1708  0.1329
    4FIC    C28  383   6.190   7.888   3.550  0.0627 -0.2112  0.1663
    4FIC    C29  384   6.152   7.854   3.677  0.1917 -0.2745  0.1878
    4FIC    C30  385   6.121   7.719   3.715  0.3389 -0.3105  0.1804
    4FIC    C31  386   6.139   7.949   3.782  0.1893 -0.3097  0.2196
    5FIC     F1  387   5.564   9.042   2.090  0.0705 -0.1438  0.0129
    5FIC     F2  388   5.453   9.288   2.053  0.3909 -0.0379 -0.2518
    5FIC     O1  389   5.866   9.131   2.530 -0.2189 -0.2029  0.2241
    5FIC     N5  390   5.509   9.705   2.313  0.6454  0.0725 -0.4816
    5FIC     N6  391   5.768   9.725   2.665  0.3548  0.0048 -0.2633
    5FIC    C19  392   5.868   9.398   2.651 -0.0155 -0.1228  0.0462
    5FIC    C20  393   5.796   9.366   2.542  0.0447 -0.1121  0.0035
    5FIC    C21  394   5.800   9.227   2.486 -0.0677 -0.1554  0.1010
    5FIC    C22  395   5.712   9.226   2.368  0.0372 -0.1302  0.0217
    5FIC    C23  396   5.683   9.120   2.283 -0.0117 -0.1545  0.0681
    5FIC    C24  397   5.596   9.143   2.178  0.1101 -0.1222 -0.0261
    5FIC    C25  398   5.539   9.270   2.159  0.2750 -0.0678 -0.1624
    5FIC    C26  399   5.567   9.377   2.243  0.3246 -0.0432 -0.2095
    5FIC    C27  400   5.655   9.355   2.350  0.2031 -0.0751 -0.1156
    5FIC    C28  401   5.705   9.446   2.456  0.2143 -0.0615 -0.1321
    5FIC    C29  402   5.672   9.578   2.472  0.3552 -0.0122 -0.2505
    5FIC    C30  403   5.583   9.648   2.385  0.5141  0.0341 -0.3772
    5FIC    C31  404   5.725   9.658   2.578  0.3541 -0.0031 -0.2570
    1BTD     S2  405   4.941   4.040   2.229 -0.0383  0.1205  0.1868
    1BTD     N1  406   4.962   4.219   2.237  0.4424  0.0763  0.0337
    1BTD     N2  407   4.996   4.012   2.398 -0.4959  0.1504  0.3425
    1BTD     N3  408   5.144   4.276   2.757 -0.5605  0.1311  0.3834
    1BTD     N4  409   5.101   4.531   2.559  0.5957  0.0396  0.0029
    1BTD     C5  410   5.035   4.379   2.407  0.5085  0.0582  0.0222
    1BTD     C6  411   5.006   4.246   2.359  0.2472  0.0855  0.1029
    1BTD     C7  412   5.025   4.130   2.449 -0.2781  0.1270  0.2757
    1BTD     C8  413   5.072   4.153   2.583 -0.5157  0.1392  0.3592
    1BTD    C15  414   5.100   4.284   2.626 -0.2452  0.1116  0.2752
    1BTD    C16  415   5.081   4.395   2.539  0.2609  0.0715  0.1088
    1BTD    C43  416   5.188   4.596   2.657  0.3504  0.2028  0.0892
    1BTD    C44  417   5.332   4.621   2.624 -0.2189  0.3344  0.7747
    1BTD    C45  418   5.397   4.511   2.536 -0.1367 -0.3332 -0.3749
    1BTD    C46  419   5.524   4.547   2.453 -0.3719 -0.0794 -0.2409
    1BTD    C47  420   5.412   4.696   2.731 -0.1620  0.4843  0.0726
    1BTD    C48  421   5.486   4.622   2.846  0.0463 -0.1427 -0.2465
    1BTD    C49  422   5.581   4.701   2.931 -0.3402 -0.3929 -0.0422
    1BTD    C50  423   5.648   4.637   3.050  0.2424  0.4256 -0.3707
    1BTD    C75  424   5.172   4.371   2.867  0.7568 -0.2016  0.0835
    1BTD    C76  425   5.054   4.424   2.952  0.4775 -0.4231  0.1928
    1BTD    C77  426   5.083   4.534   3.060  0.3967 -0.7204  0.4853
    1BTD    C78  427   5.191   4.522   3.163 -0.8299 -0.3383  0.4731
    1BTD    C79  428   4.962   4.307   3.003  0.3385 -0.1098 -1.1434
    1BTD    C80  429   4.832   4.326   3.087  0.4574  0.5263 -0.3593
    1BTD    C81  430   4.763   4.191   3.135  0.1539 -0.6220  0.7574
    1BTD    C82  431   4.652   4.203   3.225  0.2905 -0.3605 -0.6227
    2TTP     S1  432   5.000   4.584   2.184 -0.1936  0.1828  0.0217
    2TTP     S5  433   5.109   4.891   2.464  0.0787  0.0556  0.0564
    2TTP     C1  434   5.079   4.968   2.302  0.1336  0.1022  0.0684
    2TTP     C2  435   5.043   4.878   2.206  0.0526  0.1442  0.0583
    2TTP     C3  436   5.039   4.744   2.256 -0.0554  0.1411  0.0408
    2TTP     C4  437   5.030   4.506   2.346 -0.2484  0.1361  0.0096
    2TTP    C17  438   5.065   4.597   2.442 -0.1675  0.0941  0.0196
    2TTP    C18  439   5.070   4.730   2.391 -0.0592  0.0972  0.0371
    2TTP    C32  440   5.003   4.897   2.059 -0.8754  0.0976 -0.2418
    2TTP    C33  441   4.877   4.966   2.031  0.1590 -0.0039  0.4230
    2TTP    C34  442   4.763   4.909   2.119 -0.6226 -0.2350 -0.6068
    2TTP    C35  443   4.626   4.960   2.070 -0.1991  0.5691 -0.2233
    2TTP    C36  444   4.600   5.109   2.077 -0.6492  0.3546 -0.6132
    2TTP    C37  445   4.531   5.139   2.206  0.0272  0.7120  0.0716
    2TTP    C38  446   4.500   5.285   2.230  0.3259 -0.0325  0.9681
    2TTP    C39  447   4.408   5.305   2.342  0.0868  0.2936 -0.6211
    2TTP    C40  448   4.435   5.426   2.434  0.2903  0.3795  0.4875
    2TTP    C41  449   4.328   5.439   2.537 -0.0727  0.5118  0.3283
    2TTP    C42  450   4.368   5.540   2.645  0.4991  0.1239  0.3785
    3TTP     S1  451   5.125   3.887   2.728  0.2243  0.0198  0.2857
    3TTP     S5  452   5.351   4.104   3.022 -0.0168  0.0099  0.4790
    3TTP     C1  453   5.371   3.926   3.054 -0.0463  0.0089  0.4916
    3TTP     C2  454   5.302   3.849   2.965  0.0263  0.0119  0.4327
    3TTP     C3  455   5.232   3.927   2.868  0.1081  0.0151  0.3754
    3TTP     C4  456   5.106   4.065   2.696  0.2540  0.0209  0.2731
    3TTP    C17  457   5.174   4.143   2.785  0.1813  0.0177  0.3321
    3TTP    C18  458   5.245   4.065   2.881  0.0995  0.0145  0.3893
    3TTP    C32  459   5.279   3.697   2.958 -0.2202  0.0389 -0.2579
    3TTP    C33  460   5.144   3.656   3.013  0.2752 -0.1487  0.7971
    3TTP    C34  461   5.114   3.509   3.019  0.0355  0.1014  0.3293
    3TTP    C35  462   5.140   3.423   2.886  0.2610  0.3508 -0.2344
    3TTP    C36  463   5.084   3.279   2.884 -0.0446  0.1138 -0.4789
    3TTP    C37  464   5.053   3.218   2.754 -0.2431  0.8542 -0.0284
    3TTP    C38  465   4.918   3.254   2.690 -0.0209  0.5889 -0.2285
    3TTP    C39  466   4.890   3.207   2.540  0.4659  0.2439 -0.0336
    3TTP    C40  467   4.744   3.207   2.484  0.0277 -0.3987 -0.8440
    3TTP    C41  468   4.674   3.343   2.474  0.7519 -0.3699 -0.0543
    3TTP    C42  469   4.537   3.343   2.401 -0.1822  0.2131  0.3890
    4FIC     F1  470   5.294   5.638   2.710 -0.1472 -0.1452 -0.0171
    4FIC     F2  471   5.349   5.760   2.472  0.4196 -0.3152  0.0222
    4FIC     O1  472   5.122   5.154   2.539 -0.5678  0.0365 -0.1091
    4FIC     N5  473   5.304   5.590   2.010  0.9350 -0.4300  0.0131
    4FIC     N6  474   5.158   5.187   1.924  0.4922 -0.2538 -0.0668
    4FIC    C19  475   5.112   5.098   2.252 -0.1755 -0.0614 -0.1043
    4FIC    C20  476   5.153   5.215   2.304 -0.0918 -0.1005 -0.0827
    4FIC    C21  477   5.155   5.236   2.453 -0.3062 -0.0455 -0.0868
    4FIC    C22  478   5.205   5.373   2.475 -0.1445 -0.1085 -0.0592
    4FIC    C23  479   5.225   5.438   2.597 -0.2512 -0.0888 -0.0526
    4FIC    C24  480   5.273   5.568   2.593 -0.0563 -0.1597 -0.0251
    4FIC    C25  481   5.301   5.630   2.471  0.2355 -0.2472 -0.0049
    4FIC    C26  482   5.282   5.566   2.349  0.3434 -0.2673 -0.0113
    4FIC    C27  483   5.233   5.435   2.351  0.1496 -0.1965 -0.0391
    4FIC    C28  484   5.202   5.340   2.241  0.1936 -0.1949 -0.0527
    4FIC    C29  485   5.216   5.364   2.106  0.4499 -0.2674 -0.0399
    4FIC    C30  486   5.264   5.488   2.054  0.7157 -0.3566 -0.0108
    4FIC    C31  487   5.184   5.266   2.007  0.4717 -0.2595 -0.0548
    5FIC     F1  488   5.925   4.211   3.592  0.1582 -0.1645 -0.1360
    5FIC     F2  489   6.005   3.954   3.634 -0.2235 -0.2585  0.0255
    5FIC     O1  490   5.528   4.136   3.232  0.3620  0.2424 -0.4473
    5FIC     N5  491   5.837   3.532   3.439 -0.6268 -0.1035  0.0356
    5FIC     N6  492   5.511   3.525   3.149 -0.3905  0.2334 -0.2401
    5FIC    C19  493   5.463   3.864   3.145  0.0698  0.2971 -0.4036
    5FIC    C20  494   5.560   3.893   3.234  0.0336  0.1984 -0.3316
    5FIC    C21  495   5.587   4.035   3.274  0.1913  0.1767 -0.3600
    5FIC    C22  496   5.698   4.031   3.371  0.1031  0.0622 -0.2642
    5FIC    C23  497   5.758   4.138   3.436  0.1924  0.0049 -0.2519
    5FIC    C24  498   5.861   4.109   3.524  0.0791 -0.1031 -0.1537
    5FIC    C25  499   5.902   3.977   3.546 -0.1175 -0.1512 -0.0706
    5FIC    C26  500   5.843   3.870   3.481 -0.2077 -0.0945 -0.0823
    5FIC    C27  501   5.738   3.897   3.392 -0.0952  0.0147 -0.1813
    5FIC    C28  502   5.655   3.807   3.308 -0.1457  0.0966 -0.2194
    5FIC    C29  503   5.664   3.670   3.301 -0.3245  0.0809 -0.1616
    5FIC    C30  504   5.759   3.594   3.377 -0.4901 -0.0205 -0.0533
    5FIC    C31  505   5.580   3.591   3.217 -0.3598  0.1649 -0.2051
    1BTD     S2  506   0.246   4.090   0.746 -0.0048 -0.1390 -0.0128
    1BTD     N1  507   0.241   4.269   0.733 -0.1921 -0.1420  0.0030
    1BTD     N2  508   0.172   4.061   0.584  0.2261 -0.2047 -0.1075
    1BTD     N3  509   0.014   4.327   0.231  0.3585 -0.3443 -0.2720
    1BTD     N4  510   0.099   4.583   0.414 -0.1568 -0.2669 -0.1359
    1BTD     C5  511   0.166   4.430   0.564 -0.1675 -0.2080 -0.0712
    1BTD     C6  512   0.188   4.297   0.614 -0.0787 -0.1893 -0.0599
    1BTD     C7  513   0.149   4.181   0.532  0.1554 -0.2245 -0.1217
    1BTD     C8  514   0.090   4.203   0.402  0.2890 -0.2767 -0.1917
    1BTD    C15  515   0.071   4.335   0.357  0.1951 -0.2932 -0.2002
    1BTD    C16  516   0.108   4.447   0.437 -0.0305 -0.2594 -0.1406
    1BTD    C43  517   0.017   4.666   0.323 -0.9849 -0.7132  0.2616
    1BTD    C44  518  -0.132   4.664   0.348 -0.9596 -1.0775 -0.6773
    1BTD    C45  519  -0.194   4.710   0.220 -0.0563 -0.4093  0.5593
    1BTD    C46  520  -0.344   4.685   0.202 -0.0330 -0.1224  0.3146
    1BTD    C47  521  -0.188   4.702   0.487 -0.6303 -0.1448 -0.5503
    1BTD    C48  522  -0.190   4.849   0.513  0.6047 -0.3225 -0.2955
    1BTD    C49  523  -0.210   4.901   0.658 -0.3361 -0.4854  0.3905
    1BTD    C50  524  -0.345   4.894   0.724  0.6999  0.3341  0.5260
    1BTD    C75  525   0.021   4.419   0.117 -0.1494 -0.3495  0.0184
    1BTD    C76  526   0.123   4.395   0.003  0.1250 -0.4508  0.2131
    1BTD    C77  527   0.116   4.511  -0.093 -0.0998  1.1432 -0.1005
    1BTD    C78  528  -0.010   4.511  -0.181 -0.2990  0.2707 -0.4127
    1BTD    C79  529   0.267   4.362   0.049  0.5565 -0.3767 -0.0768
    1BTD    C80  530   0.374   4.316  -0.054  0.3398 -0.1714  0.3962
    1BTD    C81  531   0.322   4.197  -0.138  0.5446  0.6003  0.1653
    1BTD    C82  532   0.404   4.179  -0.262  0.5898 -0.4032  0.8075
    2TTP     S1  533   0.274   4.638   0.764  0.1582 -0.4290  0.1423
    2TTP     S5  534   0.169   4.948   0.484  0.3760 -0.1092  0.4129
    2TTP     C1  535   0.241   5.025   0.632  0.5910 -0.2993  0.4101
    2TTP     C2  536   0.277   4.934   0.727  0.5364 -0.4095  0.3264
    2TTP     C3  537   0.250   4.800   0.687  0.3228 -0.3474  0.2614
    2TTP     C4  538   0.202   4.561   0.616 -0.0568 -0.2389  0.1451
    2TTP    C17  539   0.166   4.652   0.520 -0.0022 -0.1288  0.2289
    2TTP    C18  540   0.193   4.786   0.561  0.2114 -0.1907  0.2938
    2TTP    C32  541   0.352   4.968   0.858 -0.0056 -0.0266  0.6301
    2TTP    C33  542   0.504   4.978   0.846  0.0699 -0.1626 -0.0571
    2TTP    C34  543   0.579   5.022   0.975  0.3592  0.3341  0.6072
    2TTP    C35  544   0.732   5.037   0.955 -0.2908 -0.7787 -0.1322
    2TTP    C36  545   0.796   5.149   0.870 -0.8514 -0.2634  0.2397
    2TTP    C37  546   0.735   5.289   0.877  0.1732 -0.3037  0.3564
    2TTP    C38  547   0.687   5.349   1.005 -0.6842  0.3251 -0.3399
    2TTP    C39  548   0.635   5.490   0.994  0.0294 -0.2905  0.5043
    2TTP    C40  549   0.586   5.554   1.127 -0.3512  0.2907 -0.2906
    2TTP    C41  550   0.475   5.484   1.194 -0.4282  0.1480 -0.1962
    2TTP    C42  551   0.422   5.561   1.317  0.4100  0.2742  0.4358
    3TTP     S1  552  -0.006   3.943   0.276  0.0936  0.0487 -0.0942
    3TTP     S5  553  -0.210   4.171  -0.026  0.0887  0.0036 -0.1252
    3TTP     C1  554  -0.250   3.995  -0.049  0.1572 -0.0089 -0.1517
    3TTP     C2  555  -0.190   3.914   0.043  0.1628  0.0043 -0.1437
    3TTP     C3  556  -0.109   3.988   0.135  0.1130  0.0248 -0.1163
    3TTP     C4  557   0.035   4.118   0.299  0.0250  0.0613 -0.0677
    3TTP    C17  558  -0.026   4.199   0.208  0.0194  0.0480 -0.0756
    3TTP    C18  559  -0.106   4.125   0.116  0.0691  0.0277 -0.1030
    3TTP    C32  560  -0.195   3.762   0.059  0.0463  0.1152 -0.7082
    3TTP    C33  561  -0.089   3.677  -0.011  0.1718 -0.0856  0.2144
    3TTP    C34  562  -0.097   3.529   0.005 -0.5576  0.2957  0.3610
    3TTP    C35  563   0.011   3.455  -0.078  0.1791  0.0142 -0.2703
    3TTP    C36  564   0.014   3.306  -0.069 -0.1438  0.3151 -0.0891
    3TTP    C37  565   0.069   3.249   0.060 -0.4573 -0.4479 -0.4853
    3TTP    C38  566   0.056   3.094   0.081  0.2734 -0.2186  1.5705
    3TTP    C39  567   0.099   3.032   0.208  0.7249  0.0949 -0.5809
    3TTP    C40  568   0.051   2.886   0.201  0.7407 -0.0157  0.0978
    3TTP    C41  569   0.106   2.805   0.311 -0.8985 -0.0270 -0.2034
    3TTP    C42  570   0.073   2.660   0.278 -0.2623 -0.1973 -0.2139
    4FIC     F1  571   0.164   5.721   0.198 -0.2978 -0.1109 -0.1220
    4FIC     F2  572   0.210   5.860   0.428  0.3400 -0.1136 -0.2457
    4FIC     O1  573   0.200   5.211   0.378 -0.5297 -0.1143 -0.0846
    4FIC     N5  574   0.302   5.696   0.886  1.0917 -0.1199 -0.3969
    4FIC     N6  575   0.321   5.270   0.980  0.7819 -0.1222 -0.3427
    4FIC    C19  576   0.257   5.163   0.661 -0.0028 -0.1181 -0.1895
    4FIC    C20  577   0.246   5.286   0.607  0.0307 -0.1172 -0.1941
    4FIC    C21  578   0.216   5.302   0.461 -0.2516 -0.1153 -0.1380
    4FIC    C22  579   0.211   5.448   0.435 -0.1323 -0.1146 -0.1592
    4FIC    C23  580   0.187   5.512   0.314 -0.3059 -0.1128 -0.1238
    4FIC    C24  581   0.187   5.651   0.315 -0.1408 -0.1125 -0.1542
    4FIC    C25  582   0.211   5.722   0.433  0.1878 -0.1140 -0.2179
    4FIC    C26  583   0.235   5.658   0.554  0.3626 -0.1158 -0.2535
    4FIC    C27  584   0.236   5.518   0.556  0.1995 -0.1159 -0.2236
    4FIC    C28  585   0.258   5.421   0.666  0.3127 -0.1177 -0.2476
    4FIC    C29  586   0.284   5.452   0.797  0.6202 -0.1193 -0.3078
    4FIC    C30  587   0.294   5.586   0.845  0.8784 -0.1197 -0.3566
    4FIC    C31  588   0.304   5.352   0.897  0.7074 -0.1210 -0.3267
    5FIC     F1  589  -0.832   4.307  -0.549  0.5226 -0.0310 -0.4763
    5FIC     F2  590  -0.882   4.055  -0.640 -0.3949 -0.1996  0.4525
    5FIC     O1  591  -0.441   4.210  -0.188  0.8693  0.0153 -0.8374
    5FIC     N5  592  -0.675   3.624  -0.513 -1.4669 -0.4092  1.5302
    5FIC     N6  593  -0.359   3.599  -0.213 -1.0114 -0.3391  1.0609
    5FIC    C19  594  -0.350   3.935  -0.146  0.1157 -0.1294 -0.0785
    5FIC    C20  595  -0.446   3.969  -0.234  0.0641 -0.1345 -0.0238
    5FIC    C21  596  -0.488   4.113  -0.249  0.4681 -0.0573 -0.4309
    5FIC    C22  597  -0.594   4.114  -0.352  0.2931 -0.0849 -0.2510
    5FIC    C23  598  -0.663   4.225  -0.400  0.5403 -0.0356 -0.4987
    5FIC    C24  599  -0.760   4.202  -0.497  0.2998 -0.0760 -0.2530
    5FIC    C25  600  -0.785   4.072  -0.544 -0.1732 -0.1626  0.2255
    5FIC    C26  601  -0.716   3.962  -0.496 -0.4215 -0.2124  0.4748
    5FIC    C27  602  -0.618   3.983  -0.398 -0.1842 -0.1727  0.2320
    5FIC    C28  603  -0.528   3.888  -0.327 -0.3436 -0.2066  0.3906
    5FIC    C29  604  -0.523   3.752  -0.345 -0.7848 -0.2892  0.8365
    5FIC    C30  605  -0.606   3.682  -0.437 -1.1584 -0.3549  1.2164
    5FIC    C31  606  -0.433   3.669  -0.272 -0.9068 -0.3161  0.9573
    1BTD     S2  607   1.022   6.491   1.633  0.1256 -0.0489 -0.2001
    1BTD     N1  608   0.990   6.314   1.627  0.6174 -0.1397 -0.3110
    1BTD     N2  609   0.976   6.520   1.462 -0.4596  0.0246 -0.0328
    1BTD     N3  610   0.822   6.259   1.103 -0.7641  0.0106  0.1076
    1BTD     N4  611   0.839   6.006   1.307  0.5630 -0.1917 -0.2353
    1BTD     C5  612   0.911   6.156   1.458  0.5730 -0.1645 -0.2673
    1BTD     C6  613   0.948   6.287   1.505  0.3347 -0.1118 -0.2224
    1BTD     C7  614   0.940   6.402   1.412 -0.2681 -0.0200 -0.0666
    1BTD     C8  615   0.896   6.381   1.277 -0.6026  0.0149  0.0364
    1BTD    C15  616   0.860   6.251   1.235 -0.3514 -0.0390 -0.0127
    1BTD    C16  617   0.868   6.140   1.325  0.2295 -0.1276 -0.1628
    1BTD    C43  618   0.735   5.952   1.211 -0.8094  0.0344  0.4341
    1BTD    C44  619   0.589   5.981   1.222 -0.2202  0.8652 -0.1941
    1BTD    C45  620   0.529   5.953   1.362 -0.1273 -0.0825  0.9575
    1BTD    C46  621   0.390   6.013   1.406 -0.9831  0.2616 -0.3021
    1BTD    C47  622   0.506   5.950   1.091  0.7021  0.4369 -0.8056
    1BTD    C48  623   0.546   6.019   0.956 -0.4651 -0.0587 -1.0905
    1BTD    C49  624   0.431   6.021   0.862  0.0917 -0.2398 -0.1265
    1BTD    C50  625   0.482   6.095   0.733  0.4792 -0.1778 -0.0767
    1BTD    C75  626   0.851   6.159   0.998 -0.2845 -0.6106 -0.2212
    1BTD    C76  627   0.983   6.138   0.921 -0.0402 -0.1221  0.6689
    1BTD    C77  628   0.992   6.004   0.839  0.3750 -0.1478  0.6607
    1BTD    C78  629   0.891   5.995   0.719  0.0516  0.0610 -0.1423
    1BTD    C79  630   1.041   6.267   0.861  0.1770  0.0569 -0.3807
    1BTD    C80  631   1.174   6.261   0.789  0.0054  0.2156  0.3771
    1BTD    C81  632   1.206   6.392   0.726  0.2386  1.0151  0.7167
    1BTD    C82  633   1.344   6.397   0.649 -0.4444 -0.0610 -0.5048
    2TTP     S1  634   0.920   5.965   1.686 -0.4543  0.1227  0.2310
    2TTP     S5  635   0.774   5.652   1.428  0.3241  0.0476 -0.1237
    2TTP     C1  636   0.787   5.586   1.597 -0.2030  0.1013 -0.0576
    2TTP     C2  637   0.833   5.679   1.687 -0.4744  0.1278  0.0559
    2TTP     C3  638   0.859   5.805   1.625 -0.2759  0.1065  0.0947
    2TTP     C4  639   0.906   6.030   1.516  0.0728  0.0689  0.1649
    2TTP    C17  640   0.860   5.938   1.427  0.3442  0.0425  0.0514
    2TTP    C18  641   0.834   5.811   1.489  0.1457  0.0638  0.0126
    2TTP    C32  642   0.862   5.654   1.831  0.0031 -0.8316  0.4758
    2TTP    C33  643   0.988   5.573   1.874  0.6859  0.1275  0.0103
    2TTP    C34  644   1.126   5.617   1.830 -0.3586  0.0889 -0.2270
    2TTP    C35  645   1.232   5.526   1.893  0.2854 -0.1461  0.5026
    2TTP    C36  646   1.356   5.532   1.814 -0.4213 -0.1079 -0.1641
    2TTP    C37  647   1.475   5.455   1.872  0.5791  0.0846 -0.2715
    2TTP    C38  648   1.610   5.460   1.794 -0.1082 -0.9817 -0.5917
    2TTP    C39  649   1.590   5.432   1.645 -0.7477  0.2590 -0.0516
    2TTP    C40  650   1.611   5.293   1.601  0.4945  0.4437 -0.4880
    2TTP    C41  651   1.507   5.188   1.638  0.0276 -0.2137 -0.0753
    2TTP    C42  652   1.571   5.048   1.615  0.2253 -0.1145 -0.2819
    3TTP     S1  653   0.852   6.643   1.151 -0.2882  0.1046  0.0515
    3TTP     S5  654   0.611   6.446   0.854 -0.0828 -0.1180  0.0317
    3TTP     C1  655   0.584   6.625   0.841 -0.0948 -0.1291 -0.1034
    3TTP     C2  656   0.657   6.697   0.932 -0.1589 -0.0612 -0.1052
    3TTP     C3  657   0.736   6.612   1.015 -0.2009  0.0024 -0.0000
    3TTP     C4  658   0.879   6.463   1.164 -0.2762  0.1156  0.1866
    3TTP    C17  659   0.806   6.392   1.073 -0.2121  0.0477  0.1884
    3TTP    C18  660   0.727   6.477   0.990 -0.1701 -0.0156  0.0833
    3TTP    C32  661   0.665   6.852   0.934 -0.6007 -0.2125 -0.5221
    3TTP    C33  662   0.798   6.901   0.874 -0.2295 -0.4077  0.6733
    3TTP    C34  663   0.806   7.052   0.880 -0.0642 -0.2702 -0.0254
    3TTP    C35  664   0.806   7.117   1.021  0.0993  0.6009  0.4487
    3TTP    C36  665   0.841   7.262   1.025 -0.7941 -0.1231  0.2555
    3TTP    C37  666   0.844   7.333   1.158  0.1007  0.4209  0.3718
    3TTP    C38  667   0.970   7.303   1.230 -0.9930  0.2200 -0.2627
    3TTP    C39  668   0.953   7.311   1.379 -0.7859  0.3445 -0.2325
    3TTP    C40  669   1.095   7.294   1.452  0.2080 -0.1073 -0.2221
    3TTP    C41  670   1.093   7.345   1.598 -0.2002 -0.1271  0.5742
    3TTP    C42  671   1.211   7.290   1.672 -0.1092 -0.4235 -0.9223
    4FIC     F1  672   0.736   4.845   1.228 -0.2182  0.0633 -0.1148
    4FIC     F2  673   0.669   4.738   1.469  0.1734  0.0179 -0.0257
    4FIC     O1  674   0.800   5.366   1.363 -0.4435  0.1174 -0.2125
    4FIC     N5  675   0.620   4.953   1.912  0.5760 -0.0088  0.0328
    4FIC     N6  676   0.684   5.382   1.969  0.3210  0.0426 -0.0615
    4FIC    C19  677   0.760   5.447   1.641 -0.1493  0.0930 -0.1621
    4FIC    C20  678   0.746   5.321   1.598 -0.1080  0.0813 -0.1409
    4FIC    C21  679   0.769   5.286   1.453 -0.2672  0.0950 -0.1693
    4FIC    C22  680   0.746   5.141   1.441 -0.1724  0.0769 -0.1356
    4FIC    C23  681   0.755   5.064   1.325 -0.2606  0.0807 -0.1454
    4FIC    C24  682   0.728   4.928   1.338 -0.1406  0.0607 -0.1077
    4FIC    C25  683   0.694   4.873   1.462  0.0611  0.0373 -0.0618
    4FIC    C26  684   0.685   4.950   1.578  0.1501  0.0331 -0.0518
    4FIC    C27  685   0.711   5.087   1.567  0.0310  0.0534 -0.0896
    4FIC    C28  686   0.710   5.195   1.668  0.0786  0.0552 -0.0910
    4FIC    C29  687   0.682   5.181   1.802  0.2609  0.0362 -0.0532
    4FIC    C30  688   0.648   5.056   1.862  0.4335  0.0116 -0.0061
    4FIC    C31  689   0.683   5.292   1.893  0.2929  0.0399 -0.0580
    5FIC     F1  690   0.027   6.356   0.298 -0.1233  0.1326  0.2715
    5FIC     F2  691  -0.032   6.615   0.239 -0.1588  0.1445  0.3593
    5FIC     O1  692   0.407   6.422   0.678  0.0890  0.0554  0.0728
    5FIC     N5  693   0.154   7.034   0.424 -0.0584  0.1066  0.3438
    5FIC     N6  694   0.463   7.034   0.733  0.1146  0.0440  0.1708
    5FIC    C19  695   0.486   6.693   0.756  0.1305  0.0395  0.0860
    5FIC    C20  696   0.393   6.666   0.663  0.0785  0.0584  0.1326
    5FIC    C21  697   0.358   6.524   0.628  0.0602  0.0654  0.1222
    5FIC    C22  698   0.254   6.531   0.524  0.0018  0.0867  0.1819
    5FIC    C23  699   0.190   6.425   0.461 -0.0329  0.0995  0.1952
    5FIC    C24  700   0.094   6.456   0.365 -0.0867  0.1190  0.2552
    5FIC    C25  701   0.064   6.590   0.335 -0.1049  0.1250  0.3004
    5FIC    C26  702   0.127   6.696   0.398 -0.0705  0.1123  0.2875
    5FIC    C27  703   0.224   6.667   0.495 -0.0158  0.0925  0.2269
    5FIC    C28  704   0.309   6.755   0.579  0.0306  0.0753  0.1984
    5FIC    C29  705   0.309   6.892   0.579  0.0293  0.0753  0.2275
    5FIC    C30  706   0.224   6.970   0.494 -0.0189  0.0924  0.2913
    5FIC    C31  707   0.394   6.969   0.664  0.0763  0.0579  0.1961
    1BTD     S2  708   5.713   6.473   3.140  0.3788  0.0342 -0.2539
    1BTD     N1  709   5.711   6.294   3.162  0.4110  0.0291 -0.2919
    1BTD     N2  710   5.789   6.506   3.300  0.1160  0.0322 -0.1277
    1BTD     N3  711   5.939   6.252   3.665 -0.3608  0.0188  0.0610
    1BTD     N4  712   5.843   5.991   3.495  0.0027  0.0151 -0.1413
    1BTD     C5  713   5.781   6.139   3.338  0.1935  0.0218 -0.2108
    1BTD     C6  714   5.764   6.270   3.281  0.2335  0.0263 -0.2126
    1BTD     C7  715   5.808   6.389   3.358  0.0684  0.0281 -0.1206
    1BTD     C8  716   5.866   6.370   3.488 -0.1285  0.0253 -0.0316
    1BTD    C15  717   5.881   6.240   3.540 -0.1608  0.0208 -0.0333
    1BTD    C16  718   5.839   6.126   3.466 -0.0017  0.0192 -0.1219
    1BTD    C43  719   5.926   5.915   3.591 -0.2400 -0.1174 -0.1163
    1BTD    C44  720   6.080   5.896   3.572 -0.4446 -0.4214  0.2389
    1BTD    C45  721   6.140   5.840   3.695 -0.6224 -0.1676 -1.0301
    1BTD    C46  722   6.286   5.871   3.725 -0.6088 -1.4600  0.2302
    1BTD    C47  723   6.143   5.871   3.433  0.6378  0.5694 -0.6674
    1BTD    C48  724   6.131   5.718   3.404 -0.4973 -1.0316  0.0794
    1BTD    C49  725   6.207   5.663   3.283  0.8184 -0.2017 -0.9153
    1BTD    C50  726   6.153   5.525   3.257  0.5098 -0.2272  0.2841
    1BTD    C75  727   5.962   6.153   3.771 -0.4004 -0.5312  0.0333
    1BTD    C76  728   5.848   6.117   3.864  0.5818 -0.3878 -0.0251
    1BTD    C77  729   5.869   5.999   3.961  0.2360  0.2818  0.0414
    1BTD    C78  730   5.976   6.019   4.072  0.2194  0.1618  0.9479
    1BTD    C79  731   5.789   6.240   3.935  0.6217 -0.6603 -0.6002
    1BTD    C80  732   5.644   6.237   3.996 -0.5425 -0.1284  0.5732
    1BTD    C81  733   5.615   6.361   4.078  0.0642  0.2884 -0.5041
    1BTD    C82  734   5.483   6.362   4.155 -0.3845  0.5886 -0.4759
    2TTP     S1  735   5.711   5.931   3.135  0.1074 -0.0263  0.0343
    2TTP     S5  736   5.823   5.623   3.413 -0.2890 -0.1870  0.0167
    2TTP     C1  737   5.782   5.545   3.254 -0.1664 -0.1049 -0.0550
    2TTP     C2  738   5.745   5.636   3.159 -0.0368 -0.0504 -0.0537
    2TTP     C3  739   5.748   5.770   3.208 -0.0296 -0.0718  0.0038
    2TTP     C4  740   5.752   6.009   3.294 -0.0151 -0.1086  0.1059
    2TTP    C17  741   5.789   5.919   3.389 -0.1447 -0.1630  0.1046
    2TTP    C18  742   5.786   5.784   3.340 -0.1519 -0.1419  0.0471
    2TTP    C32  743   5.720   5.612   3.007 -0.6995 -0.2845 -0.5558
    2TTP    C33  744   5.594   5.671   2.929  0.1793 -0.1449  0.2354
    2TTP    C34  745   5.456   5.646   3.004 -0.3374 -0.0489  0.1901
    2TTP    C35  746   5.401   5.500   3.029 -0.4338  0.2120  0.5491
    2TTP    C36  747   5.396   5.390   2.912 -0.4466  0.0984  0.5114
    2TTP    C37  748   5.519   5.288   2.903  0.1282 -0.2695  0.4142
    2TTP    C38  749   5.494   5.174   2.805 -0.4391  0.3514  0.1692
    2TTP    C39  750   5.491   5.200   2.652 -0.3121  0.4944  0.6349
    2TTP    C40  751   5.483   5.065   2.572  0.0833 -0.1296 -0.2609
    2TTP    C41  752   5.524   5.060   2.427 -0.0192  0.5330 -0.1224
    2TTP    C42  753   5.495   4.929   2.351  0.2795 -0.2953  0.3129
    3TTP     S1  754   5.968   6.636   3.603  0.3506 -0.0122  0.0745
    3TTP     S5  755   6.160   6.413   3.917 -0.0312 -0.0399  0.2886
    3TTP     C1  756   6.212   6.587   3.929  0.0030 -0.0530  0.3293
    3TTP     C2  757   6.156   6.666   3.833  0.1229 -0.0452  0.2657
    3TTP     C3  758   6.070   6.592   3.746  0.1920 -0.0287  0.1823
    3TTP     C4  759   5.916   6.462   3.591  0.3164  0.0008  0.0337
    3TTP    C17  760   5.972   6.383   3.688  0.1965 -0.0070  0.0973
    3TTP    C18  761   6.058   6.457   3.774  0.1273 -0.0236  0.1807
    3TTP    C32  762   6.161   6.817   3.825  0.3430 -0.5647  0.2399
    3TTP    C33  763   6.073   6.893   3.926  0.1395  0.2444  0.3646
    3TTP    C34  764   6.038   7.030   3.872 -0.0989 -0.2575  0.5837
    3TTP    C35  765   5.968   7.135   3.955  0.1348 -0.0757 -0.5320
    3TTP    C36  766   5.943   7.271   3.890  0.6455 -0.6832 -0.2290
    3TTP    C37  767   5.869   7.256   3.756 -0.4983  0.4526  0.0822
    3TTP    C38  768   5.893   7.368   3.659  0.0627  0.1226 -0.6166
    3TTP    C39  769   5.833   7.338   3.526 -0.2750 -0.5020 -0.3255
    3TTP    C40  770   5.677   7.353   3.520 -0.6592  0.1630 -0.2418
    3TTP    C41  771   5.634   7.311   3.379  0.1943  0.4774  0.3635
    3TTP    C42  772   5.483   7.296   3.358  0.5300 -0.0046 -0.0070
    4FIC     F1  773   5.790   4.863   3.711  0.0638 -0.0343  0.0065
    4FIC     F2  774   5.857   4.723   3.488  0.0681  0.0594 -0.0510
    4FIC     O1  775   5.741   5.363   3.509  0.0061  0.0398  0.2030
    4FIC     N5  776   5.918   4.878   3.022  0.0330  0.2466  0.0065
    4FIC     N6  777   5.867   5.297   2.909 -0.0129  0.2855  0.1715
    4FIC    C19  778   5.788   5.407   3.223 -0.0102  0.1554  0.2178
    4FIC    C20  779   5.798   5.286   3.283  0.0042  0.1332  0.1706
    4FIC    C21  780   5.772   5.272   3.430  0.0119  0.0734  0.1661
    4FIC    C22  781   5.791   5.129   3.462  0.0271  0.0627  0.1098
    4FIC    C23  782   5.778   5.067   3.586  0.0385  0.0135  0.0864
    4FIC    C24  783   5.801   4.931   3.592  0.0521  0.0133  0.0322
    4FIC    C25  784   5.835   4.859   3.477  0.0542  0.0617  0.0027
    4FIC    C26  785   5.848   4.920   3.352  0.0429  0.1113  0.0259
    4FIC    C27  786   5.826   5.058   3.345  0.0290  0.1121  0.0806
    4FIC    C28  787   5.831   5.152   3.230  0.0150  0.1570  0.1168
    4FIC    C29  788   5.861   5.120   3.100  0.0126  0.2108  0.1031
    4FIC    C30  789   5.893   4.987   3.057  0.0237  0.2304  0.0499
    4FIC    C31  790   5.864   5.218   2.995 -0.0014  0.2517  0.1408
    5FIC     F1  791   6.766   6.267   4.452 -0.3323  0.1428  0.1449
    5FIC     F2  792   6.827   6.519   4.533 -0.0888  0.1823 -0.1609
    5FIC     O1  793   6.386   6.368   4.080 -0.3744  0.0464  0.1615
    5FIC     N5  794   6.646   6.954   4.384  0.2313  0.1702 -0.5889
    5FIC     N6  795   6.337   6.983   4.076  0.1493  0.0868 -0.5143
    5FIC    C19  796   6.310   6.646   4.024 -0.1568  0.0497 -0.1249
    5FIC    C20  797   6.403   6.610   4.115 -0.1557  0.0724 -0.1171
    5FIC    C21  798   6.437   6.465   4.138 -0.2714  0.0689  0.0344
    5FIC    C22  799   6.541   6.462   4.242 -0.2378  0.0978  0.0018
    5FIC    C23  800   6.604   6.351   4.296 -0.3144  0.1053  0.1061
    5FIC    C24  801   6.700   6.373   4.394 -0.2618  0.1339  0.0481
    5FIC    C25  802   6.731   6.503   4.436 -0.1363  0.1541 -0.1095
    5FIC    C26  803   6.669   6.615   4.382 -0.0593  0.1469 -0.2143
    5FIC    C27  804   6.572   6.595   4.283 -0.1110  0.1179 -0.1577
    5FIC    C28  805   6.488   6.690   4.206 -0.0555  0.1031 -0.2370
    5FIC    C29  806   6.490   6.828   4.218  0.0656  0.1156 -0.3920
    5FIC    C30  807   6.576   6.897   4.309  0.1563  0.1454 -0.4997
    5FIC    C31  808   6.406   6.912   4.140  0.1109  0.0998 -0.4584
    1BTD     S2  809   1.095   1.427   0.696  0.0965 -0.0734  0.2456
    1BTD     N1  810   1.084   1.606   0.677 -0.2782 -0.0985  0.2209
    1BTD     N2  811   1.046   1.392   0.526  0.4134 -0.1952  0.1767
    1BTD     N3  812   0.924   1.642   0.148  0.3827 -0.4887 -0.0082
    1BTD     N4  813   0.971   1.905   0.334 -0.4696 -0.3695  0.0463
    1BTD     C5  814   1.024   1.759   0.496 -0.3679 -0.2414  0.1290
    1BTD     C6  815   1.046   1.628   0.552 -0.1542 -0.1915  0.1654
    1BTD     C7  816   1.024   1.509   0.468  0.2329 -0.2457  0.1407
    1BTD     C8  817   0.983   1.525   0.331  0.3871 -0.3470  0.0808
    1BTD    C15  818   0.963   1.655   0.280  0.1676 -0.3928  0.0468
    1BTD    C16  819   0.984   1.771   0.361 -0.2055 -0.3406  0.0707
    1BTD    C43  820   0.902   1.970   0.221  0.7361  0.1705 -0.3660
    1BTD    C44  821   0.750   2.010   0.228 -0.3927 -1.0113  0.0733
    1BTD    C45  822   0.663   1.899   0.290  0.0404 -0.6833 -0.0107
    1BTD    C46  823   0.518   1.937   0.333  0.5738 -0.6071  0.3059
    1BTD    C47  824   0.701   2.058   0.093  0.5143 -0.4638  0.2353
    1BTD    C48  825   0.737   2.188   0.022  0.5808  0.4116  0.6053
    1BTD    C49  826   0.719   2.313   0.103 -0.6914 -0.2606 -0.3095
    1BTD    C50  827   0.716   2.441   0.022 -0.9235  0.1258 -0.4376
    1BTD    C75  828   0.945   1.730   0.031 -0.9556 -0.1268  0.6576
    1BTD    C76  829   1.088   1.747  -0.026  0.7879 -0.6961 -0.4442
    1BTD    C77  830   1.101   1.868  -0.127  0.1657 -0.0413 -0.0327
    1BTD    C78  831   1.032   1.886  -0.258  0.2131 -0.0237 -0.1453
    1BTD    C79  832   1.151   1.613  -0.062 -0.2534  0.4260  0.6873
    1BTD    C80  833   1.300   1.618  -0.110 -0.8089 -0.4908  0.1854
    1BTD    C81  834   1.332   1.641  -0.258  0.5527  0.2404 -0.3513
    1BTD    C82  835   1.474   1.677  -0.287 -0.6899 -0.1136  0.2312
    2TTP     S1  836   1.052   1.977   0.711  0.1001  0.2105 -0.0186
    2TTP     S5  837   0.941   2.274   0.420  0.2248  0.2280 -0.0485
    2TTP     C1  838   0.959   2.355   0.582  0.2543  0.2360 -0.0558
    2TTP     C2  839   0.994   2.269   0.681  0.2176  0.2310 -0.0470
    2TTP     C3  840   1.008   2.135   0.633  0.1648  0.2207 -0.0342
    2TTP     C4  841   1.034   1.896   0.549  0.0707  0.2025 -0.0114
    2TTP    C17  842   0.999   1.983   0.450  0.1074  0.2074 -0.0202
    2TTP    C18  843   0.984   2.117   0.498  0.1602  0.2177 -0.0330
    2TTP    C32  844   1.005   2.293   0.832  0.1677 -0.5561  0.0201
    2TTP    C33  845   1.138   2.264   0.904  0.0246 -0.0107  0.4600
    2TTP    C34  846   1.251   2.362   0.866  0.0815  1.3318  0.3219
    2TTP    C35  847   1.391   2.316   0.899  0.2762 -0.2844  0.3394
    2TTP    C36  848   1.506   2.414   0.900  0.0667 -0.0418 -1.0518
    2TTP    C37  849   1.528   2.500   0.779 -0.3941  0.3604  0.0898
    2TTP    C38  850   1.670   2.562   0.766  0.5387  0.8809  0.2144
    2TTP    C39  851   1.702   2.605   0.627  0.1571 -0.8009  0.6042
    2TTP    C40  852   1.800   2.718   0.602 -0.2954 -0.5090 -0.2163
    2TTP    C41  853   1.804   2.772   0.463  0.1235 -0.2307  0.3785
    2TTP    C42  854   1.678   2.847   0.418  0.0294 -0.1060  0.1940
    3TTP     S1  855   0.898   1.259   0.202  0.1254  0.1068  0.2322
    3TTP     S5  856   0.732   1.479  -0.128  0.1493  0.1860  0.2730
    3TTP     C1  857   0.690   1.304  -0.148  0.1154  0.1969  0.2496
    3TTP     C2  858   0.738   1.225  -0.048  0.1061  0.1731  0.2356
    3TTP     C3  859   0.811   1.301   0.049  0.1253  0.1454  0.2429
    3TTP     C4  860   0.941   1.435   0.222  0.1592  0.0959  0.2556
    3TTP    C17  861   0.892   1.513   0.122  0.1686  0.1197  0.2696
    3TTP    C18  862   0.819   1.437   0.025  0.1494  0.1475  0.2623
    3TTP    C32  863   0.728   1.071  -0.036 -0.2190  0.6904  0.0933
    3TTP    C33  864   0.861   1.000  -0.045 -0.3615 -0.3834 -0.3654
    3TTP    C34  865   0.870   0.853  -0.089  0.9945  0.0261 -0.3543
    3TTP    C35  866   0.783   0.736  -0.021 -0.3270 -0.3919  0.6063
    3TTP    C36  867   0.800   0.707   0.126 -0.2094 -0.1177 -0.0531
    3TTP    C37  868   0.942   0.669   0.164  0.3473 -0.0853 -0.2834
    3TTP    C38  869   0.959   0.649   0.316 -0.0415  0.2633 -0.3102
    3TTP    C39  870   1.103   0.606   0.365  0.4396  0.0472 -0.3523
    3TTP    C40  871   1.131   0.630   0.504 -0.4168  0.5682 -0.4353
    3TTP    C41  872   1.278   0.596   0.531  0.3947  0.9298 -0.0389
    3TTP    C42  873   1.321   0.623   0.676  0.3584  0.0159  0.5868
    4FIC     F1  874   0.952   3.052   0.147  0.3148  0.1214  0.1297
    4FIC     F2  875   0.851   3.180   0.365 -0.0152 -0.0479  0.0786
    4FIC     O1  876   1.005   2.549   0.341  0.4057  0.0591 -0.0567
    4FIC     N5  877   0.745   3.007   0.816 -0.4248 -0.3357 -0.1276
    4FIC     N6  878   0.807   2.588   0.924 -0.2872 -0.3503 -0.2629
    4FIC    C19  879   0.928   2.493   0.618  0.1227 -0.1248 -0.1717
    4FIC    C20  880   0.919   2.615   0.561  0.1128 -0.1025 -0.1228
    4FIC    C21  881   0.960   2.636   0.418  0.2638 -0.0065 -0.0652
    4FIC    C22  882   0.937   2.778   0.388  0.2096 -0.0060 -0.0216
    4FIC    C23  883   0.961   2.844   0.268  0.3059  0.0676  0.0379
    4FIC    C24  884   0.931   2.980   0.263  0.2269  0.0516  0.0706
    4FIC    C25  885   0.879   3.046   0.375  0.0569 -0.0358  0.0442
    4FIC    C26  886   0.855   2.980   0.495 -0.0399 -0.1095 -0.0152
    4FIC    C27  887   0.885   2.843   0.502  0.0378 -0.0945 -0.0490
    4FIC    C28  888   0.871   2.745   0.613 -0.0284 -0.1573 -0.1122
    4FIC    C29  889   0.824   2.771   0.739 -0.1898 -0.2487 -0.1531
    4FIC    C30  890   0.781   2.901   0.781 -0.3184 -0.2962 -0.1389
    4FIC    C31  891   0.815   2.670   0.840 -0.2425 -0.3040 -0.2133
    5FIC     F1  892   0.150   1.616  -0.688 -0.3624 -0.0833  0.3759
    5FIC     F2  893   0.066   1.363  -0.743  0.3382 -0.1758 -0.3123
    5FIC     O1  894   0.537   1.519  -0.323 -0.5849  0.0530  0.6490
    5FIC     N5  895   0.221   0.930  -0.561  1.1868 -0.2116 -1.1068
    5FIC     N6  896   0.541   0.905  -0.265  0.8718 -0.0864 -0.7545
    5FIC    C19  897   0.595   1.242  -0.246  0.0054  0.0131  0.0887
    5FIC    C20  898   0.501   1.277  -0.335  0.0340 -0.0176  0.0468
    5FIC    C21  899   0.477   1.421  -0.370 -0.2816  0.0059  0.3475
    5FIC    C22  900   0.368   1.423  -0.470 -0.1589 -0.0381  0.2127
    5FIC    C23  901   0.312   1.534  -0.532 -0.3568 -0.0358  0.3950
    5FIC    C24  902   0.210   1.511  -0.623 -0.1826 -0.0827  0.2116
    5FIC    C25  903   0.167   1.380  -0.651  0.1782 -0.1303 -0.1428
    5FIC    C26  904   0.223   1.269  -0.590  0.3774 -0.1329 -0.3263
    5FIC    C27  905   0.326   1.290  -0.497  0.2058 -0.0858 -0.1451
    5FIC    C28  906   0.406   1.196  -0.415  0.3386 -0.0751 -0.2612
    5FIC    C29  907   0.393   1.059  -0.414  0.6789 -0.1115 -0.5910
    5FIC    C30  908   0.299   0.988  -0.495  0.9570 -0.1664 -0.8734
    5FIC    C31  909   0.475   0.975  -0.332  0.7831 -0.0975 -0.6792
    1BTD     S2  910   5.869   1.424   2.166 -0.1352  0.1778 -0.2330
    1BTD     N1  911   5.858   1.603   2.182 -0.3811  0.1464 -0.0308
    1BTD     N2  912   5.931   1.398   2.333  0.1978  0.1001 -0.3685
    1BTD     N3  913   6.040   1.668   2.701  0.4321 -0.1147 -0.2795
    1BTD     N4  914   5.950   1.920   2.516 -0.2813 -0.0577  0.1365
    1BTD     C5  915   5.907   1.765   2.359 -0.3204  0.0392  0.0516
    1BTD     C6  916   5.900   1.632   2.305 -0.2112  0.0829 -0.0725
    1BTD     C7  917   5.941   1.518   2.389  0.1128  0.0571 -0.2616
    1BTD     C8  918   5.987   1.542   2.523  0.3114 -0.0114 -0.3170
    1BTD    C15  919   5.993   1.674   2.572  0.1947 -0.0524 -0.1909
    1BTD    C16  920   5.953   1.784   2.490 -0.1176 -0.0274 -0.0088
    1BTD    C43  921   6.051   2.007   2.578  0.4440  0.5679  0.6294
    1BTD    C44  922   6.196   1.954   2.595 -0.4400 -0.3748 -0.5648
    1BTD    C45  923   6.258   2.019   2.727  0.1319 -0.1344  0.1567
    1BTD    C46  924   6.388   1.973   2.782 -0.1082  0.0301 -0.2050
    1BTD    C47  925   6.278   1.970   2.470 -0.0673 -0.1321  0.2246
    1BTD    C48  926   6.300   2.105   2.412  0.0369 -0.5831 -0.5326
    1BTD    C49  927   6.382   2.114   2.288  0.6058 -0.4613  0.7275
    1BTD    C50  928   6.379   2.249   2.222  0.1846  0.2625 -0.4905
    1BTD    C75  929   6.017   1.767   2.809 -0.4379 -0.6234  0.5706
    1BTD    C76  930   5.883   1.780   2.882  0.1402  0.4430 -0.1564
    1BTD    C77  931   5.889   1.919   2.950  0.6618 -0.0293  0.0747
    1BTD    C78  932   5.971   1.937   3.078 -0.4263  0.1829 -0.3472
    1BTD    C79  933   5.846   1.657   2.972  0.3426 -0.0061  0.6508
    1BTD    C80  934   5.720   1.672   3.052 -0.1108  0.4046 -0.5828
    1BTD    C81  935   5.666   1.543   3.123 -0.1468  0.5265  0.4819
    1BTD    C82  936   5.576   1.592   3.237 -0.2175 -0.3840 -0.1564
    2TTP     S1  937   5.820   1.962   2.150  0.0961  0.0485 -0.2018
    2TTP     S5  938   5.914   2.284   2.420 -0.1726  0.0113 -0.0625
    2TTP     C1  939   5.858   2.355   2.262  0.1401  0.0340 -0.1658
    2TTP     C2  940   5.825   2.260   2.170  0.2416  0.0468 -0.2148
    2TTP     C3  941   5.844   2.127   2.220  0.0761  0.0392 -0.1727
    2TTP     C4  942   5.876   1.891   2.308 -0.2166  0.0257 -0.0985
    2TTP    C17  943   5.909   1.986   2.401 -0.3181  0.0129 -0.0495
    2TTP    C18  944   5.890   2.119   2.350 -0.1523  0.0206 -0.0916
    2TTP    C32  945   5.786   2.273   2.024  0.2785  0.5483  0.5198
    2TTP    C33  946   5.645   2.231   1.976 -0.3680 -0.1099  0.0844
    2TTP    C34  947   5.602   2.268   1.829  0.6501 -0.0341 -0.3443
    2TTP    C35  948   5.679   2.202   1.714 -0.2856  0.3308 -0.8749
    2TTP    C36  949   5.616   2.267   1.599  0.6180 -0.6260  0.5665
    2TTP    C37  950   5.664   2.224   1.455 -0.3360  1.0557 -0.3879
    2TTP    C38  951   5.663   2.066   1.424  0.2012  0.2427 -0.7485
    2TTP    C39  952   5.696   2.034   1.278  0.1095 -0.8407 -0.1263
    2TTP    C40  953   5.698   1.889   1.233  0.2956 -0.7276  0.4975
    2TTP    C41  954   5.769   1.787   1.318 -0.4306  0.4894  0.4804
    2TTP    C42  955   5.744   1.648   1.266  0.3158  0.3060 -0.1696
    3TTP     S1  956   6.076   1.284   2.652  0.1531  0.0272  0.0942
    3TTP     S5  957   6.288   1.511   2.950  0.2717  0.2181 -0.1348
    3TTP     C1  958   6.334   1.336   2.967  0.0545  0.1870  0.1490
    3TTP     C2  959   6.271   1.256   2.876  0.0050  0.1262  0.2363
    3TTP     C3  960   6.184   1.330   2.790  0.1370  0.1020  0.0824
    3TTP     C4  961   6.030   1.460   2.635  0.3704  0.0583 -0.1897
    3TTP    C17  962   6.092   1.540   2.726  0.4197  0.1192 -0.2770
    3TTP    C18  963   6.179   1.466   2.813  0.2878  0.1433 -0.1230
    3TTP    C32  964   6.277   1.103   2.862  0.1381 -0.4060 -0.2644
    3TTP    C33  965   6.168   1.029   2.944  0.8330  0.3393 -0.0166
    3TTP    C34  966   6.176   0.875   2.918  0.1865 -0.0019 -0.3175
    3TTP    C35  967   6.063   0.792   2.982 -0.7018  0.1429 -0.4657
    3TTP    C36  968   6.104   0.643   2.977  0.7752  0.6319  0.1947
    3TTP    C37  969   6.116   0.563   2.843 -0.0277 -0.3578  0.6385
    3TTP    C38  970   6.001   0.566   2.739  0.1226  1.3017 -0.3055
    3TTP    C39  971   6.011   0.482   2.606  0.2549 -0.2259 -0.6650
    3TTP    C40  972   5.912   0.535   2.505 -0.3793  0.3650 -0.3422
    3TTP    C41  973   5.894   0.453   2.373  0.1832  0.7516 -0.4288
    3TTP    C42  974   5.781   0.516   2.297 -0.5793 -0.0713 -0.5567
    4FIC     F1  975   5.800   3.030   2.728  0.1080 -0.0257  0.1351
    4FIC     F2  976   5.801   3.178   2.499  0.1743  0.0479  0.1830
    4FIC     O1  977   5.822   2.528   2.524  0.1510  0.0392 -0.0206
    4FIC     N5  978   5.817   3.034   2.026  0.3004  0.2000  0.1410
    4FIC     N6  979   5.834   2.613   1.913  0.3208  0.2359  0.0097
    4FIC    C19  980   5.830   2.492   2.234  0.2297  0.1326 -0.0301
    4FIC    C20  981   5.824   2.612   2.294  0.2164  0.1134  0.0072
    4FIC    C21  982   5.820   2.623   2.444  0.1755  0.0652  0.0095
    4FIC    C22  983   5.815   2.767   2.475  0.1705  0.0551  0.0544
    4FIC    C23  984   5.810   2.826   2.601  0.1373  0.0147  0.0722
    4FIC    C24  985   5.805   2.965   2.606  0.1395  0.0132  0.1155
    4FIC    C25  986   5.805   3.041   2.489  0.1738  0.0512  0.1402
    4FIC    C26  987   5.810   2.982   2.363  0.2068  0.0917  0.1226
    4FIC    C27  988   5.815   2.842   2.355  0.2053  0.0938  0.0789
    4FIC    C28  989   5.821   2.750   2.239  0.2347  0.1311  0.0507
    4FIC    C29  990   5.823   2.786   2.106  0.2722  0.1739  0.0629
    4FIC    C30  991   5.820   2.923   2.063  0.2875  0.1881  0.1057
    4FIC    C31  992   5.829   2.691   2.001  0.2985  0.2077  0.0336
    5FIC     F1  993   6.909   1.646   3.464  0.1512 -0.1060 -0.2138
    5FIC     F2  994   6.970   1.393   3.544  0.0130 -0.1546 -0.2619
    5FIC     O1  995   6.513   1.549   3.109 -0.0913  0.1973 -0.0272
    5FIC     N5  996   6.775   0.960   3.405 -0.3586 -0.0082 -0.1979
    5FIC     N6  997   6.453   0.935   3.111 -0.5203  0.2386 -0.0424
    5FIC    C19  998   6.430   1.273   3.059 -0.3095  0.2587 -0.0067
    5FIC    C20  999   6.527   1.307   3.145 -0.2431  0.1843 -0.0518
    5FIC    C21 1000   6.564   1.451   3.165 -0.1320  0.1571 -0.0594
    5FIC    C22 1001   6.673   1.453   3.265 -0.0819  0.0738 -0.1124
    5FIC    C23 1002   6.740   1.564   3.316  0.0209  0.0235 -0.1369
    5FIC    C24 1003   6.839   1.541   3.410  0.0507 -0.0530 -0.1872
    5FIC    C25 1004   6.871   1.411   3.450 -0.0207 -0.0779 -0.2120
    5FIC    C26 1005   6.804   1.299   3.400 -0.1233 -0.0280 -0.1876
    5FIC    C27 1006   6.703   1.321   3.305 -0.1549  0.0497 -0.1367
    5FIC    C28 1007   6.615   1.226   3.233 -0.2568  0.1166 -0.1005
    5FIC    C29 1008   6.615   1.089   3.246 -0.3467  0.1158 -0.1102
    5FIC    C30 1009   6.703   1.019   3.333 -0.3529  0.0476 -0.1584
    5FIC    C31 1010   6.526   1.005   3.172 -0.4417  0.1834 -0.0728
    1BTD     S2 1011   4.913   9.214   3.151 -0.2521 -0.1770 -0.0612
    1BTD     N1 1012   4.910   9.035   3.169  0.3488 -0.2110 -0.2617
    1BTD     N2 1013   4.995   9.243   3.308 -0.7235 -0.0441  0.1653
    1BTD     N3 1014   5.158   8.980   3.661 -0.5982  0.1659  0.2645
    1BTD     N4 1015   5.053   8.723   3.489  0.7232 -0.0398 -0.2616
    1BTD     C5 1016   4.986   8.875   3.338  0.5285 -0.1190 -0.2553
    1BTD     C6 1017   4.968   9.008   3.285  0.1764 -0.1259 -0.1551
    1BTD     C7 1018   5.016   9.124   3.363 -0.4239 -0.0322  0.0839
    1BTD     C8 1019   5.079   9.103   3.490 -0.6421  0.0632  0.2108
    1BTD    C15 1020   5.095   8.971   3.538 -0.2818  0.0662  0.1056
    1BTD    C16 1021   5.049   8.859   3.463  0.2966 -0.0238 -0.1246
    1BTD    C43 1022   5.132   8.646   3.584  0.3678  0.2646  0.3273
    1BTD    C44 1023   5.269   8.586   3.537 -0.0880  0.2923 -0.5356
    1BTD    C45 1024   5.347   8.681   3.440 -1.0227 -0.1413 -0.4708
    1BTD    C46 1025   5.470   8.621   3.361 -0.3424  0.8666 -0.1761
    1BTD    C47 1026   5.361   8.509   3.639  0.7142 -0.5838  0.1110
    1BTD    C48 1027   5.426   8.592   3.752 -0.3387 -0.0682  0.3614
    1BTD    C49 1028   5.543   8.532   3.820 -0.2223  0.3024  0.4912
    1BTD    C50 1029   5.519   8.416   3.912  0.0648 -0.9104 -0.3077
    1BTD    C75 1030   5.187   8.886   3.767 -0.0345  0.4575 -0.0980
    1BTD    C76 1031   5.086   8.869   3.881 -0.0789  0.4346  0.1161
    1BTD    C77 1032   5.129   8.754   3.984 -0.3654 -0.0254  0.3865
    1BTD    C78 1033   5.264   8.755   4.041 -0.1511  0.0939  0.6062
    1BTD    C79 1034   4.940   8.858   3.829  0.1475 -0.7414  0.0110
    1BTD    C80 1035   4.825   8.887   3.923  0.5060  0.2147  0.5866
    1BTD    C81 1036   4.792   9.032   3.953  0.4218  0.5766 -0.3945
    1BTD    C82 1037   4.671   9.053   4.046 -0.2565 -0.4531  0.1001
    2TTP     S1 1038   4.890   8.665   3.144 -0.2134 -0.0252  0.4051
    2TTP     S5 1039   5.040   8.356   3.404  0.0367 -0.0682  0.2096
    2TTP     C1 1040   4.981   8.279   3.250 -0.1536 -0.0474  0.2718
    2TTP     C2 1041   4.931   8.370   3.161 -0.2421 -0.0329  0.3359
    2TTP     C3 1042   4.938   8.503   3.211 -0.1627 -0.0379  0.3381
    2TTP     C4 1043   4.949   8.742   3.298 -0.0229 -0.0458  0.3429
    2TTP    C17 1044   4.999   8.651   3.387  0.0656 -0.0604  0.2789
    2TTP    C18 1045   4.992   8.518   3.337 -0.0138 -0.0558  0.2766
    2TTP    C32 1046   4.864   8.340   3.023 -0.3787 -0.6475 -0.1915
    2TTP    C33 1047   4.716   8.329   3.028  0.0644  0.2549  0.1045
    2TTP    C34 1048   4.650   8.254   2.918 -0.3399  0.3754  0.2566
    2TTP    C35 1049   4.505   8.214   2.933 -0.1085  0.1387 -0.2091
    2TTP    C36 1050   4.458   8.139   3.055  0.0662 -0.5106  0.1533
    2TTP    C37 1051   4.310   8.121   3.068  0.8919  1.3256  0.5083
    2TTP    C38 1052   4.257   8.038   3.182  0.1923 -0.1862  0.7657
    2TTP    C39 1053   4.294   7.892   3.188  0.0530  0.5602 -0.0386
    2TTP    C40 1054   4.250   7.808   3.309  0.1226 -0.1015 -0.0232
    2TTP    C41 1055   4.094   7.787   3.331 -0.2111 -0.2547  0.8348
    2TTP    C42 1056   4.065   7.751   3.476  0.0101 -0.2357  0.2948
    3TTP     S1 1057   5.148   9.367   3.622 -0.2279 -0.1423  0.0608
    3TTP     S5 1058   5.333   9.162   3.952 -0.0923 -0.0327  0.0533
    3TTP     C1 1059   5.352   9.341   3.977 -0.0996 -0.0238 -0.0037
    3TTP     C2 1060   5.296   9.415   3.877 -0.1420 -0.0572 -0.0046
    3TTP     C3 1061   5.236   9.332   3.776 -0.1700 -0.0911  0.0395
    3TTP     C4 1062   5.130   9.188   3.597 -0.2204 -0.1512  0.1177
    3TTP    C17 1063   5.186   9.114   3.697 -0.1781 -0.1181  0.1187
    3TTP    C18 1064   5.245   9.196   3.798 -0.1500 -0.0842  0.0746
    3TTP    C32 1065   5.276   9.567   3.876 -0.4682 -0.0841  0.5073
    3TTP    C33 1066   5.131   9.610   3.879  0.0002 -0.3184 -0.7955
    3TTP    C34 1067   5.115   9.761   3.847  0.8131  0.2406 -0.3446
    3TTP    C35 1068   5.147   9.858   3.956 -0.1415  0.1868  0.3224
    3TTP    C36 1069   5.135   9.996   3.887 -0.1382  0.2674  0.4668
    3TTP    C37 1070   5.160  10.110   3.983  0.0437  0.0413 -0.0083
    3TTP    C38 1071   5.169  10.250   3.919  0.1040 -0.6483 -0.4754
    3TTP    C39 1072   5.221  10.348   4.027 -0.1895 -0.8465  0.2920
    3TTP    C40 1073   5.249  10.496   3.991  0.4115  0.4114  1.0406
    3TTP    C41 1074   5.138  10.564   3.909 -1.2141  0.2186  0.0186
    3TTP    C42 1075   5.198  10.695   3.862  0.2186  0.5017  0.5935
    4FIC     F1 1076   5.046   7.596   3.711  0.3814 -0.0618  0.0776
    4FIC     F2 1077   5.020   7.447   3.484  0.0587 -0.0385  0.0980
    4FIC     O1 1078   5.013   8.097   3.509  0.4518 -0.0350  0.1318
    4FIC     N5 1079   4.960   7.592   3.014 -0.3550  0.0130  0.1659
    4FIC     N6 1080   4.939   8.013   2.903 -0.2350  0.0291  0.2042
    4FIC    C19 1081   4.976   8.134   3.221  0.1686 -0.0041  0.1705
    4FIC    C20 1082   4.986   8.013   3.281  0.1634 -0.0117  0.1561
    4FIC    C21 1083   5.004   8.003   3.429  0.3144 -0.0277  0.1366
    4FIC    C22 1084   5.011   7.859   3.461  0.2660 -0.0324  0.1244
    4FIC    C23 1085   5.027   7.799   3.586  0.3643 -0.0463  0.1051
    4FIC    C24 1086   5.030   7.661   3.590  0.2912 -0.0480  0.0966
    4FIC    C25 1087   5.017   7.585   3.473  0.1249 -0.0364  0.1072
    4FIC    C26 1088   5.000   7.643   3.349  0.0260 -0.0222  0.1264
    4FIC    C27 1089   4.997   7.783   3.342  0.0980 -0.0204  0.1352
    4FIC    C28 1090   4.981   7.875   3.226  0.0284 -0.0072  0.1551
    4FIC    C29 1091   4.966   7.839   3.095 -0.1310  0.0068  0.1699
    4FIC    C30 1092   4.963   7.703   3.051 -0.2537  0.0101  0.1677
    4FIC    C31 1093   4.951   7.935   2.990 -0.1873  0.0187  0.1886
    5FIC     F1 1094   5.840   9.128   4.606  0.1308  0.0486  0.3821
    5FIC     F2 1095   5.894   9.392   4.644  0.0093  0.0875  0.2870
    5FIC     O1 1096   5.497   9.153   4.188  0.3303 -0.2778  0.1975
    5FIC     N5 1097   5.728   9.789   4.401 -0.0229 -0.0896  0.0188
    5FIC     N6 1098   5.449   9.756   4.066  0.1575 -0.3526 -0.1063
    5FIC    C19 1099   5.427   9.415   4.076  0.2853 -0.3569  0.0411
    5FIC    C20 1100   5.511   9.398   4.179  0.2400 -0.2763  0.0913
    5FIC    C21 1101   5.542   9.260   4.231  0.2670 -0.2401  0.1707
    5FIC    C22 1102   5.636   9.278   4.344  0.2038 -0.1516  0.2098
    5FIC    C23 1103   5.693   9.179   4.423  0.2024 -0.0927  0.2845
    5FIC    C24 1104   5.780   9.220   4.524  0.1362 -0.0126  0.3089
    5FIC    C25 1105   5.807   9.356   4.543  0.0736  0.0071  0.2598
    5FIC    C26 1106   5.751   9.456   4.464  0.0749 -0.0513  0.1853
    5FIC    C27 1107   5.663   9.416   4.362  0.1414 -0.1326  0.1595
    5FIC    C28 1108   5.587   9.495   4.262  0.1611 -0.2086  0.0847
    5FIC    C29 1109   5.588   9.632   4.248  0.1148 -0.2146  0.0214
    5FIC    C30 1110   5.665   9.718   4.332  0.0392 -0.1459  0.0202
    5FIC    C31 1111   5.511   9.699   4.148  0.1385 -0.2906 -0.0485
    1BTD     S2 1112   6.233   9.244   1.761  0.0131 -0.1945 -0.0022
    1BTD     N1 1113   6.272   9.069   1.742  0.0982 -0.1655 -0.0946
    1BTD     N2 1114   6.189   9.268   1.588 -0.0993 -0.1495  0.0328
    1BTD     N3 1115   6.168   9.001   1.202 -0.1742 -0.0055 -0.0626
    1BTD     N4 1116   6.271   8.757   1.391  0.0691 -0.0253 -0.2196
    1BTD     C5 1117   6.270   8.909   1.556  0.0802 -0.0920 -0.1580
    1BTD     C6 1118   6.251   9.039   1.614  0.0415 -0.1259 -0.0945
    1BTD     C7 1119   6.204   9.150   1.528 -0.0689 -0.1168 -0.0232
    1BTD     C8 1120   6.179   9.126   1.389 -0.1355 -0.0744 -0.0189
    1BTD    C15 1121   6.199   8.996   1.337 -0.0944 -0.0423 -0.0824
    1BTD    C16 1122   6.244   8.889   1.419  0.0123 -0.0511 -0.1511
    1BTD    C43 1123   6.219   8.667   1.283  0.1461 -0.2140  0.0714
    1BTD    C44 1124   6.079   8.606   1.295  0.2019 -0.0272  0.0231
    1BTD    C45 1125   6.056   8.495   1.187  0.7062  0.0180 -0.2675
    1BTD    C46 1126   6.022   8.547   1.046  0.4781  0.2527 -0.1762
    1BTD    C47 1127   5.970   8.708   1.331 -0.3713  0.7215 -0.2688
    1BTD    C48 1128   5.833   8.664   1.394  0.1024  0.2652  0.0195
    1BTD    C49 1129   5.730   8.576   1.314  0.0313 -0.0585 -0.6071
    1BTD    C50 1130   5.689   8.634   1.180 -0.3027 -0.2070 -0.7730
    1BTD    C75 1131   6.199   8.915   1.086  0.0331 -0.2307 -0.3457
    1BTD    C76 1132   6.315   8.943   0.985  0.7232  0.1244  0.2629
    1BTD    C77 1133   6.316   8.836   0.866 -0.1649 -0.6504 -0.4758
    1BTD    C78 1134   6.351   8.696   0.892 -0.0665  0.0621 -0.1862
    1BTD    C79 1135   6.447   8.971   1.058  0.3061  0.2787  0.0920
    1BTD    C80 1136   6.554   9.033   0.970 -0.2764  0.0800 -0.1135
    1BTD    C81 1137   6.523   9.169   0.902  0.0360 -0.0387 -0.3449
    1BTD    C82 1138   6.488   9.289   0.992  1.2359  0.1064  1.0476
    2TTP     S1 1139   6.331   8.704   1.774 -0.0945  0.0138  0.1933
    2TTP     S5 1140   6.338   8.397   1.473 -0.0635  0.0553  0.1517
    2TTP     C1 1141   6.364   8.319   1.635  0.0686  0.0510  0.1288
    2TTP     C2 1142   6.364   8.409   1.738  0.0668  0.0379  0.1402
    2TTP     C3 1143   6.342   8.543   1.692 -0.0389  0.0305  0.1676
    2TTP     C4 1144   6.305   8.781   1.612 -0.2265  0.0181  0.2162
    2TTP    C17 1145   6.306   8.691   1.509 -0.2247  0.0314  0.2047
    2TTP    C18 1146   6.327   8.557   1.555 -0.1190  0.0384  0.1774
    2TTP    C32 1147   6.393   8.375   1.883 -0.2911  0.2048 -0.1760
    2TTP    C33 1148   6.521   8.437   1.952 -0.0669  0.3416  1.0469
    2TTP    C34 1149   6.656   8.400   1.882 -0.1491 -0.0263 -0.2392
    2TTP    C35 1150   6.689   8.254   1.836  0.0072  0.1076 -0.2912
    2TTP    C36 1151   6.661   8.148   1.944  0.1209  0.4315 -0.2812
    2TTP    C37 1152   6.721   8.001   1.926 -0.7018 -0.8730 -0.1476
    2TTP    C38 1153   6.678   7.889   2.015 -0.1687 -0.1934 -0.0761
    2TTP    C39 1154   6.715   7.899   2.163 -0.0416 -0.2773 -0.0106
    2TTP    C40 1155   6.689   7.778   2.242  0.5089  0.4325  0.3259
    2TTP    C41 1156   6.730   7.775   2.384 -0.2388 -0.1081 -0.9891
    2TTP    C42 1157   6.693   7.645   2.453 -0.4534 -0.2512  0.4010
    3TTP     S1 1158   6.075   9.375   1.255  0.0454 -0.0268  0.2381
    3TTP     S5 1159   5.993   9.145   0.901  0.0683  0.3424 -0.0088
    3TTP     C1 1160   5.924   9.312   0.879  0.3159  0.4530  0.0469
    3TTP     C2 1161   5.946   9.393   0.987  0.3235  0.3450  0.1265
    3TTP     C3 1162   6.017   9.326   1.091  0.1339  0.1719  0.1462
    3TTP     C4 1163   6.144   9.208   1.277 -0.2023 -0.1371  0.1823
    3TTP    C17 1164   6.123   9.127   1.169 -0.2099 -0.0292  0.1028
    3TTP    C18 1165   6.051   9.194   1.065 -0.0203  0.1440  0.0830
    3TTP    C32 1166   5.893   9.539   1.011 -0.2713 -0.6970  0.7039
    3TTP    C33 1167   6.002   9.653   0.986 -0.5407  0.3611 -0.2164
    3TTP    C34 1168   6.104   9.641   0.877  0.2994  0.2977  0.1131
    3TTP    C35 1169   6.215   9.740   0.879  0.2802 -0.7324 -0.2497
    3TTP    C36 1170   6.176   9.890   0.871  0.1807 -0.4265  0.3861
    3TTP    C37 1171   6.294   9.989   0.879 -0.5573  0.5244  0.3117
    3TTP    C38 1172   6.257  10.137   0.885  0.1831 -0.2804 -0.3586
    3TTP    C39 1173   6.362  10.210   0.961  0.0402  0.3792 -0.2994
    3TTP    C40 1174   6.330  10.353   0.989 -0.4993 -0.7786 -0.3225
    3TTP    C41 1175   6.443  10.436   1.053  0.2002 -0.3647 -0.5772
    3TTP    C42 1176   6.402  10.582   1.043  0.2553  0.4930 -0.1167
    4FIC     F1 1177   6.465   7.655   1.167 -0.3722  0.0112 -0.1378
    4FIC     F2 1178   6.403   7.502   1.383 -0.3260  0.0304 -0.1109
    4FIC     O1 1179   6.440   8.151   1.382 -0.1072  0.0179 -0.1219
    4FIC     N5 1180   6.296   7.635   1.847 -0.0708  0.0628 -0.0608
    4FIC     N6 1181   6.288   8.054   1.972  0.1270  0.0639 -0.0538
    4FIC    C19 1182   6.372   8.181   1.665  0.0310  0.0388 -0.0905
    4FIC    C20 1183   6.380   8.062   1.603 -0.0375  0.0362 -0.0956
    4FIC    C21 1184   6.416   8.055   1.457 -0.1059  0.0253 -0.1119
    4FIC    C22 1185   6.417   7.912   1.421 -0.1704  0.0253 -0.1135
    4FIC    C23 1186   6.444   7.856   1.297 -0.2457  0.0170 -0.1266
    4FIC    C24 1187   6.439   7.718   1.287 -0.2968  0.0191 -0.1253
    4FIC    C25 1188   6.407   7.639   1.398 -0.2729  0.0290 -0.1115
    4FIC    C26 1189   6.379   7.694   1.522 -0.1979  0.0373 -0.0984
    4FIC    C27 1190   6.384   7.834   1.534 -0.1453  0.0354 -0.0994
    4FIC    C28 1191   6.361   7.923   1.651 -0.0626  0.0427 -0.0879
    4FIC    C29 1192   6.327   7.884   1.778 -0.0180  0.0527 -0.0729
    4FIC    C30 1193   6.310   7.747   1.816 -0.0472  0.0582 -0.0663
    4FIC    C31 1194   6.306   7.978   1.884  0.0615  0.0589 -0.0624
    5FIC     F1 1195   5.461   8.956   0.303  0.2238  0.1338 -0.0122
    5FIC     F2 1196   5.428   9.201   0.188 -0.0333  0.2089  0.2203
    5FIC     O1 1197   5.767   9.084   0.730  0.2803  0.0148 -0.0170
    5FIC     N5 1198   5.599   9.643   0.328 -0.3625  0.2322  0.5512
    5FIC     N6 1199   5.845   9.694   0.685 -0.2664  0.1242  0.5005
    5FIC    C19 1200   5.844   9.363   0.773  0.0548  0.0445  0.2034
    5FIC    C20 1201   5.769   9.321   0.670  0.0507  0.0713  0.1955
    5FIC    C21 1202   5.733   9.176   0.655  0.1708  0.0534  0.0790
    5FIC    C22 1203   5.650   9.166   0.533  0.1322  0.0916  0.1018
    5FIC    C23 1204   5.594   9.051   0.478  0.2104  0.0916  0.0208
    5FIC    C24 1205   5.519   9.066   0.362  0.1521  0.1313  0.0631
    5FIC    C25 1206   5.503   9.192   0.303  0.0197  0.1700  0.1830
    5FIC    C26 1207   5.559   9.307   0.357 -0.0589  0.1702  0.2644
    5FIC    C27 1208   5.634   9.294   0.475 -0.0017  0.1299  0.2231
    5FIC    C28 1209   5.706   9.394   0.557 -0.0571  0.1192  0.2855
    5FIC    C29 1210   5.714   9.529   0.532 -0.1838  0.1483  0.4039
    5FIC    C30 1211   5.651   9.592   0.420 -0.2817  0.1943  0.4845
    5FIC    C31 1212   5.786   9.619   0.617 -0.2285  0.1347  0.4564
    1BTD     S2 1213   5.210   4.026   0.295  0.0274  0.0567 -0.1059
    1BTD     N1 1214   5.238   4.203   0.293 -0.4429  0.1367  0.1127
    1BTD     N2 1215   5.255   4.006   0.468  0.4580 -0.1026 -0.2341
    1BTD     N3 1216   5.398   4.286   0.816  0.4872 -0.2830 -0.1010
    1BTD     N4 1217   5.377   4.529   0.601 -0.6230  0.0119  0.3264
    1BTD     C5 1218   5.311   4.370   0.456 -0.5234  0.0679  0.2191
    1BTD     C6 1219   5.278   4.237   0.415 -0.2638  0.0452  0.0805
    1BTD     C7 1220   5.287   4.126   0.513  0.2406 -0.0888 -0.1137
    1BTD     C8 1221   5.330   4.155   0.647  0.4598 -0.1932 -0.1595
    1BTD    C15 1222   5.361   4.287   0.683  0.1917 -0.1664 -0.0191
    1BTD    C16 1223   5.352   4.394   0.589 -0.2942 -0.0372  0.1679
    1BTD    C43 1224   5.457   4.596   0.700 -0.4097 -0.7857  0.4196
    1BTD    C44 1225   5.606   4.619   0.668  0.1049 -0.7955 -0.1287
    1BTD    C45 1226   5.676   4.499   0.606  0.5182  0.4212 -0.2489
    1BTD    C46 1227   5.808   4.521   0.537 -0.2087 -0.0247  0.2784
    1BTD    C47 1228   5.689   4.675   0.785 -0.5876  0.0378 -0.9151
    1BTD    C48 1229   5.661   4.808   0.857  0.0125  0.9170  0.2335
    1BTD    C49 1230   5.638   4.932   0.769 -0.2057 -0.2527  0.3223
    1BTD    C50 1231   5.647   5.064   0.841  0.2366 -0.4020 -0.5104
    1BTD    C75 1232   5.339   4.377   0.916  0.4686 -0.2158  0.0824
    1BTD    C76 1233   5.381   4.387   1.066 -0.1046  0.6748  0.9261
    1BTD    C77 1234   5.516   4.445   1.068 -0.0245 -0.5514 -0.9671
    1BTD    C78 1235   5.594   4.450   1.203 -0.2906  0.2865  0.0276
    1BTD    C79 1236   5.285   4.474   1.150 -0.7335  0.2354  0.2695
    1BTD    C80 1237   5.141   4.435   1.159  0.2386  0.4606 -0.0303
    1BTD    C81 1238   5.095   4.293   1.183 -0.3061 -0.5816  0.5229
    1BTD    C82 1239   4.951   4.257   1.153 -0.6694 -0.9545 -0.1332
    2TTP     S1 1240   5.274   4.559   0.225  0.1026 -0.0415 -0.0444
    2TTP     S5 1241   5.393   4.888   0.475 -0.3511 -0.0236  0.1492
    2TTP     C1 1242   5.348   4.953   0.311  0.1689 -0.0612 -0.0110
    2TTP     C2 1243   5.309   4.855   0.224  0.3399 -0.0690 -0.0802
    2TTP     C3 1244   5.313   4.726   0.284  0.0658 -0.0455 -0.0092
    2TTP     C4 1245   5.319   4.494   0.389 -0.4175 -0.0039  0.1158
    2TTP    C17 1246   5.358   4.592   0.476 -0.5884  0.0038  0.1850
    2TTP    C18 1247   5.354   4.722   0.416 -0.3147 -0.0197  0.1141
    2TTP    C32 1248   5.272   4.869   0.076  0.0167  0.2317 -0.7422
    2TTP    C33 1249   5.117   4.878   0.047 -0.4957  0.0416 -0.1819
    2TTP    C34 1250   5.046   5.003   0.100  0.2151 -0.3521 -0.0483
    2TTP    C35 1251   4.906   5.026   0.053  0.6605 -0.3492 -0.2735
    2TTP    C36 1252   4.851   5.155   0.112 -0.2329  0.3399 -0.7016
    2TTP    C37 1253   4.707   5.189   0.081  0.1821 -0.1335 -0.0453
    2TTP    C38 1254   4.638   5.289   0.177  0.5715  0.7695 -0.2143
    2TTP    C39 1255   4.645   5.249   0.324 -0.0121  0.5207 -0.4383
    2TTP    C40 1256   4.561   5.326   0.427 -0.3611  0.2172 -0.6071
    2TTP    C41 1257   4.580   5.278   0.569 -0.3488  0.0655  0.7701
    2TTP    C42 1258   4.551   5.392   0.668  0.6600  0.2553 -0.3971
    3TTP     S1 1259   5.377   3.901   0.787  0.0022  0.1597 -0.1210
    3TTP     S5 1260   5.589   4.112   1.095  0.0542 -0.2186  0.1040
    3TTP     C1 1261   5.618   3.934   1.117  0.1316 -0.2414 -0.1743
    3TTP     C2 1262   5.554   3.858   1.023  0.1200 -0.1259 -0.2601
    3TTP     C3 1263   5.480   3.938   0.931  0.0497 -0.0152 -0.1093
    3TTP     C4 1264   5.348   4.079   0.765 -0.0753  0.1824  0.1572
    3TTP    C17 1265   5.412   4.155   0.859 -0.0637  0.0670  0.2431
    3TTP    C18 1266   5.486   4.075   0.952  0.0066 -0.0436  0.0922
    3TTP    C32 1267   5.539   3.705   1.029 -0.8220 -0.4369  0.0861
    3TTP    C33 1268   5.403   3.636   1.042 -0.4801 -0.2966  0.3253
    3TTP    C34 1269   5.404   3.483   1.055  0.2378 -0.8845  0.0272
    3TTP    C35 1270   5.459   3.404   0.933 -0.8659 -0.4862  0.4884
    3TTP    C36 1271   5.470   3.245   0.946 -0.2851 -0.6478 -0.3120
    3TTP    C37 1272   5.508   3.189   1.083  0.1629  0.2027  0.4213
    3TTP    C38 1273   5.512   3.038   1.077  0.3052 -0.4646  0.3646
    3TTP    C39 1274   5.537   2.991   1.217  0.1992  0.0228 -0.1733
    3TTP    C40 1275   5.544   2.836   1.228 -0.6460  0.0944 -0.0569
    3TTP    C41 1276   5.514   2.790   1.369 -0.2666  0.0948  0.0292
    3TTP    C42 1277   5.519   2.634   1.379 -0.2361  0.2265 -0.4787
    4FIC     F1 1278   5.399   5.675   0.703  0.0846  0.2315 -0.2179
    4FIC     F2 1279   5.483   5.788   0.470  0.0445  0.0867 -0.3032
    4FIC     O1 1280   5.311   5.165   0.542 -0.0014  0.1457  0.1006
    4FIC     N5 1281   5.540   5.588   0.021 -0.0747 -0.1830 -0.1989
    4FIC     N6 1282   5.454   5.167  -0.058 -0.1339 -0.2209  0.0671
    4FIC    C19 1283   5.360   5.092   0.263 -0.0704 -0.0233  0.1322
    4FIC    C20 1284   5.379   5.216   0.312 -0.0473  0.0039  0.0554
    4FIC    C21 1285   5.352   5.246   0.457 -0.0122  0.0917  0.0442
    4FIC    C22 1286   5.382   5.389   0.477  0.0063  0.1005 -0.0464
    4FIC    C23 1287   5.372   5.462   0.595  0.0397  0.1708 -0.0872
    4FIC    C24 1288   5.407   5.596   0.590  0.0519  0.1644 -0.1736
    4FIC    C25 1289   5.450   5.654   0.470  0.0311  0.0895 -0.2174
    4FIC    C26 1290   5.460   5.582   0.352 -0.0021  0.0192 -0.1772
    4FIC    C27 1291   5.425   5.446   0.355 -0.0150  0.0247 -0.0897
    4FIC    C28 1292   5.425   5.342   0.249 -0.0488 -0.0378 -0.0289
    4FIC    C29 1293   5.461   5.360   0.117 -0.0761 -0.1186 -0.0472
    4FIC    C30 1294   5.504   5.485   0.065 -0.0752 -0.1538 -0.1305
    4FIC    C31 1295   5.457   5.254   0.022 -0.1075 -0.1745  0.0158
    5FIC     F1 1296   6.144   4.197   1.697 -0.3871  0.1452  0.2569
    5FIC     F2 1297   6.197   3.937   1.758  0.2935  0.1589 -0.2459
    5FIC     O1 1298   5.789   4.138   1.293 -0.4488  0.0004  0.3325
    5FIC     N5 1299   6.019   3.521   1.558  1.2279  0.0753 -0.9150
    5FIC     N6 1300   5.731   3.527   1.230  1.0424 -0.0406 -0.7546
    5FIC    C19 1301   5.713   3.869   1.208  0.1793 -0.0380 -0.1211
    5FIC    C20 1302   5.800   3.894   1.307  0.1683 -0.0021 -0.1205
    5FIC    C21 1303   5.834   4.035   1.345 -0.1646  0.0157  0.1204
    5FIC    C22 1304   5.931   4.026   1.456 -0.0854  0.0546  0.0542
    5FIC    C23 1305   5.992   4.131   1.524 -0.3122  0.0820  0.2149
    5FIC    C24 1306   6.081   4.098   1.625 -0.1774  0.1169  0.1087
    5FIC    C25 1307   6.108   3.964   1.657  0.1734  0.1238 -0.1504
    5FIC    C26 1308   6.048   3.859   1.589  0.4009  0.0966 -0.3119
    5FIC    C27 1309   5.957   3.890   1.486  0.2693  0.0611 -0.2079
    5FIC    C28 1310   5.878   3.804   1.396  0.4392  0.0266 -0.3255
    5FIC    C29 1311   5.876   3.666   1.395  0.7820  0.0221 -0.5764
    5FIC    C30 1312   5.955   3.587   1.484  1.0258  0.0514 -0.7617
    5FIC    C31 1313   5.796   3.591   1.304  0.9232 -0.0124 -0.6730
    1BTD     S2 1314   6.377   4.030   2.700  0.0749  0.0210 -0.1390
    1BTD     N1 1315   6.362   4.209   2.691  0.3999  0.0432 -0.2824
    1BTD     N2 1316   6.314   4.001   2.534 -0.4168 -0.0316  0.0525
    1BTD     N3 1317   6.158   4.266   2.179 -0.8327 -0.0991  0.1837
    1BTD     N4 1318   6.217   4.521   2.372  0.1733 -0.0070 -0.2289
    1BTD     C5 1319   6.285   4.369   2.522  0.2694  0.0157 -0.2495
    1BTD     C6 1320   6.313   4.236   2.571  0.1383  0.0117 -0.1852
    1BTD     C7 1321   6.287   4.120   2.483 -0.3185 -0.0302  0.0022
    1BTD     C8 1322   6.234   4.142   2.351 -0.6219 -0.0658  0.1161
    1BTD    C15 1323   6.208   4.274   2.308 -0.4788 -0.0602  0.0473
    1BTD    C16 1324   6.234   4.386   2.392 -0.0386 -0.0200 -0.1333
    1BTD    C43 1325   6.129   4.592   2.281 -0.0088 -0.3212  0.0366
    1BTD    C44 1326   5.975   4.592   2.293  0.0106 -0.4941  0.0142
    1BTD    C45 1327   5.901   4.678   2.183  0.3714 -0.6145  0.2097
    1BTD    C46 1328   5.757   4.631   2.153 -0.1589 -0.4755 -0.0915
    1BTD    C47 1329   5.919   4.613   2.431  0.3693  0.1867 -0.4374
    1BTD    C48 1330   5.915   4.750   2.495 -0.2657 -0.0801  0.6696
    1BTD    C49 1331   5.853   4.739   2.630 -0.2105 -0.3620 -0.2751
    1BTD    C50 1332   5.844   4.872   2.709  0.5275  0.4761 -0.9782
    1BTD    C75 1333   6.206   4.352   2.068 -0.3333  0.5771  0.8006
    1BTD    C76 1334   6.142   4.375   1.922 -0.2718 -0.1530 -0.3476
    1BTD    C77 1335   6.004   4.439   1.945 -0.1919  1.0418  0.4613
    1BTD    C78 1336   5.894   4.424   1.837 -0.1124 -0.3309  0.0163
    1BTD    C79 1337   6.232   4.461   1.827 -0.2139 -0.1635  0.5422
    1BTD    C80 1338   6.385   4.429   1.823 -0.1063  0.1681  0.3950
    1BTD    C81 1339   6.426   4.284   1.810 -0.5445  0.3571 -0.0434
    1BTD    C82 1340   6.570   4.255   1.831 -0.8266  0.0145 -0.1566
    2TTP     S1 1341   6.368   4.569   2.728  0.1948  0.2756  0.0229
    2TTP     S5 1342   6.232   4.883   2.468 -0.5063  0.3105  0.4278
    2TTP     C1 1343   6.295   4.958   2.621 -0.2248  0.2815  0.3272
    2TTP     C2 1344   6.341   4.866   2.711  0.0085  0.2692  0.1962
    2TTP     C3 1345   6.328   4.732   2.661 -0.0269  0.2819  0.1706
    2TTP     C4 1346   6.305   4.494   2.575 -0.0867  0.3047  0.1235
    2TTP    C17 1347   6.259   4.587   2.486 -0.3199  0.3171  0.2545
    2TTP    C18 1348   6.272   4.720   2.535 -0.2844  0.3042  0.2801
    2TTP    C32 1349   6.388   4.896   2.857 -0.0594 -1.1811 -0.3339
    2TTP    C33 1350   6.535   4.898   2.896 -0.1727 -0.2571 -0.2642
    2TTP    C34 1351   6.637   4.987   2.822  0.5960  0.0137 -0.3254
    2TTP    C35 1352   6.631   5.136   2.824 -0.5820 -0.4659 -1.3467
    2TTP    C36 1353   6.663   5.195   2.965  0.3041 -0.2352 -0.7198
    2TTP    C37 1354   6.652   5.346   2.977 -0.3282 -0.8940  0.6073
    2TTP    C38 1355   6.680   5.405   3.106 -0.1687 -0.3320 -1.3066
    2TTP    C39 1356   6.572   5.392   3.208 -0.1895 -1.2205  0.2267
    2TTP    C40 1357   6.598   5.498   3.312 -0.2632 -0.3309 -0.0876
    2TTP    C41 1358   6.525   5.475   3.452 -0.7097 -0.3528  0.1777
    2TTP    C42 1359   6.566   5.584   3.552 -0.3051  0.1493 -0.2372
    3TTP     S1 1360   6.131   3.885   2.242 -0.2094 -0.2428  0.0340
    3TTP     S5 1361   5.942   4.108   1.926  0.1594  0.0471  0.0158
    3TTP     C1 1362   5.883   3.936   1.919 -0.0797  0.1292 -0.0086
    3TTP     C2 1363   5.938   3.857   2.016 -0.2078  0.0446 -0.0044
    3TTP     C3 1364   6.029   3.930   2.100 -0.1216 -0.0883  0.0182
    3TTP     C4 1365   6.190   4.057   2.249  0.0296 -0.3250  0.0584
    3TTP    C17 1366   6.136   4.136   2.152  0.1576 -0.2404  0.0541
    3TTP    C18 1367   6.045   4.064   2.068  0.0715 -0.1076  0.0316
    3TTP    C32 1368   5.914   3.710   2.045 -0.7152 -0.3748 -0.3282
    3TTP    C33 1369   6.011   3.613   1.971 -0.4430  0.3675  0.4328
    3TTP    C34 1370   5.991   3.462   1.989  0.5025  0.5820  0.1474
    3TTP    C35 1371   6.108   3.371   1.967  0.0259  0.4868  0.3558
    3TTP    C36 1372   6.091   3.226   2.015  0.4573  0.0124  0.3735
    3TTP    C37 1373   6.206   3.129   1.991  0.3274 -0.4247  0.2897
    3TTP    C38 1374   6.184   2.980   2.047  0.2162 -0.3959 -0.5921
    3TTP    C39 1375   6.192   2.968   2.201  0.1460 -0.0930 -0.3517
    3TTP    C40 1376   6.304   3.050   2.276  0.2875 -0.4011  0.1764
    3TTP    C41 1377   6.291   3.059   2.429  0.5250  0.1227 -0.0344
    3TTP    C42 1378   6.411   3.127   2.488  0.6004 -0.4060 -0.4677
    4FIC     F1 1379   6.164   5.655   2.203 -0.0067  0.1138  0.0515
    4FIC     F2 1380   6.117   5.778   2.441 -0.2133 -0.0046  0.0723
    4FIC     O1 1381   6.295   5.157   2.371  0.0108  0.0762 -0.0745
    4FIC     N5 1382   6.142   5.601   2.903 -0.4979 -0.2016  0.0125
    4FIC     N6 1383   6.254   5.187   2.985 -0.4425 -0.2072 -0.0902
    4FIC    C19 1384   6.297   5.098   2.657 -0.1804 -0.0504 -0.0994
    4FIC    C20 1385   6.265   5.218   2.606 -0.1765 -0.0362 -0.0685
    4FIC    C21 1386   6.267   5.241   2.457 -0.0756  0.0300 -0.0575
    4FIC    C22 1387   6.229   5.382   2.436 -0.0991  0.0287 -0.0228
    4FIC    C23 1388   6.216   5.449   2.315 -0.0300  0.0789 -0.0021
    4FIC    C24 1389   6.178   5.582   2.320 -0.0706  0.0666  0.0298
    4FIC    C25 1390   6.154   5.646   2.442 -0.1771  0.0053  0.0404
    4FIC    C26 1391   6.166   5.579   2.564 -0.2465 -0.0449  0.0199
    4FIC    C27 1392   6.204   5.444   2.561 -0.2068 -0.0330 -0.0125
    4FIC    C28 1393   6.226   5.346   2.670 -0.2587 -0.0756 -0.0401
    4FIC    C29 1394   6.212   5.370   2.805 -0.3630 -0.1389 -0.0395
    4FIC    C30 1395   6.174   5.497   2.858 -0.4367 -0.1731 -0.0110
    4FIC    C31 1396   6.235   5.269   2.903 -0.4061 -0.1762 -0.0674
    5FIC     F1 1397   5.378   4.279   1.361  0.1085 -0.0404  0.0571
    5FIC     F2 1398   5.310   4.029   1.278 -0.0107 -0.0595  0.2112
    5FIC     O1 1399   5.723   4.164   1.761  0.3011  0.0453 -0.0840
    5FIC     N5 1400   5.458   3.587   1.444 -0.0451 -0.0259  0.3321
    5FIC     N6 1401   5.742   3.547   1.773  0.1297  0.0449  0.1907
    5FIC    C19 1402   5.781   3.884   1.824  0.2555  0.0575  0.0130
    5FIC    C20 1403   5.697   3.922   1.726  0.2118  0.0365  0.0426
    5FIC    C21 1404   5.672   4.068   1.700  0.2391  0.0317 -0.0111
    5FIC    C22 1405   5.576   4.075   1.588  0.1781  0.0076  0.0398
    5FIC    C23 1406   5.523   4.189   1.529  0.1775 -0.0049  0.0168
    5FIC    C24 1407   5.434   4.171   1.424  0.1132 -0.0274  0.0757
    5FIC    C25 1408   5.399   4.042   1.382  0.0517 -0.0370  0.1551
    5FIC    C26 1409   5.451   3.927   1.441  0.0520 -0.0249  0.1784
    5FIC    C27 1410   5.542   3.944   1.547  0.1167 -0.0020  0.1196
    5FIC    C28 1411   5.615   3.845   1.630  0.1349  0.0154  0.1245
    5FIC    C29 1412   5.607   3.708   1.619  0.0893  0.0125  0.1920
    5FIC    C30 1413   5.525   3.642   1.523  0.0155 -0.0086  0.2688
    5FIC    C31 1414   5.681   3.621   1.704  0.1116  0.0303  0.1909
    1BTD     S2 1415   0.793   6.472   3.590 -0.1231 -0.0677  0.0806
    1BTD     N1 1416   0.765   6.294   3.591 -0.1881 -0.0569  0.1810
    1BTD     N2 1417   0.729   6.495   3.423 -0.0509 -0.1484  0.0415
    1BTD     N3 1418   0.548   6.222   3.087 -0.0211 -0.2931  0.1428
    1BTD     N4 1419   0.593   5.974   3.294 -0.1901 -0.1801  0.3147
    1BTD     C5 1420   0.674   6.130   3.433 -0.1871 -0.1225  0.2487
    1BTD     C6 1421   0.712   6.263   3.474 -0.1544 -0.1111  0.1801
    1BTD     C7 1422   0.692   6.376   3.380 -0.0776 -0.1624  0.1020
    1BTD     C8 1423   0.635   6.350   3.250 -0.0374 -0.2226  0.0965
    1BTD    C15 1424   0.600   6.218   3.215 -0.0717 -0.2318  0.1652
    1BTD    C16 1425   0.619   6.109   3.306 -0.1457 -0.1822  0.2404
    1BTD    C43 1426   0.497   5.901   3.202  0.0736  0.2453 -0.1290
    1BTD    C44 1427   0.348   5.876   3.239  0.7665  0.3262 -0.4404
    1BTD    C45 1428   0.275   5.987   3.306  0.3001  0.3286 -0.1430
    1BTD    C46 1429   0.138   5.950   3.367 -0.8906  0.0636  0.1022
    1BTD    C47 1430   0.270   5.819   3.115  0.3890  0.2425 -0.1384
    1BTD    C48 1431   0.236   5.918   3.004 -0.2741  0.0616  0.4539
    1BTD    C49 1432   0.148   5.864   2.893  0.1191 -0.2182 -0.0320
    1BTD    C50 1433   0.128   5.972   2.789 -0.3030 -0.0828 -0.0944
    1BTD    C75 1434   0.540   6.121   2.982 -0.1327 -0.3690 -0.2599
    1BTD    C76 1435   0.661   6.094   2.895 -0.3629  0.2279  0.4670
    1BTD    C77 1436   0.661   5.959   2.819 -0.0011  0.4854 -0.0810
    1BTD    C78 1437   0.570   5.938   2.704 -0.6950  0.3096  0.2316
    1BTD    C79 1438   0.729   6.215   2.820 -0.3615 -0.0015 -0.0797
    1BTD    C80 1439   0.849   6.206   2.728  0.6857 -0.1931 -0.0549
    1BTD    C81 1440   0.894   6.346   2.687 -0.0015  0.2874  0.1075
    1BTD    C82 1441   1.000   6.323   2.594 -0.1503 -0.2101 -0.6121
    2TTP     S1 1442   0.694   5.921   3.665 -0.1085 -0.1982 -0.0821
    2TTP     S5 1443   0.554   5.618   3.394 -0.2620  0.0000 -0.2245
    2TTP     C1 1444   0.580   5.542   3.557 -0.4316 -0.0607 -0.2257
    2TTP     C2 1445   0.625   5.631   3.650 -0.3942 -0.1255 -0.1817
    2TTP     C3 1446   0.640   5.763   3.597 -0.2303 -0.1295 -0.1456
    2TTP     C4 1447   0.668   5.997   3.502  0.0611 -0.1376 -0.0808
    2TTP    C17 1448   0.624   5.908   3.409  0.0237 -0.0727 -0.1249
    2TTP    C18 1449   0.608   5.777   3.462 -0.1403 -0.0687 -0.1610
    2TTP    C32 1450   0.643   5.625   3.804  0.4606  0.1094  0.0870
    2TTP    C33 1451   0.773   5.567   3.862  0.1349  0.5397  0.3660
    2TTP    C34 1452   0.903   5.637   3.810  0.2773 -0.0809 -0.5597
    2TTP    C35 1453   1.024   5.551   3.844  0.1732 -0.3551  0.4299
    2TTP    C36 1454   1.147   5.603   3.767 -0.0103 -0.7917  0.7115
    2TTP    C37 1455   1.270   5.506   3.779 -0.2376  0.0355  0.5422
    2TTP    C38 1456   1.348   5.479   3.649  0.6463  0.4933 -0.6314
    2TTP    C39 1457   1.300   5.375   3.546 -0.0935  0.4967 -0.1963
    2TTP    C40 1458   1.257   5.230   3.592 -0.3549  0.2021  0.0232
    2TTP    C41 1459   1.236   5.124   3.473  0.4437 -0.5133  0.5359
    2TTP    C42 1460   1.245   4.977   3.500  0.6229 -0.1035 -0.5479
    3TTP     S1 1461   0.579   6.611   3.106 -0.1227  0.0272 -0.4349
    3TTP     S5 1462   0.346   6.392   2.818 -0.2302 -0.0844 -0.2636
    3TTP     C1 1463   0.325   6.570   2.786 -0.1220 -0.0988 -0.4195
    3TTP     C2 1464   0.395   6.648   2.873 -0.0824 -0.0651 -0.4817
    3TTP     C3 1465   0.469   6.570   2.968 -0.1361 -0.0268 -0.4084
    3TTP     C4 1466   0.600   6.433   3.137 -0.2309  0.0416 -0.2790
    3TTP    C17 1467   0.529   6.355   3.050 -0.2705  0.0080 -0.2169
    3TTP    C18 1468   0.456   6.433   2.955 -0.2168 -0.0305 -0.2902
    3TTP    C32 1469   0.411   6.806   2.873 -0.0425  0.3000 -0.2287
    3TTP    C33 1470   0.547   6.877   2.863  0.0915 -0.3902 -0.6563
    3TTP    C34 1471   0.554   7.031   2.868  0.2367 -0.0826 -0.2549
    3TTP    C35 1472   0.500   7.090   2.998  0.9574  0.1589  0.2534
    3TTP    C36 1473   0.487   7.247   2.997  0.1833  0.1556  0.6902
    3TTP    C37 1474   0.394   7.304   3.105  0.0992  0.5909  0.1334
    3TTP    C38 1475   0.269   7.223   3.147  0.3308 -0.0686 -0.6351
    3TTP    C39 1476   0.207   7.272   3.271 -0.2419 -0.3937 -0.8191
    3TTP    C40 1477   0.089   7.186   3.330 -0.1248 -0.8829 -0.1953
    3TTP    C41 1478   0.027   7.251   3.461 -0.3760 -0.0224  0.7495
    3TTP    C42 1479  -0.080   7.162   3.523 -0.2632  0.2979 -0.2357
    4FIC     F1 1480   0.394   4.867   3.138  0.6136 -0.0154 -0.0675
    4FIC     F2 1481   0.338   4.742   3.373 -0.2040  0.1240 -0.1820
    4FIC     O1 1482   0.552   5.354   3.315  0.8477 -0.1998  0.2323
    4FIC     N5 1483   0.370   4.910   3.837 -1.2126  0.1931 -0.1329
    4FIC     N6 1484   0.504   5.315   3.928 -0.8649  0.0210  0.1245
    4FIC    C19 1485   0.554   5.408   3.602  0.1497 -0.1319  0.2294
    4FIC    C20 1486   0.517   5.290   3.549  0.1227 -0.0910  0.1584
    4FIC    C21 1487   0.518   5.270   3.400  0.4954 -0.1301  0.1650
    4FIC    C22 1488   0.472   5.132   3.376  0.3588 -0.0691  0.0767
    4FIC    C23 1489   0.456   5.068   3.253  0.5955 -0.0774  0.0503
    4FIC    C24 1490   0.411   4.937   3.255  0.3980 -0.0115 -0.0371
    4FIC    C25 1491   0.382   4.873   3.377 -0.0232  0.0603 -0.0959
    4FIC    C26 1492   0.397   4.936   3.499 -0.2613  0.0690 -0.0702
    4FIC    C27 1493   0.443   5.069   3.499 -0.0667  0.0029  0.0181
    4FIC    C28 1494   0.470   5.163   3.610 -0.2286 -0.0077  0.0660
    4FIC    C29 1495   0.453   5.138   3.744 -0.6277  0.0488  0.0314
    4FIC    C30 1496   0.407   5.013   3.795 -0.9479  0.1280 -0.0588
    4FIC    C31 1497   0.482   5.236   3.845 -0.7559  0.0333  0.0828
    5FIC     F1 1498  -0.203   6.311   2.214  0.2792  0.2925 -0.4908
    5FIC     F2 1499  -0.264   6.571   2.160 -0.2373  0.3016  0.1207
    5FIC     O1 1500   0.164   6.373   2.608  0.4834  0.1042 -0.6510
    5FIC     N5 1501  -0.092   6.988   2.363 -0.8343  0.1801  0.8857
    5FIC     N6 1502   0.207   6.983   2.682 -0.5706  0.0311  0.6373
    5FIC    C19 1503   0.235   6.642   2.696  0.0625  0.0460 -0.1237
    5FIC    C20 1504   0.145   6.617   2.599  0.0313  0.0929 -0.1072
    5FIC    C21 1505   0.114   6.475   2.559  0.2571  0.1204 -0.3886
    5FIC    C22 1506   0.013   6.484   2.452  0.1562  0.1702 -0.2902
    5FIC    C23 1507  -0.047   6.378   2.383  0.2933  0.2089 -0.4706
    5FIC    C24 1508  -0.140   6.410   2.286  0.1558  0.2526 -0.3262
    5FIC    C25 1509  -0.171   6.544   2.258 -0.1103  0.2572 -0.0111
    5FIC    C26 1510  -0.112   6.650   2.326 -0.2483  0.2186  0.1702
    5FIC    C27 1511  -0.018   6.619   2.426 -0.1124  0.1740  0.0281
    5FIC    C28 1512   0.062   6.706   2.515 -0.1998  0.1268  0.1531
    5FIC    C29 1513   0.060   6.844   2.519 -0.4474  0.1165  0.4528
    5FIC    C30 1514  -0.024   6.922   2.433 -0.6593  0.1515  0.6898
    5FIC    C31 1515   0.141   6.920   2.609 -0.5137  0.0696  0.5525
    1BTD     S2 1516   5.975   6.446   1.168 -0.0665 -0.2798  0.2133
    1BTD     N1 1517   5.983   6.267   1.181 -0.3605 -0.2847  0.3449
    1BTD     N2 1518   6.031   6.475   1.336  0.3053 -0.2379  0.0854
    1BTD     N3 1519   6.158   6.211   1.703  0.5322 -0.1605  0.0627
    1BTD     N4 1520   6.099   5.954   1.511 -0.2884 -0.2180  0.3824
    1BTD     C5 1521   6.044   6.107   1.355 -0.3130 -0.2494  0.3607
    1BTD     C6 1522   6.025   6.239   1.303 -0.1760 -0.2561  0.2896
    1BTD     C7 1523   6.051   6.356   1.391  0.1967 -0.2300  0.1445
    1BTD     C8 1524   6.096   6.334   1.525  0.4139 -0.1981  0.0774
    1BTD    C15 1525   6.115   6.202   1.572  0.2685 -0.1925  0.1510
    1BTD    C16 1526   6.089   6.090   1.488 -0.0908 -0.2178  0.2909
    1BTD    C43 1527   6.170   5.877   1.618 -0.2517  0.2321  0.1245
    1BTD    C44 1528   6.321   5.876   1.608  0.2548  0.1536  0.1147
    1BTD    C45 1529   6.385   5.795   1.726  0.8275  0.4022 -0.2302
    1BTD    C46 1530   6.528   5.823   1.753 -0.5736 -0.0466 -0.0841
    1BTD    C47 1531   6.390   5.854   1.464  0.6933 -0.1366 -0.3748
    1BTD    C48 1532   6.391   5.714   1.397 -0.3488 -0.8423 -0.2560
    1BTD    C49 1533   6.442   5.724   1.246  0.7719 -0.0041 -0.7090
    1BTD    C50 1534   6.431   5.577   1.199 -0.3891  0.0004 -0.2765
    1BTD    C75 1535   6.144   6.116   1.821  0.1392  0.6611 -0.2647
    1BTD    C76 1536   6.002   6.103   1.894 -0.6792  0.9151 -0.1259
    1BTD    C77 1537   6.002   5.971   1.976  0.0131 -0.3639  0.6779
    1BTD    C78 1538   6.086   5.980   2.109  0.2398 -0.1364 -0.3634
    1BTD    C79 1539   5.964   6.234   1.963 -0.1655  0.6421 -0.1269
    1BTD    C80 1540   5.827   6.222   2.031  0.1011 -0.3540 -0.1179
    1BTD    C81 1541   5.779   6.349   2.111  0.2412  0.6151 -0.0116
    1BTD    C82 1542   5.841   6.373   2.248 -0.4650 -0.9463 -0.0228
    2TTP     S1 1543   5.978   5.895   1.144 -0.0258 -0.0533 -0.0896
    2TTP     S5 1544   6.016   5.593   1.447 -0.0042  0.1256  0.0862
    2TTP     C1 1545   5.964   5.513   1.293  0.0949  0.0187  0.1077
    2TTP     C2 1546   5.949   5.602   1.190  0.0941 -0.0430  0.0547
    2TTP     C3 1547   5.978   5.736   1.229  0.0151 -0.0077 -0.0049
    2TTP     C4 1548   6.031   5.975   1.299 -0.1248  0.0536 -0.1110
    2TTP    C17 1549   6.045   5.886   1.401 -0.1239  0.1153 -0.0580
    2TTP    C18 1550   6.016   5.752   1.362 -0.0451  0.0801  0.0015
    2TTP    C32 1551   5.903   5.575   1.048  0.4449  0.0919 -0.5736
    2TTP    C33 1552   5.802   5.675   0.989  0.0997 -0.1159 -0.1411
    2TTP    C34 1553   5.751   5.636   0.852  0.3890  0.7704  0.4476
    2TTP    C35 1554   5.832   5.659   0.717 -0.1803  0.4070  0.0542
    2TTP    C36 1555   5.789   5.569   0.595 -0.9061 -0.6737 -0.1597
    2TTP    C37 1556   5.819   5.423   0.600 -0.2882  0.0167 -0.0099
    2TTP    C38 1557   5.796   5.338   0.473  0.5767  0.4567 -0.5083
    2TTP    C39 1558   5.783   5.190   0.511  0.8162 -0.6647 -0.5252
    2TTP    C40 1559   5.767   5.099   0.390  0.0711  0.3016  0.0059
    2TTP    C41 1560   5.761   4.953   0.419 -0.0906  0.1643  0.9255
    2TTP    C42 1561   5.729   4.886   0.288  0.0698  0.1627  0.7004
    3TTP     S1 1562   6.207   6.588   1.626 -0.3619 -0.3651  0.0959
    3TTP     S5 1563   6.376   6.379   1.962  0.4392 -0.3781 -0.3105
    3TTP     C1 1564   6.445   6.547   1.958  0.2283 -0.2905 -0.3160
    3TTP     C2 1565   6.397   6.622   1.854 -0.0316 -0.2815 -0.1909
    3TTP     C3 1566   6.304   6.549   1.774 -0.0733 -0.3431 -0.0861
    3TTP     C4 1567   6.137   6.420   1.631 -0.1508 -0.4525  0.1014
    3TTP    C17 1568   6.185   6.346   1.735  0.1091 -0.4617 -0.0237
    3TTP    C18 1569   6.279   6.419   1.814  0.1508 -0.4001 -0.1285
    3TTP    C32 1570   6.433   6.766   1.819 -0.2105 -0.5601 -0.4267
    3TTP    C33 1571   6.324   6.873   1.823 -0.2021 -0.3442  0.0273
    3TTP    C34 1572   6.265   6.898   1.966 -0.1532 -0.2493  0.3054
    3TTP    C35 1573   6.179   7.032   1.975 -0.2028 -0.5291 -0.0991
    3TTP    C36 1574   6.258   7.157   1.936 -0.2089  0.4954 -0.3580
    3TTP    C37 1575   6.167   7.278   1.913  0.5894 -0.6807 -0.2429
    3TTP    C38 1576   6.055   7.268   1.807  0.1959  0.7034 -0.2172
    3TTP    C39 1577   6.096   7.281   1.656  0.4838  0.2449 -0.0392
    3TTP    C40 1578   5.980   7.241   1.568  0.0303 -0.4985 -0.7184
    3TTP    C41 1579   6.006   7.265   1.416 -0.0402 -0.3777  0.2089
    3TTP    C42 1580   6.036   7.416   1.377  0.1692  0.5626 -0.3427
    4FIC     F1 1581   5.968   4.843   1.773 -0.4147  0.0455  0.0808
    4FIC     F2 1582   5.948   4.689   1.549  0.3303  0.0427  0.0129
    4FIC     O1 1583   5.968   5.339   1.557 -0.5307  0.0693  0.1353
    4FIC     N5 1584   5.920   4.823   1.073  1.3186  0.0554 -0.0459
    4FIC     N6 1585   5.924   5.242   0.950  1.0775  0.0746  0.0104
    4FIC    C19 1586   5.949   5.369   1.267  0.1397  0.0750  0.0898
    4FIC    C20 1587   5.950   5.250   1.330  0.1397  0.0691  0.0787
    4FIC    C21 1588   5.960   5.243   1.480 -0.2162  0.0665  0.1037
    4FIC    C22 1589   5.958   5.100   1.515 -0.1171  0.0600  0.0833
    4FIC    C23 1590   5.965   5.044   1.642 -0.3543  0.0558  0.0951
    4FIC    C24 1591   5.961   4.905   1.650 -0.1961  0.0500  0.0709
    4FIC    C25 1592   5.951   4.826   1.535  0.1878  0.0485  0.0359
    4FIC    C26 1593   5.944   4.882   1.408  0.4262  0.0528  0.0239
    4FIC    C27 1594   5.948   5.022   1.397  0.2711  0.0587  0.0481
    4FIC    C28 1595   5.942   5.111   1.279  0.4442  0.0643  0.0439
    4FIC    C29 1596   5.932   5.072   1.147  0.8156  0.0647  0.0135
    4FIC    C30 1597   5.926   4.935   1.107  1.0909  0.0596 -0.0190
    4FIC    C31 1598   5.928   5.166   1.039  0.9577  0.0702  0.0120
    5FIC     F1 1599   6.933   6.237   2.541  0.0272 -0.1793 -0.0654
    5FIC     F2 1600   6.998   6.492   2.612 -0.2824 -0.1774  0.2155
    5FIC     O1 1601   6.599   6.329   2.125  0.4017 -0.1438 -0.3592
    5FIC     N5 1602   6.853   6.923   2.417 -0.4606 -0.1495  0.4098
    5FIC     N6 1603   6.579   6.943   2.078 -0.1056 -0.1222  0.1236
    5FIC    C19 1604   6.543   6.605   2.045  0.2389 -0.1294 -0.1952
    5FIC    C20 1605   6.624   6.572   2.147  0.1568 -0.1383 -0.1323
    5FIC    C21 1606   6.648   6.428   2.182  0.2492 -0.1453 -0.2239
    5FIC    C22 1607   6.741   6.427   2.296  0.1233 -0.1543 -0.1217
    5FIC    C23 1608   6.793   6.317   2.364  0.1493 -0.1630 -0.1555
    5FIC    C24 1609   6.879   6.342   2.470  0.0105 -0.1706 -0.0397
    5FIC    C25 1610   6.912   6.473   2.506 -0.1489 -0.1696  0.1047
    5FIC    C26 1611   6.861   6.584   2.439 -0.1758 -0.1612  0.1393
    5FIC    C27 1612   6.774   6.561   2.332 -0.0368 -0.1534  0.0237
    5FIC    C28 1613   6.703   6.655   2.241 -0.0225 -0.1434  0.0229
    5FIC    C29 1614   6.710   6.792   2.244 -0.1510 -0.1397  0.1431
    5FIC    C30 1615   6.789   6.864   2.339 -0.3208 -0.1452  0.2893
    5FIC    C31 1616   6.638   6.874   2.153 -0.1253 -0.1301  0.1317
    1BTD     S2 1617   0.863   6.721   2.631  0.1046 -0.1250 -0.0304
    1BTD     N1 1618   0.846   6.900   2.619 -0.2847 -0.1348  0.2958
    1BTD     N2 1619   0.812   6.690   2.462  0.4649  0.0901 -0.1807
    1BTD     N3 1620   0.678   6.949   2.094  0.4963  0.5100  0.1023
    1BTD     N4 1621   0.721   7.208   2.287 -0.4273  0.2329  0.6895
    1BTD     C5 1622   0.780   7.058   2.444 -0.3480  0.0604  0.4943
    1BTD     C6 1623   0.806   6.926   2.495 -0.1338  0.0148  0.2769
    1BTD     C7 1624   0.786   6.809   2.407  0.2858  0.1407  0.0102
    1BTD     C8 1625   0.742   6.829   2.272  0.4701  0.3060 -0.0259
    1BTD    C15 1626   0.719   6.959   2.225  0.2489  0.3452  0.1926
    1BTD    C16 1627   0.737   7.073   2.310 -0.1553  0.2236  0.4497
    1BTD    C43 1628   0.630   7.276   2.193  0.4198 -0.6246 -0.8244
    1BTD    C44 1629   0.485   7.323   2.231  0.0897 -0.0997 -0.4410
    1BTD    C45 1630   0.407   7.218   2.308  1.1751  0.4835  0.0710
    1BTD    C46 1631   0.271   7.258   2.374 -0.9674 -0.1026  0.4156
    1BTD    C47 1632   0.414   7.400   2.122  0.0508 -0.4030  0.4573
    1BTD    C48 1633   0.382   7.323   1.989 -0.5261 -0.4602  0.3987
    1BTD    C49 1634   0.293   7.401   1.892  0.1028 -0.0339 -0.5384
    1BTD    C50 1635   0.284   7.337   1.754  0.2379  0.3683 -0.6840
    1BTD    C75 1636   0.665   7.047   1.986  0.2177  0.2299  0.1242
    1BTD    C76 1637   0.799   7.088   1.922 -0.1406 -0.4059 -0.0048
    1BTD    C77 1638   0.774   7.208   1.838  0.6737 -0.6951  0.0933
    1BTD    C78 1639   0.713   7.202   1.698  0.0613  0.2137 -0.0820
    1BTD    C79 1640   0.876   6.973   1.854 -1.0539  0.4756  0.2271
    1BTD    C80 1641   1.024   6.993   1.809  0.3035  0.5014  0.3655
    1BTD    C81 1642   1.068   6.873   1.722  0.2358  0.6788 -0.3463
    1BTD    C82 1643   1.199   6.913   1.641 -0.3766  0.0820 -0.2808
    2TTP     S1 1644   0.802   7.268   2.666 -0.2921  0.0261 -0.0188
    2TTP     S5 1645   0.700   7.572   2.380  0.0785  0.0489 -0.1271
    2TTP     C1 1646   0.724   7.651   2.542 -0.2606  0.0188 -0.0615
    2TTP     C2 1647   0.757   7.562   2.640 -0.3950  0.0099 -0.0241
    2TTP     C3 1648   0.764   7.428   2.591 -0.2350  0.0267 -0.0461
    2TTP     C4 1649   0.778   7.189   2.504  0.0470  0.0564 -0.0845
    2TTP    C17 1650   0.745   7.279   2.406  0.1814  0.0651 -0.1218
    2TTP    C18 1651   0.738   7.413   2.456  0.0215  0.0484 -0.0999
    2TTP    C32 1652   0.784   7.587   2.790 -0.0552  0.3812 -0.4603
    2TTP    C33 1653   0.925   7.555   2.842 -0.7627  0.3486 -0.2326
    2TTP    C34 1654   1.032   7.650   2.778 -0.3285  0.5347 -0.1315
    2TTP    C35 1655   1.178   7.618   2.797 -0.1380  0.3566 -0.0118
    2TTP    C36 1656   1.265   7.715   2.715  0.2933 -0.0388  0.0305
    2TTP    C37 1657   1.408   7.726   2.749 -0.3168 -0.6485 -0.4432
    2TTP    C38 1658   1.498   7.798   2.643  0.0366 -0.4092  0.4599
    2TTP    C39 1659   1.443   7.936   2.593  0.4521  0.6456  0.8373
    2TTP    C40 1660   1.542   8.010   2.506  0.1432 -0.2809 -0.4021
    2TTP    C41 1661   1.484   8.134   2.446  0.4000 -0.3673  0.5195
    2TTP    C42 1662   1.585   8.210   2.359  0.3449 -0.6074  0.1521
    3TTP     S1 1663   0.677   6.560   2.138  0.0832  0.1851  0.0129
    3TTP     S5 1664   0.511   6.775   1.805 -0.1155 -0.0224 -0.0230
    3TTP     C1 1665   0.477   6.598   1.782  0.0371 -0.0570  0.0125
    3TTP     C2 1666   0.526   6.521   1.884  0.1075  0.0051  0.0257
    3TTP     C3 1667   0.593   6.599   1.983  0.0434  0.0823  0.0083
    3TTP     C4 1668   0.711   6.737   2.161 -0.0694  0.2197 -0.0226
    3TTP    C17 1669   0.662   6.814   2.059 -0.1398  0.1575 -0.0358
    3TTP    C18 1670   0.596   6.736   1.960 -0.0757  0.0806 -0.0183
    3TTP    C32 1671   0.502   6.367   1.917  0.4202  0.1368  0.5550
    3TTP    C33 1672   0.616   6.283   1.870 -1.2968  0.1940  0.0892
    3TTP    C34 1673   0.600   6.136   1.897 -0.0957  0.3345 -0.1832
    3TTP    C35 1674   0.613   6.089   2.041 -0.4113  0.0791  0.4419
    3TTP    C36 1675   0.588   5.940   2.056 -0.2216 -0.4023 -0.0307
    3TTP    C37 1676   0.445   5.885   2.028 -0.6494 -0.2905  0.8241
    3TTP    C38 1677   0.337   5.951   2.108 -0.0569  0.4315 -0.1450
    3TTP    C39 1678   0.198   5.886   2.099  0.3106 -0.1995 -0.5923
    3TTP    C40 1679   0.094   5.952   2.197 -0.8564 -0.7668 -0.2127
    3TTP    C41 1680   0.121   5.956   2.351  0.1376 -0.1302  0.3713
    3TTP    C42 1681   0.010   6.037   2.415  0.7781 -0.0923 -0.4595
    4FIC     F1 1682   0.661   8.343   2.112  0.0186  0.0372 -0.1197
    4FIC     F2 1683   0.620   8.478   2.345 -0.3001 -0.0925 -0.1000
    4FIC     O1 1684   0.726   7.838   2.298  0.4087  0.0355 -0.2581
    4FIC     N5 1685   0.607   8.314   2.811 -0.4802 -0.2797 -0.1704
    4FIC     N6 1686   0.666   7.893   2.910 -0.1111 -0.2549 -0.2825
    4FIC    C19 1687   0.709   7.789   2.586  0.2429 -0.0889 -0.2884
    4FIC    C20 1688   0.695   7.910   2.531  0.1572 -0.0833 -0.2543
    4FIC    C21 1689   0.704   7.928   2.382  0.2514 -0.0178 -0.2407
    4FIC    C22 1690   0.684   8.071   2.355  0.1206 -0.0296 -0.2030
    4FIC    C23 1691   0.684   8.136   2.231  0.1464  0.0165 -0.1791
    4FIC    C24 1692   0.662   8.273   2.231  0.0024 -0.0061 -0.1446
    4FIC    C25 1693   0.641   8.342   2.351 -0.1616 -0.0730 -0.1345
    4FIC    C26 1694   0.641   8.279   2.474 -0.1882 -0.1190 -0.1581
    4FIC    C27 1695   0.663   8.140   2.477 -0.0441 -0.0968 -0.1932
    4FIC    C28 1696   0.668   8.044   2.590 -0.0281 -0.1328 -0.2244
    4FIC    C29 1697   0.653   8.073   2.723 -0.1600 -0.1993 -0.2254
    4FIC    C30 1698   0.627   8.206   2.771 -0.3356 -0.2432 -0.1951
    4FIC    C31 1699   0.660   7.974   2.825 -0.1323 -0.2294 -0.2567
    5FIC     F1 1700  -0.042   6.863   1.203  0.3219  0.0129 -0.3373
    5FIC     F2 1701  -0.127   6.606   1.171 -0.1590  0.0921  0.2556
    5FIC     O1 1702   0.340   6.800   1.580  0.4997  0.1127 -0.5004
    5FIC     N5 1703   0.026   6.192   1.394 -0.7236  0.2776  0.9917
    5FIC     N6 1704   0.342   6.194   1.696 -0.4877  0.3399  0.7448
    5FIC    C19 1705   0.396   6.532   1.684  0.1034  0.2242  0.0081
    5FIC    C20 1706   0.303   6.558   1.590  0.0775  0.1959  0.0260
    5FIC    C21 1707   0.280   6.698   1.542  0.2898  0.1386 -0.2454
    5FIC    C22 1708   0.173   6.691   1.441  0.1991  0.1202 -0.1481
    5FIC    C23 1709   0.117   6.796   1.368  0.3293  0.0699 -0.3212
    5FIC    C24 1710   0.017   6.764   1.278  0.2042  0.0614 -0.1794
    5FIC    C25 1711  -0.026   6.632   1.262 -0.0437  0.1025  0.1260
    5FIC    C26 1712   0.029   6.527   1.334 -0.1747  0.1527  0.3001
    5FIC    C27 1713   0.131   6.557   1.426 -0.0511  0.1620  0.1606
    5FIC    C28 1714   0.209   6.470   1.517 -0.1356  0.2103  0.2797
    5FIC    C29 1715   0.196   6.333   1.531 -0.3672  0.2587  0.5697
    5FIC    C30 1716   0.102   6.256   1.456 -0.5624  0.2689  0.8008
    5FIC    C31 1717   0.276   6.257   1.621 -0.4322  0.3030  0.6644
    1BTD     S2 1718   6.055   6.788   0.189  0.0285  0.0854 -0.2572
    1BTD     N1 1719   6.062   6.968   0.200  0.1290  0.0858 -0.3269
    1BTD     N2 1720   6.128   6.760   0.350 -0.0906  0.1079 -0.1989
    1BTD     N3 1721   6.292   7.027   0.701 -0.1513  0.1545 -0.2060
    1BTD     N4 1722   6.210   7.283   0.515  0.1192  0.1272 -0.3637
    1BTD     C5 1723   6.140   7.129   0.367  0.1206  0.1076 -0.3442
    1BTD     C6 1724   6.116   6.996   0.318  0.0716  0.1018 -0.3043
    1BTD     C7 1725   6.153   6.880   0.402 -0.0513  0.1141 -0.2326
    1BTD     C8 1726   6.213   6.903   0.531 -0.1191  0.1318 -0.2045
    1BTD    C15 1727   6.234   7.035   0.575 -0.0676  0.1370 -0.2455
    1BTD    C16 1728   6.199   7.146   0.494  0.0510  0.1252 -0.3145
    1BTD    C43 1729   6.307   7.353   0.600  0.1464  0.5107 -0.0002
    1BTD    C44 1730   6.458   7.343   0.567  0.5264  0.5321 -0.2689
    1BTD    C45 1731   6.544   7.415   0.671 -0.1537 -0.3104  0.1555
    1BTD    C46 1732   6.698   7.376   0.685  0.5391 -0.8851 -0.2707
    1BTD    C47 1733   6.498   7.375   0.421 -0.4083  0.1950 -0.1510
    1BTD    C48 1734   6.485   7.521   0.378  0.2886 -0.6354  0.3526
    1BTD    C49 1735   6.533   7.548   0.239  0.0898 -0.4833 -0.2024
    1BTD    C50 1736   6.565   7.693   0.230 -0.5702 -0.1870  0.2334
    1BTD    C75 1737   6.272   7.120   0.811  0.3563  0.0097  0.0736
    1BTD    C76 1738   6.157   7.110   0.908  0.0831  0.4360 -0.8378
    1BTD    C77 1739   6.142   7.248   0.977  0.7017  0.2293 -0.6668
    1BTD    C78 1740   6.238   7.287   1.091 -0.3256 -0.8217  0.1937
    1BTD    C79 1741   6.146   6.992   1.006 -0.0715  0.4079 -0.2838
    1BTD    C80 1742   6.011   6.989   1.083 -0.2591  0.4042  0.3388
    1BTD    C81 1743   5.978   6.860   1.174 -0.0028 -0.3322  0.0457
    1BTD    C82 1744   5.843   6.879   1.235 -0.0107 -0.0335 -0.2012
    2TTP     S1 1745   6.059   7.333   0.161 -0.0166 -0.1463  0.0902
    2TTP     S5 1746   6.185   7.647   0.427 -0.0097  0.1091 -0.2128
    2TTP     C1 1747   6.132   7.722   0.270  0.1156 -0.0519 -0.3319
    2TTP     C2 1748   6.091   7.629   0.179  0.1209 -0.1401 -0.2453
    2TTP     C3 1749   6.098   7.496   0.230  0.0261 -0.0838 -0.0818
    2TTP     C4 1750   6.112   7.258   0.319 -0.1419  0.0147  0.2093
    2TTP    C17 1751   6.154   7.351   0.410 -0.1474  0.1030  0.1228
    2TTP    C18 1752   6.146   7.484   0.359 -0.0526  0.0468 -0.0407
    2TTP    C32 1753   6.040   7.630   0.031 -0.8169 -0.1899 -0.4380
    2TTP    C33 1754   5.894   7.640   0.004  0.0647  0.4404 -0.1788
    2TTP    C34 1755   5.813   7.774  -0.001  0.3618 -0.1214 -0.2728
    2TTP    C35 1756   5.867   7.873  -0.100  0.0448 -0.2073  0.5132
    2TTP    C36 1757   5.797   8.008  -0.116  0.5094  0.0140 -0.2835
    2TTP    C37 1758   5.841   8.118  -0.214 -0.3447 -0.3849  0.0010
    2TTP    C38 1759   5.856   8.071  -0.360 -0.0255  0.2973 -0.1596
    2TTP    C39 1760   5.881   8.189  -0.459  0.4337  0.8368 -0.4661
    2TTP    C40 1761   5.897   8.139  -0.601 -0.1327  0.0935 -0.0756
    2TTP    C41 1762   5.898   8.239  -0.717  0.3566 -0.6895  0.5273
    2TTP    C42 1763   5.772   8.327  -0.731 -0.7209 -0.0548  0.2344
    3TTP     S1 1764   6.281   6.638   0.666 -0.3268  0.1027  0.1044
    3TTP     S5 1765   6.522   6.856   0.946 -0.1556  0.0356  0.0097
    3TTP     C1 1766   6.551   6.679   0.971 -0.2270  0.0262  0.0268
    3TTP     C2 1767   6.478   6.600   0.886 -0.2843  0.0464  0.0570
    3TTP     C3 1768   6.397   6.678   0.798 -0.2733  0.0699  0.0678
    3TTP     C4 1769   6.252   6.815   0.640 -0.2552  0.1121  0.0874
    3TTP    C17 1770   6.325   6.893   0.726 -0.1980  0.0918  0.0572
    3TTP    C18 1771   6.406   6.816   0.814 -0.2087  0.0683  0.0464
    3TTP    C32 1772   6.478   6.453   0.865  0.5347  0.0777 -0.2542
    3TTP    C33 1773   6.363   6.378   0.935 -0.1034 -0.2157 -0.2045
    3TTP    C34 1774   6.365   6.229   0.935 -0.1674  0.2745 -0.2788
    3TTP    C35 1775   6.360   6.163   0.797 -0.6506  0.0752  0.7065
    3TTP    C36 1776   6.380   6.009   0.777 -0.4584  0.2039 -0.1992
    3TTP    C37 1777   6.278   5.924   0.853 -0.1465 -0.0734 -0.0057
    3TTP    C38 1778   6.295   5.778   0.808 -0.3214 -0.7771  0.8022
    3TTP    C39 1779   6.200   5.684   0.880 -0.2682  0.0697  0.4255
    3TTP    C40 1780   6.176   5.536   0.827  0.1637 -0.3963  0.2262
    3TTP    C41 1781   6.297   5.442   0.803  0.4328 -0.0177  0.2065
    3TTP    C42 1782   6.264   5.315   0.732  0.4860  0.1712 -0.0245
    4FIC     F1 1783   6.227   8.390   0.723 -0.3605 -0.0362 -0.1061
    4FIC     F2 1784   6.318   8.521   0.502 -0.0550 -0.1125 -0.0267
    4FIC     O1 1785   6.105   7.906   0.514 -0.3426 -0.0160 -0.1639
    4FIC     N5 1786   6.361   8.363   0.035  0.3977 -0.2079  0.0464
    4FIC     N6 1787   6.247   7.958  -0.084  0.3502 -0.1767 -0.0147
    4FIC    C19 1788   6.148   7.859   0.228 -0.0439 -0.0817 -0.1085
    4FIC    C20 1789   6.176   7.975   0.290 -0.0604 -0.0838 -0.0971
    4FIC    C21 1790   6.151   7.992   0.437 -0.2177 -0.0488 -0.1273
    4FIC    C22 1791   6.191   8.130   0.471 -0.1942 -0.0608 -0.1049
    4FIC    C23 1792   6.186   8.192   0.595 -0.3061 -0.0384 -0.1202
    4FIC    C24 1793   6.229   8.323   0.603 -0.2561 -0.0566 -0.0931
    4FIC    C25 1794   6.276   8.390   0.489 -0.0982 -0.0964 -0.0522
    4FIC    C26 1795   6.281   8.329   0.364  0.0141 -0.1187 -0.0368
    4FIC    C27 1796   6.238   8.196   0.354 -0.0345 -0.1009 -0.0637
    4FIC    C28 1797   6.230   8.104   0.239  0.0539 -0.1163 -0.0572
    4FIC    C29 1798   6.267   8.132   0.109  0.2117 -0.1538 -0.0212
    4FIC    C30 1799   6.318   8.259   0.069  0.3133 -0.1833  0.0159
    4FIC    C31 1800   6.256   8.036   0.004  0.2868 -0.1659 -0.0178
    5FIC     F1 1801   7.124   6.966   1.494 -0.3030 -0.1575  0.3743
    5FIC     F2 1802   7.178   6.709   1.567  0.1429 -0.2053 -0.1087
    5FIC     O1 1803   6.738   6.887   1.122 -0.4477 -0.1026  0.5128
    5FIC     N5 1804   6.980   6.285   1.407  0.6808 -0.2346 -0.7044
    5FIC     N6 1805   6.668   6.275   1.102  0.4779 -0.1822 -0.4989
    5FIC    C19 1806   6.653   6.615   1.060 -0.0730 -0.1287  0.1005
    5FIC    C20 1807   6.748   6.644   1.151 -0.0541 -0.1405  0.0845
    5FIC    C21 1808   6.786   6.787   1.177 -0.2544 -0.1259  0.3046
    5FIC    C22 1809   6.891   6.784   1.280 -0.1755 -0.1447  0.2239
    5FIC    C23 1810   6.958   6.892   1.337 -0.3008 -0.1400  0.3638
    5FIC    C24 1811   7.054   6.864   1.433 -0.1893 -0.1606  0.2470
    5FIC    C25 1812   7.082   6.731   1.471  0.0404 -0.1852 -0.0019
    5FIC    C26 1813   7.015   6.623   1.415  0.1665 -0.1899 -0.1425
    5FIC    C27 1814   6.918   6.649   1.317  0.0565 -0.1693 -0.0275
    5FIC    C28 1815   6.831   6.559   1.239  0.1403 -0.1678 -0.1230
    5FIC    C29 1816   6.827   6.421   1.247  0.3566 -0.1878 -0.3588
    5FIC    C30 1817   6.911   6.347   1.335  0.5341 -0.2135 -0.5480
    5FIC    C31 1818   6.740   6.342   1.167  0.4221 -0.1845 -0.4345
    1BTD     S2 1819   5.056   3.858   1.247  0.1700 -0.0632 -0.0469
    1BTD     N1 1820   5.065   3.678   1.250 -0.1961 -0.0781  0.1464
    1BTD     N2 1821   5.110   3.878   1.417  0.4272  0.0224 -0.1367
    1BTD     N3 1822   5.234   3.595   1.771  0.2906  0.1700  0.0294
    1BTD     N4 1823   5.178   3.349   1.565 -0.4774  0.0461  0.3783
    1BTD     C5 1824   5.125   3.509   1.417 -0.3338 -0.0119  0.2632
    1BTD     C6 1825   5.105   3.644   1.372 -0.1119 -0.0215  0.1347
    1BTD     C7 1826   5.130   3.756   1.465  0.2370  0.0349 -0.0238
    1BTD     C8 1827   5.174   3.727   1.599  0.3467  0.0980 -0.0458
    1BTD    C15 1828   5.192   3.594   1.639  0.1208  0.1052  0.0835
    1BTD    C16 1829   5.168   3.486   1.549 -0.2153  0.0508  0.2363
    1BTD    C43 1830   5.239   3.264   1.669 -0.1021  0.1190 -0.6581
    1BTD    C44 1831   5.391   3.259   1.686  0.1332  0.3799  0.3395
    1BTD    C45 1832   5.471   3.250   1.561 -0.3151  0.1654  0.2327
    1BTD    C46 1833   5.619   3.266   1.578  0.7201  0.2987  0.0274
    1BTD    C47 1834   5.426   3.150   1.795  0.2281 -0.3117 -0.1505
    1BTD    C48 1835   5.403   3.003   1.771 -0.5018 -0.2964  0.2816
    1BTD    C49 1836   5.467   2.922   1.883  0.6697 -0.2147  0.3906
    1BTD    C50 1837   5.424   2.781   1.840 -0.7323 -0.1099  0.1880
    1BTD    C75 1838   5.167   3.509   1.866  0.6204  0.3002 -0.1801
    1BTD    C76 1839   5.210   3.479   2.008 -0.0569  0.2163  0.4226
    1BTD    C77 1840   5.347   3.410   2.015  0.5772 -1.0709 -0.2245
    1BTD    C78 1841   5.406   3.390   2.157 -0.1493  0.1409  0.1578
    1BTD    C79 1842   5.097   3.411   2.083  0.2696  0.1215 -0.6689
    1BTD    C80 1843   4.957   3.465   2.090  0.2646 -0.0172 -0.4886
    1BTD    C81 1844   4.936   3.605   2.146  1.2917 -0.1350 -0.3603
    1BTD    C82 1845   4.797   3.632   2.204  0.1667  0.1591 -0.5615
    2TTP     S1 1846   5.059   3.312   1.193 -0.1930  0.1710 -0.1044
    2TTP     S5 1847   5.157   2.991   1.461 -0.3195  0.0716 -0.1767
    2TTP     C1 1848   5.112   2.920   1.300 -0.3001  0.1282 -0.2071
    2TTP     C2 1849   5.079   3.015   1.208 -0.2600  0.1622 -0.1865
    2TTP     C3 1850   5.088   3.147   1.261 -0.2428  0.1448 -0.1461
    2TTP     C4 1851   5.104   3.383   1.354 -0.2124  0.1144 -0.0740
    2TTP    C17 1852   5.137   3.288   1.447 -0.2525  0.0804 -0.0946
    2TTP    C18 1853   5.128   3.156   1.393 -0.2695  0.0978 -0.1350
    2TTP    C32 1854   5.038   2.994   1.059 -0.0395 -0.2661  0.6013
    2TTP    C33 1855   4.898   2.995   1.019  0.5562  0.7104  0.9582
    2TTP    C34 1856   4.807   2.882   1.079 -0.7635 -0.0072  0.4329
    2TTP    C35 1857   4.666   2.905   1.055  0.0769 -0.2869 -0.4698
    2TTP    C36 1858   4.575   2.798   1.106  0.3298 -0.2366  0.3824
    2TTP    C37 1859   4.431   2.834   1.137  0.2731  0.1079 -0.1090
    2TTP    C38 1860   4.325   2.723   1.144  0.1525  0.1420 -0.0048
    2TTP    C39 1861   4.349   2.597   1.229  0.7359 -0.7798  0.5886
    2TTP    C40 1862   4.394   2.616   1.373  0.1819  0.2272 -0.1257
    2TTP    C41 1863   4.396   2.498   1.468  0.3341  0.2490 -0.3276
    2TTP    C42 1864   4.437   2.537   1.614  0.2065  0.0130  0.0343
    3TTP     S1 1865   5.242   3.985   1.743  0.0544 -0.0492 -0.0314
    3TTP     S5 1866   5.425   3.755   2.057  0.1187  0.0920  0.0347
    3TTP     C1 1867   5.460   3.932   2.086 -0.0636  0.1221  0.0704
    3TTP     C2 1868   5.405   4.013   1.991 -0.0939  0.0803  0.0521
    3TTP     C3 1869   5.334   3.939   1.892  0.0254  0.0229  0.0091
    3TTP     C4 1870   5.208   3.809   1.714  0.2366 -0.0793 -0.0672
    3TTP    C17 1871   5.262   3.728   1.809  0.2673 -0.0375 -0.0489
    3TTP    C18 1872   5.333   3.802   1.908  0.1479  0.0199 -0.0060
    3TTP    C32 1873   5.403   4.166   1.989 -0.0851  0.0427  0.1212
    3TTP    C33 1874   5.271   4.239   1.998 -0.0964 -0.4484  0.0004
    3TTP    C34 1875   5.282   4.395   2.034  0.5134  0.1209 -0.2841
    3TTP    C35 1876   5.375   4.488   1.953  0.1846  0.4780 -0.4721
    3TTP    C36 1877   5.365   4.501   1.804  0.0054  0.0147  1.0586
    3TTP    C37 1878   5.231   4.550   1.740  0.6037  0.8276  0.0027
    3TTP    C38 1879   5.244   4.591   1.594 -0.6708  0.3854 -0.4098
    3TTP    C39 1880   5.116   4.632   1.520  0.0431  0.3164 -0.3300
    3TTP    C40 1881   4.990   4.546   1.535 -0.2950  0.4291 -0.4817
    3TTP    C41 1882   4.879   4.602   1.449  0.5440  0.2028  0.0270
    3TTP    C42 1883   4.747   4.537   1.464  0.2691  0.4269  0.3923
    4FIC     F1 1884   5.285   2.220   1.703 -0.2162 -0.0778 -0.1057
    4FIC     F2 1885   5.218   2.080   1.480 -0.0496  0.0033 -0.2065
    4FIC     O1 1886   5.203   2.727   1.534 -0.2919 -0.0268  0.0843
    4FIC     N5 1887   5.064   2.240   1.038  0.1359  0.1563 -0.2159
    4FIC     N6 1888   5.013   2.665   0.951  0.0429  0.1799 -0.0471
    4FIC    C19 1889   5.110   2.774   1.261 -0.1598  0.0690  0.0556
    4FIC    C20 1890   5.133   2.652   1.312 -0.1473  0.0529  0.0117
    4FIC    C21 1891   5.181   2.636   1.454 -0.2184  0.0033  0.0301
    4FIC    C22 1892   5.196   2.491   1.477 -0.1832 -0.0025 -0.0286
    4FIC    C23 1893   5.238   2.427   1.593 -0.2252 -0.0425 -0.0353
    4FIC    C24 1894   5.244   2.289   1.591 -0.1785 -0.0395 -0.0956
    4FIC    C25 1895   5.210   2.217   1.476 -0.0927  0.0023 -0.1475
    4FIC    C26 1896   5.168   2.280   1.359 -0.0504  0.0424 -0.1411
    4FIC    C27 1897   5.161   2.420   1.359 -0.0967  0.0401 -0.0804
    4FIC    C28 1898   5.121   2.516   1.253 -0.0710  0.0757 -0.0577
    4FIC    C29 1899   5.080   2.484   1.126  0.0079  0.1212 -0.0941
    4FIC    C30 1900   5.072   2.350   1.078  0.0781  0.1404 -0.1609
    4FIC    C31 1901   5.044   2.584   1.030  0.0267  0.1532 -0.0680
    5FIC     F1 1902   6.002   3.590   2.607 -0.0004  0.0620  0.0282
    5FIC     F2 1903   6.096   3.839   2.662 -0.1956  0.1168  0.1162
    5FIC     O1 1904   5.610   3.704   2.251  0.0921 -0.1423 -0.1397
    5FIC     N5 1905   5.952   4.279   2.487 -0.4106  0.0496  0.1232
    5FIC     N6 1906   5.627   4.319   2.198 -0.2990 -0.1212 -0.0256
    5FIC    C19 1907   5.561   3.983   2.177 -0.0616 -0.1628 -0.1152
    5FIC    C20 1908   5.656   3.945   2.265 -0.0772 -0.1135 -0.0764
    5FIC    C21 1909   5.675   3.799   2.298  0.0056 -0.1062 -0.0922
    5FIC    C22 1910   5.785   3.793   2.395 -0.0366 -0.0481 -0.0405
    5FIC    C23 1911   5.839   3.679   2.455  0.0119 -0.0219 -0.0342
    5FIC    C24 1912   5.944   3.698   2.544 -0.0434  0.0336  0.0190
    5FIC    C25 1913   5.992   3.826   2.572 -0.1442  0.0617  0.0643
    5FIC    C26 1914   5.939   3.940   2.513 -0.1929  0.0358  0.0584
    5FIC    C27 1915   5.833   3.923   2.422 -0.1380 -0.0204  0.0048
    5FIC    C28 1916   5.755   4.022   2.343 -0.1671 -0.0594 -0.0154
    5FIC    C29 1917   5.772   4.158   2.343 -0.2596 -0.0477  0.0162
    5FIC    C30 1918   5.871   4.224   2.422 -0.3421  0.0057  0.0750
    5FIC    C31 1919   5.692   4.246   2.264 -0.2807 -0.0881 -0.0070
    1BTD     S2 1920   6.280   3.832   3.624 -0.3150 -0.0563  0.0321
    1BTD     N1 1921   6.278   3.652   3.614  0.0093 -0.0545 -0.1038
    1BTD     N2 1922   6.203   3.856   3.463 -0.4326 -0.0752  0.0860
    1BTD     N3 1923   6.040   3.581   3.119 -0.0870 -0.1101 -0.0496
    1BTD     N4 1924   6.133   3.330   3.305  0.4575 -0.0846 -0.2834
    1BTD     C5 1925   6.201   3.487   3.450  0.2367 -0.0706 -0.1947
    1BTD     C6 1926   6.222   3.621   3.498  0.0129 -0.0673 -0.1021
    1BTD     C7 1927   6.180   3.735   3.413 -0.2344 -0.0789  0.0042
    1BTD     C8 1928   6.119   3.709   3.286 -0.2455 -0.0931  0.0124
    1BTD    C15 1929   6.100   3.576   3.243 -0.0215 -0.0958 -0.0806
    1BTD    C16 1930   6.141   3.466   3.325  0.2167 -0.0846 -0.1829
    1BTD    C43 1931   6.044   3.247   3.220  0.3543 -0.2588 -0.2060
    1BTD    C44 1932   5.886   3.250   3.249 -0.2034  0.1016 -0.4412
    1BTD    C45 1933   5.803   3.167   3.149  0.4726  0.2459  0.7242
    1BTD    C46 1934   5.815   3.194   2.998 -0.2916  0.3938  0.7562
    1BTD    C47 1935   5.846   3.220   3.395  0.0910  0.1726 -0.0737
    1BTD    C48 1936   5.851   3.076   3.442  0.6236 -0.2733  0.6253
    1BTD    C49 1937   5.791   3.057   3.586 -0.1144  0.1856  0.4688
    1BTD    C50 1938   5.815   2.930   3.656  0.7367  0.3848  0.5476
    1BTD    C75 1939   6.046   3.489   3.004 -0.1347 -0.8748  0.0818
    1BTD    C76 1940   6.181   3.474   2.922  0.6270  0.0887  0.5287
    1BTD    C77 1941   6.153   3.388   2.798 -0.2991 -0.0937  0.6474
    1BTD    C78 1942   6.129   3.239   2.813  0.0618  0.0090 -0.5505
    1BTD    C79 1943   6.239   3.611   2.873  0.3483  0.1434 -0.3462
    1BTD    C80 1944   6.341   3.634   2.760 -0.5606  0.2487  0.1538
    1BTD    C81 1945   6.475   3.547   2.768  0.1583  0.1257  0.2195
    1BTD    C82 1946   6.547   3.544   2.638  0.2078 -0.4100  0.1847
    2TTP     S1 1947   6.300   3.280   3.661  0.2575  0.0521  0.0572
    2TTP     S5 1948   6.174   2.964   3.398 -0.2204  0.2320  0.0668
    2TTP     C1 1949   6.239   2.890   3.551 -0.2126  0.1352  0.0169
    2TTP     C2 1950   6.282   2.983   3.641 -0.0646  0.0740  0.0110
    2TTP     C3 1951   6.265   3.117   3.593  0.0483  0.1013  0.0456
    2TTP     C4 1952   6.235   3.354   3.508  0.2497  0.1490  0.1070
    2TTP    C17 1953   6.192   3.261   3.417  0.1018  0.2102  0.1128
    2TTP    C18 1954   6.209   3.128   3.466 -0.0108  0.1829  0.0782
    2TTP    C32 1955   6.334   2.959   3.781 -0.1653 -0.8594  0.5266
    2TTP    C33 1956   6.483   2.989   3.812 -0.0965 -0.8118 -0.1309
    2TTP    C34 1957   6.551   2.892   3.902 -0.7376  0.3734 -0.2978
    2TTP    C35 1958   6.501   2.876   4.046  0.8139  0.8833  0.1066
    2TTP    C36 1959   6.548   2.740   4.101  0.0525 -0.0154  0.1064
    2TTP    C37 1960   6.489   2.702   4.237 -0.1226  0.1140 -0.2013
    2TTP    C38 1961   6.493   2.553   4.249 -0.3935 -0.2830  0.0426
    2TTP    C39 1962   6.468   2.499   4.391 -0.1854  0.0161 -0.1699
    2TTP    C40 1963   6.500   2.348   4.397 -0.0542 -0.1870  0.0199
    2TTP    C41 1964   6.472   2.284   4.533  0.0036 -0.2402 -0.2991
    2TTP    C42 1965   6.541   2.149   4.550  0.1160  0.0518  0.3275
    3TTP     S1 1966   6.008   3.968   3.161 -0.1901  0.1239  0.0884
    3TTP     S5 1967   5.794   3.730   2.873 -0.0798 -0.1523  0.2341
    3TTP     C1 1968   5.743   3.904   2.854 -0.0790 -0.1714  0.0538
    3TTP     C2 1969   5.806   3.987   2.942 -0.1128 -0.0872 -0.0018
    3TTP     C3 1970   5.897   3.917   3.027 -0.1408 -0.0046  0.0960
    3TTP     C4 1971   6.059   3.794   3.180 -0.1911  0.1430  0.2687
    3TTP    C17 1972   5.996   3.711   3.092 -0.1569  0.0588  0.3243
    3TTP    C18 1973   5.905   3.781   3.007 -0.1290 -0.0237  0.2266
    3TTP    C32 1974   5.791   4.140   2.962 -0.0143 -0.7932 -0.0705
    3TTP    C33 1975   5.907   4.210   2.894  0.3835 -0.4122 -0.2863
    3TTP    C34 1976   5.931   4.351   2.955  0.0785  0.5028  0.3495
    3TTP    C35 1977   6.049   4.413   2.890 -0.5297 -0.2870  0.0600
    3TTP    C36 1978   6.088   4.549   2.949 -0.0853  0.3917  0.1609
    3TTP    C37 1979   6.145   4.546   3.092  0.5856  0.3236 -0.3180
    3TTP    C38 1980   6.166   4.691   3.139 -0.0773 -0.2187  0.4216
    3TTP    C39 1981   6.253   4.703   3.268  0.3207 -0.2101 -0.0003
    3TTP    C40 1982   6.191   4.646   3.400 -0.0773 -0.8353  0.0773
    3TTP    C41 1983   6.271   4.682   3.529  0.4065 -0.4868  0.0430
    3TTP    C42 1984   6.417   4.647   3.535  0.2766  0.7129  0.5979
    4FIC     F1 1985   6.179   2.209   3.101  0.3031  0.4694 -0.0979
    4FIC     F2 1986   6.191   2.063   3.331  0.0393  0.2644 -0.2132
    4FIC     O1 1987   6.228   2.712   3.295  0.2480  0.2868  0.3915
    4FIC     N5 1988   6.242   2.213   3.800 -0.3794 -0.1605 -0.0301
    4FIC     N6 1989   6.278   2.635   3.905 -0.3694 -0.2619  0.3754
    4FIC    C19 1990   6.257   2.751   3.584 -0.0239  0.0261  0.4552
    4FIC    C20 1991   6.244   2.631   3.526  0.0004  0.0800  0.3365
    4FIC    C21 1992   6.230   2.618   3.377  0.1429  0.2146  0.3114
    4FIC    C22 1993   6.218   2.474   3.348  0.1328  0.2430  0.1736
    4FIC    C23 1994   6.203   2.414   3.224  0.2384  0.3561  0.1054
    4FIC    C24 1995   6.194   2.275   3.221  0.2037  0.3605 -0.0246
    4FIC    C25 1996   6.200   2.201   3.339  0.0679  0.2548 -0.0838
    4FIC    C26 1997   6.215   2.260   3.464 -0.0379  0.1417 -0.0164
    4FIC    C27 1998   6.224   2.400   3.469 -0.0049  0.1354  0.1153
    4FIC    C28 1999   6.240   2.493   3.583 -0.0918  0.0310  0.2131
    4FIC    C29 2000   6.250   2.459   3.716 -0.2310 -0.0883  0.1931
    4FIC    C30 2001   6.246   2.324   3.761 -0.3122 -0.1276  0.0704
    4FIC    C31 2002   6.265   2.556   3.819 -0.3065 -0.1831  0.2936
    5FIC     F1 2003   5.207   3.551   2.340 -0.3197  0.1233  0.1518
    5FIC     F2 2004   5.162   3.796   2.231  0.1718  0.1307 -0.0377
    5FIC     O1 2005   5.562   3.675   2.730 -0.2978 -0.2441  0.2500
    5FIC     N5 2006   5.351   4.237   2.351  0.8941 -0.1206 -0.2402
    5FIC     N6 2007   5.638   4.285   2.678  0.8121 -0.4091 -0.1252
    5FIC    C19 2008   5.645   3.954   2.763  0.1795 -0.3676  0.1038
    5FIC    C20 2009   5.558   3.913   2.670  0.1549 -0.2755  0.0865
    5FIC    C21 2010   5.520   3.768   2.659 -0.0969 -0.2166  0.1655
    5FIC    C22 2011   5.423   3.758   2.547 -0.0571 -0.1205  0.1224
    5FIC    C23 2012   5.360   3.644   2.499 -0.2356 -0.0413  0.1675
    5FIC    C24 2013   5.273   3.660   2.393 -0.1530  0.0423  0.1118
    5FIC    C25 2014   5.250   3.786   2.337  0.1002  0.0459  0.0142
    5FIC    C26 2015   5.313   3.901   2.384  0.2792 -0.0328 -0.0313
    5FIC    C27 2016   5.402   3.887   2.492  0.1994 -0.1181  0.0238
    5FIC    C28 2017   5.483   3.987   2.565  0.3395 -0.2130 -0.0020
    5FIC    C29 2018   5.489   4.122   2.540  0.5926 -0.2384 -0.0910
    5FIC    C30 2019   5.413   4.185   2.436  0.7575 -0.1736 -0.1727
    5FIC    C31 2020   5.571   4.211   2.616  0.7119 -0.3322 -0.1094
    1BTD     S2 2021   5.179   9.465   2.071  0.2535 -0.0899 -0.2021
    1BTD     N1 2022   5.159   9.643   2.091  0.2174 -0.0916 -0.2260
    1BTD     N2 2023   5.221   9.436   2.244  0.1307 -0.0763 -0.1699
    1BTD     N3 2024   5.269   9.697   2.631 -0.1848 -0.0496 -0.1479
    1BTD     N4 2025   5.193   9.952   2.443 -0.0780 -0.0689 -0.2170
    1BTD     C5 2026   5.178   9.801   2.277  0.0620 -0.0796 -0.2204
    1BTD     C6 2027   5.183   9.669   2.219  0.1206 -0.0820 -0.2097
    1BTD     C7 2028   5.217   9.554   2.304  0.0722 -0.0732 -0.1783
    1BTD     C8 2029   5.245   9.575   2.444 -0.0327 -0.0625 -0.1593
    1BTD    C15 2030   5.238   9.705   2.497 -0.0872 -0.0606 -0.1708
    1BTD    C16 2031   5.205   9.817   2.414 -0.0404 -0.0690 -0.2010
    1BTD    C43 2032   5.241  10.034   2.563 -0.5127  0.2913  0.5242
    1BTD    C44 2033   5.361  10.122   2.562 -0.3251  0.1068  0.2868
    1BTD    C45 2034   5.498  10.048   2.547  0.0512 -0.3838  0.3342
    1BTD    C46 2035   5.564   9.982   2.668  0.1814 -0.8429 -0.2277
    1BTD    C47 2036   5.342  10.225   2.672 -0.4059 -0.2924 -0.4437
    1BTD    C48 2037   5.438  10.344   2.672  0.2284 -0.5563 -0.0880
    1BTD    C49 2038   5.441  10.435   2.788  0.4819 -0.3890  0.0969
    1BTD    C50 2039   5.556  10.536   2.791  0.3571 -0.9020  0.2519
    1BTD    C75 2040   5.260   9.788   2.747 -0.4045  0.1733  0.7220
    1BTD    C76 2041   5.120   9.794   2.822 -0.6418  0.0879  0.0282
    1BTD    C77 2042   5.079   9.654   2.877  0.1972  0.2209 -0.2280
    1BTD    C78 2043   4.944   9.616   2.935  0.1964 -0.8005  0.4536
    1BTD    C79 2044   5.096   9.899   2.937 -0.2940  0.0299  0.5729
    1BTD    C80 2045   5.177   9.903   3.065 -0.5470 -0.1892  0.0497
    1BTD    C81 2046   5.139  10.024   3.147 -0.1405 -0.6211 -0.2699
    1BTD    C82 2047   5.024   9.995   3.246  0.0032  0.3875 -0.1815
    2TTP     S1 2048   5.083  10.015   2.074 -0.0539  0.1306 -0.0240
    2TTP     S5 2049   5.148  10.314   2.376 -0.2780  0.2775 -0.1211
    2TTP     C1 2050   5.088  10.396   2.225 -0.1391  0.2072 -0.2143
    2TTP     C2 2051   5.065  10.309   2.123 -0.0619  0.1578 -0.1898
    2TTP     C3 2052   5.093  10.174   2.160 -0.1094  0.1733 -0.0966
    2TTP     C4 2053   5.143   9.933   2.225 -0.1929  0.2010  0.0691
    2TTP    C17 2054   5.166  10.021   2.327 -0.2701  0.2503  0.0448
    2TTP    C18 2055   5.138  10.156   2.290 -0.2226  0.2344 -0.0485
    2TTP    C32 2056   5.032  10.345   1.979 -0.5751  0.1195 -0.3814
    2TTP    C33 2057   4.918  10.281   1.903  0.2932 -0.7195  0.3304
    2TTP    C34 2058   4.773  10.303   1.947  0.3368 -0.1168 -0.2247
    2TTP    C35 2059   4.719  10.442   1.965  0.6980 -0.1553 -0.3705
    2TTP    C36 2060   4.567  10.433   1.988 -0.5463 -0.0909  0.0459
    2TTP    C37 2061   4.516  10.569   2.034 -0.2514  0.4125  0.0191
    2TTP    C38 2062   4.368  10.586   2.038  0.5833 -0.5120  0.8186
    2TTP    C39 2063   4.331  10.719   2.109 -0.0995 -0.1550 -0.4265
    2TTP    C40 2064   4.365  10.720   2.254  0.0532  0.7570 -0.3388
    2TTP    C41 2065   4.272  10.651   2.352  0.2253 -0.3202  0.7234
    2TTP    C42 2066   4.301  10.683   2.496 -0.4566  0.5268  0.5359
    3TTP     S1 2067   5.347   9.321   2.556  0.0936 -0.0691  0.1412
    3TTP     S5 2068   5.483   9.538   2.902 -0.1367  0.0002  0.1887
    3TTP     C1 2069   5.557   9.371   2.904  0.0306  0.0739  0.1586
    3TTP     C2 2070   5.519   9.295   2.798  0.1116  0.0567  0.1422
    3TTP     C3 2071   5.430   9.365   2.710  0.0443 -0.0150  0.1528
    3TTP     C4 2072   5.273   9.487   2.553 -0.0737 -0.1423  0.1712
    3TTP    C17 2073   5.310   9.564   2.660 -0.1545 -0.1256  0.1877
    3TTP    C18 2074   5.399   9.494   2.747 -0.0875 -0.0539  0.1771
    3TTP    C32 2075   5.550   9.145   2.791  0.2336 -0.1533 -0.2336
    3TTP    C33 2076   5.432   9.042   2.808 -0.4831 -0.0561 -0.4269
    3TTP    C34 2077   5.336   9.075   2.921  0.8288 -0.5582  0.2876
    3TTP    C35 2078   5.214   8.984   2.937 -0.7802  0.6426  0.2128
    3TTP    C36 2079   5.235   8.842   2.992  0.2626  0.0386  0.5380
    3TTP    C37 2080   5.300   8.723   2.913  0.2734 -0.3585 -0.3698
    3TTP    C38 2081   5.247   8.681   2.775 -0.1928  0.3122 -0.2353
    3TTP    C39 2082   5.321   8.560   2.708  0.4579 -0.0520 -0.7676
    3TTP    C40 2083   5.470   8.573   2.685 -0.1979  0.1421  0.0061
    3TTP    C41 2084   5.551   8.696   2.638  0.1475  0.6051  0.1905
    3TTP    C42 2085   5.697   8.696   2.684 -0.0542  0.5041 -0.4314
    4FIC     F1 2086   5.179  11.052   2.718  0.0552  0.0212 -0.0353
    4FIC     F2 2087   5.106  11.211   2.510  0.1575  0.0277 -0.0659
    4FIC     O1 2088   5.153  10.563   2.486 -0.2400 -0.0057  0.0522
    4FIC     N5 2089   4.983  11.092   2.045  0.0943  0.0188 -0.0473
    4FIC     N6 2090   4.978  10.678   1.906 -0.1568 -0.0036  0.0273
    4FIC    C19 2091   5.075  10.542   2.205 -0.2469 -0.0087  0.0542
    4FIC    C20 2092   5.084  10.658   2.271 -0.1767 -0.0021  0.0333
    4FIC    C21 2093   5.125  10.661   2.416 -0.1780 -0.0010  0.0337
    4FIC    C22 2094   5.125  10.803   2.457 -0.0919  0.0067  0.0082
    4FIC    C23 2095   5.156  10.855   2.582 -0.0622  0.0098 -0.0005
    4FIC    C24 2096   5.149  10.993   2.597  0.0218  0.0170 -0.0255
    4FIC    C25 2097   5.111  11.075   2.489  0.0744  0.0207 -0.0412
    4FIC    C26 2098   5.080  11.023   2.364  0.0454  0.0174 -0.0326
    4FIC    C27 2099   5.087  10.884   2.347 -0.0397  0.0100 -0.0073
    4FIC    C28 2100   5.060  10.798   2.229 -0.0899  0.0048  0.0075
    4FIC    C29 2101   5.021  10.841   2.104 -0.0609  0.0064 -0.0012
    4FIC    C30 2102   5.000  10.979   2.072  0.0243  0.0131 -0.0265
    4FIC    C31 2103   4.997  10.751   1.996 -0.1138  0.0010  0.0145
    5FIC     F1 2104   5.975   9.654   3.559 -0.1962  0.1109  0.1578
    5FIC     F2 2105   6.008   9.395   3.638  0.0180  0.1309  0.1334
    5FIC     O1 2106   5.704   9.585   3.096 -0.0492 -0.0751  0.0991
    5FIC     N5 2107   5.863   8.975   3.421  0.4309  0.0272  0.0564
    5FIC     N6 2108   5.644   8.973   3.043  0.5026 -0.1223  0.0154
    5FIC    C19 2109   5.639   9.314   3.006  0.2077 -0.1219  0.0548
    5FIC    C20 2110   5.706   9.341   3.120  0.1625 -0.0761  0.0706
    5FIC    C21 2111   5.736   9.483   3.159  0.0292 -0.0546  0.0930
    5FIC    C22 2112   5.809   9.477   3.287  0.0110 -0.0043  0.1059
    5FIC    C23 2113   5.858   9.584   3.362 -0.0975  0.0298  0.1277
    5FIC    C24 2114   5.924   9.553   3.480 -0.0924  0.0750  0.1365
    5FIC    C25 2115   5.941   9.420   3.520  0.0183  0.0854  0.1238
    5FIC    C26 2116   5.893   9.313   3.446  0.1265  0.0513  0.1022
    5FIC    C27 2117   5.825   9.342   3.326  0.1234  0.0055  0.0929
    5FIC    C28 2118   5.763   9.253   3.225  0.2208 -0.0384  0.0707
    5FIC    C29 2119   5.758   9.116   3.229  0.3419 -0.0427  0.0536
    5FIC    C30 2120   5.816   9.039   3.334  0.3904 -0.0041  0.0552
    5FIC    C31 2121   5.696   9.038   3.127  0.4296 -0.0868  0.0327
    1BTD     S2 2122   0.217   9.520   0.721  0.3591  0.1937 -0.1213
    1BTD     N1 2123   0.214   9.699   0.704  0.5535  0.1705 -0.4078
    1BTD     N2 2124   0.149   9.489   0.558 -0.0927  0.0131  0.0982
    1BTD     N3 2125   0.005   9.748   0.194 -0.6624 -0.3965  0.0283
    1BTD     N4 2126   0.086  10.007   0.374  0.1339 -0.2027 -0.5952
    1BTD     C5 2127   0.146   9.857   0.529  0.3249 -0.0269 -0.4982
    1BTD     C6 2128   0.165   9.725   0.584  0.2855  0.0362 -0.3291
    1BTD     C7 2129   0.128   9.607   0.502 -0.0762 -0.0517 -0.0459
    1BTD     C8 2130   0.075   9.627   0.370 -0.3806 -0.1986  0.0542
    1BTD    C15 2131   0.058   9.758   0.321 -0.3293 -0.2554 -0.1186
    1BTD    C16 2132   0.093   9.872   0.400  0.0193 -0.1709 -0.3915
    1BTD    C43 2133  -0.008  10.078   0.282  0.0272  0.7330 -0.3751
    1BTD    C44 2134  -0.155  10.088   0.321  0.0788  0.8686 -0.1999
    1BTD    C45 2135  -0.241  10.090   0.189 -0.3015 -0.4734 -0.1291
    1BTD    C46 2136  -0.395  10.082   0.196 -0.0221 -0.6917 -0.2289
    1BTD    C47 2137  -0.189  10.170   0.452 -1.1018  0.2684  0.3654
    1BTD    C48 2138  -0.230  10.312   0.436 -0.3963 -0.1988  0.2471
    1BTD    C49 2139  -0.252  10.375   0.574 -0.2507 -0.1640  0.3171
    1BTD    C50 2140  -0.298  10.513   0.563 -0.3780  0.0396 -1.1168
    1BTD    C75 2141   0.031   9.845   0.079  0.0776  1.2617  0.0376
    1BTD    C76 2142   0.139   9.818  -0.024  0.0215  0.1788  0.2565
    1BTD    C77 2143   0.149   9.925  -0.131  0.4130 -0.5965 -0.1535
    1BTD    C78 2144   0.227   9.913  -0.262 -0.1062  0.5536 -0.0083
    1BTD    C79 2145   0.274   9.789   0.048 -0.2219 -1.2214  0.1179
    1BTD    C80 2146   0.392   9.727  -0.024  0.1650  0.1303  0.4234
    1BTD    C81 2147   0.360   9.585  -0.077 -0.5966 -0.5753  0.2459
    1BTD    C82 2148   0.484   9.525  -0.146  0.0161  0.3136  0.1651
    2TTP     S1 2149   0.260  10.070   0.719 -0.1020  0.2841  0.1749
    2TTP     S5 2150   0.177  10.371   0.423  0.1405 -0.0975 -0.2847
    2TTP     C1 2151   0.259  10.451   0.565  0.0969  0.0726 -0.3537
    2TTP     C2 2152   0.290  10.362   0.665  0.0195  0.2003 -0.2159
    2TTP     C3 2153   0.249  10.229   0.633 -0.0082  0.1686 -0.0508
    2TTP     C4 2154   0.178   9.991   0.577 -0.0584  0.1142  0.2439
    2TTP    C17 2155   0.147  10.080   0.478  0.0191 -0.0136  0.1061
    2TTP    C18 2156   0.187  10.213   0.510  0.0468  0.0181 -0.0591
    2TTP    C32 2157   0.344  10.398   0.803 -0.1449  0.2468 -0.0389
    2TTP    C33 2158   0.466  10.313   0.859 -0.0681  0.4167 -0.7845
    2TTP    C34 2159   0.529  10.343   1.004  0.1202 -0.6749  0.3018
    2TTP    C35 2160   0.430  10.345   1.120  0.1790 -0.2794  0.0126
    2TTP    C36 2161   0.498  10.381   1.252 -0.7175 -0.0324 -0.4267
    2TTP    C37 2162   0.429  10.390   1.383  0.5173  0.0676  0.3986
    2TTP    C38 2163   0.346  10.267   1.422 -0.0325  0.1985  0.3703
    2TTP    C39 2164   0.266  10.303   1.545  0.0716 -0.1964  0.4344
    2TTP    C40 2165   0.191  10.186   1.605  0.5874 -0.2443 -0.4347
    2TTP    C41 2166   0.281  10.084   1.680  0.3490  0.3829 -0.2483
    2TTP    C42 2167   0.208   9.999   1.787  0.1913 -0.0486 -0.0938
    3TTP     S1 2168   0.002   9.360   0.250  0.1672  0.2801  0.0786
    3TTP     S5 2169  -0.188   9.571  -0.073  0.0027  0.1080  0.0629
    3TTP     C1 2170  -0.224   9.393  -0.090  0.1522  0.0768  0.0684
    3TTP     C2 2171  -0.167   9.318   0.008  0.2117  0.1280  0.0737
    3TTP     C3 2172  -0.093   9.397   0.101  0.1416  0.1936  0.0735
    3TTP     C4 2173   0.039   9.538   0.267  0.0179  0.3111  0.0730
    3TTP    C17 2174  -0.018   9.613   0.169 -0.0418  0.2599  0.0678
    3TTP    C18 2175  -0.092   9.534   0.076  0.0284  0.1943  0.0681
    3TTP    C32 2176  -0.170   9.166   0.035 -1.0315  0.3431 -0.1429
    3TTP    C33 2177  -0.045   9.097  -0.011 -0.5339 -0.3957  0.0725
    3TTP    C34 2178  -0.038   8.945  -0.022 -0.0778 -0.3309 -0.5766
    3TTP    C35 2179  -0.063   8.856   0.098 -0.7153  0.4258  0.5413
    3TTP    C36 2180  -0.199   8.868   0.158 -0.0942  0.1336  0.0787
    3TTP    C37 2181  -0.229   8.783   0.284 -0.3616  0.3545  0.0637
    3TTP    C38 2182  -0.356   8.818   0.357 -0.0406  0.8201 -0.0164
    3TTP    C39 2183  -0.368   8.742   0.491  0.9398  0.7067  1.2004
    3TTP    C40 2184  -0.497   8.772   0.567  0.4503  0.1127 -0.1012
    3TTP    C41 2185  -0.480   8.743   0.713  0.2875 -0.5377 -0.1377
    3TTP    C42 2186  -0.621   8.780   0.778  0.1355  0.8295 -0.6230
    4FIC     F1 2187   0.275  11.094   0.053 -0.3606 -0.0505  0.1681
    4FIC     F2 2188   0.322  11.255   0.267  0.2741 -0.1020  0.0701
    4FIC     O1 2189   0.249  10.609   0.293 -0.5944  0.0017  0.2486
    4FIC     N5 2190   0.372  11.141   0.746  1.0199 -0.1385 -0.0134
    4FIC     N6 2191   0.342  10.730   0.891  0.7093 -0.0875  0.0692
    4FIC    C19 2192   0.285  10.591   0.583 -0.0711 -0.0288  0.1836
    4FIC    C20 2193   0.290  10.707   0.514 -0.0370 -0.0401  0.1671
    4FIC    C21 2194   0.270  10.708   0.365 -0.3174 -0.0229  0.2028
    4FIC    C22 2195   0.281  10.849   0.323 -0.1979 -0.0412  0.1729
    4FIC    C23 2196   0.270  10.900   0.194 -0.3700 -0.0346  0.1896
    4FIC    C24 2197   0.285  11.037   0.178 -0.2050 -0.0555  0.1542
    4FIC    C25 2198   0.309  11.120   0.289  0.1220 -0.0818  0.1037
    4FIC    C26 2199   0.320  11.069   0.418  0.2952 -0.0885  0.0868
    4FIC    C27 2200   0.306  10.931   0.435  0.1323 -0.0679  0.1221
    4FIC    C28 2201   0.312  10.847   0.558  0.2441 -0.0682  0.1165
    4FIC    C29 2202   0.334  10.891   0.686  0.5498 -0.0904  0.0729
    4FIC    C30 2203   0.355  11.028   0.719  0.8072 -0.1166  0.0256
    4FIC    C31 2204   0.338  10.802   0.798  0.6358 -0.0887  0.0711
    5FIC     F1 2205  -0.652   9.652  -0.745 -0.2869  0.1686  0.3365
    5FIC     F2 2206  -0.709   9.392  -0.804 -0.0105  0.1562  0.1256
    5FIC     O1 2207  -0.357   9.593  -0.295 -0.0728  0.1068  0.1877
    5FIC     N5 2208  -0.579   8.977  -0.568  0.5394  0.0944 -0.2838
    5FIC     N6 2209  -0.336   8.983  -0.205  0.6512  0.0484 -0.3575
    5FIC    C19 2210  -0.305   9.324  -0.192  0.2674  0.0729 -0.0666
    5FIC    C20 2211  -0.377   9.349  -0.303  0.2028  0.0892 -0.0210
    5FIC    C21 2212  -0.399   9.490  -0.350  0.0267  0.1059  0.1108
    5FIC    C22 2213  -0.482   9.481  -0.472 -0.0035  0.1206  0.1298
    5FIC    C23 2214  -0.527   9.586  -0.551 -0.1487  0.1390  0.2375
    5FIC    C24 2215  -0.604   9.553  -0.662 -0.1475  0.1505  0.2334
    5FIC    C25 2216  -0.633   9.419  -0.692 -0.0049  0.1441  0.1245
    5FIC    C26 2217  -0.587   9.314  -0.614  0.1405  0.1261  0.0170
    5FIC    C27 2218  -0.510   9.346  -0.501  0.1419  0.1140  0.0193
    5FIC    C28 2219  -0.447   9.259  -0.398  0.2741  0.0942 -0.0777
    5FIC    C29 2220  -0.452   9.122  -0.393  0.4323  0.0830 -0.1972
    5FIC    C30 2221  -0.522   9.043  -0.489  0.4907  0.0894 -0.2444
    5FIC    C31 2222  -0.388   9.046  -0.290  0.5518  0.0641 -0.2847
    1BTD     S2 2223   1.015   1.198   1.664 -0.5697  0.5357 -0.2505
    1BTD     N1 2224   0.995   1.019   1.661 -0.4399  0.5182 -0.1122
    1BTD     N2 2225   0.953   1.222   1.497 -0.4915  0.3515 -0.3068
    1BTD     N3 2226   0.792   0.950   1.151 -0.0976 -0.0555 -0.1718
    1BTD     N4 2227   0.843   0.699   1.353 -0.0340  0.1500  0.0679
    1BTD     C5 2228   0.915   0.855   1.498 -0.2287  0.3235 -0.0210
    1BTD     C6 2229   0.946   0.989   1.542 -0.3496  0.3830 -0.1150
    1BTD     C7 2230   0.923   1.102   1.450 -0.3785  0.2896 -0.2239
    1BTD     C8 2231   0.870   1.077   1.319 -0.2851  0.1414 -0.2334
    1BTD    C15 2232   0.841   0.945   1.280 -0.1680  0.0879 -0.1392
    1BTD    C16 2233   0.863   0.835   1.368 -0.1402  0.1779 -0.0343
    1BTD    C43 2234   0.767   0.621   1.259  0.4085 -0.1555  0.7891
    1BTD    C44 2235   0.627   0.586   1.302  0.6164  0.0691  0.0239
    1BTD    C45 2236   0.539   0.712   1.327 -0.0442 -0.5342  0.2479
    1BTD    C46 2237   0.399   0.703   1.392 -0.4410 -0.1461  0.2552
    1BTD    C47 2238   0.559   0.488   1.209  0.4134  0.1748  0.0339
    1BTD    C48 2239   0.624   0.348   1.191 -0.5788 -0.5109  0.1675
    1BTD    C49 2240   0.541   0.253   1.109  0.6596  0.0786 -0.1086
    1BTD    C50 2241   0.602   0.116   1.096 -0.1461 -0.1439  0.1822
    1BTD    C75 2242   0.781   0.845   1.042  0.0194  0.0956 -0.4154
    1BTD    C76 2243   0.889   0.822   0.941 -0.6220  0.6280 -0.3104
    1BTD    C77 2244   0.852   0.694   0.845 -0.5347 -0.5034  0.2180
    1BTD    C78 2245   0.734   0.689   0.756  0.0493 -0.0020 -0.6822
    1BTD    C79 2246   0.943   0.946   0.868  0.1268 -0.3579  0.6170
    1BTD    C80 2247   1.068   0.925   0.771  0.4374 -0.1377 -0.2805
    1BTD    C81 2248   1.160   1.046   0.756 -0.3368 -0.0322 -0.1268
    1BTD    C82 2249   1.301   0.993   0.714  0.5117 -0.1200  1.1347
    2TTP     S1 2250   0.981   0.654   1.716  0.2138 -0.0401 -0.0838
    2TTP     S5 2251   0.866   0.331   1.456 -0.0660 -0.1914  0.2272
    2TTP     C1 2252   0.920   0.261   1.615  0.2540 -0.1080  0.1554
    2TTP     C2 2253   0.959   0.357   1.705  0.3593 -0.0564  0.0551
    2TTP     C3 2254   0.947   0.489   1.651  0.1910 -0.0808  0.0314
    2TTP     C4 2255   0.927   0.724   1.557 -0.1062 -0.1234 -0.0119
    2TTP    C17 2256   0.888   0.629   1.468 -0.2115 -0.1751  0.0884
    2TTP    C18 2257   0.900   0.497   1.521 -0.0432 -0.1507  0.1121
    2TTP    C32 2258   1.017   0.341   1.845  0.1815 -0.3007  0.3458
    2TTP    C33 2259   1.169   0.347   1.872 -0.4417  0.5887  0.8607
    2TTP    C34 2260   1.255   0.236   1.805 -0.5055  0.4214  0.6680
    2TTP    C35 2261   1.399   0.254   1.857  0.5767  0.2544 -0.7048
    2TTP    C36 2262   1.501   0.139   1.830  0.4066 -0.0081  0.6163
    2TTP    C37 2263   1.503   0.065   1.695 -0.3132 -0.3449  0.8499
    2TTP    C38 2264   1.604  -0.048   1.678 -0.2147  0.0363  0.3740
    2TTP    C39 2265   1.647  -0.055   1.534  0.1671  0.0034  0.5883
    2TTP    C40 2266   1.758  -0.157   1.517  0.1955 -0.2457  0.6645
    2TTP    C41 2267   1.779  -0.184   1.363  0.2968 -0.1048 -0.2195
    2TTP    C42 2268   1.917  -0.236   1.320 -0.1317  0.5696  0.4078
    3TTP     S1 2269   0.807   1.341   1.194 -0.0172 -0.1694  0.4683
    3TTP     S5 2270   0.608   1.130   0.876 -0.0508  0.6403 -0.0535
    3TTP     C1 2271   0.577   1.308   0.856  0.1049  0.7088  0.2954
    3TTP     C2 2272   0.637   1.384   0.953  0.1244  0.4628  0.4770
    3TTP     C3 2273   0.709   1.304   1.047  0.0172  0.2114  0.3473
    3TTP     C4 2274   0.838   1.163   1.214 -0.1729 -0.2378  0.1195
    3TTP    C17 2275   0.779   1.087   1.117 -0.1924  0.0081 -0.0622
    3TTP    C18 2276   0.706   1.167   1.024 -0.0852  0.2595  0.0676
    3TTP    C32 2277   0.646   1.534   0.956 -0.5871 -0.2201 -0.5422
    3TTP    C33 2278   0.763   1.593   0.880 -0.3577 -0.0262 -0.9230
    3TTP    C34 2279   0.771   1.748   0.891 -0.7930  0.1450 -0.5793
    3TTP    C35 2280   0.827   1.814   1.013 -0.2297  0.1116  0.3141
    3TTP    C36 2281   0.838   1.965   1.009 -0.1458  0.2553  0.0951
    3TTP    C37 2282   0.902   2.032   1.126 -0.1923  0.0102  0.3704
    3TTP    C38 2283   0.824   2.021   1.258  0.8696  0.0111  0.8535
    3TTP    C39 2284   0.849   1.910   1.365  0.4498 -0.3233  0.0793
    3TTP    C40 2285   0.980   1.913   1.437 -0.7337 -0.3292 -0.3900
    3TTP    C41 2286   0.997   2.031   1.528 -0.3469  0.1193 -0.2301
    3TTP    C42 2287   1.132   2.027   1.592 -0.3810  0.4820 -0.0382
    4FIC     F1 2288   0.827  -0.451   1.216 -0.5243 -0.1249  0.1136
    4FIC     F2 2289   0.835  -0.580   1.456  0.2413 -0.0546  0.1330
    4FIC     O1 2290   0.888   0.063   1.374 -0.7165 -0.0115 -0.1796
    4FIC     N5 2291   0.888  -0.398   1.913  1.2051  0.1271 -0.0482
    4FIC     N6 2292   0.934   0.030   1.988  0.9006  0.2015 -0.2812
    4FIC    C19 2293   0.916   0.123   1.660 -0.0532  0.0959 -0.2653
    4FIC    C20 2294   0.901  -0.001   1.610 -0.0348  0.0646 -0.1923
    4FIC    C21 2295   0.887  -0.024   1.462 -0.3884  0.0100 -0.1521
    4FIC    C22 2296   0.872  -0.169   1.444 -0.2675 -0.0131 -0.0742
    4FIC    C23 2297   0.856  -0.238   1.324 -0.4952 -0.0632 -0.0157
    4FIC    C24 2298   0.843  -0.376   1.331 -0.3163 -0.0759  0.0534
    4FIC    C25 2299   0.847  -0.442   1.454  0.0782 -0.0398  0.0632
    4FIC    C26 2300   0.863  -0.374   1.574  0.3071  0.0103  0.0052
    4FIC    C27 2301   0.876  -0.235   1.569  0.1311  0.0238 -0.0652
    4FIC    C28 2302   0.894  -0.134   1.677  0.2898  0.0732 -0.1374
    4FIC    C29 2303   0.902  -0.159   1.812  0.6657  0.1180 -0.1508
    4FIC    C30 2304   0.895  -0.290   1.867  0.9609  0.1228 -0.0943
    4FIC    C31 2305   0.920  -0.055   1.908  0.7928  0.1636 -0.2225
    5FIC     F1 2306   0.050   1.035   0.282 -0.1477  0.0310  0.1181
    5FIC     F2 2307  -0.023   1.293   0.234  0.0297  0.0599  0.0030
    5FIC     O1 2308   0.423   1.104   0.668  0.0282 -0.0401 -0.0389
    5FIC     N5 2309   0.139   1.712   0.440  0.4101  0.0508 -0.2745
    5FIC     N6 2310   0.445   1.714   0.751  0.5118 -0.0106 -0.3740
    5FIC    C19 2311   0.486   1.374   0.759  0.2602 -0.0377 -0.2047
    5FIC    C20 2312   0.395   1.347   0.664  0.2090 -0.0210 -0.1607
    5FIC    C21 2313   0.368   1.205   0.622  0.0895 -0.0234 -0.0758
    5FIC    C22 2314   0.265   1.211   0.518  0.0602 -0.0023 -0.0458
    5FIC    C23 2315   0.207   1.105   0.449 -0.0416  0.0033  0.0299
    5FIC    C24 2316   0.111   1.135   0.354 -0.0495  0.0243  0.0446
    5FIC    C25 2317   0.074   1.268   0.329  0.0421  0.0392 -0.0148
    5FIC    C26 2318   0.131   1.375   0.398  0.1439  0.0337 -0.0904
    5FIC    C27 2319   0.228   1.346   0.494  0.1535  0.0125 -0.1064
    5FIC    C28 2320   0.307   1.435   0.583  0.2485  0.0016 -0.1795
    5FIC    C29 2321   0.300   1.572   0.589  0.3531  0.0107 -0.2508
    5FIC    C30 2322   0.211   1.649   0.507  0.3841  0.0328 -0.2636
    5FIC    C31 2323   0.380   1.649   0.678  0.4398 -0.0010 -0.3182
    1BTD     S2 2324   5.744   1.160   3.093  0.1523  0.1653  0.0843
    1BTD     N1 2325   5.744   0.981   3.102 -0.1110  0.1615  0.0267
    1BTD     N2 2326   5.808   1.184   3.259  0.1980  0.0178  0.0876
    1BTD     N3 2327   5.939   0.907   3.615 -0.1839 -0.2898 -0.0097
    1BTD     N4 2328   5.860   0.657   3.422 -0.5647 -0.1127 -0.0848
    1BTD     C5 2329   5.805   0.815   3.271 -0.3433  0.0162 -0.0306
    1BTD     C6 2330   5.789   0.949   3.223 -0.1491  0.0559  0.0136
    1BTD     C7 2331   5.825   1.063   3.311  0.0236 -0.0246  0.0477
    1BTD     C8 2332   5.875   1.036   3.443 -0.0060 -0.1407  0.0359
    1BTD    C15 2333   5.889   0.903   3.486 -0.1987 -0.1758 -0.0078
    1BTD    C16 2334   5.855   0.793   3.402 -0.3654 -0.0982 -0.0406
    1BTD    C43 2335   5.948   0.579   3.515  0.5376  0.2449  0.1544
    1BTD    C44 2336   6.100   0.603   3.511 -0.4300 -0.1552  0.1031
    1BTD    C45 2337   6.171   0.553   3.639 -0.2808  0.0239 -0.0717
    1BTD    C46 2338   6.305   0.610   3.691 -0.3670 -0.4683  0.2747
    1BTD    C47 2339   6.173   0.579   3.375  0.5432  0.7917  0.1940
    1BTD    C48 2340   6.191   0.438   3.317  0.0910 -0.1546  0.1943
    1BTD    C49 2341   6.295   0.436   3.201 -0.1135 -0.2472 -0.6143
    1BTD    C50 2342   6.259   0.325   3.101 -0.2474 -0.6021  0.1343
    1BTD    C75 2343   5.933   0.808   3.723 -0.1030  0.4279 -0.3104
    1BTD    C76 2344   5.815   0.794   3.812  0.0966 -0.3730 -0.5278
    1BTD    C77 2345   5.799   0.657   3.877 -0.5887 -0.0886 -0.4973
    1BTD    C78 2346   5.896   0.614   3.987  0.6573 -0.0588 -0.2580
    1BTD    C79 2347   5.784   0.917   3.894  0.0664 -0.0996  0.3662
    1BTD    C80 2348   5.659   0.928   3.976  0.5139 -0.6220  0.4330
    1BTD    C81 2349   5.656   1.022   4.089 -0.6722 -0.1946 -0.0740
    1BTD    C82 2350   5.521   1.009   4.160  0.2505 -0.1392  0.1073
    2TTP     S1 2351   5.745   0.608   3.054 -0.3051 -0.0339  0.1159
    2TTP     S5 2352   5.840   0.293   3.330  0.0527  0.0742  0.1181
    2TTP     C1 2353   5.803   0.219   3.168 -0.1430  0.0118  0.1906
    2TTP     C2 2354   5.772   0.312   3.073 -0.2652 -0.0253  0.1942
    2TTP     C3 2355   5.776   0.445   3.125 -0.2084 -0.0057  0.1398
    2TTP     C4 2356   5.782   0.682   3.216 -0.1092  0.0286  0.0435
    2TTP    C17 2357   5.814   0.589   3.311  0.0129  0.0656  0.0398
    2TTP    C18 2358   5.810   0.456   3.259 -0.0440  0.0460  0.0942
    2TTP    C32 2359   5.749   0.282   2.921  0.4913 -0.6431 -0.9781
    2TTP    C33 2360   5.607   0.298   2.865  0.3312  0.1136  0.8655
    2TTP    C34 2361   5.617   0.315   2.712 -0.0186  0.4293 -0.5772
    2TTP    C35 2362   5.491   0.294   2.636  0.5217 -0.4851  0.0178
    2TTP    C36 2363   5.495   0.302   2.484  0.2087  0.2200  0.5692
    2TTP    C37 2364   5.569   0.188   2.406 -0.5636 -0.0096 -0.8481
    2TTP    C38 2365   5.502   0.045   2.409 -0.3637 -0.2934 -0.3587
    2TTP    C39 2366   5.572  -0.042   2.313 -0.1136  0.1797  0.9885
    2TTP    C40 2367   5.515  -0.184   2.310  0.1943 -0.0797  0.2710
    2TTP    C41 2368   5.559  -0.269   2.195 -0.3323 -0.0634 -0.6815
    2TTP    C42 2369   5.510  -0.411   2.236 -0.1832  0.8093 -0.5077
    3TTP     S1 2370   5.953   1.297   3.571 -0.2056 -0.0956  0.3495
    3TTP     S5 2371   6.152   1.071   3.878  0.1289 -0.4022 -0.0902
    3TTP     C1 2372   6.195   1.247   3.898  0.2649 -0.4403 -0.0487
    3TTP     C2 2373   6.136   1.327   3.805  0.1696 -0.3479  0.0895
    3TTP     C3 2374   6.055   1.252   3.714 -0.0142 -0.2436  0.1677
    3TTP     C4 2375   5.910   1.122   3.551 -0.3415 -0.0575  0.3080
    3TTP    C17 2376   5.969   1.041   3.645 -0.2462 -0.1499  0.1697
    3TTP    C18 2377   6.050   1.116   3.736 -0.0623 -0.2542  0.0916
    3TTP    C32 2378   6.143   1.479   3.781 -0.5940  1.0074 -0.5391
    3TTP    C33 2379   6.024   1.559   3.851 -0.5268  0.0429 -0.2418
    3TTP    C34 2380   6.044   1.716   3.850  0.3913  0.6951 -0.1874
    3TTP    C35 2381   6.043   1.783   3.708  0.4046  0.0807 -0.2548
    3TTP    C36 2382   6.059   1.935   3.714  0.1772  0.2689  0.4563
    3TTP    C37 2383   5.937   2.023   3.743  0.1808  0.2805 -0.9423
    3TTP    C38 2384   5.821   2.013   3.647  0.2855  0.1223 -0.3762
    3TTP    C39 2385   5.831   2.097   3.516 -0.2214 -0.2706  0.0738
    3TTP    C40 2386   5.697   2.105   3.437 -0.6412  0.3181 -0.1765
    3TTP    C41 2387   5.714   2.181   3.298  1.0497  0.3940 -0.5185
    3TTP    C42 2388   5.572   2.196   3.226 -0.5570  0.0778  0.5667
    4FIC     F1 2389   5.923  -0.490   3.576 -0.4011  0.0837  0.1529
    4FIC     F2 2390   5.997  -0.604   3.341 -0.1204  0.0405  0.2609
    4FIC     O1 2391   5.793   0.009   3.413 -0.0433  0.1047 -0.0687
    4FIC     N5 2392   6.010  -0.412   2.885  0.5382 -0.0062  0.2580
    4FIC     N6 2393   5.893   0.001   2.804  0.7612  0.0188  0.0629
    4FIC    C19 2394   5.817   0.078   3.129  0.3520  0.0710 -0.0444
    4FIC    C20 2395   5.847  -0.044   3.179  0.2509  0.0672  0.0072
    4FIC    C21 2396   5.832  -0.071   3.326  0.0484  0.0856 -0.0095
    4FIC    C22 2397   5.873  -0.211   3.347 -0.0186  0.0763  0.0581
    4FIC    C23 2398   5.876  -0.282   3.467 -0.1974  0.0868  0.0693
    4FIC    C24 2399   5.918  -0.414   3.462 -0.2274  0.0742  0.1381
    4FIC    C25 2400   5.956  -0.473   3.340 -0.0828  0.0519  0.1936
    4FIC    C26 2401   5.953  -0.403   3.220  0.0958  0.0417  0.1827
    4FIC    C27 2402   5.911  -0.269   3.223  0.1292  0.0536  0.1135
    4FIC    C28 2403   5.896  -0.168   3.116  0.3008  0.0474  0.0844
    4FIC    C29 2404   5.924  -0.187   2.982  0.4725  0.0272  0.1220
    4FIC    C30 2405   5.971  -0.311   2.929  0.5080  0.0088  0.1966
    4FIC    C31 2406   5.907  -0.083   2.885  0.6304  0.0226  0.0893
    5FIC     F1 2407   6.724   0.917   4.442 -0.0491 -0.0683  0.1586
    5FIC     F2 2408   6.799   1.169   4.513  0.1515 -0.0606 -0.0765
    5FIC     O1 2409   6.355   1.022   4.061 -0.1194 -0.1273  0.2104
    5FIC     N5 2410   6.641   1.607   4.343  0.3898 -0.0915 -0.3778
    5FIC     N6 2411   6.338   1.638   4.031  0.2945 -0.1391 -0.2898
    5FIC    C19 2412   6.294   1.301   3.993  0.0473 -0.1408  0.0042
    5FIC    C20 2413   6.384   1.264   4.086  0.0571 -0.1263  0.0003
    5FIC    C21 2414   6.410   1.119   4.116 -0.0321 -0.1201  0.1101
    5FIC    C22 2415   6.513   1.115   4.221  0.0047 -0.1041  0.0749
    5FIC    C23 2416   6.569   1.003   4.281 -0.0505 -0.0937  0.1464
    5FIC    C24 2417   6.665   1.024   4.379  0.0009 -0.0792  0.0931
    5FIC    C25 2418   6.703   1.154   4.415  0.1042 -0.0751 -0.0281
    5FIC    C26 2419   6.647   1.267   4.356  0.1598 -0.0855 -0.1000
    5FIC    C27 2420   6.550   1.247   4.257  0.1091 -0.1003 -0.0476
    5FIC    C28 2421   6.472   1.344   4.175  0.1454 -0.1138 -0.0982
    5FIC    C29 2422   6.481   1.481   4.181  0.2423 -0.1144 -0.2143
    5FIC    C30 2423   6.569   1.550   4.270  0.3231 -0.1018 -0.3037
    5FIC    C31 2424   6.402   1.567   4.098  0.2705 -0.1280 -0.2552
    1BTD     S2 2425   1.140   6.753   0.678  0.2478 -0.1822 -0.1675
    1BTD     N1 2426   1.115   6.931   0.672  0.0117 -0.2078  0.0244
    1BTD     N2 2427   1.065   6.723   0.517  0.3764 -0.0989 -0.2438
    1BTD     N3 2428   0.867   6.983   0.180  0.2121  0.0241 -0.0528
    1BTD     N4 2429   0.929   7.239   0.371 -0.2374 -0.1100  0.2777
    1BTD     C5 2430   1.017   7.089   0.512 -0.1130 -0.1551  0.1526
    1BTD     C6 2431   1.055   6.957   0.557  0.0394 -0.1558  0.0218
    1BTD     C7 2432   1.027   6.841   0.470  0.2436 -0.0948 -0.1283
    1BTD     C8 2433   0.962   6.862   0.343  0.2852 -0.0365 -0.1401
    1BTD    C15 2434   0.926   6.992   0.304  0.1314 -0.0379 -0.0090
    1BTD    C16 2435   0.954   7.104   0.388 -0.0654 -0.0968  0.1357
    1BTD    C43 2436   0.843   7.306   0.275  0.2152 -0.2049 -0.9741
    1BTD    C44 2437   0.702   7.351   0.317 -0.0513 -0.0534  0.1564
    1BTD    C45 2438   0.617   7.226   0.348 -0.0427 -0.6748  0.2047
    1BTD    C46 2439   0.483   7.241   0.413  0.1417  1.0590 -0.2523
    1BTD    C47 2440   0.649   7.456   0.219 -0.1234 -0.5698  0.4429
    1BTD    C48 2441   0.597   7.406   0.079 -0.6506 -0.9027 -0.2708
    1BTD    C49 2442   0.550   7.529   0.001  0.6652  0.0995  0.1101
    1BTD    C50 2443   0.492   7.493  -0.136 -0.4059  0.7585 -0.3765
    1BTD    C75 2444   0.866   7.085   0.068  0.4580  0.5112 -0.3077
    1BTD    C76 2445   0.961   7.085  -0.055  0.3525  0.0574  0.0560
    1BTD    C77 2446   0.931   7.190  -0.164 -0.2675 -0.4532  0.0160
    1BTD    C78 2447   0.795   7.179  -0.228  0.0204  0.4322  0.0407
    1BTD    C79 2448   1.111   7.083  -0.004  0.3323 -0.3122 -0.4838
    1BTD    C80 2449   1.212   7.039  -0.098 -0.7123 -0.3496 -0.2012
    1BTD    C81 2450   1.194   6.906  -0.174  0.5402  0.7360 -0.1085
    1BTD    C82 2451   1.324   6.842  -0.223 -0.1152 -0.0828  0.1352
    2TTP     S1 2452   1.069   7.290   0.733 -0.3733 -0.0440  0.2714
    2TTP     S5 2453   0.870   7.590   0.498  0.4529  0.1712 -0.1606
    2TTP     C1 2454   0.905   7.659   0.663  0.3699  0.2083 -0.1585
    2TTP     C2 2455   0.968   7.571   0.745  0.1099  0.1438 -0.0249
    2TTP     C3 2456   0.991   7.445   0.681 -0.0332  0.0629  0.0805
    2TTP     C4 2457   1.034   7.221   0.569 -0.2904 -0.0811  0.2693
    2TTP    C17 2458   0.970   7.309   0.486 -0.0304 -0.0167  0.1358
    2TTP    C18 2459   0.947   7.435   0.550  0.1127  0.0641  0.0303
    2TTP    C32 2460   1.016   7.596   0.888  0.1559 -0.0489  0.2037
    2TTP    C33 2461   1.164   7.624   0.911  0.2010  0.1072  0.1159
    2TTP    C34 2462   1.230   7.745   0.859 -0.0643 -1.3903  0.5217
    2TTP    C35 2463   1.159   7.878   0.898  0.3207  0.1687  0.5431
    2TTP    C36 2464   1.194   7.996   0.808 -0.2512  0.4827  0.1056
    2TTP    C37 2465   1.133   8.122   0.843  0.8094 -0.9499  0.3505
    2TTP    C38 2466   1.139   8.217   0.729  0.4201 -0.0361  0.4930
    2TTP    C39 2467   1.125   8.364   0.766 -0.4743  0.0460 -0.1376
    2TTP    C40 2468   1.107   8.463   0.647 -0.0301  0.2377 -0.0952
    2TTP    C41 2469   1.071   8.614   0.672 -0.4241  0.2497 -0.1597
    2TTP    C42 2470   0.921   8.639   0.709 -0.1901  0.3649  0.2375
    3TTP     S1 2471   0.908   6.596   0.202  0.0416  0.0188 -0.0493
    3TTP     S5 2472   0.674   6.806  -0.092  0.2179  0.3289  0.0309
    3TTP     C1 2473   0.657   6.627  -0.122  0.1296  0.3562 -0.0860
    3TTP     C2 2474   0.728   6.552  -0.032  0.0700  0.2620 -0.1177
    3TTP     C3 2475   0.799   6.633   0.062  0.0919  0.1650 -0.0507
    3TTP     C4 2476   0.924   6.775   0.231  0.1299 -0.0085  0.0676
    3TTP    C17 2477   0.853   6.850   0.142  0.1895  0.0857  0.0993
    3TTP    C18 2478   0.783   6.770   0.047  0.1677  0.1827  0.0323
    3TTP    C32 2479   0.736   6.399  -0.030  0.9582 -0.1951 -0.5442
    3TTP    C33 2480   0.861   6.337  -0.088 -0.1769  0.2327 -0.0659
    3TTP    C34 2481   0.850   6.184  -0.119 -0.2016 -0.4272  0.0350
    3TTP    C35 2482   0.823   6.079  -0.009 -0.3220  0.1689  0.1945
    3TTP    C36 2483   0.943   6.059   0.074 -0.6627  0.6132 -0.4275
    3TTP    C37 2484   0.922   5.954   0.179  0.2429  0.3971  0.3583
    3TTP    C38 2485   1.040   5.903   0.264  1.1569  0.4869 -0.1655
    3TTP    C39 2486   1.126   5.998   0.348  0.1923 -0.1772 -0.0901
    3TTP    C40 2487   1.253   5.937   0.400 -0.1279  0.3542 -0.1323
    3TTP    C41 2488   1.336   6.050   0.455 -0.1320 -0.0175  0.0169
    3TTP    C42 2489   1.469   6.007   0.516 -0.0816  0.3199  0.0105
    4FIC     F1 2490   0.755   8.374   0.280 -0.2738  0.2513  0.1850
    4FIC     F2 2491   0.681   8.480   0.520  0.0341  0.2496  0.2822
    4FIC     O1 2492   0.889   7.870   0.429 -0.3459  0.1668 -0.0364
    4FIC     N5 2493   0.670   8.274   0.970  0.4254  0.1867  0.2641
    4FIC     N6 2494   0.790   7.859   1.037  0.3070  0.1208  0.0715
    4FIC    C19 2495   0.866   7.793   0.710 -0.0773  0.1347 -0.0222
    4FIC    C20 2496   0.835   7.915   0.663 -0.0712  0.1562  0.0297
    4FIC    C21 2497   0.850   7.948   0.517 -0.2143  0.1717  0.0184
    4FIC    C22 2498   0.808   8.088   0.501 -0.1670  0.1934  0.0848
    4FIC    C23 2499   0.805   8.163   0.384 -0.2597  0.2127  0.0998
    4FIC    C24 2500   0.761   8.294   0.393 -0.1889  0.2315  0.1666
    4FIC    C25 2501   0.723   8.349   0.516 -0.0303  0.2305  0.2166
    4FIC    C26 2502   0.726   8.275   0.634  0.0629  0.2112  0.2021
    4FIC    C27 2503   0.770   8.142   0.626 -0.0067  0.1922  0.1347
    4FIC    C28 2504   0.785   8.038   0.731  0.0585  0.1693  0.1027
    4FIC    C29 2505   0.758   8.052   0.865  0.2101  0.1616  0.1349
    4FIC    C30 2506   0.709   8.174   0.922  0.3280  0.1755  0.2058
    4FIC    C31 2507   0.775   7.946   0.959  0.2625  0.1392  0.0998
    5FIC     F1 2508   0.127   6.904  -0.693 -0.1062 -0.0732  0.0716
    5FIC     F2 2509   0.054   6.647  -0.741  0.1448 -0.1206 -0.0575
    5FIC     O1 2510   0.505   6.834  -0.311 -0.2571  0.1258  0.2582
    5FIC     N5 2511   0.219   6.226  -0.539  0.3983 -0.0470 -0.1103
    5FIC     N6 2512   0.529   6.223  -0.231  0.2298  0.1180  0.0617
    5FIC    C19 2513   0.570   6.563  -0.222 -0.0708  0.1510  0.2012
    5FIC    C20 2514   0.477   6.591  -0.316 -0.0427  0.1029  0.1592
    5FIC    C21 2515   0.450   6.733  -0.357 -0.1437  0.0929  0.1925
    5FIC    C22 2516   0.345   6.727  -0.460 -0.0812  0.0368  0.1322
    5FIC    C23 2517   0.286   6.834  -0.528 -0.1363  0.0093  0.1362
    5FIC    C24 2518   0.189   6.804  -0.622 -0.0580 -0.0438  0.0715
    5FIC    C25 2519   0.152   6.671  -0.647  0.0716 -0.0679  0.0050
    5FIC    C26 2520   0.210   6.564  -0.580  0.1271 -0.0408  0.0006
    5FIC    C27 2521   0.308   6.592  -0.484  0.0492  0.0129  0.0656
    5FIC    C28 2522   0.388   6.503  -0.396  0.0780  0.0526  0.0795
    5FIC    C29 2523   0.381   6.366  -0.391  0.1944  0.0441  0.0284
    5FIC    C30 2524   0.292   6.290  -0.473  0.3061 -0.0060 -0.0476
    5FIC    C31 2525   0.463   6.288  -0.303  0.2132  0.0848  0.0469
    1BTD     S2 2526   5.859   6.771   2.175  0.1446 -0.0507 -0.0204
    1BTD     N1 2527   5.869   6.950   2.184 -0.2927 -0.0324  0.1239
    1BTD     N2 2528   5.926   6.745   2.340  0.6033 -0.0386 -0.2010
    1BTD     N3 2529   6.079   7.016   2.692  0.7489  0.0191 -0.3085
    1BTD     N4 2530   6.008   7.269   2.499 -0.3554  0.0267  0.0920
    1BTD     C5 2531   5.942   7.114   2.351 -0.3121 -0.0015  0.1025
    1BTD     C6 2532   5.918   6.980   2.303 -0.0849 -0.0188  0.0347
    1BTD     C7 2533   5.950   6.865   2.390  0.4168 -0.0224 -0.1472
    1BTD     C8 2534   6.005   6.889   2.521  0.6660 -0.0085 -0.2524
    1BTD    C15 2535   6.027   7.022   2.564  0.4293  0.0084 -0.1805
    1BTD    C16 2536   5.996   7.133   2.480 -0.0541  0.0118 -0.0051
    1BTD    C43 2537   6.084   7.349   2.596 -0.3378 -0.4583  0.3514
    1BTD    C44 2538   6.236   7.350   2.584 -0.4162 -0.0602 -0.0092
    1BTD    C45 2539   6.289   7.415   2.709 -0.2855 -1.1057 -0.2538
    1BTD    C46 2540   6.442   7.422   2.737 -0.0237  0.6113  0.3897
    1BTD    C47 2541   6.294   7.383   2.441  0.0634  0.0150 -0.0894
    1BTD    C48 2542   6.297   7.533   2.403  0.4929  0.0429 -0.2412
    1BTD    C49 2543   6.346   7.552   2.260  0.8749  0.2044  0.1714
    1BTD    C50 2544   6.315   7.694   2.211  0.7216  0.5831 -0.0420
    1BTD    C75 2545   6.078   7.116   2.795  0.0790 -0.5169 -0.0814
    1BTD    C76 2546   5.966   7.132   2.902  0.1233 -0.2399  0.7889
    1BTD    C77 2547   5.985   7.251   2.990  0.1930 -0.3591  0.2009
    1BTD    C78 2548   6.098   7.244   3.099  0.0256  0.0058 -0.1878
    1BTD    C79 2549   5.919   7.001   2.974  0.0620 -0.1476 -0.1206
    1BTD    C80 2550   5.799   7.011   3.068  0.0044 -0.6146 -0.1781
    1BTD    C81 2551   5.750   6.884   3.125  0.7941  0.0167 -0.4103
    1BTD    C82 2552   5.625   6.914   3.203  0.9097  0.4652 -0.0463
    2TTP     S1 2553   5.885   7.309   2.127  0.0953 -0.0245 -0.2367
    2TTP     S5 2554   5.974   7.634   2.394 -0.4182  0.0284 -0.1274
    2TTP     C1 2555   5.932   7.703   2.230 -0.0378 -0.0072 -0.2410
    2TTP     C2 2556   5.902   7.606   2.138  0.1433 -0.0259 -0.2815
    2TTP     C3 2557   5.911   7.475   2.194 -0.0119 -0.0123 -0.2242
    2TTP     C4 2558   5.926   7.240   2.290 -0.2851  0.0111 -0.1230
    2TTP    C17 2559   5.956   7.337   2.382 -0.4662  0.0295 -0.0826
    2TTP    C18 2560   5.947   7.468   2.327 -0.3108  0.0163 -0.1400
    2TTP    C32 2561   5.856   7.629   1.993  0.0855  0.0712 -0.4254
    2TTP    C33 2562   5.712   7.583   1.958  0.1383  0.5516 -0.1839
    2TTP    C34 2563   5.579   7.646   2.022 -0.2711 -0.4883 -0.0427
    2TTP    C35 2564   5.560   7.796   2.005 -0.4588 -0.7335 -0.0703
    2TTP    C36 2565   5.564   7.853   1.863 -0.3392  0.4727  0.2268
    2TTP    C37 2566   5.563   8.010   1.852  0.3846  0.9731 -0.3409
    2TTP    C38 2567   5.558   8.060   1.708  0.7470 -0.2049 -0.2076
    2TTP    C39 2568   5.418   8.041   1.634 -0.3026 -0.1721 -0.6335
    2TTP    C40 2569   5.426   8.071   1.483  0.5023 -0.1395  0.0683
    2TTP    C41 2570   5.436   8.216   1.434  0.5498  0.2557  0.5677
    2TTP    C42 2571   5.444   8.209   1.285 -0.3461  0.4548  0.2799
    3TTP     S1 2572   6.077   6.630   2.657 -0.0115 -0.1263 -0.2599
    3TTP     S5 2573   6.311   6.850   2.943 -0.0401 -0.2671 -0.1280
    3TTP     C1 2574   6.338   6.672   2.971 -0.0253 -0.2806 -0.2275
    3TTP     C2 2575   6.267   6.594   2.884 -0.0156 -0.2377 -0.2741
    3TTP     C3 2576   6.189   6.672   2.793 -0.0196 -0.1931 -0.2329
    3TTP     C4 2577   6.050   6.808   2.629 -0.0261 -0.1130 -0.1605
    3TTP    C17 2578   6.121   6.887   2.716 -0.0360 -0.1557 -0.1139
    3TTP    C18 2579   6.199   6.809   2.808 -0.0321 -0.2004 -0.1550
    3TTP    C32 2580   6.271   6.440   2.868  0.0616 -0.6330 -0.2860
    3TTP    C33 2581   6.152   6.371   2.930 -0.0703  0.1093 -0.9040
    3TTP    C34 2582   6.143   6.218   2.913 -0.0773  0.4014 -0.7593
    3TTP    C35 2583   6.016   6.162   2.973  0.9812 -0.0388  0.2305
    3TTP    C36 2584   5.996   6.017   2.943 -0.4012  0.3591 -0.4149
    3TTP    C37 2585   5.939   5.989   2.805  0.2535 -0.8410 -0.0366
    3TTP    C38 2586   5.896   5.850   2.766  0.4462 -0.1093  0.4558
    3TTP    C39 2587   5.835   5.838   2.625 -0.5743 -0.1099 -0.0568
    3TTP    C40 2588   5.703   5.917   2.601 -0.3364 -0.1533  0.2502
    3TTP    C41 2589   5.658   5.906   2.458  0.6372 -0.1855  0.2639
    3TTP    C42 2590   5.554   6.013   2.409  0.0485  0.4993 -0.0901
    4FIC     F1 2591   5.991   8.426   2.629 -0.0201  0.1130 -0.1023
    4FIC     F2 2592   6.025   8.549   2.389  0.6548  0.0300 -0.0528
    4FIC     O1 2593   5.932   7.911   2.474 -0.2936  0.1554 -0.1386
    4FIC     N5 2594   6.031   8.359   1.932  1.4304 -0.0589 -0.0074
    4FIC     N6 2595   5.978   7.932   1.859  1.0808 -0.0091 -0.0456
    4FIC    C19 2596   5.943   7.846   2.189  0.2542  0.0911 -0.1041
    4FIC    C20 2597   5.957   7.971   2.237  0.2965  0.0838 -0.0969
    4FIC    C21 2598   5.950   7.996   2.385  0.0026  0.1185 -0.1158
    4FIC    C22 2599   5.968   8.142   2.403  0.1361  0.0997 -0.1017
    4FIC    C23 2600   5.969   8.213   2.523 -0.0414  0.1197 -0.1112
    4FIC    C24 2601   5.989   8.350   2.515  0.1397  0.0951 -0.0943
    4FIC    C25 2602   6.006   8.413   2.391  0.4875  0.0529 -0.0688
    4FIC    C26 2603   6.005   8.343   2.271  0.6663  0.0329 -0.0592
    4FIC    C27 2604   5.986   8.204   2.277  0.4873  0.0565 -0.0761
    4FIC    C28 2605   5.979   8.101   2.170  0.5996  0.0451 -0.0721
    4FIC    C29 2606   5.992   8.123   2.035  0.9228  0.0062 -0.0497
    4FIC    C30 2607   6.014   8.253   1.979  1.2008 -0.0293 -0.0265
    4FIC    C31 2608   5.984   8.018   1.939  1.0079 -0.0019 -0.0475
    5FIC     F1 2609   6.910   6.963   3.487 -0.1690  0.2092  0.0497
    5FIC     F2 2610   6.947   6.710   3.580  0.0622  0.1768 -0.1290
    5FIC     O1 2611   6.531   6.879   3.109 -0.3435  0.1824  0.2310
    5FIC     N5 2612   6.729   6.287   3.445  0.2701  0.1106 -0.2568
    5FIC     N6 2613   6.426   6.272   3.132  0.0871  0.0962 -0.0792
    5FIC    C19 2614   6.431   6.608   3.065 -0.1847  0.1415  0.1246
    5FIC    C20 2615   6.525   6.639   3.156 -0.1498  0.1497  0.0859
    5FIC    C21 2616   6.571   6.781   3.173 -0.2367  0.1706  0.1453
    5FIC    C22 2617   6.673   6.779   3.280 -0.1699  0.1746  0.0817
    5FIC    C23 2618   6.745   6.887   3.331 -0.2127  0.1922  0.1044
    5FIC    C24 2619   6.836   6.861   3.432 -0.1326  0.1925  0.0321
    5FIC    C25 2620   6.855   6.730   3.480 -0.0136  0.1756 -0.0599
    5FIC    C26 2621   6.784   6.622   3.429  0.0297  0.1581 -0.0832
    5FIC    C27 2622   6.691   6.647   3.327 -0.0500  0.1575 -0.0109
    5FIC    C28 2623   6.601   6.555   3.253 -0.0329  0.1416 -0.0119
    5FIC    C29 2624   6.589   6.419   3.270  0.0713  0.1227 -0.0889
    5FIC    C30 2625   6.666   6.347   3.366  0.1802  0.1162 -0.1809
    5FIC    C31 2626   6.499   6.339   3.194  0.0794  0.1081 -0.0831
    1BTD     S2 2627   4.825   3.839   3.249 -0.1667 -0.2019 -0.0675
    1BTD     N1 2628   4.847   3.661   3.246 -0.8590 -0.3007  0.3493
    1BTD     N2 2629   4.900   3.861   3.411  0.5263 -0.0197 -0.4022
    1BTD     N3 2630   5.092   3.582   3.737  0.6881  0.1729 -0.3319
    1BTD     N4 2631   5.027   3.336   3.533 -1.0189 -0.1734  0.5940
    1BTD     C5 2632   4.942   3.494   3.399 -0.9218 -0.2301  0.4659
    1BTD     C6 2633   4.906   3.628   3.360 -0.5538 -0.1982  0.2240
    1BTD     C7 2634   4.936   3.740   3.453  0.2215 -0.0409 -0.1967
    1BTD     C8 2635   4.999   3.712   3.579  0.5901  0.0767 -0.3544
    1BTD    C15 2636   5.032   3.579   3.612  0.2080  0.0402 -0.1064
    1BTD    C16 2637   5.004   3.472   3.523 -0.5392 -0.1115  0.2990
    1BTD    C43 2638   5.105   3.251   3.628 -0.3023  0.5009 -0.2747
    1BTD    C44 2639   5.254   3.211   3.611 -0.2489  0.5198 -0.6940
    1BTD    C45 2640   5.345   3.331   3.615 -0.3545 -0.5939  0.0300
    1BTD    C46 2641   5.493   3.301   3.561  0.3186 -0.8221 -0.8513
    1BTD    C47 2642   5.309   3.101   3.703 -0.1370  0.0978 -0.1159
    1BTD    C48 2643   5.238   2.969   3.723  0.1454  0.1945  0.1340
    1BTD    C49 2644   5.309   2.871   3.810  0.1219 -0.4957 -0.3228
    1BTD    C50 2645   5.233   2.745   3.830  0.3958  0.2575  0.0279
    1BTD    C75 2646   5.109   3.479   3.844 -0.0093  0.5253 -0.0637
    1BTD    C76 2647   5.010   3.451   3.960 -0.1586  0.3596  0.4954
    1BTD    C77 2648   5.053   3.350   4.068 -0.1060 -0.1086  0.2594
    1BTD    C78 2649   5.189   3.368   4.136  0.0415 -0.2567  0.4561
    1BTD    C79 2650   4.857   3.458   3.914  0.0655  0.8853 -0.5682
    1BTD    C80 2651   4.747   3.482   4.021 -0.1389 -0.2354 -0.0220
    1BTD    C81 2652   4.724   3.628   4.052 -0.8776 -0.0742  0.6983
    1BTD    C82 2653   4.607   3.659   4.141  0.0855 -0.1324  0.1404
    2TTP     S1 2654   4.876   3.293   3.172  0.1504 -0.1516 -0.0787
    2TTP     S5 2655   5.018   2.971   3.419 -0.0565 -0.1324  0.0659
    2TTP     C1 2656   4.962   2.902   3.261  0.2432 -0.1233 -0.0450
    2TTP     C2 2657   4.915   2.997   3.175  0.3247 -0.1287 -0.0963
    2TTP     C3 2658   4.921   3.128   3.231  0.1534 -0.1402 -0.0497
    2TTP     C4 2659   4.932   3.362   3.331 -0.1494 -0.1607  0.0323
    2TTP    C17 2660   4.979   3.267   3.416 -0.2309 -0.1553  0.0835
    2TTP    C18 2661   4.973   3.136   3.360 -0.0596 -0.1438  0.0370
    2TTP    C32 2662   4.877   2.978   3.032  0.3525 -0.4840  0.4875
    2TTP    C33 2663   4.774   2.883   2.988 -0.3861  0.2052  0.2879
    2TTP    C34 2664   4.640   2.904   3.051 -0.3214  0.1264  0.4312
    2TTP    C35 2665   4.534   2.812   2.987  0.6663  0.1792 -0.3364
    2TTP    C36 2666   4.404   2.836   3.056 -0.6371  0.3073  0.2632
    2TTP    C37 2667   4.292   2.748   2.994  0.0141 -0.3881  0.0702
    2TTP    C38 2668   4.151   2.776   3.044  0.3138 -0.3394  0.6532
    2TTP    C39 2669   4.111   2.751   3.191 -0.0186  0.2790 -0.0898
    2TTP    C40 2670   4.145   2.611   3.244  0.0786 -0.7933  0.5121
    2TTP    C41 2671   4.075   2.492   3.175 -0.7224 -0.0460 -0.6316
    2TTP    C42 2672   4.132   2.357   3.237 -0.7156 -0.6854  0.1441
    3TTP     S1 2673   5.069   3.970   3.717 -0.0962 -0.0523  0.0790
    3TTP     S5 2674   5.287   3.753   4.018  0.0648  0.0355  0.0260
    3TTP     C1 2675   5.318   3.931   4.040 -0.1373  0.0591  0.1241
    3TTP     C2 2676   5.253   4.008   3.949 -0.1990  0.0334  0.1463
    3TTP     C3 2677   5.176   3.930   3.857 -0.0889 -0.0059  0.0866
    3TTP     C4 2678   5.038   3.792   3.694  0.1059 -0.0760 -0.0191
    3TTP    C17 2679   5.104   3.714   3.786  0.1675 -0.0503 -0.0413
    3TTP    C18 2680   5.181   3.793   3.877  0.0575 -0.0110  0.0184
    3TTP    C32 2681   5.260   4.161   3.926 -0.0573 -0.2690  0.3408
    3TTP    C33 2682   5.150   4.253   3.987 -0.3262 -0.1018  0.0683
    3TTP    C34 2683   5.156   4.393   3.927  0.3473 -0.6272 -0.4894
    3TTP    C35 2684   5.102   4.427   3.790  0.1469  0.2631  0.3296
    3TTP    C36 2685   5.134   4.570   3.747  0.5620  0.2634  0.2254
    3TTP    C37 2686   5.063   4.618   3.626  0.2504  0.4612 -0.0040
    3TTP    C38 2687   4.914   4.633   3.652  0.4539 -0.3278  0.5778
    3TTP    C39 2688   4.819   4.672   3.539  0.0822 -0.0710  0.2172
    3TTP    C40 2689   4.795   4.557   3.441 -0.2663 -0.3733  0.2503
    3TTP    C41 2690   4.679   4.585   3.350 -0.4312 -0.4244  0.3678
    3TTP    C42 2691   4.702   4.673   3.224  0.1274  0.0767 -0.0211
    4FIC     F1 2692   5.063   2.230   3.714 -0.5599 -0.0848  0.0781
    4FIC     F2 2693   5.105   2.089   3.485 -0.2515 -0.0085  0.0879
    4FIC     O1 2694   4.964   2.723   3.514 -0.1131  0.0210  0.1163
    4FIC     N5 2695   5.096   2.239   3.013  0.5102  0.1767  0.1292
    4FIC     N6 2696   5.010   2.653   2.903  0.7974  0.2440  0.1571
    4FIC    C19 2697   4.969   2.764   3.225  0.3403  0.1315  0.1393
    4FIC    C20 2698   4.992   2.645   3.284  0.2158  0.1020  0.1292
    4FIC    C21 2699   4.988   2.632   3.433 -0.0160  0.0454  0.1178
    4FIC    C22 2700   5.017   2.491   3.464 -0.1035  0.0250  0.1088
    4FIC    C23 2701   5.024   2.431   3.589 -0.3117 -0.0255  0.0968
    4FIC    C24 2702   5.054   2.295   3.593 -0.3570 -0.0357  0.0900
    4FIC    C25 2703   5.076   2.223   3.475 -0.1979  0.0037  0.0950
    4FIC    C26 2704   5.069   2.283   3.350  0.0103  0.0541  0.1070
    4FIC    C27 2705   5.039   2.420   3.344  0.0591  0.0652  0.1141
    4FIC    C28 2706   5.025   2.512   3.228  0.2615  0.1141  0.1268
    4FIC    C29 2707   5.039   2.479   3.095  0.4547  0.1615  0.1348
    4FIC    C30 2708   5.070   2.347   3.051  0.4845  0.1696  0.1317
    4FIC    C31 2709   5.023   2.575   2.991  0.6421  0.2066  0.1471
    5FIC     F1 2710   5.844   3.643   4.602 -0.1101  0.0138 -0.0167
    5FIC     F2 2711   5.907   3.900   4.665 -0.2013 -0.0198  0.2152
    5FIC     O1 2712   5.484   3.720   4.205  0.2568  0.2340 -0.3080
    5FIC     N5 2713   5.742   4.325   4.472 -0.0705  0.0888  0.3410
    5FIC     N6 2714   5.448   4.333   4.149  0.2346  0.2677  0.0667
    5FIC    C19 2715   5.417   3.993   4.124  0.3003  0.2801 -0.1899
    5FIC    C20 2716   5.505   3.963   4.221  0.2116  0.2260 -0.1257
    5FIC    C21 2717   5.534   3.821   4.257  0.1948  0.2055 -0.1930
    5FIC    C22 2718   5.634   3.824   4.366  0.0912  0.1451 -0.0959
    5FIC    C23 2719   5.692   3.716   4.433  0.0416  0.1081 -0.1130
    5FIC    C24 2720   5.783   3.745   4.533 -0.0567  0.0528 -0.0066
    5FIC    C25 2721   5.816   3.878   4.565 -0.1034  0.0355  0.1128
    5FIC    C26 2722   5.758   3.986   4.499 -0.0545  0.0722  0.1305
    5FIC    C27 2723   5.665   3.959   4.398  0.0452  0.1285  0.0239
    5FIC    C28 2724   5.587   4.050   4.310  0.1173  0.1775  0.0104
    5FIC    C29 2725   5.591   4.187   4.310  0.0998  0.1777  0.1058
    5FIC    C30 2726   5.674   4.262   4.399  0.0063  0.1289  0.2348
    5FIC    C31 2727   5.512   4.266   4.222  0.1743  0.2271  0.0837
    1BTD     S2 2728   0.120   3.809   1.743  0.0353  0.1698  0.0074
    1BTD     N1 2729   0.119   3.630   1.733  0.3791  0.1787 -0.2180
    1BTD     N2 2730   0.037   3.833   1.585 -0.2887  0.2060  0.1814
    1BTD     N3 2731  -0.133   3.558   1.245 -0.3283  0.2953  0.1287
    1BTD     N4 2732  -0.033   3.307   1.427  0.4945  0.2618 -0.3634
    1BTD     C5 2733   0.039   3.464   1.571  0.4294  0.2224 -0.2880
    1BTD     C6 2734   0.060   3.599   1.618  0.2417  0.2066 -0.1553
    1BTD     C7 2735   0.014   3.713   1.536 -0.1321  0.2218  0.0683
    1BTD     C8 2736  -0.051   3.687   1.410 -0.2993  0.2522  0.1479
    1BTD    C15 2737  -0.069   3.554   1.368 -0.1054  0.2668  0.0122
    1BTD    C16 2738  -0.025   3.444   1.447  0.2547  0.2520 -0.2031
    1BTD    C43 2739  -0.123   3.225   1.342  0.0102  0.2358  0.1611
    1BTD    C44 2740  -0.271   3.229   1.365  0.2166 -0.6983  0.2005
    1BTD    C45 2741  -0.350   3.192   1.237  0.0189  0.6074 -0.5801
    1BTD    C46 2742  -0.503   3.196   1.239  0.0661  0.2637 -0.2038
    1BTD    C47 2743  -0.318   3.183   1.502  0.0454  0.1503  0.6585
    1BTD    C48 2744  -0.340   3.036   1.538  0.1301  0.0519 -0.0244
    1BTD    C49 2745  -0.379   3.022   1.685  0.0700  0.3764 -0.3182
    1BTD    C50 2746  -0.429   2.880   1.712 -0.1933  0.5303  0.0732
    1BTD    C75 2747  -0.109   3.459   1.139 -0.3189 -0.2601 -0.4791
    1BTD    C76 2748   0.021   3.444   1.056  0.2635  0.0323 -0.0977
    1BTD    C77 2749   0.025   3.313   0.966  0.2980  0.2259 -0.5325
    1BTD    C78 2750  -0.083   3.295   0.860 -0.1856  0.1780 -0.1167
    1BTD    C79 2751   0.066   3.579   0.995  0.3197  0.3449  0.1927
    1BTD    C80 2752   0.196   3.588   0.915 -0.3221  0.1604 -0.3348
    1BTD    C81 2753   0.205   3.718   0.841  0.0008 -0.3394  0.0844
    1BTD    C82 2754   0.314   3.713   0.738 -0.5011  0.2424 -0.3281
    2TTP     S1 2755   0.143   3.258   1.776 -0.1191 -0.0849  0.1391
    2TTP     S5 2756   0.002   2.943   1.519  0.1858 -0.0601 -0.0599
    2TTP     C1 2757   0.076   2.868   1.667 -0.1555 -0.0699  0.1077
    2TTP     C2 2758   0.124   2.961   1.755 -0.2698 -0.0781  0.1791
    2TTP     C3 2759   0.104   3.094   1.709 -0.0919 -0.0769  0.1039
    2TTP     C4 2760   0.069   3.333   1.627  0.2222 -0.0752 -0.0286
    2TTP    C17 2761   0.021   3.240   1.539  0.3365 -0.0670 -0.0999
    2TTP    C18 2762   0.041   3.106   1.586  0.1586 -0.0680 -0.0247
    2TTP    C32 2763   0.200   2.945   1.893 -0.2614  0.5720  0.6071
    2TTP    C33 2764   0.349   2.942   1.891  0.1472 -0.1723  0.4212
    2TTP    C34 2765   0.410   2.803   1.865  0.3124 -0.1815  0.4898
    2TTP    C35 2766   0.414   2.711   1.984 -0.8890  0.1511 -0.2625
    2TTP    C36 2767   0.457   2.563   1.957 -0.4399 -0.2830 -0.3900
    2TTP    C37 2768   0.386   2.470   2.056 -0.2889  0.5766 -0.6905
    2TTP    C38 2769   0.440   2.477   2.199 -0.9240 -0.9816 -0.4853
    2TTP    C39 2770   0.341   2.437   2.308 -0.9082 -0.0805  0.4717
    2TTP    C40 2771   0.405   2.413   2.443  0.6519 -0.2617 -0.0931
    2TTP    C41 2772   0.316   2.354   2.561 -0.1325  0.2590  0.0732
    2TTP    C42 2773   0.256   2.223   2.515 -0.0608 -0.0646 -0.4151
    3TTP     S1 2774  -0.133   3.940   1.266  0.0193 -0.0161 -0.1254
    3TTP     S5 2775  -0.335   3.702   0.970 -0.0418  0.0647 -0.1489
    3TTP     C1 2776  -0.374   3.877   0.940 -0.2000  0.0596  0.0210
    3TTP     C2 2777  -0.314   3.961   1.029 -0.1903  0.0344  0.0383
    3TTP     C3 2778  -0.235   3.890   1.125 -0.0578  0.0181 -0.0821
    3TTP     C4 2779  -0.094   3.765   1.296  0.1774 -0.0110 -0.2954
    3TTP    C17 2780  -0.154   3.681   1.207  0.1680  0.0142 -0.3127
    3TTP    C18 2781  -0.233   3.752   1.111  0.0354  0.0304 -0.1923
    3TTP    C32 2782  -0.325   4.110   1.041  0.2276 -0.0927 -0.2212
    3TTP    C33 2783  -0.218   4.181   0.963 -0.6465  0.0692 -1.1131
    3TTP    C34 2784  -0.210   4.329   0.985  0.2585  0.0351 -0.1842
    3TTP    C35 2785  -0.087   4.383   0.909  0.7429 -0.1095 -0.0646
    3TTP    C36 2786  -0.061   4.530   0.885 -0.2152 -0.2248  0.4314
    3TTP    C37 2787  -0.080   4.626   1.002 -0.0312 -0.0370 -0.6812
    3TTP    C38 2788  -0.074   4.775   0.973 -0.0295 -0.0705  0.1473
    3TTP    C39 2789  -0.056   4.857   1.098 -0.4952  0.1179 -0.1473
    3TTP    C40 2790  -0.030   5.005   1.084  0.7793  0.7862  0.4982
    3TTP    C41 2791  -0.060   5.083   1.212  0.1797  0.6017 -0.4131
    3TTP    C42 2792  -0.036   5.229   1.188 -0.0076 -0.2259 -0.1304
    4FIC     F1 2793   0.080   2.200   1.193  0.0599 -0.0429  0.0889
    4FIC     F2 2794   0.074   2.048   1.419  0.1736  0.0607  0.1613
    4FIC     O1 2795   0.090   2.698   1.405 -0.0055  0.0585 -0.1467
    4FIC     N5 2796   0.074   2.186   1.895  0.2903  0.2822  0.0976
    4FIC     N6 2797   0.083   2.606   2.014  0.2163  0.3405 -0.1010
    4FIC    C19 2798   0.088   2.731   1.696  0.0798  0.1936 -0.1611
    4FIC    C20 2799   0.086   2.611   1.634  0.0918  0.1640 -0.1047
    4FIC    C21 2800   0.087   2.603   1.484  0.0456  0.0944 -0.1011
    4FIC    C22 2801   0.084   2.459   1.450  0.0732  0.0777 -0.0333
    4FIC    C23 2802   0.083   2.402   1.323  0.0476  0.0185 -0.0064
    4FIC    C24 2803   0.080   2.263   1.316  0.0824  0.0141  0.0592
    4FIC    C25 2804   0.077   2.185   1.432  0.1410  0.0677  0.0964
    4FIC    C26 2805   0.078   2.242   1.559  0.1668  0.1268  0.0699
    4FIC    C27 2806   0.081   2.382   1.568  0.1322  0.1321  0.0036
    4FIC    C28 2807   0.082   2.472   1.686  0.1460  0.1873 -0.0388
    4FIC    C29 2808   0.081   2.434   1.818  0.1989  0.2484 -0.0205
    4FIC    C30 2809   0.077   2.298   1.860  0.2490  0.2666  0.0443
    4FIC    C31 2810   0.082   2.529   1.925  0.2081  0.2986 -0.0649
    5FIC     F1 2811  -0.931   3.521   0.455  0.0987 -0.1165  0.2547
    5FIC     F2 2812  -0.970   3.761   0.333  0.2670 -0.2660 -0.0974
    5FIC     O1 2813  -0.559   3.654   0.825 -0.1681  0.2685  0.3846
    5FIC     N5 2814  -0.763   4.201   0.421  0.3191 -0.2066 -0.5109
    5FIC     N6 2815  -0.465   4.257   0.735  0.0765  0.1243 -0.3384
    5FIC    C19 2816  -0.465   3.931   0.840 -0.1020  0.2623  0.0945
    5FIC    C20 2817  -0.557   3.888   0.752 -0.0414  0.1714  0.0755
    5FIC    C21 2818  -0.600   3.744   0.750 -0.0811  0.1812  0.2310
    5FIC    C22 2819  -0.700   3.732   0.643  0.0039  0.0674  0.1646
    5FIC    C23 2820  -0.769   3.617   0.604  0.0038  0.0345  0.2601
    5FIC    C24 2821  -0.859   3.630   0.499  0.0935 -0.0782  0.1685
    5FIC    C25 2822  -0.880   3.754   0.436  0.1801 -0.1550 -0.0129
    5FIC    C26 2823  -0.812   3.868   0.475  0.1808 -0.1227 -0.1089
    5FIC    C27 2824  -0.720   3.857   0.581  0.0907 -0.0091 -0.0185
    5FIC    C28 2825  -0.632   3.959   0.645  0.0662  0.0519 -0.0805
    5FIC    C29 2826  -0.623   4.092   0.612  0.1310  0.0060 -0.2501
    5FIC    C30 2827  -0.700   4.151   0.507  0.2342 -0.1106 -0.3929
    5FIC    C31 2828  -0.536   4.182   0.680  0.1009  0.0714 -0.2977
    1BTD     S2 2829   5.186   9.514   0.173  0.1577  0.1309  0.0567
    1BTD     N1 2830   5.197   9.693   0.186  0.1266  0.1264  0.1427
    1BTD     N2 2831   5.249   9.483   0.338  0.1355  0.0632  0.0526
    1BTD     N3 2832   5.399   9.743   0.699  0.0347 -0.0818  0.1994
    1BTD     N4 2833   5.335  10.002   0.512  0.0235 -0.0036  0.3104
    1BTD     C5 2834   5.270   9.851   0.358  0.0730  0.0577  0.2289
    1BTD     C6 2835   5.245   9.719   0.307  0.1026  0.0775  0.1628
    1BTD     C7 2836   5.274   9.601   0.392  0.1078  0.0422  0.1124
    1BTD     C8 2837   5.327   9.622   0.525  0.0829 -0.0117  0.1306
    1BTD    C15 2838   5.349   9.753   0.571  0.0541 -0.0294  0.1959
    1BTD    C16 2839   5.321   9.866   0.489  0.0491  0.0047  0.2445
    1BTD    C43 2840   5.426  10.075   0.597 -0.6386 -0.1402  0.0339
    1BTD    C44 2841   5.568  10.114   0.556 -1.0651 -0.8411  0.6312
    1BTD    C45 2842   5.644   9.988   0.515 -0.3241  0.0505  0.4356
    1BTD    C46 2843   5.798   9.994   0.489  0.6598  0.2891 -0.5646
    1BTD    C47 2844   5.636  10.202   0.660  0.3050 -0.2137  0.1658
    1BTD    C48 2845   5.572  10.340   0.680 -0.0665  0.2076  0.3205
    1BTD    C49 2846   5.649  10.412   0.777 -0.0703  0.0790 -0.0133
    1BTD    C50 2847   5.606  10.558   0.790 -0.0169  0.2742 -0.2393
    1BTD    C75 2848   5.362   9.844   0.801  0.1567 -0.2591  0.1705
    1BTD    C76 2849   5.442   9.888   0.918 -0.5321 -0.4061 -0.4195
    1BTD    C77 2850   5.588   9.911   0.892 -0.6094  0.2237  0.2318
    1BTD    C78 2851   5.710   9.923   0.991  0.8955  0.1049  0.3413
    1BTD    C79 2852   5.362   9.990   1.009 -0.7005  0.0040 -0.2482
    1BTD    C80 2853   5.384   9.990   1.157  0.0322 -0.1271  0.0733
    1BTD    C81 2854   5.345   9.863   1.231 -0.1207  0.3918  0.0962
    1BTD    C82 2855   5.396   9.870   1.380  0.1763  0.3245  0.0835
    2TTP     S1 2856   5.202  10.064   0.152  0.1501 -0.0496 -0.0804
    2TTP     S5 2857   5.342  10.367   0.423 -0.0833  0.1075 -0.1353
    2TTP     C1 2858   5.291  10.447   0.268 -0.1621  0.0422 -0.1432
    2TTP     C2 2859   5.245  10.358   0.175 -0.0948 -0.0100 -0.1267
    2TTP     C3 2860   5.248  10.223   0.223  0.0217 -0.0005 -0.1072
    2TTP     C4 2861   5.253   9.983   0.307  0.2291  0.0155 -0.0725
    2TTP    C17 2862   5.300  10.072   0.400  0.1617  0.0679 -0.0889
    2TTP    C18 2863   5.296  10.207   0.352  0.0452  0.0587 -0.1084
    2TTP    C32 2864   5.177  10.390   0.040  0.1621 -0.0303  0.0006
    2TTP    C33 2865   5.020  10.387   0.028  0.0767  0.3956 -0.8164
    2TTP    C34 2866   4.931  10.473   0.121  0.1492 -0.0816 -0.4825
    2TTP    C35 2867   4.783  10.444   0.119 -0.0859 -0.0624  0.1732
    2TTP    C36 2868   4.689  10.516   0.213 -0.1016  0.6017 -0.1349
    2TTP    C37 2869   4.679  10.663   0.176  0.3641 -0.0714 -0.4999
    2TTP    C38 2870   4.625  10.749   0.288 -0.2290  0.0919 -0.2944
    2TTP    C39 2871   4.580  10.889   0.236 -0.5168  0.3867  0.2150
    2TTP    C40 2872   4.544  10.988   0.348 -0.4370  0.2741  0.6535
    2TTP    C41 2873   4.503  11.125   0.291 -0.3061 -0.3690  0.2967
    2TTP    C42 2874   4.455  11.226   0.405 -0.0016  0.3739  0.2121
    3TTP     S1 2875   5.359   9.358   0.662 -0.0054  0.2530 -0.0391
    3TTP     S5 2876   5.533   9.560   1.000 -0.0592 -0.2832  0.3110
    3TTP     C1 2877   5.533   9.381   1.033 -0.1055 -0.3331  0.0457
    3TTP     C2 2878   5.479   9.308   0.931 -0.0913 -0.1705 -0.0781
    3TTP     C3 2879   5.436   9.391   0.823 -0.0439 -0.0005  0.0322
    3TTP     C4 2880   5.359   9.537   0.629  0.0408  0.3028  0.2263
    3TTP    C17 2881   5.413   9.610   0.732  0.0268  0.1402  0.3501
    3TTP    C18 2882   5.456   9.527   0.840 -0.0207 -0.0298  0.2397
    3TTP    C32 2883   5.479   9.160   0.910  0.3501  0.3769 -0.2005
    3TTP    C33 2884   5.343   9.106   0.953 -0.0489  0.0802  0.1177
    3TTP    C34 2885   5.310   8.956   0.916  0.3328 -0.5961 -0.5791
    3TTP    C35 2886   5.302   8.900   0.767  0.4443 -0.0904 -0.7933
    3TTP    C36 2887   5.210   8.985   0.681  0.6728  0.6477 -0.8630
    3TTP    C37 2888   5.196   8.960   0.527  0.0014 -0.2005 -0.0503
    3TTP    C38 2889   5.151   8.830   0.477 -0.8420 -0.2296  0.4051
    3TTP    C39 2890   5.000   8.786   0.482 -0.2265  0.5121  0.1035
    3TTP    C40 2891   4.901   8.867   0.406 -0.6118 -0.1302  0.6613
    3TTP    C41 2892   4.762   8.803   0.401  0.1251  0.7373 -0.1716
    3TTP    C42 2893   4.665   8.869   0.304 -0.1670  0.1524 -0.6405
    4FIC     F1 2894   5.495  11.109   0.707 -0.0916  0.0768 -0.0227
    4FIC     F2 2895   5.461  11.261   0.484 -0.2203  0.1693  0.0601
    4FIC     O1 2896   5.373  10.618   0.515 -0.0669  0.1359 -0.1904
    4FIC     N5 2897   5.324  11.130   0.027 -0.3881  0.3445  0.0597
    4FIC     N6 2898   5.235  10.716  -0.078 -0.3428  0.3719 -0.0880
    4FIC    C19 2899   5.296  10.589   0.234 -0.1814  0.2453 -0.1708
    4FIC    C20 2900   5.328  10.706   0.291 -0.1825  0.2270 -0.1319
    4FIC    C21 2901   5.367  10.713   0.436 -0.1217  0.1702 -0.1451
    4FIC    C22 2902   5.395  10.855   0.465 -0.1400  0.1633 -0.0939
    4FIC    C23 2903   5.435  10.910   0.587 -0.0998  0.1175 -0.0858
    4FIC    C24 2904   5.456  11.047   0.590 -0.1283  0.1206 -0.0336
    4FIC    C25 2905   5.438  11.126   0.475 -0.1947  0.1682  0.0090
    4FIC    C26 2906   5.399  11.071   0.354 -0.2348  0.2143  0.0013
    4FIC    C27 2907   5.377  10.933   0.348 -0.2072  0.2120 -0.0513
    4FIC    C28 2908   5.335  10.844   0.236 -0.2358  0.2527 -0.0730
    4FIC    C29 2909   5.308  10.883   0.107 -0.2997  0.3047 -0.0440
    4FIC    C30 2910   5.317  11.019   0.064 -0.3482  0.3264  0.0129
    4FIC    C31 2911   5.268  10.791   0.006 -0.3232  0.3414 -0.0684
    5FIC     F1 2912   5.888   9.646   1.725  0.3870  0.0336 -0.0488
    5FIC     F2 2913   5.979   9.393   1.767 -0.1233 -0.1221  0.1339
    5FIC     O1 2914   5.608   9.580   1.266  0.5509  0.3448 -0.1945
    5FIC     N5 2915   5.911   8.982   1.501 -0.7406 -0.1240  0.2926
    5FIC     N6 2916   5.674   8.981   1.134 -0.5097  0.1504  0.1419
    5FIC    C19 2917   5.596   9.314   1.144  0.1214  0.3068 -0.0718
    5FIC    C20 2918   5.663   9.341   1.257  0.1001  0.2344 -0.0422
    5FIC    C21 2919   5.665   9.480   1.314  0.3296  0.2604 -0.1095
    5FIC    C22 2920   5.746   9.474   1.437  0.2397  0.1650 -0.0548
    5FIC    C23 2921   5.776   9.578   1.525  0.3836  0.1507 -0.0869
    5FIC    C24 2922   5.855   9.548   1.635  0.2564  0.0531 -0.0218
    5FIC    C25 2923   5.901   9.417   1.656 -0.0067 -0.0269  0.0723
    5FIC    C26 2924   5.872   9.313   1.570 -0.1513 -0.0131  0.1047
    5FIC    C27 2925   5.792   9.341   1.458 -0.0257  0.0846  0.0399
    5FIC    C28 2926   5.743   9.255   1.348 -0.1221  0.1245  0.0513
    5FIC    C29 2927   5.767   9.120   1.333 -0.3701  0.0696  0.1331
    5FIC    C30 2928   5.846   9.045   1.425 -0.5729 -0.0365  0.2205
    5FIC    C31 2929   5.716   9.044   1.223 -0.4455  0.1147  0.1375
    1BTD     S2 2930   0.028   9.379   2.941 -0.0444  0.0123 -0.1338
    1BTD     N1 2931   0.009   9.551   2.892 -0.0890  0.0317 -0.0490
    1BTD     N2 2932  -0.036   9.313   2.786  0.0216  0.0713 -0.1863
    1BTD     N3 2933  -0.198   9.490   2.383  0.0755  0.2272 -0.1401
    1BTD     N4 2934  -0.143   9.783   2.513 -0.0607  0.1781  0.0291
    1BTD     C5 2935  -0.071   9.669   2.693 -0.0726  0.1087 -0.0103
    1BTD     C6 2936  -0.040   9.551   2.769 -0.0542  0.0789 -0.0634
    1BTD     C7 2937  -0.066   9.417   2.710  0.0076  0.1009 -0.1402
    1BTD     C8 2938  -0.120   9.409   2.577  0.0480  0.1521 -0.1601
    1BTD    C15 2939  -0.148   9.527   2.506  0.0280  0.1799 -0.1062
    1BTD    C16 2940  -0.123   9.655   2.563 -0.0315  0.1585 -0.0322
    1BTD    C43 2941  -0.151   9.823   2.372  0.3661 -0.2518 -0.2359
    1BTD    C44 2942  -0.246   9.940   2.317  0.3239  0.8022  0.0922
    1BTD    C45 2943  -0.250   9.945   2.163 -0.1074 -0.1837 -0.2216
    1BTD    C46 2944  -0.122   9.985   2.096  0.1845  0.0305 -0.3337
    1BTD    C47 2945  -0.393   9.916   2.379  0.6385  0.5270 -0.0090
    1BTD    C48 2946  -0.511  10.017   2.345  0.0684  0.5452  0.0386
    1BTD    C49 2947  -0.480  10.170   2.368  0.3249  0.3035  0.2726
    1BTD    C50 2948  -0.491  10.197   2.513  0.0262 -0.0301 -0.8344
    1BTD    C75 2949  -0.292   9.559   2.297  0.1246 -0.1155 -0.0431
    1BTD    C76 2950  -0.293   9.551   2.142 -0.1951 -0.0231  0.2000
    1BTD    C77 2951  -0.404   9.625   2.069  0.3088 -0.0497  0.1545
    1BTD    C78 2952  -0.542   9.570   2.100  0.0718  0.5311 -0.0963
    1BTD    C79 2953  -0.150   9.585   2.091 -0.0615 -0.1663 -0.4951
    1BTD    C80 2954  -0.114   9.566   1.939  0.2196  0.4158 -0.4755
    1BTD    C81 2955   0.025   9.613   1.904 -0.3216  0.3493 -0.3301
    1BTD    C82 2956   0.058   9.584   1.763  0.4123 -0.0929  0.5182
    2TTP     S1 2957  -0.003   9.916   2.849 -0.1908  0.1819 -0.1681
    2TTP     S5 2958  -0.133  10.166   2.524  0.0185  0.3450 -0.1259
    2TTP     C1 2959  -0.073  10.273   2.659  0.3087  0.2676 -0.1924
    2TTP     C2 2960  -0.029  10.202   2.767  0.2611  0.2122 -0.2093
    2TTP     C3 2961  -0.042  10.060   2.748 -0.0062  0.2298 -0.1705
    2TTP     C4 2962  -0.063   9.809   2.714 -0.4810  0.2594 -0.1017
    2TTP    C17 2963  -0.107   9.881   2.606 -0.4334  0.3147 -0.0848
    2TTP    C18 2964  -0.094  10.022   2.626 -0.1662  0.2973 -0.1237
    2TTP    C32 2965   0.031  10.250   2.897 -0.4974  0.0273  0.4849
    2TTP    C33 2966   0.184  10.227   2.920  0.5779 -0.3350 -0.4053
    2TTP    C34 2967   0.276  10.311   2.840  0.0019 -0.4070  0.0338
    2TTP    C35 2968   0.281  10.460   2.862  0.1785  0.0346 -0.0797
    2TTP    C36 2969   0.317  10.508   3.008  0.0943  0.4217 -0.0709
    2TTP    C37 2970   0.262  10.649   3.027  0.0964 -0.0420 -0.3957
    2TTP    C38 2971   0.298  10.711   3.159  0.4205 -0.1266 -0.4318
    2TTP    C39 2972   0.250  10.853   3.171  0.0572  0.0150 -0.8134
    2TTP    C40 2973   0.263  10.919   3.307  0.1195 -0.9567 -1.0331
    2TTP    C41 2974   0.225  10.826   3.425  0.3573  0.0855  0.0546
    2TTP    C42 2975   0.227  10.885   3.558 -0.1999  0.5333 -0.3315
    3TTP     S1 2976  -0.151   9.118   2.508  0.0116  0.2782  0.0688
    3TTP     S5 2977  -0.297   9.230   2.119 -0.1180  0.1633  0.0843
    3TTP     C1 2978  -0.288   9.048   2.127 -0.0680  0.1673  0.1178
    3TTP     C2 2979  -0.242   9.003   2.248 -0.0250  0.2031  0.1149
    3TTP     C3 2980  -0.213   9.110   2.338 -0.0302  0.2284  0.0864
    3TTP     C4 2981  -0.160   9.299   2.499 -0.0385  0.2742  0.0354
    3TTP    C17 2982  -0.205   9.345   2.379 -0.0814  0.2386  0.0383
    3TTP    C18 2983  -0.235   9.237   2.289 -0.0763  0.2127  0.0669
    3TTP    C32 2984  -0.210   8.853   2.281 -1.0265 -0.1099 -0.4785
    3TTP    C33 2985  -0.085   8.832   2.381 -0.2324 -0.1812  0.1963
    3TTP    C34 2986  -0.069   8.680   2.411 -0.1267 -0.1722 -0.8513
    3TTP    C35 2987   0.056   8.681   2.500  0.3046  0.0445 -0.1417
    3TTP    C36 2988   0.074   8.560   2.589  0.1396  0.4310 -0.4065
    3TTP    C37 2989   0.199   8.549   2.686  0.0369 -0.6673 -0.2912
    3TTP    C38 2990   0.328   8.579   2.612  0.0061 -0.2939 -0.3430
    3TTP    C39 2991   0.446   8.574   2.710 -0.2987  0.2636  0.3159
    3TTP    C40 2992   0.573   8.590   2.632 -0.9002 -0.9324 -0.0222
    3TTP    C41 2993   0.698   8.626   2.715 -0.0800  0.6326  0.1510
    3TTP    C42 2994   0.827   8.631   2.633 -0.7272 -0.1617 -0.0414
    4FIC     F1 2995   0.052  10.821   2.073 -0.4480  0.0837 -0.0948
    4FIC     F2 2996   0.022  11.017   2.259  0.2552  0.0098  0.1056
    4FIC     O1 2997  -0.012  10.379   2.380 -0.7285 -0.0188 -0.3002
    4FIC     N5 2998  -0.068  10.985   2.745  1.0663 -0.1698  0.2473
    4FIC     N6 2999  -0.112  10.600   2.947  0.7054 -0.2346  0.0463
    4FIC    C19 3000  -0.064  10.410   2.666 -0.1562 -0.1256 -0.1818
    4FIC    C20 3001  -0.047  10.513   2.582 -0.1131 -0.0970 -0.1379
    4FIC    C21 3002  -0.020  10.489   2.436 -0.4202 -0.0424 -0.2040
    4FIC    C22 3003  -0.006  10.622   2.374 -0.2822 -0.0224 -0.1321
    4FIC    C23 3004   0.019  10.651   2.240 -0.4681  0.0262 -0.1572
    4FIC    C24 3005   0.028  10.785   2.204 -0.2805  0.0360 -0.0755
    4FIC    C25 3006   0.012  10.886   2.300  0.0818 -0.0021  0.0276
    4FIC    C26 3007  -0.013  10.858   2.434  0.2689 -0.0510  0.0531
    4FIC    C27 3008  -0.023  10.723   2.472  0.0837 -0.0615 -0.0284
    4FIC    C28 3009  -0.048  10.660   2.603  0.2018 -0.1087 -0.0279
    4FIC    C29 3010  -0.069  10.725   2.723  0.5389 -0.1545  0.0582
    4FIC    C30 3011  -0.068  10.868   2.734  0.8278 -0.1626  0.1619
    4FIC    C31 3012  -0.093  10.656   2.845  0.6285 -0.1984  0.0511
    5FIC     F1 3013  -0.881   9.095   1.558  0.1374  0.1028 -0.0897
    5FIC     F2 3014  -0.839   8.832   1.501  0.0967  0.0958 -0.0888
    5FIC     O1 3015  -0.516   9.174   1.950 -0.0650 -0.0341  0.1268
    5FIC     N5 3016  -0.518   8.511   1.698 -0.1061 -0.0112  0.0669
    5FIC     N6 3017  -0.241   8.625   2.015 -0.2561 -0.1168  0.2360
    5FIC    C19 3018  -0.346   8.950   2.035 -0.1757 -0.0890  0.2047
    5FIC    C20 3019  -0.439   8.941   1.938 -0.1231 -0.0544  0.1501
    5FIC    C21 3020  -0.523   9.060   1.900 -0.0681 -0.0277  0.1128
    5FIC    C22 3021  -0.614   9.015   1.793 -0.0194  0.0072  0.0566
    5FIC    C23 3022  -0.710   9.091   1.726  0.0401  0.0398  0.0081
    5FIC    C24 3023  -0.784   9.026   1.628  0.0780  0.0692 -0.0402
    5FIC    C25 3024  -0.762   8.891   1.599  0.0571  0.0660 -0.0396
    5FIC    C26 3025  -0.667   8.815   1.665 -0.0021  0.0329  0.0087
    5FIC    C27 3026  -0.590   8.879   1.765 -0.0415  0.0031  0.0580
    5FIC    C28 3027  -0.482   8.828   1.853 -0.1061 -0.0348  0.1155
    5FIC    C29 3028  -0.432   8.700   1.854 -0.1431 -0.0489  0.1331
    5FIC    C30 3029  -0.480   8.596   1.768 -0.1225 -0.0284  0.0967
    5FIC    C31 3030  -0.327   8.659   1.943 -0.2050 -0.0861  0.1896
    1BTD     S2 3031   0.832   1.172   3.592 -0.1017  0.1059 -0.1430
    1BTD     N1 3032   0.797   0.996   3.598 -0.4584  0.1835  0.1003
    1BTD     N2 3033   0.779   1.192   3.422  0.2431 -0.0817 -0.2754
    1BTD     N3 3034   0.606   0.914   3.085  0.3014 -0.3239 -0.1059
    1BTD     N4 3035   0.628   0.673   3.303 -0.5631  0.0028  0.3570
    1BTD     C5 3036   0.709   0.830   3.441 -0.5026  0.0852  0.2288
    1BTD     C6 3037   0.750   0.963   3.479 -0.3099  0.0714  0.0717
    1BTD     C7 3038   0.739   1.072   3.380  0.0828 -0.0771 -0.1385
    1BTD     C8 3039   0.689   1.044   3.249  0.2631 -0.2042 -0.1813
    1BTD    C15 3040   0.650   0.913   3.216  0.0635 -0.1853 -0.0228
    1BTD    C16 3041   0.660   0.807   3.311 -0.3149 -0.0423  0.1797
    1BTD    C43 3042   0.518   0.611   3.221 -0.3687  0.2241 -0.0836
    1BTD    C44 3043   0.370   0.619   3.265  0.2312 -0.1760 -0.2864
    1BTD    C45 3044   0.342   0.575   3.411 -0.5364 -0.2827  0.1327
    1BTD    C46 3045   0.215   0.617   3.484  0.1243  0.3114  0.2196
    1BTD    C47 3046   0.261   0.560   3.165 -0.5167  0.1671 -0.1467
    1BTD    C48 3047   0.266   0.619   3.019 -0.0344 -0.3140 -0.5988
    1BTD    C49 3048   0.160   0.560   2.926  0.3507 -0.3709 -0.6007
    1BTD    C50 3049   0.171   0.611   2.784 -0.4542 -0.9772 -0.7605
    1BTD    C75 3050   0.599   0.800   2.986  0.0466  0.6106  0.0500
    1BTD    C76 3051   0.726   0.758   2.911 -0.8819 -0.7749 -0.4988
    1BTD    C77 3052   0.717   0.628   2.833  0.4422  0.4864 -0.4197
    1BTD    C78 3053   0.651   0.627   2.699  0.6121 -0.0797  0.4070
    1BTD    C79 3054   0.809   0.874   2.855 -0.3357  0.1525  0.0769
    1BTD    C80 3055   0.950   0.851   2.791  0.4623 -0.5743 -0.0473
    1BTD    C81 3056   1.016   0.983   2.764 -0.6503 -0.0223  0.8262
    1BTD    C82 3057   1.134   0.963   2.662  1.1168  0.3262 -0.3585
    2TTP     S1 3058   0.760   0.637   3.675 -0.1909 -0.1796  0.0744
    2TTP     S5 3059   0.631   0.312   3.424  0.2418 -0.0660 -0.2961
    2TTP     C1 3060   0.676   0.245   3.587  0.1473 -0.1659 -0.3109
    2TTP     C2 3061   0.719   0.341   3.674  0.0081 -0.2068 -0.1974
    2TTP     C3 3062   0.717   0.472   3.615 -0.0289 -0.1608 -0.0947
    2TTP     C4 3063   0.714   0.704   3.512 -0.0964 -0.0797  0.0893
    2TTP    C17 3064   0.672   0.608   3.425  0.0428 -0.0387 -0.0243
    2TTP    C18 3065   0.674   0.477   3.484  0.0799 -0.0848 -0.1271
    2TTP    C32 3066   0.789   0.327   3.811 -0.1186  0.1632 -0.0495
    2TTP    C33 3067   0.943   0.333   3.834  0.3871  0.2248  0.1171
    2TTP    C34 3068   1.017   0.219   3.764 -0.1748 -0.2352 -0.5692
    2TTP    C35 3069   1.161   0.221   3.801 -0.6694  0.0982  0.0720
    2TTP    C36 3070   1.235   0.093   3.754  0.3578  0.0552  0.4176
    2TTP    C37 3071   1.387   0.097   3.772  0.2553 -0.2507 -0.0749
    2TTP    C38 3072   1.450  -0.042   3.747 -0.0515  0.1406  0.0741
    2TTP    C39 3073   1.447  -0.082   3.601 -0.2998 -0.0275  0.2267
    2TTP    C40 3074   1.432  -0.228   3.566 -0.0308 -0.5366 -0.3623
    2TTP    C41 3075   1.435  -0.251   3.414 -0.6792 -0.0417 -0.2387
    2TTP    C42 3076   1.476  -0.400   3.379  0.1549 -0.4643  0.6774
    3TTP     S1 3077   0.620   1.303   3.107  0.1456 -0.0747  0.0299
    3TTP     S5 3078   0.375   1.083   2.831  0.1172  0.0971 -0.0826
    3TTP     C1 3079   0.347   1.260   2.804  0.2660  0.1172 -0.1062
    3TTP     C2 3080   0.421   1.339   2.888  0.2835  0.0653 -0.0728
    3TTP     C3 3081   0.503   1.262   2.976  0.1801  0.0077 -0.0274
    3TTP     C4 3082   0.648   1.126   3.134 -0.0032 -0.0949  0.0535
    3TTP    C17 3083   0.574   1.047   3.050 -0.0208 -0.0431  0.0203
    3TTP    C18 3084   0.493   1.124   2.962  0.0827  0.0145 -0.0251
    3TTP    C32 3085   0.414   1.490   2.896 -0.4615 -0.1466 -0.2756
    3TTP    C33 3086   0.534   1.567   2.839  0.2703  0.4633  0.3986
    3TTP    C34 3087   0.524   1.720   2.849 -0.5207  0.2677 -0.7863
    3TTP    C35 3088   0.482   1.796   2.973  0.8021 -0.1518 -0.4078
    3TTP    C36 3089   0.326   1.826   2.985  0.5318  0.3263  0.0698
    3TTP    C37 3090   0.283   1.873   3.124  0.2559 -0.0354  0.5582
    3TTP    C38 3091   0.135   1.861   3.163  0.5929  0.3116  0.0543
    3TTP    C39 3092   0.110   1.900   3.315  0.8424  0.5229 -0.1566
    3TTP    C40 3093   0.175   1.810   3.427 -0.3533 -0.1758 -0.3990
    3TTP    C41 3094   0.145   1.873   3.564 -0.1134 -0.0446 -0.1936
    3TTP    C42 3095   0.235   1.818   3.676  0.1562 -0.5034 -0.1255
    4FIC     F1 3096   0.538  -0.453   3.187 -0.2854  0.0446  0.0265
    4FIC     F2 3097   0.489  -0.572   3.427 -0.3259  0.1805  0.0853
    4FIC     O1 3098   0.672   0.047   3.345  0.0478  0.0311 -0.2114
    4FIC     N5 3099   0.515  -0.385   3.885 -0.1465  0.3655  0.0002
    4FIC     N6 3100   0.630   0.029   3.960  0.1221  0.3275 -0.1976
    4FIC    C19 3101   0.673   0.111   3.630  0.1276  0.1558 -0.2398
    4FIC    C20 3102   0.641  -0.010   3.581  0.0453  0.1539 -0.1822
    4FIC    C21 3103   0.643  -0.035   3.433  0.0089  0.0880 -0.1713
    4FIC    C22 3104   0.604  -0.176   3.414 -0.0814  0.1040 -0.1041
    4FIC    C23 3105   0.591  -0.246   3.294 -0.1412  0.0591 -0.0718
    4FIC    C24 3106   0.552  -0.379   3.302 -0.2230  0.0866 -0.0082
    4FIC    C25 3107   0.527  -0.439   3.425 -0.2437  0.1560  0.0220
    4FIC    C26 3108   0.540  -0.371   3.546 -0.1843  0.2010 -0.0099
    4FIC    C27 3109   0.579  -0.236   3.540 -0.1012  0.1745 -0.0743
    4FIC    C28 3110   0.601  -0.136   3.648 -0.0241  0.2081 -0.1212
    4FIC    C29 3111   0.587  -0.157   3.783 -0.0184  0.2763 -0.1100
    4FIC    C30 3112   0.547  -0.283   3.838 -0.0888  0.3252 -0.0495
    4FIC    C31 3113   0.610  -0.054   3.879  0.0588  0.3040 -0.1584
    5FIC     F1 3114  -0.180   0.965   2.247 -0.3538  0.1250  0.2349
    5FIC     F2 3115  -0.270   1.218   2.206  0.4380  0.3010 -0.4716
    5FIC     O1 3116   0.205   1.053   2.618 -0.5915 -0.1490  0.5490
    5FIC     N5 3117  -0.126   1.645   2.410  1.4069  0.3589 -1.2635
    5FIC     N6 3118   0.193   1.663   2.707  1.0616  0.1094 -0.8757
    5FIC    C19 3119   0.256   1.326   2.709  0.0806 -0.0781 -0.0145
    5FIC    C20 3120   0.162   1.294   2.618  0.1094 -0.0161 -0.0659
    5FIC    C21 3121   0.142   1.151   2.576 -0.2496 -0.0582  0.2370
    5FIC    C22 3122   0.034   1.152   2.476 -0.1145  0.0293  0.0901
    5FIC    C23 3123  -0.020   1.043   2.408 -0.3412  0.0280  0.2697
    5FIC    C24 3124  -0.122   1.068   2.318 -0.1476  0.1207  0.0740
    5FIC    C25 3125  -0.168   1.198   2.296  0.2606  0.2112 -0.2900
    5FIC    C26 3126  -0.115   1.308   2.364  0.4886  0.2130 -0.4709
    5FIC    C27 3127  -0.012   1.284   2.455  0.2977  0.1200 -0.2773
    5FIC    C28 3128   0.065   1.377   2.542  0.4514  0.0958 -0.3875
    5FIC    C29 3129   0.050   1.513   2.550  0.8371  0.1640 -0.7236
    5FIC    C30 3130  -0.047   1.585   2.473  1.1491  0.2709 -1.0193
    5FIC    C31 3131   0.129   1.595   2.636  0.9584  0.1335 -0.8054
    1BTD     S2 3132   5.968   1.143   1.241 -0.1141 -0.4238 -0.2784
    1BTD     N1 3133   5.976   0.964   1.234  0.1956 -0.4090 -0.2902
    1BTD     N2 3134   6.038   1.155   1.406 -0.4781 -0.3336 -0.1274
    1BTD     N3 3135   6.198   0.855   1.730 -0.6607 -0.1228  0.1590
    1BTD     N4 3136   6.122   0.619   1.518  0.1695 -0.2157 -0.0417
    1BTD     C5 3137   6.053   0.786   1.385  0.1719 -0.3070 -0.1580
    1BTD     C6 3138   6.029   0.924   1.349  0.0207 -0.3410 -0.1864
    1BTD     C7 3139   6.063   1.031   1.446 -0.3563 -0.2988 -0.0952
    1BTD     C8 3140   6.120   0.995   1.573 -0.5634 -0.2247  0.0197
    1BTD    C15 3141   6.143   0.860   1.603 -0.4042 -0.1936  0.0435
    1BTD    C16 3142   6.110   0.756   1.511 -0.0408 -0.2342 -0.0443
    1BTD    C43 3143   6.199   0.536   1.611  0.2178 -0.4725 -0.1003
    1BTD    C44 3144   6.353   0.533   1.597 -0.6693 -0.0307 -0.0493
    1BTD    C45 3145   6.417   0.461   1.721 -0.8094 -0.4652  0.2939
    1BTD    C46 3146   6.569   0.491   1.748  0.2898 -0.6124 -0.2635
    1BTD    C47 3147   6.411   0.506   1.464  0.2702 -0.1899 -0.7041
    1BTD    C48 3148   6.423   0.371   1.402 -0.4859 -0.0133 -0.3315
    1BTD    C49 3149   6.555   0.346   1.329  0.4903 -0.4782 -0.1972
    1BTD    C50 3150   6.553   0.215   1.252  0.4718  0.4335  0.1829
    1BTD    C75 3151   6.196   0.749   1.838  0.1938 -0.1050  0.6088
    1BTD    C76 3152   6.117   0.763   1.969  0.3203  0.0404  0.2154
    1BTD    C77 3153   6.149   0.653   2.075 -0.6777 -0.2079 -0.2531
    1BTD    C78 3154   6.294   0.641   2.135 -0.1890  0.4999  0.0751
    1BTD    C79 3155   5.975   0.777   1.926 -0.3662  0.4391 -0.1644
    1BTD    C80 3156   5.874   0.820   2.034  0.5532 -0.2823  0.8357
    1BTD    C81 3157   5.885   0.954   2.113 -0.0882  0.0491  0.6300
    1BTD    C82 3158   5.760   0.977   2.194  0.1953 -0.1394 -0.8059
    2TTP     S1 3159   5.942   0.611   1.163 -0.2723 -0.0697 -0.1566
    2TTP     S5 3160   6.088   0.267   1.376  0.4317  0.3158 -0.0075
    2TTP     C1 3161   6.008   0.211   1.223  0.4320  0.0781  0.0786
    2TTP     C2 3162   5.959   0.314   1.148  0.2147 -0.0549  0.0376
    2TTP     C3 3163   5.982   0.441   1.209  0.0399  0.0260 -0.0633
    2TTP     C4 3164   6.022   0.667   1.317 -0.2726  0.1679 -0.2427
    2TTP    C17 3165   6.071   0.564   1.392 -0.0553  0.3010 -0.2017
    2TTP    C18 3166   6.048   0.437   1.330  0.1193  0.2200 -0.1009
    2TTP    C32 3167   5.863   0.305   1.020  0.1183  0.8313 -0.3742
    2TTP    C33 3168   5.921   0.372   0.891 -0.0571  0.0528  0.3370
    2TTP    C34 3169   5.861   0.343   0.754 -0.3102  0.2712 -1.1952
    2TTP    C35 3170   5.885   0.443   0.648 -0.5035 -0.0040  0.0704
    2TTP    C36 3171   6.033   0.469   0.617  0.4836  0.0822  0.0465
    2TTP    C37 3172   6.060   0.602   0.552  0.8795  0.2813  0.7301
    2TTP    C38 3173   6.197   0.647   0.580 -0.1309 -0.8496  0.0263
    2TTP    C39 3174   6.247   0.775   0.516 -0.3307 -0.2600 -0.1029
    2TTP    C40 3175   6.396   0.811   0.555  0.4445  0.4677  0.0219
    2TTP    C41 3176   6.508   0.704   0.542  0.3993 -0.3362  0.1093
    2TTP    C42 3177   6.639   0.783   0.530 -0.4367  0.6043  0.2702
    3TTP     S1 3178   6.211   1.243   1.718  0.0540 -0.0014 -0.0417
    3TTP     S5 3179   6.438   1.001   1.991  0.1351  0.3008  0.1603
    3TTP     C1 3180   6.475   1.176   2.024 -0.0442  0.3471  0.1211
    3TTP     C2 3181   6.408   1.261   1.941 -0.0798  0.2564  0.0564
    3TTP     C3 3182   6.324   1.191   1.849  0.0334  0.1472  0.0355
    3TTP     C4 3183   6.174   1.068   1.685  0.2333 -0.0477 -0.0025
    3TTP    C17 3184   6.241   0.983   1.767  0.2690  0.0429  0.0622
    3TTP    C18 3185   6.325   1.053   1.859  0.1558  0.1521  0.0831
    3TTP    C32 3186   6.414   1.409   1.944 -0.1040  0.2580  0.1674
    3TTP    C33 3187   6.296   1.482   2.006 -0.3068  0.2208 -0.6328
    3TTP    C34 3188   6.298   1.635   1.997  0.0070 -0.2496 -0.0202
    3TTP    C35 3189   6.173   1.693   2.066 -0.4859  0.0042  0.5798
    3TTP    C36 3190   6.147   1.843   2.044 -0.6057  0.1072 -0.0929
    3TTP    C37 3191   6.108   1.880   1.903  0.3105  0.1191  0.3630
    3TTP    C38 3192   6.142   2.021   1.868 -0.2896  0.1034 -0.1540
    3TTP    C39 3193   6.097   2.074   1.732  0.3141  0.4538  0.2814
    3TTP    C40 3194   6.123   2.220   1.697  0.0760 -0.3021  0.7297
    3TTP    C41 3195   6.045   2.322   1.775 -0.5839  0.3645 -0.1385
    3TTP    C42 3196   6.088   2.467   1.744 -0.2054 -0.4700  0.6116
    4FIC     F1 3197   6.114  -0.542   1.547 -0.1355  0.0682 -0.0964
    4FIC     F2 3198   6.057  -0.647   1.303 -0.3480  0.0751 -0.0496
    4FIC     O1 3199   6.063  -0.012   1.446  0.1458  0.0889 -0.1312
    4FIC     N5 3200   5.937  -0.421   0.879 -0.4534  0.0999 -0.0070
    4FIC     N6 3201   5.909   0.014   0.849 -0.1906  0.1147 -0.0436
    4FIC    C19 3202   5.990   0.075   1.176  0.0426  0.1030 -0.0987
    4FIC    C20 3203   6.005  -0.054   1.211 -0.0198  0.0975 -0.0919
    4FIC    C21 3204   6.043  -0.091   1.352  0.0395  0.0904 -0.1096
    4FIC    C22 3205   6.051  -0.238   1.356 -0.0534  0.0856 -0.0962
    4FIC    C23 3206   6.082  -0.319   1.465 -0.0408  0.0787 -0.1050
    4FIC    C24 3207   6.084  -0.456   1.444 -0.1415  0.0752 -0.0890
    4FIC    C25 3208   6.054  -0.510   1.318 -0.2509  0.0786 -0.0648
    4FIC    C26 3209   6.022  -0.430   1.209 -0.2640  0.0858 -0.0559
    4FIC    C27 3210   6.020  -0.291   1.228 -0.1631  0.0894 -0.0719
    4FIC    C28 3211   5.991  -0.180   1.134 -0.1471  0.0968 -0.0683
    4FIC    C29 3212   5.958  -0.192   1.001 -0.2332  0.1020 -0.0471
    4FIC    C30 3213   5.947  -0.318   0.935 -0.3538  0.1009 -0.0252
    4FIC    C31 3214   5.931  -0.078   0.918 -0.2093  0.1092 -0.0453
    5FIC     F1 3215   7.045   0.861   2.537  0.1839 -0.0812 -0.3800
    5FIC     F2 3216   7.083   1.111   2.637 -0.1307 -0.1966  0.0318
    5FIC     O1 3217   6.663   0.956   2.165  0.3014  0.1045 -0.4537
    5FIC     N5 3218   6.865   1.539   2.516 -0.4993 -0.2302  0.5714
    5FIC     N6 3219   6.559   1.563   2.206 -0.3440 -0.0619  0.4309
    5FIC    C19 3220   6.564   1.229   2.129  0.0426  0.0601 -0.0863
    5FIC    C20 3221   6.658   1.195   2.218  0.0253  0.0180 -0.0839
    5FIC    C21 3222   6.704   1.053   2.231  0.1640  0.0446 -0.2791
    5FIC    C22 3223   6.807   1.051   2.337  0.1044 -0.0144 -0.2218
    5FIC    C23 3224   6.879   0.942   2.384  0.1893 -0.0149 -0.3510
    5FIC    C24 3225   6.971   0.965   2.485  0.1071 -0.0769 -0.2613
    5FIC    C25 3226   6.990   1.094   2.537 -0.0550 -0.1363 -0.0492
    5FIC    C26 3227   6.919   1.204   2.490 -0.1405 -0.1362  0.0805
    5FIC    C27 3228   6.825   1.182   2.388 -0.0593 -0.0738 -0.0073
    5FIC    C28 3229   6.734   1.276   2.317 -0.1143 -0.0563  0.0859
    5FIC    C29 3230   6.723   1.411   2.339 -0.2657 -0.1006  0.2905
    5FIC    C30 3231   6.801   1.481   2.436 -0.3936 -0.1717  0.4442
    5FIC    C31 3232   6.633   1.494   2.265 -0.3079 -0.0790  0.3666
    1BTD     S2 3233   2.488   1.443   2.658 -0.1004  0.1739 -0.0841
    1BTD     N1 3234   2.484   1.623   2.651 -0.5777  0.1745  0.1237
    1BTD     N2 3235   2.416   1.421   2.495  0.4115  0.1656 -0.3145
    1BTD     N3 3236   2.261   1.701   2.151  0.5926  0.1499 -0.4087
    1BTD     N4 3237   2.346   1.949   2.344 -0.6263  0.1610  0.1312
    1BTD     C5 3238   2.411   1.790   2.489 -0.5884  0.1673  0.1211
    1BTD     C6 3239   2.432   1.656   2.534 -0.3432  0.1688  0.0162
    1BTD     C7 3240   2.394   1.543   2.447  0.2105  0.1639 -0.2291
    1BTD     C8 3241   2.336   1.570   2.318  0.4914  0.1575 -0.3572
    1BTD    C15 3242   2.317   1.704   2.277  0.2352  0.1562 -0.2474
    1BTD    C16 3243   2.354   1.813   2.362 -0.2982  0.1611 -0.0111
    1BTD    C43 3244   2.255   2.032   2.259  0.2801  0.3052  0.0574
    1BTD    C44 3245   2.112   2.072   2.308  0.1635 -0.6721  0.8640
    1BTD    C45 3246   2.038   1.947   2.356 -0.2940  0.7135  0.2531
    1BTD    C46 3247   1.916   1.966   2.433 -0.4808  0.7006 -0.4352
    1BTD    C47 3248   2.041   2.168   2.206 -0.0262 -0.5159  0.2324
    1BTD    C48 3249   2.105   2.305   2.209 -0.0430 -0.7852  1.1295
    1BTD    C49 3250   2.037   2.407   2.118  0.2232  0.1057 -0.8621
    1BTD    C50 3251   2.086   2.545   2.152 -0.4561  0.4365  0.2502
    1BTD    C75 3252   2.273   1.797   2.043  0.6849 -0.4713 -0.4244
    1BTD    C76 3253   2.404   1.817   1.965 -0.1851 -0.7905 -0.0459
    1BTD    C77 3254   2.412   1.946   1.880 -0.1181  0.1808  0.2901
    1BTD    C78 3255   2.322   1.962   1.755  0.2168 -0.1097 -0.1951
    1BTD    C79 3256   2.447   1.681   1.900 -0.1190  0.2147 -0.4707
    1BTD    C80 3257   2.589   1.671   1.847  0.3070 -0.0552  0.4945
    1BTD    C81 3258   2.634   1.538   1.790 -0.2828 -0.1806  0.2951
    1BTD    C82 3259   2.767   1.550   1.710  0.3664 -0.0978  0.2723
    2TTP     S1 3260   2.496   1.986   2.703 -0.2206 -0.0229 -0.0051
    2TTP     S5 3261   2.372   2.313   2.453  0.7404 -0.0932 -0.5831
    2TTP     C1 3262   2.423   2.379   2.614  0.7639  0.0224 -0.6383
    2TTP     C2 3263   2.465   2.282   2.701  0.4684  0.0509 -0.4632
    2TTP     C3 3264   2.457   2.152   2.643  0.2130 -0.0175 -0.2789
    2TTP     C4 3265   2.445   1.919   2.542 -0.2441 -0.1386  0.0501
    2TTP    C17 3266   2.403   2.016   2.455  0.0514 -0.1671 -0.1252
    2TTP    C18 3267   2.411   2.147   2.513  0.3069 -0.0986 -0.3093
    2TTP    C32 3268   2.488   2.299   2.851 -0.9699  0.1847 -0.4601
    2TTP    C33 3269   2.624   2.271   2.919  0.3140  0.2636  0.4932
    2TTP    C34 3270   2.741   2.342   2.858 -0.3100 -0.0990  0.0586
    2TTP    C35 3271   2.866   2.315   2.929 -0.7472  0.0928 -0.2634
    2TTP    C36 3272   2.986   2.358   2.849 -0.1544 -0.4952 -0.4873
    2TTP    C37 3273   3.011   2.504   2.821  0.3808 -0.4468  0.0216
    2TTP    C38 3274   3.131   2.526   2.730  0.0740 -0.3851 -0.3373
    2TTP    C39 3275   3.144   2.669   2.686  0.6060  0.1304 -0.2522
    2TTP    C40 3276   3.247   2.697   2.581 -0.6330 -0.1229  0.9331
    2TTP    C41 3277   3.239   2.841   2.522  0.2094 -0.2442 -0.0919
    2TTP    C42 3278   3.300   2.849   2.385  0.3070  0.0542  0.4549
    3TTP     S1 3279   2.272   1.311   2.176 -0.0038  0.0367  0.1000
    3TTP     S5 3280   2.049   1.537   1.885  0.1361  0.0278 -0.0142
    3TTP     C1 3281   2.027   1.360   1.850  0.1134  0.0258  0.0101
    3TTP     C2 3282   2.095   1.280   1.938  0.0689  0.0285  0.0468
    3TTP     C3 3283   2.166   1.355   2.036  0.0511  0.0322  0.0570
    3TTP     C4 3284   2.294   1.488   2.211  0.0188  0.0387  0.0756
    3TTP    C17 3285   2.226   1.569   2.123  0.0634  0.0361  0.0390
    3TTP    C18 3286   2.155   1.493   2.025  0.0812  0.0324  0.0287
    3TTP    C32 3287   2.110   1.128   1.943 -0.3771 -0.1440  0.1928
    3TTP    C33 3288   2.233   1.060   1.893  0.0049  0.5415  0.0317
    3TTP    C34 3289   2.242   0.914   1.944 -0.1332 -0.2882  0.6400
    3TTP    C35 3290   2.197   0.827   1.831 -0.3024  0.9239  0.2045
    3TTP    C36 3291   2.149   0.688   1.858 -0.0148 -0.1881  0.1695
    3TTP    C37 3292   2.252   0.602   1.935 -0.2587 -0.2734  0.1735
    3TTP    C38 3293   2.220   0.454   1.956  0.7339  0.4184  0.0861
    3TTP    C39 3294   2.307   0.392   2.061 -0.3177  0.5869 -0.0447
    3TTP    C40 3295   2.265   0.254   2.119  0.0151  0.3315  0.6580
    3TTP    C41 3296   2.360   0.201   2.221  0.1823  0.1442  0.6495
    3TTP    C42 3297   2.304   0.066   2.269  0.1432  0.2045  0.7526
    4FIC     F1 3298   2.286   3.087   2.214 -0.0912  0.0384 -0.0775
    4FIC     F2 3299   2.340   3.221   2.445 -0.4481  0.0160  0.0200
    4FIC     O1 3300   2.354   2.575   2.374  0.3489  0.0551 -0.2062
    4FIC     N5 3301   2.466   3.047   2.891 -0.6478 -0.0045  0.0684
    4FIC     N6 3302   2.507   2.620   2.970 -0.2320  0.0131 -0.0517
    4FIC    C19 3303   2.429   2.520   2.652  0.1641  0.0395 -0.1588
    4FIC    C20 3304   2.410   2.644   2.603  0.0673  0.0362 -0.1302
    4FIC    C21 3305   2.371   2.664   2.459  0.1725  0.0447 -0.1574
    4FIC    C22 3306   2.359   2.809   2.439  0.0252  0.0383 -0.1150
    4FIC    C23 3307   2.325   2.876   2.321  0.0534  0.0426 -0.1208
    4FIC    C24 3308   2.319   3.015   2.326 -0.1085  0.0348 -0.0746
    4FIC    C25 3309   2.347   3.083   2.446 -0.2923  0.0233 -0.0245
    4FIC    C26 3310   2.381   3.017   2.563 -0.3214  0.0190 -0.0184
    4FIC    C27 3311   2.387   2.877   2.560 -0.1594  0.0266 -0.0647
    4FIC    C28 3312   2.420   2.778   2.665 -0.1407  0.0249 -0.0719
    4FIC    C29 3313   2.453   2.806   2.796 -0.2882  0.0148 -0.0324
    4FIC    C30 3314   2.460   2.938   2.848 -0.4854  0.0043  0.0230
    4FIC    C31 3315   2.482   2.703   2.891 -0.2564  0.0139 -0.0433
    5FIC     F1 3316   1.506   1.651   1.277 -0.0525 -0.0811  0.0412
    5FIC     F2 3317   1.430   1.395   1.226  0.0085 -0.0959  0.0241
    5FIC     O1 3318   1.878   1.572   1.663 -0.0073 -0.0212  0.0100
    5FIC     N5 3319   1.585   0.970   1.427  0.1284 -0.0744 -0.0229
    5FIC     N6 3320   1.891   0.960   1.739  0.1514 -0.0246 -0.0439
    5FIC    C19 3321   1.937   1.299   1.751  0.0671 -0.0140 -0.0176
    5FIC    C20 3322   1.846   1.329   1.656  0.0533 -0.0285 -0.0090
    5FIC    C21 3323   1.821   1.472   1.616  0.0148 -0.0313  0.0050
    5FIC    C22 3324   1.718   1.468   1.511  0.0087 -0.0482  0.0115
    5FIC    C23 3325   1.662   1.576   1.444 -0.0229 -0.0563  0.0246
    5FIC    C24 3326   1.565   1.549   1.348 -0.0222 -0.0723  0.0285
    5FIC    C25 3327   1.526   1.417   1.322  0.0092 -0.0800  0.0197
    5FIC    C26 3328   1.582   1.308   1.389  0.0409 -0.0719  0.0066
    5FIC    C27 3329   1.680   1.334   1.486  0.0407 -0.0556  0.0024
    5FIC    C28 3330   1.757   1.243   1.574  0.0694 -0.0439 -0.0105
    5FIC    C29 3331   1.748   1.106   1.579  0.1041 -0.0466 -0.0218
    5FIC    C30 3332   1.658   1.032   1.495  0.1173 -0.0619 -0.0223
    5FIC    C31 3333   1.826   1.027   1.667  0.1299 -0.0345 -0.0338
    1BTD     S2 3334   1.303   1.425   0.252  0.1846 -0.1245 -0.0310
    1BTD     N1 3335   1.313   1.604   0.257  0.2778 -0.1245 -0.1884
    1BTD     N2 3336   1.357   1.402   0.422  0.0228  0.0030  0.0377
    1BTD     N3 3337   1.484   1.680   0.779 -0.1390  0.2629 -0.1062
    1BTD     N4 3338   1.430   1.929   0.576  0.1753  0.1059 -0.3849
    1BTD     C5 3339   1.375   1.771   0.426  0.2205 -0.0023 -0.2876
    1BTD     C6 3340   1.354   1.636   0.379  0.1881 -0.0341 -0.1819
    1BTD     C7 3341   1.378   1.523   0.472  0.0453  0.0373 -0.0553
    1BTD     C8 3342   1.423   1.550   0.606 -0.0579  0.1368 -0.0408
    1BTD    C15 3343   1.442   1.683   0.647 -0.0215  0.1646 -0.1470
    1BTD    C16 3344   1.419   1.792   0.558  0.1161  0.0959 -0.2689
    1BTD    C43 3345   1.492   2.006   0.684 -0.1002 -0.2740 -0.4305
    1BTD    C44 3346   1.646   1.998   0.692  0.0759 -0.1426  1.3386
    1BTD    C45 3347   1.700   2.063   0.818 -0.5341 -0.1520 -0.1354
    1BTD    C46 3348   1.848   2.026   0.853 -0.3003  0.2793 -0.2514
    1BTD    C47 3349   1.720   2.017   0.553 -0.2614 -0.4638  0.2241
    1BTD    C48 3350   1.727   2.166   0.508 -0.3047 -0.1119  0.3419
    1BTD    C49 3351   1.804   2.192   0.377  0.4058 -0.3887 -0.0970
    1BTD    C50 3352   1.796   2.340   0.345 -0.2541 -0.5018  0.1256
    1BTD    C75 3353   1.469   1.778   0.888  0.0128  0.4221 -0.4263
    1BTD    C76 3354   1.332   1.790   0.962 -0.2163  0.2800 -0.4539
    1BTD    C77 3355   1.314   1.912   1.060  0.7886 -0.6451  1.0251
    1BTD    C78 3356   1.363   1.907   1.203 -0.0100  0.1338 -0.4306
    1BTD    C79 3357   1.275   1.656   1.017  0.3302 -0.4486  0.2208
    1BTD    C80 3358   1.126   1.654   1.065  0.0762 -0.6108  0.1711
    1BTD    C81 3359   1.076   1.531   1.136  0.0424 -0.3565  0.2880
    1BTD    C82 3360   1.131   1.536   1.283  0.2606  0.4739  0.4473
    2TTP     S1 3361   1.316   1.967   0.204  0.0007  0.0969  0.0127
    2TTP     S5 3362   1.404   2.293   0.471 -0.0883  0.2540 -0.1498
    2TTP     C1 3363   1.355   2.361   0.310  0.0937  0.1575 -0.2475
    2TTP     C2 3364   1.325   2.265   0.218  0.1319  0.1032 -0.2031
    2TTP     C3 3365   1.340   2.133   0.272  0.0188  0.1360 -0.0903
    2TTP     C4 3366   1.366   1.898   0.366 -0.1813  0.1934  0.1104
    2TTP    C17 3367   1.396   1.995   0.457 -0.2195  0.2477  0.0660
    2TTP    C18 3368   1.381   2.126   0.404 -0.1064  0.2149 -0.0468
    2TTP    C32 3369   1.284   2.285   0.073 -0.8154 -0.4359  0.1290
    2TTP    C33 3370   1.134   2.283   0.055  0.1680 -0.0294  0.6195
    2TTP    C34 3371   1.107   2.292  -0.096 -0.3807  0.0875 -0.1805
    2TTP    C35 3372   1.084   2.427  -0.149 -0.3321 -0.4111 -0.3823
    2TTP    C36 3373   1.064   2.414  -0.299  0.9004 -0.0722  0.2473
    2TTP    C37 3374   1.056   2.552  -0.377 -0.3172 -0.0791  0.4571
    2TTP    C38 3375   1.069   2.547  -0.528  0.2830  0.0223 -0.0956
    2TTP    C39 3376   1.132   2.666  -0.600 -0.6149  0.2964  0.5213
    2TTP    C40 3377   1.078   2.800  -0.595  0.3656  0.0938 -0.1523
    2TTP    C41 3378   1.169   2.901  -0.652 -0.2126 -0.5286 -0.8059
    2TTP    C42 3379   1.094   3.035  -0.634 -0.2633 -0.2482  0.3765
    3TTP     S1 3380   1.525   1.297   0.728 -0.1023 -0.0867  0.0980
    3TTP     S5 3381   1.710   1.530   1.039 -0.2434 -0.0324  0.1413
    3TTP     C1 3382   1.766   1.358   1.055 -0.3348 -0.0513  0.2635
    3TTP     C2 3383   1.712   1.276   0.960 -0.2967 -0.0691  0.2574
    3TTP     C3 3384   1.625   1.346   0.871 -0.1938 -0.0686  0.1559
    3TTP     C4 3385   1.469   1.470   0.713 -0.0109 -0.0679 -0.0243
    3TTP    C17 3386   1.523   1.552   0.808 -0.0491 -0.0500 -0.0181
    3TTP    C18 3387   1.610   1.481   0.896 -0.1519 -0.0505  0.0834
    3TTP    C32 3388   1.721   1.126   0.941  0.1493  0.1706 -0.9684
    3TTP    C33 3389   1.604   1.044   1.001 -0.4269  0.0658 -0.5262
    3TTP    C34 3390   1.624   0.891   1.016 -0.5641  0.0756 -0.3316
    3TTP    C35 3391   1.617   0.794   0.892 -0.5480  0.2813 -0.5677
    3TTP    C36 3392   1.728   0.800   0.785 -0.0363 -0.1408 -0.7242
    3TTP    C37 3393   1.690   0.711   0.668  0.1268  0.0908 -0.6962
    3TTP    C38 3394   1.801   0.693   0.562 -0.0561 -1.1380 -0.4219
    3TTP    C39 3395   1.945   0.656   0.591 -0.0461  0.4001  0.0656
    3TTP    C40 3396   2.044   0.683   0.474  0.9053  0.5411 -0.0668
    3TTP    C41 3397   2.024   0.607   0.335  0.1991  0.0443 -0.3517
    3TTP    C42 3398   2.146   0.635   0.241  0.6957 -0.5974 -0.0590
    4FIC     F1 3399   1.238   3.029   0.771 -0.3538 -0.0867  0.1284
    4FIC     F2 3400   1.285   3.181   0.551 -0.0710  0.0293  0.2679
    4FIC     O1 3401   1.287   2.531   0.564 -0.1474  0.0214 -0.0836
    4FIC     N5 3402   1.387   3.046   0.086  0.4827  0.2729  0.3172
    4FIC     N6 3403   1.416   2.626  -0.031  0.5870  0.3340  0.1234
    4FIC    C19 3404   1.349   2.500   0.280  0.1961  0.1705 -0.0257
    4FIC    C20 3405   1.335   2.619   0.341  0.1331  0.1388  0.0222
    4FIC    C21 3406   1.303   2.627   0.487 -0.0448  0.0619 -0.0120
    4FIC    C22 3407   1.294   2.771   0.521 -0.0721  0.0445  0.0559
    4FIC    C23 3408   1.267   2.827   0.645 -0.2179 -0.0204  0.0539
    4FIC    C24 3409   1.264   2.966   0.652 -0.2139 -0.0240  0.1261
    4FIC    C25 3410   1.289   3.044   0.538 -0.0681  0.0357  0.1979
    4FIC    C26 3411   1.316   2.988   0.414  0.0779  0.1008  0.2004
    4FIC    C27 3412   1.319   2.848   0.405  0.0762  0.1055  0.1279
    4FIC    C28 3413   1.345   2.758   0.290  0.2081  0.1657  0.1100
    4FIC    C29 3414   1.373   2.796   0.161  0.3690  0.2335  0.1644
    4FIC    C30 3415   1.381   2.933   0.120  0.4310  0.2549  0.2482
    4FIC    C31 3416   1.397   2.702   0.056  0.4880  0.2884  0.1415
    5FIC     F1 3417   2.312   1.669   1.592  0.0358 -0.1702 -0.0864
    5FIC     F2 3418   2.366   1.416   1.676  0.1519 -0.1794 -0.1874
    5FIC     O1 3419   1.943   1.574   1.208 -0.0136 -0.1769 -0.0371
    5FIC     N5 3420   2.179   0.984   1.523  0.2837 -0.1975 -0.2975
    5FIC     N6 3421   1.880   0.960   1.206  0.2217 -0.2008 -0.2387
    5FIC    C19 3422   1.863   1.298   1.152  0.0798 -0.1881 -0.1162
    5FIC    C20 3423   1.953   1.332   1.245  0.0877 -0.1861 -0.1246
    5FIC    C21 3424   1.989   1.476   1.268  0.0375 -0.1802 -0.0820
    5FIC    C22 3425   2.090   1.477   1.375  0.0611 -0.1794 -0.1042
    5FIC    C23 3426   2.154   1.588   1.431  0.0311 -0.1746 -0.0795
    5FIC    C24 3427   2.246   1.564   1.532  0.0627 -0.1748 -0.1084
    5FIC    C25 3428   2.273   1.434   1.575  0.1226 -0.1795 -0.1605
    5FIC    C26 3429   2.210   1.323   1.520  0.1528 -0.1843 -0.1853
    5FIC    C27 3430   2.117   1.345   1.418  0.1215 -0.1842 -0.1566
    5FIC    C28 3431   2.034   1.250   1.339  0.1402 -0.1885 -0.1713
    5FIC    C29 3432   2.032   1.113   1.352  0.1956 -0.1937 -0.2190
    5FIC    C30 3433   2.113   1.042   1.446  0.2439 -0.1958 -0.2620
    5FIC    C31 3434   1.948   1.030   1.272  0.2097 -0.1976 -0.2296
    1BTD     S2 3435   0.156   9.201   1.356  0.0024  0.0132 -0.1351
    1BTD     N1 3436   0.187   9.024   1.344 -0.0696  0.0060 -0.2069
    1BTD     N2 3437   0.244   9.220   1.512  0.0154 -0.0842 -0.1301
    1BTD     N3 3438   0.479   8.941   1.807 -0.0882 -0.2975 -0.2496
    1BTD     N4 3439   0.408   8.699   1.601 -0.1929 -0.1862 -0.3441
    1BTD     C5 3440   0.303   8.857   1.481 -0.1327 -0.0956 -0.2774
    1BTD     C6 3441   0.257   8.991   1.451 -0.0797 -0.0653 -0.2226
    1BTD     C7 3442   0.289   9.100   1.545 -0.0322 -0.1156 -0.1796
    1BTD     C8 3443   0.366   9.071   1.664 -0.0400 -0.1943 -0.1936
    1BTD    C15 3444   0.408   8.939   1.688 -0.0926 -0.2215 -0.2478
    1BTD    C16 3445   0.377   8.834   1.598 -0.1384 -0.1728 -0.2892
    1BTD    C43 3446   0.513   8.629   1.678 -0.1140  0.0813 -0.3543
    1BTD    C44 3447   0.651   8.602   1.617 -0.1447 -0.8977 -0.2778
    1BTD    C45 3448   0.723   8.722   1.537  0.4074 -0.3573  0.0522
    1BTD    C46 3449   0.846   8.678   1.458  0.2364 -0.3177 -0.3368
    1BTD    C47 3450   0.740   8.520   1.714 -0.1136  0.7658  0.3803
    1BTD    C48 3451   0.814   8.591   1.825  0.2495 -0.2538 -0.0407
    1BTD    C49 3452   0.914   8.495   1.877  0.1807 -0.6690 -0.3534
    1BTD    C50 3453   0.971   8.526   2.022 -0.1921 -0.2028  0.3697
    1BTD    C75 3454   0.508   8.837   1.918 -0.1066  0.5664 -0.4735
    1BTD    C76 3455   0.408   8.817   2.031  0.3613 -0.1955 -0.3600
    1BTD    C77 3456   0.456   8.723   2.141 -0.7831  0.3013 -0.1036
    1BTD    C78 3457   0.605   8.733   2.180  0.3278  0.7647 -0.1436
    1BTD    C79 3458   0.266   8.803   1.984 -0.5871 -0.2516  0.2864
    1BTD    C80 3459   0.142   8.837   2.072 -0.1461  0.4597 -0.0287
    1BTD    C81 3460   0.127   8.977   2.122  0.3128 -0.3794 -0.1956
    1BTD    C82 3461   0.135   9.095   2.027  0.5168 -0.7383 -0.6104
    2TTP     S1 3462   0.241   8.673   1.249 -0.0410  0.1228 -0.1981
    2TTP     S5 3463   0.436   8.353   1.460 -0.2544  0.1857  0.0967
    2TTP     C1 3464   0.381   8.291   1.298 -0.2152  0.0981  0.1169
    2TTP     C2 3465   0.318   8.386   1.223 -0.1469  0.0737  0.0271
    2TTP     C3 3466   0.310   8.512   1.291 -0.1232  0.1233 -0.0609
    2TTP     C4 3467   0.295   8.735   1.411 -0.0802  0.2103 -0.2182
    2TTP    C17 3468   0.359   8.640   1.486 -0.1484  0.2350 -0.1284
    2TTP    C18 3469   0.367   8.515   1.417 -0.1722  0.1855 -0.0404
    2TTP    C32 3470   0.255   8.370   1.084 -0.1440  0.1708  0.3134
    2TTP    C33 3471   0.106   8.324   1.104  0.1319 -1.0070  0.3547
    2TTP    C34 3472   0.033   8.276   0.978 -0.0879  0.1494 -0.2043
    2TTP    C35 3473  -0.110   8.222   1.003 -0.2964 -0.3971  0.4762
    2TTP    C36 3474  -0.134   8.126   1.115 -0.4363 -0.7653 -0.1587
    2TTP    C37 3475  -0.268   8.060   1.106  0.1547 -0.5980  0.1764
    2TTP    C38 3476  -0.319   7.979   1.223  0.1194 -0.2872 -0.1615
    2TTP    C39 3477  -0.327   8.040   1.360  0.3012  0.0471 -0.1563
    2TTP    C40 3478  -0.435   8.156   1.363 -0.7798  0.4062 -0.6797
    2TTP    C41 3479  -0.436   8.245   1.482 -0.2954 -0.0221 -0.3841
    2TTP    C42 3480  -0.478   8.170   1.612 -0.3320 -0.1557  0.1630
    3TTP     S1 3481   0.435   9.331   1.808  0.1664 -0.0891  0.3153
    3TTP     S5 3482   0.683   9.108   2.080 -0.2074 -0.5884  0.2506
    3TTP     C1 3483   0.702   9.285   2.116  0.0652 -0.6321  0.3251
    3TTP     C2 3484   0.626   9.364   2.034  0.1967 -0.4804  0.3495
    3TTP     C3 3485   0.551   9.288   1.940  0.0869 -0.3245  0.3102
    3TTP     C4 3486   0.416   9.153   1.772 -0.1062 -0.0455  0.2408
    3TTP    C17 3487   0.491   9.074   1.854 -0.2378 -0.1973  0.2164
    3TTP    C18 3488   0.567   9.151   1.948 -0.1279 -0.3536  0.2557
    3TTP    C32 3489   0.621   9.523   2.035  0.2382  0.1731 -0.5714
    3TTP    C33 3490   0.485   9.571   2.080 -0.0770  0.1491  0.1049
    3TTP    C34 3491   0.485   9.709   2.148 -0.0787  0.3854  0.1071
    3TTP    C35 3492   0.475   9.828   2.049 -0.1620  1.0419 -0.4807
    3TTP    C36 3493   0.567   9.945   2.080 -0.2445 -0.0556 -0.4196
    3TTP    C37 3494   0.572  10.063   1.991  0.1954  0.0286  0.2429
    3TTP    C38 3495   0.630  10.047   1.853  0.4260  0.1063  0.7290
    3TTP    C39 3496   0.764   9.977   1.836 -0.2790  0.3924  0.3152
    3TTP    C40 3497   0.801   9.954   1.691 -0.4196 -0.5282 -0.0758
    3TTP    C41 3498   0.939   9.884   1.680  0.6733 -0.6232 -0.1028
    3TTP    C42 3499   0.985   9.829   1.549 -0.2790 -0.1491  0.4306
    4FIC     F1 3500   0.539   7.583   1.678 -0.1396 -0.1433 -0.0098
    4FIC     F2 3501   0.549   7.462   1.435  0.0080 -0.0594 -0.0460
    4FIC     O1 3502   0.420   8.091   1.535 -0.2122 -0.1283  0.1039
    4FIC     N5 3503   0.478   7.650   0.982  0.1685  0.0721 -0.0169
    4FIC     N6 3504   0.382   8.071   0.920  0.0819  0.0670  0.0792
    4FIC    C19 3505   0.387   8.156   1.252 -0.0970 -0.0428  0.1097
    4FIC    C20 3506   0.416   8.033   1.297 -0.0845 -0.0496  0.0826
    4FIC    C21 3507   0.432   8.007   1.444 -0.1466 -0.0947  0.0814
    4FIC    C22 3508   0.464   7.864   1.459 -0.1141 -0.0908  0.0485
    4FIC    C23 3509   0.487   7.794   1.577 -0.1500 -0.1239  0.0360
    4FIC    C24 3510   0.515   7.658   1.566 -0.1075 -0.1124  0.0042
    4FIC    C25 3511   0.520   7.596   1.440 -0.0315 -0.0690 -0.0145
    4FIC    C26 3512   0.497   7.666   1.322  0.0047 -0.0359 -0.0021
    4FIC    C27 3513   0.468   7.803   1.331 -0.0373 -0.0470  0.0302
    4FIC    C28 3514   0.439   7.904   1.227 -0.0161 -0.0201  0.0503
    4FIC    C29 3515   0.435   7.882   1.091  0.0535  0.0240  0.0409
    4FIC    C30 3516   0.458   7.755   1.032  0.1165  0.0502  0.0091
    4FIC    C31 3517   0.406   7.987   0.998  0.0687  0.0474  0.0620
    5FIC     F1 3518   1.259   8.989   2.642 -0.3782  0.0360  0.5354
    5FIC     F2 3519   1.348   9.243   2.682  0.4400 -0.1097 -0.2946
    5FIC     O1 3520   0.860   9.077   2.287 -0.5898  0.2329  0.8205
    5FIC     N5 3521   1.192   9.670   2.487  1.4657 -0.1781 -1.2847
    5FIC     N6 3522   0.862   9.687   2.201  1.1355  0.0052 -0.8947
    5FIC    C19 3523   0.803   9.350   2.199  0.1169  0.1640  0.1286
    5FIC    C20 3524   0.900   9.318   2.287  0.1381  0.1202  0.0894
    5FIC    C21 3525   0.923   9.175   2.327 -0.2387  0.1600  0.4597
    5FIC    C22 3526   1.035   9.176   2.423 -0.1079  0.0956  0.3088
    5FIC    C23 3527   1.092   9.067   2.488 -0.3499  0.1028  0.5385
    5FIC    C24 3528   1.197   9.093   2.575 -0.1573  0.0331  0.3274
    5FIC    C25 3529   1.243   9.223   2.595  0.2644 -0.0419 -0.1003
    5FIC    C26 3530   1.187   9.333   2.531  0.5076 -0.0501 -0.3315
    5FIC    C27 3531   1.080   9.309   2.443  0.3181  0.0203 -0.1231
    5FIC    C28 3532   0.999   9.401   2.360  0.4861  0.0327 -0.2749
    5FIC    C29 3533   1.013   9.538   2.352  0.8874 -0.0262 -0.6764
    5FIC    C30 3534   1.112   9.610   2.427  1.2040 -0.1097 -1.0095
    5FIC    C31 3535   0.930   9.619   2.269  1.0216 -0.0086 -0.7942
    1BTD     S2 3536   1.484   9.100   3.633  0.1883 -0.1234  0.0557
    1BTD     N1 3537   1.480   8.921   3.616  0.2367 -0.1116 -0.0706
    1BTD     N2 3538   1.416   9.131   3.470  0.0417 -0.0288  0.1341
    1BTD     N3 3539   1.273   8.873   3.105 -0.1697  0.1845  0.0655
    1BTD     N4 3540   1.352   8.613   3.286  0.0706  0.0820 -0.1867
    1BTD     C5 3541   1.412   8.763   3.441  0.1470 -0.0095 -0.1282
    1BTD     C6 3542   1.432   8.895   3.496  0.1458 -0.0417 -0.0491
    1BTD     C7 3543   1.396   9.013   3.414  0.0366  0.0048  0.0655
    1BTD     C8 3544   1.342   8.993   3.282 -0.0657  0.0813  0.0952
    1BTD    C15 3545   1.325   8.862   3.233 -0.0605  0.1107  0.0150
    1BTD    C16 3546   1.359   8.749   3.312  0.0447  0.0658 -0.0954
    1BTD    C43 3547   1.279   8.535   3.181  0.5224 -0.3147  0.3293
    1BTD    C44 3548   1.122   8.528   3.179 -0.1081  0.5281 -0.0435
    1BTD    C45 3549   1.090   8.452   3.045  0.0807 -0.0585 -0.3484
    1BTD    C46 3550   0.951   8.456   2.996  0.1325 -0.1324  0.9286
    1BTD    C47 3551   1.054   8.495   3.314  0.4374 -0.2444 -0.0503
    1BTD    C48 3552   1.059   8.347   3.355 -0.0653  0.5356 -0.0821
    1BTD    C49 3553   0.988   8.314   3.486 -0.4876 -0.0963 -0.1755
    1BTD    C50 3554   0.999   8.171   3.524 -0.4111  0.3973 -0.4648
    1BTD    C75 3555   1.275   8.788   2.986  0.5014  0.6071  0.3487
    1BTD    C76 3556   1.413   8.765   2.927 -0.0216 -0.3042 -0.7658
    1BTD    C77 3557   1.402   8.667   2.814  0.4006  0.4534  0.4038
    1BTD    C78 3558   1.322   8.689   2.682  0.0567  0.2891  0.1010
    1BTD    C79 3559   1.474   8.900   2.880 -0.3187  0.4168 -0.5405
    1BTD    C80 3560   1.624   8.896   2.846  0.4794  0.5561  0.3705
    1BTD    C81 3561   1.694   9.017   2.774  0.1846 -0.6457  0.0702
    1BTD    C82 3562   1.694   9.010   2.623  0.3850  0.1961 -0.6012
    2TTP     S1 3563   1.534   8.557   3.624  0.2857 -0.0537 -0.1629
    2TTP     S5 3564   1.410   8.245   3.356 -0.1439 -0.1881  0.1893
    2TTP     C1 3565   1.495   8.169   3.497  0.2458 -0.1042  0.0033
    2TTP     C2 3566   1.539   8.261   3.589  0.4014 -0.0579 -0.1165
    2TTP     C3 3567   1.506   8.394   3.550  0.2185 -0.0868 -0.0656
    2TTP     C4 3568   1.449   8.633   3.483 -0.1042 -0.1376  0.0231
    2TTP    C17 3569   1.406   8.541   3.391 -0.2597 -0.1842  0.1429
    2TTP    C18 3570   1.438   8.407   3.430 -0.0768 -0.1550  0.0920
    2TTP    C32 3571   1.620   8.233   3.712 -0.0106  0.0289 -0.5228
    2TTP    C33 3572   1.554   8.262   3.845  0.2359 -0.7877  0.7144
    2TTP    C34 3573   1.648   8.248   3.963 -0.7499 -0.1650 -1.3852
    2TTP    C35 3574   1.563   8.269   4.090  0.2449 -0.1691 -0.5404
    2TTP    C36 3575   1.634   8.317   4.218 -0.3441  0.1354 -0.3220
    2TTP    C37 3576   1.539   8.362   4.327  0.4104 -0.2034 -0.3268
    2TTP    C38 3577   1.481   8.499   4.311 -0.1423 -0.6876  0.0570
    2TTP    C39 3578   1.407   8.528   4.443 -0.0243 -0.5113  0.5749
    2TTP    C40 3579   1.377   8.678   4.480  0.2315 -0.0734  0.5252
    2TTP    C41 3580   1.297   8.744   4.368 -0.0256 -0.3653  0.2400
    2TTP    C42 3581   1.237   8.877   4.407 -0.0845 -0.3475  0.1245
    3TTP     S1 3582   1.247   9.258   3.174  0.0823 -0.2238 -0.0258
    3TTP     S5 3583   1.038   9.047   2.863 -0.1468  0.1543 -0.1294
    3TTP     C1 3584   0.994   9.223   2.853 -0.0375  0.1904  0.0230
    3TTP     C2 3585   1.056   9.299   2.949  0.0397  0.0756  0.0641
    3TTP     C3 3586   1.141   9.220   3.033  0.0153 -0.0448 -0.0234
    3TTP     C4 3587   1.291   9.081   3.184 -0.0269 -0.2601 -0.1782
    3TTP    C17 3588   1.229   9.006   3.088 -0.1041 -0.1452 -0.2193
    3TTP    C18 3589   1.145   9.085   3.004 -0.0798 -0.0246 -0.1317
    3TTP    C32 3590   1.042   9.455   2.976 -1.0501  0.6569 -0.2476
    3TTP    C33 3591   1.159   9.530   2.921 -0.6603 -0.6294 -0.0485
    3TTP    C34 3592   1.121   9.678   2.944  0.0362 -0.4449  0.3030
    3TTP    C35 3593   1.226   9.770   2.876  0.0971 -0.9065  0.4359
    3TTP    C36 3594   1.274   9.895   2.956 -0.3415  1.0677 -0.0741
    3TTP    C37 3595   1.333   9.860   3.094  0.0641 -0.3147  0.3495
    3TTP    C38 3596   1.425   9.974   3.148  0.1531  0.6035  0.3807
    3TTP    C39 3597   1.496   9.932   3.272  0.4403 -0.2430  0.5095
    3TTP    C40 3598   1.420   9.943   3.406 -0.5906 -0.1714 -0.1349
    3TTP    C41 3599   1.493   9.875   3.528 -0.7221 -0.3040  0.8408
    3TTP    C42 3600   1.625   9.946   3.565  0.6248 -1.0147  0.0699
    4FIC     F1 3601   1.427   7.502   3.016  0.0330 -0.1456  0.3421
    4FIC     F2 3602   1.470   7.346   3.235  0.4148 -0.0559  0.3329
    4FIC     O1 3603   1.467   7.996   3.234 -0.3130 -0.0573  0.2068
    4FIC     N5 3604   1.560   7.473   3.705  0.7172  0.1360  0.2232
    4FIC     N6 3605   1.583   7.891   3.831  0.3697  0.1868  0.1194
    4FIC    C19 3606   1.522   8.022   3.520 -0.0712  0.0599  0.1501
    4FIC    C20 3607   1.510   7.904   3.457  0.0009  0.0342  0.1844
    4FIC    C21 3608   1.482   7.899   3.310 -0.1327 -0.0261  0.2121
    4FIC    C22 3609   1.476   7.756   3.273 -0.0075 -0.0408  0.2464
    4FIC    C23 3610   1.451   7.701   3.148 -0.0653 -0.0920  0.2797
    4FIC    C24 3611   1.450   7.563   3.138  0.0799 -0.0961  0.3083
    4FIC    C25 3612   1.472   7.483   3.250  0.2765 -0.0497  0.3035
    4FIC    C26 3613   1.496   7.537   3.376  0.3353  0.0015  0.2704
    4FIC    C27 3614   1.498   7.677   3.388  0.1903  0.0064  0.2410
    4FIC    C28 3615   1.520   7.764   3.506  0.2033  0.0544  0.2027
    4FIC    C29 3616   1.545   7.724   3.635  0.3709  0.1069  0.1873
    4FIC    C30 3617   1.553   7.586   3.673  0.5607  0.1225  0.2071
    4FIC    C31 3618   1.566   7.816   3.742  0.3693  0.1508  0.1501
    5FIC     F1 3619   0.400   8.942   2.354  0.2056 -0.2601 -0.1162
    5FIC     F2 3620   0.342   9.200   2.290  0.1151 -0.2794 -0.1128
    5FIC     O1 3621   0.805   9.013   2.707  0.0442 -0.1149  0.0402
    5FIC     N5 3622   0.546   9.621   2.450 -0.1301 -0.2043  0.0037
    5FIC     N6 3623   0.874   9.625   2.738 -0.2380 -0.0868  0.1252
    5FIC    C19 3624   0.893   9.284   2.771 -0.0996 -0.0819  0.0991
    5FIC    C20 3625   0.793   9.256   2.685 -0.0555 -0.1178  0.0596
    5FIC    C21 3626   0.754   9.114   2.657  0.0177 -0.1323  0.0312
    5FIC    C22 3627   0.643   9.120   2.560  0.0512 -0.1721 -0.0091
    5FIC    C23 3628   0.574   9.013   2.504  0.1191 -0.1972 -0.0451
    5FIC    C24 3629   0.473   9.043   2.413  0.1392 -0.2332 -0.0795
    5FIC    C25 3630   0.443   9.176   2.381  0.0925 -0.2434 -0.0777
    5FIC    C26 3631   0.512   9.283   2.436  0.0246 -0.2182 -0.0418
    5FIC    C27 3632   0.614   9.254   2.528  0.0034 -0.1817 -0.0067
    5FIC    C28 3633   0.705   9.344   2.603 -0.0641 -0.1488  0.0356
    5FIC    C29 3634   0.708   9.481   2.599 -0.1231 -0.1471  0.0498
    5FIC    C30 3635   0.619   9.558   2.517 -0.1267 -0.1786  0.0244
    5FIC    C31 3636   0.799   9.559   2.676 -0.1860 -0.1137  0.0911
    1BTD     S2 3637   0.156   3.960   2.219  0.1513 -0.0880 -0.2875
    1BTD     N1 3638   0.167   4.139   2.214 -0.0584 -0.0683 -0.0835
    1BTD     N2 3639   0.226   3.946   2.384  0.2825 -0.2032 -0.3527
    1BTD     N3 3640   0.389   4.240   2.711  0.1710 -0.4021 -0.1173
    1BTD     N4 3641   0.316   4.479   2.501 -0.2490 -0.2360  0.2146
    1BTD     C5 3642   0.246   4.314   2.366 -0.1528 -0.1580  0.0681
    1BTD     C6 3643   0.220   4.177   2.329 -0.0218 -0.1446 -0.0750
    1BTD     C7 3644   0.253   4.069   2.424  0.1690 -0.2201 -0.2258
    1BTD     C8 3645   0.310   4.102   2.552  0.2192 -0.3051 -0.2258
    1BTD    C15 3646   0.334   4.237   2.584  0.0863 -0.3149 -0.0830
    1BTD    C16 3647   0.302   4.342   2.492 -0.0975 -0.2423  0.0623
    1BTD    C43 3648   0.401   4.567   2.591  0.1225 -0.3576  0.2035
    1BTD    C44 3649   0.556   4.568   2.564 -0.1245 -0.0091  0.0742
    1BTD    C45 3650   0.590   4.607   2.420  0.3116 -0.1278 -0.2675
    1BTD    C46 3651   0.734   4.619   2.379  0.2491  0.4775 -0.3964
    1BTD    C47 3652   0.635   4.629   2.681 -0.7469 -0.5720  0.2276
    1BTD    C48 3653   0.608   4.776   2.711 -0.2317 -0.0638 -0.6435
    1BTD    C49 3654   0.712   4.860   2.784  0.1852  0.4891 -0.0549
    1BTD    C50 3655   0.674   5.006   2.799  0.1925  0.2530 -0.6024
    1BTD    C75 3656   0.410   4.351   2.806  0.0830  0.6381 -0.0766
    1BTD    C76 3657   0.294   4.404   2.886 -0.1063  0.1174 -0.8477
    1BTD    C77 3658   0.319   4.540   2.953 -0.3374  0.1352 -0.0561
    1BTD    C78 3659   0.436   4.560   3.055 -0.0145  0.6785 -0.1099
    1BTD    C79 3660   0.206   4.300   2.968 -0.5625 -0.1031 -0.2217
    1BTD    C80 3661   0.080   4.336   3.042  0.5602 -0.3151  0.3516
    1BTD    C81 3662   0.003   4.205   3.073  0.0200 -0.0282 -0.6178
    1BTD    C82 3663  -0.115   4.217   3.165  0.3332 -0.5254  0.4640
    2TTP     S1 3664   0.181   4.511   2.142  0.1677  0.0280  0.0454
    2TTP     S5 3665   0.288   4.843   2.394 -0.2547  0.1599  0.0519
    2TTP     C1 3666   0.246   4.907   2.229 -0.1266  0.0882 -0.0088
    2TTP     C2 3667   0.210   4.808   2.141  0.0114  0.0430 -0.0144
    2TTP     C3 3668   0.215   4.678   2.201  0.0209  0.0637  0.0291
    2TTP     C4 3669   0.224   4.447   2.307  0.0396  0.0997  0.1062
    2TTP    C17 3670   0.259   4.546   2.395 -0.0984  0.1445  0.1118
    2TTP    C18 3671   0.254   4.676   2.334 -0.1079  0.1241  0.0683
    2TTP    C32 3672   0.179   4.824   1.991  0.0795  0.1216  1.0053
    2TTP    C33 3673   0.036   4.842   1.932  0.3453  0.1148 -0.5791
    2TTP    C34 3674  -0.055   4.931   2.018  0.4369  0.4388  0.3089
    2TTP    C35 3675  -0.201   4.954   1.970 -0.5125 -0.3152 -0.2426
    2TTP    C36 3676  -0.266   5.066   2.047 -0.7462  0.5803 -0.2066
    2TTP    C37 3677  -0.407   5.107   2.024 -0.0527  0.0127 -0.1669
    2TTP    C38 3678  -0.453   5.229   2.104 -0.3110  0.0212  0.2086
    2TTP    C39 3679  -0.471   5.227   2.257 -0.0310  1.0913  0.2204
    2TTP    C40 3680  -0.544   5.351   2.308  0.2471  0.0514 -0.3943
    2TTP    C41 3681  -0.575   5.354   2.459  0.1039 -0.1802 -0.1841
    2TTP    C42 3682  -0.644   5.482   2.510  0.1229  0.2761 -0.1264
    3TTP     S1 3683   0.388   3.853   2.703 -0.0470 -0.0937 -0.0561
    3TTP     S5 3684   0.599   4.098   2.987  0.5964 -0.1450 -0.4863
    3TTP     C1 3685   0.635   3.923   3.023  0.3194 -0.1689 -0.3210
    3TTP     C2 3686   0.572   3.837   2.937  0.1043 -0.1546 -0.1784
    3TTP     C3 3687   0.493   3.906   2.840  0.1507 -0.1240 -0.1946
    3TTP     C4 3688   0.352   4.027   2.667  0.2301 -0.0697 -0.2213
    3TTP    C17 3689   0.415   4.113   2.752  0.4451 -0.0840 -0.3638
    3TTP    C18 3690   0.494   4.044   2.849  0.3988 -0.1146 -0.3478
    3TTP    C32 3691   0.575   3.686   2.943 -0.1017  0.1544  0.1756
    3TTP    C33 3692   0.456   3.600   2.903  0.1854  0.0243 -0.7048
    3TTP    C34 3693   0.494   3.457   2.872  0.1776 -0.0772 -0.6852
    3TTP    C35 3694   0.592   3.440   2.756  0.4807 -0.0243  0.0053
    3TTP    C36 3695   0.635   3.292   2.746 -0.1553  0.4802 -0.3630
    3TTP    C37 3696   0.760   3.258   2.663  0.6619 -0.3573  0.1522
    3TTP    C38 3697   0.739   3.295   2.516  0.3831  0.5293  0.4234
    3TTP    C39 3698   0.874   3.294   2.442 -0.1160 -0.5518 -0.3236
    3TTP    C40 3699   0.852   3.372   2.311 -0.0969  0.6860  0.3913
    3TTP    C41 3700   0.982   3.396   2.237 -0.1616 -0.2061 -0.8026
    3TTP    C42 3701   0.953   3.435   2.098 -0.0092 -0.0923  0.3303
    4FIC     F1 3702   0.265   5.631   2.616 -0.1230 -0.0199  0.1475
    4FIC     F2 3703   0.332   5.747   2.379  0.1438  0.1446  0.3023
    4FIC     O1 3704   0.212   5.114   2.466 -0.1485  0.1147 -0.3105
    4FIC     N5 3705   0.391   5.545   1.932  0.5092  0.4771  0.1982
    4FIC     N6 3706   0.336   5.117   1.862  0.4354  0.5491 -0.1908
    4FIC    C19 3707   0.258   5.041   2.187  0.0973  0.3198 -0.3254
    4FIC    C20 3708   0.268   5.166   2.234  0.0933  0.2794 -0.2162
    4FIC    C21 3709   0.243   5.196   2.379 -0.0369  0.1734 -0.2162
    4FIC    C22 3710   0.263   5.341   2.396 -0.0056  0.1537 -0.0829
    4FIC    C23 3711   0.251   5.415   2.513 -0.0941  0.0657 -0.0356
    4FIC    C24 3712   0.275   5.552   2.504 -0.0410  0.0646  0.0943
    4FIC    C25 3713   0.310   5.611   2.382  0.0964  0.1496  0.1739
    4FIC    C26 3714   0.322   5.538   2.265  0.1853  0.2377  0.1273
    4FIC    C27 3715   0.298   5.400   2.272  0.1335  0.2400 -0.0040
    4FIC    C28 3716   0.302   5.294   2.167  0.1997  0.3206 -0.0828
    4FIC    C29 3717   0.333   5.312   2.034  0.3340  0.4153 -0.0401
    4FIC    C30 3718   0.365   5.440   1.978  0.4299  0.4489  0.0908
    4FIC    C31 3719   0.334   5.205   1.940  0.3890  0.4883 -0.1232
    5FIC     F1 3720   1.116   4.271   3.593  0.4641  0.1111 -0.4475
    5FIC     F2 3721   1.196   4.022   3.670 -0.0395  0.0738 -0.0365
    5FIC     O1 3722   0.770   4.150   3.195  0.5720  0.1736 -0.5602
    5FIC     N5 3723   1.063   3.578   3.496 -0.6868  0.0646  0.4741
    5FIC     N6 3724   0.776   3.533   3.170 -0.5011  0.1210  0.3030
    5FIC    C19 3725   0.723   3.869   3.127  0.1290  0.1601 -0.2077
    5FIC    C20 3726   0.807   3.909   3.224  0.1216  0.1458 -0.1954
    5FIC    C21 3727   0.826   4.055   3.253  0.3574  0.1540 -0.3836
    5FIC    C22 3728   0.923   4.064   3.363  0.2827  0.1343 -0.3161
    5FIC    C23 3729   0.972   4.178   3.425  0.4366  0.1336 -0.4362
    5FIC    C24 3730   1.064   4.161   3.528  0.3230  0.1131 -0.3380
    5FIC    C25 3731   1.104   4.033   3.567  0.0635  0.0938 -0.1261
    5FIC    C26 3732   1.056   3.918   3.506 -0.0912  0.0944 -0.0055
    5FIC    C27 3733   0.963   3.933   3.402  0.0204  0.1151 -0.1021
    5FIC    C28 3734   0.893   3.833   3.318 -0.0889  0.1215 -0.0195
    5FIC    C29 3735   0.906   3.696   3.325 -0.3377  0.1073  0.1816
    5FIC    C30 3736   0.992   3.632   3.419 -0.5288  0.0839  0.3417
    5FIC    C31 3737   0.834   3.608   3.240 -0.4261  0.1149  0.2472
    1BTD     S2 3738   1.825   4.110   0.692  0.1708  0.0617 -0.0018
    1BTD     N1 3739   1.809   4.289   0.687  0.3649  0.0775 -0.0592
    1BTD     N2 3740   1.753   4.084   0.529 -0.0904  0.0684  0.1111
    1BTD     N3 3741   1.579   4.355   0.188 -0.2721  0.1110  0.2377
    1BTD     N4 3742   1.647   4.608   0.382  0.2890  0.1222  0.0279
    1BTD     C5 3743   1.724   4.452   0.525  0.3185  0.1007 -0.0111
    1BTD     C6 3744   1.754   4.319   0.570  0.2320  0.0865  0.0055
    1BTD     C7 3745   1.723   4.204   0.482 -0.0229  0.0815  0.1008
    1BTD     C8 3746   1.663   4.229   0.353 -0.1785  0.0908  0.1747
    1BTD    C15 3747   1.635   4.361   0.314 -0.0859  0.1044  0.1551
    1BTD    C16 3748   1.665   4.472   0.399  0.1597  0.1096  0.0633
    1BTD    C43 3749   1.539   4.684   0.316 -0.1269  0.0989  0.6234
    1BTD    C44 3750   1.394   4.673   0.370  0.0219  0.0074 -0.1891
    1BTD    C45 3751   1.287   4.725   0.265  0.0536 -0.8644 -0.1930
    1BTD    C46 3752   1.282   4.676   0.127 -0.0349  0.9412  0.6255
    1BTD    C47 3753   1.388   4.737   0.510  0.5024 -0.3630 -0.0800
    1BTD    C48 3754   1.355   4.889   0.535  0.0963  0.5510 -0.3910
    1BTD    C49 3755   1.325   4.920   0.679 -0.2340  0.0612 -0.6711
    1BTD    C50 3756   1.204   5.011   0.679  0.6214 -1.1945  0.4152
    1BTD    C75 3757   1.581   4.460   0.085 -0.5966 -0.0878  0.4296
    1BTD    C76 3758   1.714   4.485   0.017 -0.1488 -0.2211 -0.6218
    1BTD    C77 3759   1.730   4.608  -0.075  0.1018 -0.2095 -0.1671
    1BTD    C78 3760   1.628   4.617  -0.188 -0.3331 -0.0514  0.2763
    1BTD    C79 3761   1.781   4.364  -0.041 -0.2032 -0.2024 -0.1514
    1BTD    C80 3762   1.927   4.371  -0.094  0.9381 -0.4396 -0.2176
    1BTD    C81 3763   1.948   4.267  -0.200  0.1844 -0.2445 -0.0914
    1BTD    C82 3764   2.087   4.251  -0.262 -0.5647 -0.3706 -0.3711
    2TTP     S1 3765   1.824   4.659   0.729  0.1075  0.3989 -0.0677
    2TTP     S5 3766   1.718   4.970   0.452 -0.3096  0.2124 -0.1204
    2TTP     C1 3767   1.799   5.046   0.596 -0.2749  0.3296 -0.2009
    2TTP     C2 3768   1.836   4.954   0.690 -0.1440  0.3940 -0.1893
    2TTP     C3 3769   1.802   4.821   0.652 -0.0665  0.3532 -0.1165
    2TTP     C4 3770   1.743   4.583   0.584  0.0728  0.2817  0.0127
    2TTP    C17 3771   1.706   4.675   0.490 -0.0581  0.2172  0.0012
    2TTP    C18 3772   1.740   4.808   0.529 -0.1356  0.2581 -0.0716
    2TTP    C32 3773   1.929   4.978   0.813 -0.0724 -0.0736 -0.3004
    2TTP    C33 3774   1.868   4.963   0.951 -0.3192 -0.0670  0.6459
    2TTP    C34 3775   1.967   4.997   1.056  0.1893  0.1168 -0.5181
    2TTP    C35 3776   1.903   5.021   1.190  0.4606 -0.1033 -0.1668
    2TTP    C36 3777   2.015   5.030   1.295 -0.5732 -0.3326  0.6372
    2TTP    C37 3778   1.988   5.090   1.426 -0.0925 -0.1186  0.2982
    2TTP    C38 3779   1.960   5.238   1.433 -0.3194 -0.2732  0.1826
    2TTP    C39 3780   2.093   5.322   1.412  0.9232  0.3084 -0.0159
    2TTP    C40 3781   2.074   5.471   1.429  0.1015  0.1283 -0.1477
    2TTP    C41 3782   2.040   5.523   1.567  0.1591  0.8116  0.0778
    2TTP    C42 3783   2.114   5.645   1.616 -0.5920 -0.4607 -0.3784
    3TTP     S1 3784   1.561   3.968   0.230  0.1407  0.0247 -0.1827
    3TTP     S5 3785   1.352   4.193  -0.071 -0.1397  0.4042  0.2929
    3TTP     C1 3786   1.305   4.018  -0.087  0.0882  0.3743 -0.0858
    3TTP     C2 3787   1.367   3.938   0.005  0.1882  0.2553 -0.2549
    3TTP     C3 3788   1.454   4.012   0.091  0.0885  0.1837 -0.0916
    3TTP     C4 3789   1.608   4.143   0.245 -0.0872  0.0547  0.1959
    3TTP    C17 3790   1.547   4.223   0.153 -0.1872  0.1737  0.3651
    3TTP    C18 3791   1.460   4.149   0.067 -0.0875  0.2453  0.2018
    3TTP    C32 3792   1.354   3.785   0.027 -0.3437 -0.0741  0.7684
    3TTP    C33 3793   1.482   3.701  -0.008  0.0267 -0.5382  0.4057
    3TTP    C34 3794   1.452   3.554  -0.000 -0.6438 -0.5002 -0.5855
    3TTP    C35 3795   1.540   3.491   0.095 -0.2537  0.0464 -0.1754
    3TTP    C36 3796   1.477   3.397   0.196  0.8108  0.1203  0.2866
    3TTP    C37 3797   1.562   3.334   0.309 -0.4002 -0.4296 -0.3374
    3TTP    C38 3798   1.684   3.255   0.264 -0.9905 -0.1273  0.1269
    3TTP    C39 3799   1.782   3.236   0.382  0.2173 -0.8076  0.1602
    3TTP    C40 3800   1.901   3.157   0.343 -0.0527  0.2303 -0.9293
    3TTP    C41 3801   2.004   3.137   0.450 -0.0495 -0.5880 -0.9067
    3TTP    C42 3802   2.103   3.039   0.402 -0.4246  0.0044  0.6698
    4FIC     F1 3803   1.820   5.721   0.125 -0.4192  0.1372  0.0057
    4FIC     F2 3804   1.849   5.870   0.351  0.1124  0.1338 -0.0567
    4FIC     O1 3805   1.805   5.221   0.332 -0.4420  0.1668  0.0751
    4FIC     N5 3806   1.879   5.727   0.824  0.8605  0.1498 -0.0970
    4FIC     N6 3807   1.861   5.307   0.940  0.7355  0.1736 -0.0302
    4FIC    C19 3808   1.826   5.186   0.622  0.0578  0.1739  0.0401
    4FIC    C20 3809   1.829   5.306   0.561  0.0428  0.1668  0.0251
    4FIC    C21 3810   1.817   5.316   0.411 -0.2216  0.1632  0.0448
    4FIC    C22 3811   1.824   5.459   0.378 -0.1664  0.1554  0.0210
    4FIC    C23 3812   1.817   5.518   0.252 -0.3491  0.1500  0.0276
    4FIC    C24 3813   1.826   5.656   0.246 -0.2496  0.1429  0.0010
    4FIC    C25 3814   1.841   5.733   0.363  0.0244  0.1411 -0.0312
    4FIC    C26 3815   1.847   5.675   0.489  0.2078  0.1463 -0.0380
    4FIC    C27 3816   1.839   5.535   0.497  0.1108  0.1537 -0.0113
    4FIC    C28 3817   1.843   5.444   0.614  0.2503  0.1605 -0.0101
    4FIC    C29 3818   1.856   5.480   0.746  0.5201  0.1611 -0.0365
    4FIC    C30 3819   1.868   5.616   0.788  0.7063  0.1549 -0.0697
    4FIC    C31 3820   1.859   5.384   0.852  0.6371  0.1680 -0.0329
    5FIC     F1 3821   0.766   4.323  -0.629  0.2469  0.0223 -0.1051
    5FIC     F2 3822   0.723   4.069  -0.716 -0.0679  0.0323  0.0209
    5FIC     O1 3823   1.122   4.235  -0.231  0.2255 -0.2097 -0.1372
    5FIC     N5 3824   0.913   3.641  -0.558 -0.5359 -0.1187  0.1794
    5FIC     N6 3825   1.200   3.623  -0.229 -0.4892 -0.3020  0.1289
    5FIC    C19 3826   1.207   3.961  -0.172 -0.0829 -0.2825 -0.0281
    5FIC    C20 3827   1.119   3.993  -0.269 -0.0652 -0.2246 -0.0249
    5FIC    C21 3828   1.080   4.136  -0.293  0.0973 -0.1899 -0.0831
    5FIC    C22 3829   0.984   4.135  -0.405  0.0737 -0.1287 -0.0631
    5FIC    C23 3830   0.920   4.245  -0.463  0.1896 -0.0808 -0.1004
    5FIC    C24 3831   0.833   4.220  -0.567  0.1385 -0.0271 -0.0709
    5FIC    C25 3832   0.810   4.089  -0.612 -0.0237 -0.0220 -0.0060
    5FIC    C26 3833   0.874   3.979  -0.555 -0.1401 -0.0699  0.0317
    5FIC    C27 3834   0.963   4.003  -0.449 -0.0907 -0.1246  0.0026
    5FIC    C28 3835   1.045   3.910  -0.367 -0.1825 -0.1832  0.0286
    5FIC    C29 3836   1.051   3.773  -0.380 -0.3450 -0.1966  0.0904
    5FIC    C30 3837   0.975   3.701  -0.478 -0.4494 -0.1537  0.1391
    5FIC    C31 3838   1.133   3.691  -0.297 -0.4234 -0.2545  0.1113
    1BTD     S2 3839   2.650   6.559   1.622  0.4424 -0.0503 -0.1087
    1BTD     N1 3840   2.633   6.380   1.618  0.7128 -0.0744 -0.2634
    1BTD     N2 3841   2.581   6.583   1.457 -0.1130  0.0379  0.1325
    1BTD     N3 3842   2.410   6.310   1.116 -0.7572  0.1739  0.3447
    1BTD     N4 3843   2.473   6.059   1.314  0.2605  0.0355 -0.1431
    1BTD     C5 3844   2.548   6.216   1.457  0.4644 -0.0154 -0.1947
    1BTD     C6 3845   2.579   6.349   1.501  0.3916 -0.0185 -0.1340
    1BTD     C7 3846   2.550   6.463   1.411 -0.0706  0.0443  0.0876
    1BTD     C8 3847   2.492   6.438   1.282 -0.4370  0.1072  0.2374
    1BTD    C15 3848   2.464   6.305   1.243 -0.3499  0.1078  0.1708
    1BTD    C16 3849   2.492   6.195   1.330  0.0955  0.0472 -0.0427
    1BTD    C43 3850   2.381   5.977   1.234 -0.3243  0.2705  0.9764
    1BTD    C44 3851   2.236   5.948   1.276  0.1996  0.4224  0.5006
    1BTD    C45 3852   2.158   6.072   1.322  1.0162  0.3502 -0.3037
    1BTD    C46 3853   2.035   6.047   1.408  0.1220 -0.4264  0.3353
    1BTD    C47 3854   2.155   5.861   1.183 -0.4854  0.2927  0.9012
    1BTD    C48 3855   2.193   5.716   1.159 -0.8579 -0.5482  0.7845
    1BTD    C49 3856   2.102   5.651   1.060  0.4753 -0.5523 -0.4248
    1BTD    C50 3857   2.158   5.518   1.030 -0.2613 -0.3982 -0.5297
    1BTD    C75 3858   2.360   6.213   1.019 -0.8305 -0.1207 -0.2290
    1BTD    C76 3859   2.458   6.150   0.931 -0.9497  0.6282  0.4321
    1BTD    C77 3860   2.402   6.044   0.828  0.2778  0.2225 -0.6781
    1BTD    C78 3861   2.299   5.947   0.877 -0.0364 -0.3452  0.0078
    1BTD    C79 3862   2.561   6.250   0.866 -0.3426  0.2232  0.2728
    1BTD    C80 3863   2.679   6.187   0.784  0.6543 -0.0341 -0.3155
    1BTD    C81 3864   2.775   6.290   0.728  0.1192  0.3619 -0.1542
    1BTD    C82 3865   2.863   6.385   0.809 -0.0216  0.5776 -0.0758
    2TTP     S1 3866   2.579   6.017   1.686  0.2035  0.0742 -0.1849
    2TTP     S5 3867   2.451   5.698   1.427  0.0765  0.1882 -0.2626
    2TTP     C1 3868   2.481   5.629   1.593  0.3471  0.0790 -0.3564
    2TTP     C2 3869   2.523   5.724   1.683  0.4023  0.0374 -0.3380
    2TTP     C3 3870   2.532   5.854   1.624  0.2328  0.0901 -0.2491
    2TTP     C4 3871   2.548   6.085   1.520 -0.0671  0.1836 -0.0911
    2TTP    C17 3872   2.507   5.991   1.431 -0.1223  0.2250 -0.1096
    2TTP    C18 3873   2.498   5.861   1.490  0.0471  0.1721 -0.1985
    2TTP    C32 3874   2.551   5.701   1.830 -0.9851 -0.1032 -0.3828
    2TTP    C33 3875   2.682   5.628   1.859 -0.1936  0.1990 -0.2538
    2TTP    C34 3876   2.801   5.681   1.785  0.3076 -0.3370 -0.4575
    2TTP    C35 3877   2.926   5.603   1.814 -0.0221  0.2262 -0.1091
    2TTP    C36 3878   3.045   5.684   1.771 -0.0783  0.2204 -0.3334
    2TTP    C37 3879   3.184   5.627   1.804  0.2694  0.3071  0.1841
    2TTP    C38 3880   3.221   5.485   1.765 -0.3959  0.8640 -0.2482
    2TTP    C39 3881   3.198   5.435   1.619 -0.5809 -0.8798  0.5458
    2TTP    C40 3882   3.239   5.289   1.596 -0.2407  0.0219 -0.3711
    2TTP    C41 3883   3.231   5.246   1.454 -0.3300  1.0121  0.3242
    2TTP    C42 3884   3.214   5.100   1.427  0.3013  1.0343  0.1936
    3TTP     S1 3885   2.428   6.700   1.144  0.2430 -0.2689  0.0022
    3TTP     S5 3886   2.206   6.483   0.845  0.0488 -0.3513  0.2059
    3TTP     C1 3887   2.180   6.661   0.819 -0.0065 -0.3599  0.2026
    3TTP     C2 3888   2.247   6.739   0.909  0.0502 -0.3347  0.1395
    3TTP     C3 3889   2.321   6.660   1.003  0.1394 -0.3082  0.0914
    3TTP     C4 3890   2.454   6.522   1.170  0.2984 -0.2602  0.0055
    3TTP    C17 3891   2.387   6.444   1.079  0.2416 -0.2854  0.0686
    3TTP    C18 3892   2.313   6.523   0.986  0.1524 -0.3121  0.1166
    3TTP    C32 3893   2.259   6.889   0.902  0.5249 -0.0149  0.1162
    3TTP    C33 3894   2.392   6.960   0.893 -0.3582 -0.3175  0.4912
    3TTP    C34 3895   2.387   7.109   0.927  0.4846  0.3311  0.2484
    3TTP    C35 3896   2.321   7.185   0.812  0.8337  0.5117 -0.3783
    3TTP    C36 3897   2.320   7.332   0.831 -0.2825 -0.3161  0.5327
    3TTP    C37 3898   2.292   7.392   0.693 -0.1451 -0.2178 -0.1730
    3TTP    C38 3899   2.290   7.538   0.684 -0.2587 -0.2457 -0.1843
    3TTP    C39 3900   2.253   7.588   0.544 -0.1339 -0.4148 -0.1962
    3TTP    C40 3901   2.237   7.735   0.533 -0.1063 -0.8194 -0.1714
    3TTP    C41 3902   2.185   7.789   0.405 -0.2839 -0.6382 -0.1894
    3TTP    C42 3903   2.194   7.939   0.407  0.1329  0.7597  0.4057
    4FIC     F1 3904   2.370   4.914   1.192  0.3225  0.0126  0.1731
    4FIC     F2 3905   2.281   4.805   1.425 -0.0253  0.0460  0.0571
    4FIC     O1 3906   2.492   5.416   1.355  0.2609 -0.0216  0.3249
    4FIC     N5 3907   2.240   5.005   1.876 -0.5691  0.0695 -0.0013
    4FIC     N6 3908   2.353   5.419   1.956 -0.5471  0.0361  0.1407
    4FIC    C19 3909   2.450   5.490   1.636 -0.0932 -0.0018  0.2680
    4FIC    C20 3910   2.423   5.368   1.585 -0.0641  0.0054  0.2344
    4FIC    C21 3911   2.447   5.337   1.440  0.1219 -0.0056  0.2670
    4FIC    C22 3912   2.407   5.197   1.419  0.1056  0.0064  0.2169
    4FIC    C23 3913   2.412   5.124   1.301  0.2421  0.0023  0.2240
    4FIC    C24 3914   2.369   4.992   1.306  0.1942  0.0159  0.1695
    4FIC    C25 3915   2.323   4.936   1.426  0.0148  0.0330  0.1098
    4FIC    C26 3916   2.318   5.008   1.544 -0.1220  0.0372  0.1023
    4FIC    C27 3917   2.361   5.142   1.541 -0.0760  0.0236  0.1570
    4FIC    C28 3918   2.369   5.244   1.648 -0.1875  0.0236  0.1654
    4FIC    C29 3919   2.334   5.228   1.780 -0.3700  0.0381  0.1182
    4FIC    C30 3920   2.282   5.105   1.832 -0.4787  0.0553  0.0527
    4FIC    C31 3921   2.345   5.333   1.876 -0.4663  0.0370  0.1309
    5FIC     F1 3922   1.645   6.365   0.267 -0.0088 -0.3778  0.1727
    5FIC     F2 3923   1.573   6.620   0.206 -0.2857 -0.4526  0.1873
    5FIC     O1 3924   2.019   6.453   0.648  0.2114  0.0204 -0.1337
    5FIC     N5 3925   1.735   7.050   0.390 -0.5270 -0.2767 -0.0100
    5FIC     N6 3926   2.042   7.067   0.700 -0.2992  0.0495 -0.2524
    5FIC    C19 3927   2.083   6.728   0.725  0.0250  0.0900 -0.2286
    5FIC    C20 3928   1.992   6.696   0.632 -0.0196 -0.0070 -0.1521
    5FIC    C21 3929   1.965   6.552   0.598  0.0826 -0.0371 -0.1072
    5FIC    C22 3930   1.861   6.553   0.493 -0.0002 -0.1473 -0.0263
    5FIC    C23 3931   1.803   6.443   0.430  0.0486 -0.2096  0.0367
    5FIC    C24 3932   1.706   6.469   0.334 -0.0498 -0.3120  0.1079
    5FIC    C25 3933   1.669   6.601   0.302 -0.1924 -0.3503  0.1153
    5FIC    C26 3934   1.726   6.711   0.365 -0.2418 -0.2888  0.0527
    5FIC    C27 3935   1.824   6.687   0.463 -0.1438 -0.1849 -0.0199
    5FIC    C28 3936   1.903   6.780   0.547 -0.1613 -0.1001 -0.0969
    5FIC    C29 3937   1.896   6.917   0.546 -0.2854 -0.1068 -0.1137
    5FIC    C30 3938   1.808   6.990   0.460 -0.4178 -0.2003 -0.0566
    5FIC    C31 3939   1.977   6.999   0.631 -0.2923 -0.0207 -0.1899
    1BTD     S2 3940   0.940   6.497   3.139 -0.2199 -0.1234 -0.0097
    1BTD     N1 3941   0.956   6.318   3.148  0.1218 -0.1004 -0.1447
    1BTD     N2 3942   1.010   6.526   3.303 -0.4684 -0.1247  0.0978
    1BTD     N3 3943   1.181   6.262   3.651 -0.3580 -0.0864  0.0727
    1BTD     N4 3944   1.115   6.006   3.460  0.3693 -0.0564 -0.2259
    1BTD     C5 3945   1.040   6.158   3.313  0.2423 -0.0777 -0.1835
    1BTD     C6 3946   1.010   6.291   3.266  0.0374 -0.0952 -0.1048
    1BTD     C7 3947   1.040   6.407   3.352 -0.2930 -0.1088  0.0309
    1BTD     C8 3948   1.098   6.385   3.482 -0.4020 -0.1042  0.0811
    1BTD    C15 3949   1.126   6.254   3.524 -0.1930 -0.0870  0.0004
    1BTD    C16 3950   1.097   6.142   3.441  0.1253 -0.0739 -0.1302
    1BTD    C43 3951   1.211   5.944   3.545 -0.1738  0.4773 -0.5919
    1BTD    C44 3952   1.358   5.925   3.516  0.5415 -0.3951  0.5578
    1BTD    C45 3953   1.432   5.877   3.637 -0.1735  0.0703 -0.0604
    1BTD    C46 3954   1.586   5.884   3.644  0.1526  0.5125 -0.4782
    1BTD    C47 3955   1.400   5.873   3.378  0.1846  0.3424  0.1113
    1BTD    C48 3956   1.376   5.719   3.357 -0.0123 -0.3350  0.1446
    1BTD    C49 3957   1.434   5.668   3.224 -0.4831  0.1123 -0.1972
    1BTD    C50 3958   1.455   5.519   3.239  0.6031  0.3611 -0.0506
    1BTD    C75 3959   1.197   6.163   3.759  0.1562 -0.2465 -0.2369
    1BTD    C76 3960   1.093   6.158   3.867  0.5198  0.1726 -0.0985
    1BTD    C77 3961   1.133   6.070   3.984  0.0427  0.4645  0.1749
    1BTD    C78 3962   1.133   5.921   3.972 -0.0930  0.3428 -0.4270
    1BTD    C79 3963   0.939   6.167   3.834 -0.0858  0.0684  0.1847
    1BTD    C80 3964   0.842   6.209   3.945 -0.2767 -0.2215 -0.3795
    1BTD    C81 3965   0.861   6.352   4.000 -0.2396 -0.9658 -0.4865
    1BTD    C82 3966   0.747   6.399   4.084  0.5487 -0.3086  0.5984
    2TTP     S1 3967   0.930   5.948   3.124 -0.0625 -0.2468  0.0240
    2TTP     S5 3968   1.029   5.642   3.409  0.3439  0.0550  0.2092
    2TTP     C1 3969   0.940   5.565   3.270  0.2194 -0.1060  0.3768
    2TTP     C2 3970   0.904   5.655   3.174  0.0866 -0.2087  0.3294
    2TTP     C3 3971   0.945   5.788   3.206  0.0783 -0.1639  0.1592
    2TTP     C4 3972   1.018   6.025   3.263  0.0619 -0.0859 -0.1435
    2TTP    C17 3973   1.054   5.935   3.359  0.1948  0.0169 -0.0961
    2TTP    C18 3974   1.013   5.802   3.326  0.2031 -0.0279  0.0741
    2TTP    C32 3975   0.826   5.630   3.035  0.1935 -0.7345  0.0346
    2TTP    C33 3976   0.684   5.580   3.039  0.4549 -1.1083  0.5001
    2TTP    C34 3977   0.607   5.575   2.909  0.8934 -0.2155 -0.0186
    2TTP    C35 3978   0.681   5.523   2.780 -0.2544 -0.2822 -1.2013
    2TTP    C36 3979   0.601   5.557   2.655 -0.1723 -0.1351  0.2758
    2TTP    C37 3980   0.635   5.483   2.524  0.2158  0.1115  0.4271
    2TTP    C38 3981   0.649   5.327   2.534 -0.4796  0.4454 -0.4722
    2TTP    C39 3982   0.644   5.253   2.400 -0.4134 -0.0618  0.1123
    2TTP    C40 3983   0.651   5.105   2.433  0.6123  1.1169  0.3689
    2TTP    C41 3984   0.649   5.012   2.309  0.0763  0.3738 -0.5849
    2TTP    C42 3985   0.768   5.010   2.215 -0.5224  0.2880 -0.2079
    3TTP     S1 3986   1.196   6.649   3.591 -0.1193  0.1098  0.1775
    3TTP     S5 3987   1.392   6.437   3.910  0.4929  0.0471 -0.2373
    3TTP     C1 3988   1.444   6.611   3.916  0.4134  0.0706 -0.2307
    3TTP     C2 3989   1.386   6.687   3.818  0.2197  0.0912 -0.1022
    3TTP     C3 3990   1.299   6.610   3.734  0.1270  0.0893 -0.0044
    3TTP     C4 3991   1.145   6.474   3.585 -0.0398  0.0862  0.1708
    3TTP    C17 3992   1.202   6.399   3.683  0.1540  0.0655  0.0424
    3TTP    C18 3993   1.289   6.476   3.766  0.2466  0.0675 -0.0554
    3TTP    C32 3994   1.389   6.840   3.804  0.4278 -0.4505  0.1344
    3TTP    C33 3995   1.276   6.911   3.885 -0.0227  1.0728 -0.2760
    3TTP    C34 3996   1.285   7.066   3.855  0.2694  0.5479  0.0997
    3TTP    C35 3997   1.156   7.147   3.898 -0.2534  0.2310  0.2952
    3TTP    C36 3998   1.180   7.293   3.925  0.1355 -0.2236  0.2918
    3TTP    C37 3999   1.219   7.329   4.066  0.1379 -0.4698 -0.5128
    3TTP    C38 4000   1.211   7.480   4.112 -0.5136  0.2177  0.5368
    3TTP    C39 4001   1.304   7.576   4.037  0.0086 -0.3245  0.4629
    3TTP    C40 4002   1.298   7.725   4.074  0.2668  0.0677 -0.1251
    3TTP    C41 4003   1.339   7.761   4.217  0.1233  0.3002 -0.3144
    3TTP    C42 4004   1.320   7.906   4.253 -0.1596  0.2726  0.5988
    4FIC     F1 4005   0.863   4.954   3.811 -0.0825 -0.3552 -0.1007
    4FIC     F2 4006   0.818   4.784   3.603 -0.1021 -0.2582 -0.1758
    4FIC     O1 4007   0.923   5.424   3.549  0.0383 -0.2569  0.1021
    4FIC     N5 4008   0.795   4.875   3.117 -0.0443 -0.0486 -0.1394
    4FIC     N6 4009   0.850   5.276   2.954  0.0540  0.0085  0.0342
    4FIC    C19 4010   0.900   5.428   3.257  0.0624 -0.1293  0.1023
    4FIC    C20 4011   0.887   5.317   3.331  0.0328 -0.1577  0.0542
    4FIC    C21 4012   0.900   5.322   3.481  0.0221 -0.2235  0.0576
    4FIC    C22 4013   0.881   5.185   3.530 -0.0110 -0.2400 -0.0020
    4FIC    C23 4014   0.883   5.140   3.661 -0.0310 -0.2962 -0.0206
    4FIC    C24 4015   0.862   5.005   3.683 -0.0615 -0.3011 -0.0794
    4FIC    C25 4016   0.839   4.917   3.576 -0.0716 -0.2508 -0.1180
    4FIC    C26 4017   0.836   4.961   3.444 -0.0518 -0.1948 -0.0997
    4FIC    C27 4018   0.857   5.098   3.420 -0.0208 -0.1891 -0.0404
    4FIC    C28 4019   0.860   5.176   3.294  0.0057 -0.1365 -0.0075
    4FIC    C29 4020   0.842   5.126   3.167  0.0052 -0.0792 -0.0297
    4FIC    C30 4021   0.816   4.988   3.140 -0.0220 -0.0626 -0.0899
    4FIC    C31 4022   0.847   5.209   3.051  0.0321 -0.0312  0.0056
    5FIC     F1 4023   1.976   6.280   4.451 -0.4022 -0.0948  0.2442
    5FIC     F2 4024   2.044   6.532   4.529 -0.0888 -0.1146  0.0433
    5FIC     O1 4025   1.609   6.388   4.067 -0.2660  0.0575  0.1559
    5FIC     N5 4026   1.879   6.970   4.369  0.4589 -0.0346 -0.3083
    5FIC     N6 4027   1.578   7.003   4.054  0.5021  0.0885 -0.3368
    5FIC    C19 4028   1.543   6.666   4.006  0.0818  0.0927 -0.0673
    5FIC    C20 4029   1.633   6.629   4.100  0.0353  0.0551 -0.0373
    5FIC    C21 4030   1.661   6.484   4.125 -0.1460  0.0391  0.0791
    5FIC    C22 4031   1.763   6.480   4.232 -0.1523 -0.0023  0.0834
    5FIC    C23 4032   1.821   6.367   4.290 -0.2934 -0.0291  0.1740
    5FIC    C24 4033   1.915   6.388   4.389 -0.2682 -0.0665  0.1581
    5FIC    C25 4034   1.950   6.517   4.430 -0.1066 -0.0768  0.0546
    5FIC    C26 4035   1.892   6.630   4.373  0.0346 -0.0502 -0.0362
    5FIC    C27 4036   1.797   6.611   4.272  0.0117 -0.0119 -0.0217
    5FIC    C28 4037   1.718   6.708   4.192  0.1335  0.0229 -0.1000
    5FIC    C29 4038   1.723   6.846   4.202  0.3043  0.0249 -0.2096
    5FIC    C30 4039   1.809   6.914   4.294  0.3887 -0.0079 -0.2635
    5FIC    C31 4040   1.644   6.932   4.120  0.4122  0.0597 -0.2789
    1BTD     S2 4041   2.711   1.395   0.723  0.2266 -0.0650  0.0380
    1BTD     N1 4042   2.680   1.572   0.727  0.0457 -0.0970  0.0576
    1BTD     N2 4043   2.653   1.374   0.554  0.3613 -0.0853 -0.0058
    1BTD     N3 4044   2.479   1.650   0.217  0.3093 -0.1842 -0.0599
    1BTD     N4 4045   2.512   1.895   0.430 -0.0795 -0.1985  0.0182
    1BTD     C5 4046   2.592   1.738   0.569 -0.0149 -0.1498  0.0361
    1BTD     C6 4047   2.630   1.605   0.608  0.0928 -0.1199  0.0317
    1BTD     C7 4048   2.615   1.494   0.512  0.2694 -0.1133 -0.0037
    1BTD     C8 4049   2.563   1.521   0.381  0.3295 -0.1371 -0.0331
    1BTD    C15 4050   2.526   1.653   0.347  0.2196 -0.1660 -0.0276
    1BTD    C16 4051   2.540   1.760   0.440  0.0493 -0.1724  0.0066
    1BTD    C43 4052   2.416   1.963   0.337 -0.4707  0.1300 -0.5876
    1BTD    C44 4053   2.263   1.947   0.364 -0.2468 -0.3755  0.4662
    1BTD    C45 4054   2.217   2.007   0.494  0.3782  0.2525  0.1564
    1BTD    C46 4055   2.080   1.968   0.538  0.3803 -0.7039 -0.5903
    1BTD    C47 4056   2.188   1.991   0.241  0.0620 -0.0869  0.1959
    1BTD    C48 4057   2.212   2.132   0.183 -0.3847 -0.5452 -0.4006
    1BTD    C49 4058   2.149   2.140   0.045  0.0622 -0.1253 -0.4146
    1BTD    C50 4059   2.190   2.259  -0.040  0.5587  0.3382 -0.2222
    1BTD    C75 4060   2.485   1.750   0.114 -0.1961  0.0566 -0.0673
    1BTD    C76 4061   2.620   1.778   0.037 -0.8330 -0.1664 -0.0513
    1BTD    C77 4062   2.618   1.921  -0.037 -0.1353 -0.4896  0.1922
    1BTD    C78 4063   2.542   1.923  -0.172 -0.2102  0.5835 -0.3763
    1BTD    C79 4064   2.663   1.649  -0.041  0.1579 -0.2542  0.7218
    1BTD    C80 4065   2.803   1.651  -0.106  0.1356  0.3760 -0.2511
    1BTD    C81 4066   2.820   1.520  -0.181 -0.3131 -0.5563  0.9871
    1BTD    C82 4067   2.947   1.517  -0.272  0.2446 -0.0699 -0.1134
    2TTP     S1 4068   2.635   1.938   0.800 -0.0466  0.0752  0.0269
    2TTP     S5 4069   2.514   2.256   0.537 -0.0794  0.0418  0.0014
    2TTP     C1 4070   2.559   2.328   0.698  0.0533  0.0744 -0.0504
    2TTP     C2 4071   2.599   2.234   0.789  0.0712  0.0867 -0.0456
    2TTP     C3 4072   2.596   2.101   0.735 -0.0191  0.0706 -0.0008
    2TTP     C4 4073   2.589   1.866   0.639 -0.1792  0.0426  0.0786
    2TTP    C17 4074   2.549   1.960   0.549 -0.1972  0.0303  0.0738
    2TTP    C18 4075   2.553   2.092   0.603 -0.1068  0.0462  0.0291
    2TTP    C32 4076   2.626   2.253   0.939 -0.6281  0.4689  0.3496
    2TTP    C33 4077   2.767   2.232   0.999  0.2912 -0.2923  0.1344
    2TTP    C34 4078   2.884   2.303   0.921  0.4846  0.1719 -0.3630
    2TTP    C35 4079   3.015   2.295   0.994 -1.4334 -0.2272  0.1242
    2TTP    C36 4080   3.137   2.342   0.914  0.9176 -0.5542  0.0447
    2TTP    C37 4081   3.131   2.488   0.870 -0.0565 -0.8768 -0.1785
    2TTP    C38 4082   3.236   2.516   0.764  0.0812  0.5529 -0.1842
    2TTP    C39 4083   3.248   2.655   0.711  0.2010  0.2410  0.1975
    2TTP    C40 4084   3.361   2.660   0.604  0.5082  0.1813 -0.6886
    2TTP    C41 4085   3.362   2.809   0.559  0.3466  0.6104  0.0055
    2TTP    C42 4086   3.450   2.815   0.440 -0.1478  0.4291 -0.0292
    3TTP     S1 4087   2.501   1.261   0.240 -0.0776 -0.0171 -0.0346
    3TTP     S5 4088   2.267   1.484  -0.044  0.0275 -0.0964 -0.1841
    3TTP     C1 4089   2.237   1.307  -0.071 -0.1922 -0.0961  0.0509
    3TTP     C2 4090   2.308   1.228   0.015 -0.2376 -0.0716  0.1108
    3TTP     C3 4091   2.388   1.304   0.105 -0.1006 -0.0521 -0.0265
    3TTP     C4 4092   2.531   1.438   0.267  0.1422 -0.0173 -0.2695
    3TTP    C17 4093   2.461   1.518   0.181  0.1875 -0.0418 -0.3295
    3TTP    C18 4094   2.381   1.441   0.091  0.0505 -0.0613 -0.1921
    3TTP    C32 4095   2.326   1.079   0.009  0.0902  0.2535  0.9152
    3TTP    C33 4096   2.464   1.028  -0.056 -0.2573  0.6755 -0.6417
    3TTP    C34 4097   2.476   0.874  -0.042  0.3054  0.5628 -0.6123
    3TTP    C35 4098   2.501   0.814   0.097 -0.1829  0.6277  0.1084
    3TTP    C36 4099   2.562   0.677   0.069 -0.1366 -0.0382 -0.0492
    3TTP    C37 4100   2.592   0.581   0.184  0.2062  0.6752  0.4237
    3TTP    C38 4101   2.676   0.633   0.298  0.1555  0.3032 -0.1393
    3TTP    C39 4102   2.680   0.554   0.426  0.0218  0.1337  0.1594
    3TTP    C40 4103   2.777   0.622   0.526  0.2451  0.1281  0.8274
    3TTP    C41 4104   2.808   0.539   0.644 -0.9383 -0.5432 -0.0466
    3TTP    C42 4105   2.937   0.569   0.725 -0.2897  0.0261  0.2213
    4FIC     F1 4106   2.547   3.033   0.268  0.2924  0.1298 -0.0185
    4FIC     F2 4107   2.583   3.169   0.500 -0.2636  0.1482  0.0593
    4FIC     O1 4108   2.542   2.522   0.448  0.3078  0.1196 -0.0469
    4FIC     N5 4109   2.631   3.002   0.963 -1.0522  0.1673  0.1509
    4FIC     N6 4110   2.620   2.575   1.057 -0.9280  0.1556  0.1130
    4FIC    C19 4111   2.574   2.472   0.734 -0.2179  0.1335  0.0173
    4FIC    C20 4112   2.574   2.595   0.680 -0.2001  0.1354  0.0214
    4FIC    C21 4113   2.557   2.613   0.532  0.0779  0.1279 -0.0130
    4FIC    C22 4114   2.562   2.758   0.506  0.0224  0.1322  0.0016
    4FIC    C23 4115   2.550   2.823   0.384  0.2153  0.1280 -0.0196
    4FIC    C24 4116   2.557   2.962   0.385  0.1131  0.1335  0.0006
    4FIC    C25 4117   2.576   3.032   0.505 -0.1735  0.1430  0.0407
    4FIC    C26 4118   2.588   2.967   0.627 -0.3672  0.1472  0.0620
    4FIC    C27 4119   2.580   2.827   0.629 -0.2677  0.1417  0.0421
    4FIC    C28 4120   2.589   2.730   0.740 -0.4158  0.1441  0.0558
    4FIC    C29 4121   2.607   2.759   0.873 -0.6986  0.1527  0.0934
    4FIC    C30 4122   2.620   2.892   0.922 -0.8921  0.1608  0.1248
    4FIC    C31 4123   2.614   2.658   0.974 -0.8233  0.1543  0.1039
    5FIC     F1 4124   1.740   1.606  -0.645  0.0481 -0.1645 -0.0921
    5FIC     F2 4125   1.681   1.351  -0.719 -0.1059 -0.1937  0.1281
    5FIC     O1 4126   2.088   1.517  -0.240  0.1324 -0.0218 -0.1330
    5FIC     N5 4127   1.844   0.921  -0.537 -0.2671 -0.1339  0.4157
    5FIC     N6 4128   2.128   0.903  -0.206 -0.1703 -0.0165  0.3393
    5FIC    C19 4129   2.155   1.242  -0.167  0.0152  0.0010  0.0629
    5FIC    C20 4130   2.070   1.274  -0.266  0.0000 -0.0338  0.0646
    5FIC    C21 4131   2.040   1.418  -0.297  0.0633 -0.0434 -0.0396
    5FIC    C22 4132   1.944   1.418  -0.409  0.0272 -0.0831 -0.0086
    5FIC    C23 4133   1.888   1.528  -0.473  0.0628 -0.1046 -0.0772
    5FIC    C24 4134   1.799   1.502  -0.577  0.0166 -0.1417 -0.0289
    5FIC    C25 4135   1.769   1.371  -0.615 -0.0627 -0.1567  0.0844
    5FIC    C26 4136   1.825   1.261  -0.552 -0.0986 -0.1355  0.1535
    5FIC    C27 4137   1.915   1.284  -0.447 -0.0528 -0.0978  0.1062
    5FIC    C28 4138   1.991   1.191  -0.360 -0.0726 -0.0681  0.1556
    5FIC    C29 4139   1.988   1.054  -0.366 -0.1446 -0.0716  0.2650
    5FIC    C30 4140   1.909   0.981  -0.460 -0.2117 -0.1059  0.3474
    5FIC    C31 4141   2.065   0.972  -0.278 -0.1583 -0.0413  0.3052
    1BTD     S2 4142   1.045   1.432   2.177  0.1612 -0.0261  0.0565
    1BTD     N1 4143   1.054   1.612   2.188  0.3129 -0.0292  0.0001
    1BTD     N2 4144   1.114   1.405   2.341 -0.0392 -0.0296  0.1401
    1BTD     N3 4145   1.268   1.672   2.695 -0.1737 -0.0424  0.2084
    1BTD     N4 4146   1.194   1.927   2.506  0.2601 -0.0420  0.0359
    1BTD     C5 4147   1.128   1.773   2.357  0.2801 -0.0359  0.0209
    1BTD     C6 4148   1.104   1.640   2.307  0.2116 -0.0326  0.0442
    1BTD     C7 4149   1.138   1.525   2.393  0.0145 -0.0328  0.1225
    1BTD     C8 4150   1.193   1.548   2.524 -0.1042 -0.0363  0.1736
    1BTD    C15 4151   1.214   1.680   2.568 -0.0311 -0.0395  0.1484
    1BTD    C16 4152   1.182   1.791   2.485  0.1588 -0.0393  0.0729
    1BTD    C43 4153   1.290   1.995   2.596  0.3654 -0.7881  0.4769
    1BTD    C44 4154   1.442   1.975   2.571 -0.1843 -0.2241 -0.2428
    1BTD    C45 4155   1.516   2.021   2.696 -0.0689 -0.0711 -0.0029
    1BTD    C46 4156   1.661   1.989   2.706  0.0540 -0.0542  0.0316
    1BTD    C47 4157   1.500   2.005   2.429 -0.3218 -0.4032 -0.6712
    1BTD    C48 4158   1.517   2.155   2.401 -0.2091  0.5270 -0.3436
    1BTD    C49 4159   1.583   2.163   2.262  0.2862 -0.1182 -0.1312
    1BTD    C50 4160   1.659   2.295   2.243 -0.0928 -0.2298  0.4315
    1BTD    C75 4161   1.265   1.770   2.811 -0.3831  0.5033 -0.4285
    1BTD    C76 4162   1.150   1.782   2.911 -0.3877 -0.5472 -0.2351
    1BTD    C77 4163   1.175   1.909   2.998 -0.3817  0.6240 -0.1522
    1BTD    C78 4164   1.292   1.923   3.099  0.1369 -0.0104 -0.0441
    1BTD    C79 4165   1.107   1.658   2.984  0.4386 -0.5742 -0.3101
    1BTD    C80 4166   0.984   1.658   3.079 -0.2251  0.1300 -0.6949
    1BTD    C81 4167   0.939   1.529   3.144 -0.3045  0.2698 -0.2284
    1BTD    C82 4168   0.851   1.547   3.268  0.0215  0.0784  0.2186
    2TTP     S1 4169   1.018   1.990   2.164  0.0911 -0.0223  0.1528
    2TTP     S5 4170   1.164   2.292   2.433  0.2272  0.2716 -0.2490
    2TTP     C1 4171   1.084   2.374   2.292 -0.0787  0.1141 -0.1679
    2TTP     C2 4172   1.034   2.285   2.201 -0.1387  0.0142 -0.0391
    2TTP     C3 4173   1.057   2.150   2.239  0.0547  0.0582  0.0004
    2TTP     C4 4174   1.098   1.908   2.305  0.3970  0.1350  0.0717
    2TTP    C17 4175   1.148   1.996   2.397  0.4570  0.2350 -0.0570
    2TTP    C18 4176   1.125   2.132   2.359  0.2637  0.1910 -0.0964
    2TTP    C32 4177   0.973   2.309   2.066  0.0065  0.6431  0.6478
    2TTP    C33 4178   0.819   2.314   2.071  0.8738 -0.3799  0.0467
    2TTP    C34 4179   0.753   2.377   1.952 -0.2914  0.0211  0.0022
    2TTP    C35 4180   0.814   2.511   1.917  0.2073 -0.4842 -0.0216
    2TTP    C36 4181   0.757   2.555   1.781  0.1941 -0.4294  0.4628
    2TTP    C37 4182   0.831   2.671   1.716  0.2763 -0.3613  0.3692
    2TTP    C38 4183   0.785   2.729   1.583  0.1326  0.0003  0.2376
    2TTP    C39 4184   0.879   2.842   1.528 -0.2950 -0.1557  0.9776
    2TTP    C40 4185   0.827   2.923   1.408  0.2713 -0.0101  0.1637
    2TTP    C41 4186   0.835   2.863   1.272  0.0495 -0.5073 -0.1749
    2TTP    C42 4187   0.780   2.950   1.158  0.6158  0.1672  0.2263
    3TTP     S1 4188   1.281   1.284   2.653  0.2108 -0.4269  0.2104
    3TTP     S5 4189   1.489   1.514   2.951 -0.0487  0.3680 -0.2153
    3TTP     C1 4190   1.532   1.338   2.973  0.0432  0.4397  0.1996
    3TTP     C2 4191   1.470   1.257   2.882  0.1288  0.1985  0.3555
    3TTP     C3 4192   1.387   1.330   2.792  0.1248 -0.0517  0.1529
    3TTP     C4 4193   1.238   1.459   2.631  0.1189 -0.4987 -0.2045
    3TTP    C17 4194   1.300   1.540   2.722  0.0333 -0.2574 -0.3604
    3TTP    C18 4195   1.383   1.467   2.812  0.0373 -0.0072 -0.1578
    3TTP    C32 4196   1.472   1.100   2.877  0.7373  0.3306  0.0811
    3TTP    C33 4197   1.369   1.026   2.953  1.3069  0.0198 -0.5942
    3TTP    C34 4198   1.362   0.874   2.982 -0.1068 -0.1134 -0.5353
    3TTP    C35 4199   1.379   0.777   2.867  0.2065  0.1110  0.5411
    3TTP    C36 4200   1.518   0.750   2.823  0.4802  0.4305  0.5160
    3TTP    C37 4201   1.520   0.707   2.674 -0.4414 -0.0307  0.4713
    3TTP    C38 4202   1.661   0.718   2.618  0.2506 -0.4425  0.3760
    3TTP    C39 4203   1.672   0.694   2.463  0.6249  0.1134 -1.0835
    3TTP    C40 4204   1.811   0.730   2.411  0.3857  0.1146 -0.3409
    3TTP    C41 4205   1.808   0.697   2.262 -0.6502  0.2753  0.2969
    3TTP    C42 4206   1.951   0.688   2.206 -0.0594 -0.1008  0.0972
    4FIC     F1 4207   1.031   2.977   2.847  0.3298  0.0407  0.1140
    4FIC     F2 4208   1.061   3.156   2.644 -0.2778  0.1059  0.0793
    4FIC     O1 4209   1.037   2.510   2.573  0.5725  0.0743  0.0613
    4FIC     N5 4210   1.108   3.081   2.157 -0.9785  0.2238 -0.0080
    4FIC     N6 4211   1.106   2.680   1.984 -0.6664  0.2369 -0.0421
    4FIC    C19 4212   1.067   2.516   2.282  0.0781  0.1487  0.0096
    4FIC    C20 4213   1.065   2.626   2.358  0.0409  0.1376  0.0241
    4FIC    C21 4214   1.049   2.615   2.507  0.3061  0.0989  0.0506
    4FIC    C22 4215   1.050   2.753   2.560  0.1867  0.0962  0.0610
    4FIC    C23 4216   1.038   2.794   2.693  0.3474  0.0657  0.0850
    4FIC    C24 4217   1.042   2.930   2.718  0.1852  0.0697  0.0906
    4FIC    C25 4218   1.058   3.022   2.613 -0.1279  0.1034  0.0727
    4FIC    C26 4219   1.069   2.982   2.481 -0.2896  0.1341  0.0488
    4FIC    C27 4220   1.065   2.845   2.453 -0.1293  0.1304  0.0427
    4FIC    C28 4221   1.075   2.770   2.325 -0.2314  0.1572  0.0194
    4FIC    C29 4222   1.091   2.825   2.200 -0.5226  0.1932 -0.0025
    4FIC    C30 4223   1.100   2.966   2.177 -0.7723  0.2099 -0.0055
    4FIC    C31 4224   1.099   2.745   2.082 -0.6000  0.2170 -0.0242
    5FIC     F1 4225   2.008   1.653   3.569  0.0107 -0.0635  0.1949
    5FIC     F2 4226   2.086   1.400   3.634  0.4308 -0.0218 -0.1372
    5FIC     O1 4227   1.674   1.555   3.154 -0.3261 -0.1163  0.4773
    5FIC     N5 4228   1.959   0.967   3.430  0.7946  0.0003 -0.4134
    5FIC     N6 4229   1.683   0.941   3.093  0.4467 -0.0493 -0.1257
    5FIC    C19 4230   1.630   1.279   3.068 -0.0444 -0.0953  0.2603
    5FIC    C20 4231   1.711   1.313   3.170  0.0239 -0.0836  0.2023
    5FIC    C21 4232   1.728   1.458   3.208 -0.1307 -0.0956  0.3217
    5FIC    C22 4233   1.822   1.460   3.322 -0.0043 -0.0781  0.2176
    5FIC    C23 4234   1.869   1.571   3.392 -0.0777 -0.0810  0.2721
    5FIC    C24 4235   1.958   1.548   3.496  0.0723 -0.0618  0.1499
    5FIC    C25 4236   1.997   1.417   3.529  0.2886 -0.0404 -0.0212
    5FIC    C26 4237   1.951   1.306   3.460  0.3630 -0.0373 -0.0764
    5FIC    C27 4238   1.861   1.327   3.354  0.2136 -0.0566  0.0454
    5FIC    C28 4239   1.794   1.232   3.262  0.2394 -0.0591  0.0292
    5FIC    C29 4240   1.807   1.095   3.262  0.4273 -0.0421 -0.1181
    5FIC    C30 4241   1.891   1.025   3.355  0.6286 -0.0188 -0.2798
    5FIC    C31 4242   1.739   1.011   3.169  0.4369 -0.0461 -0.1214
    1BTD     S2 4243   0.104   9.181   3.237  0.1448 -0.1829 -0.3049
    1BTD     N1 4244   0.121   9.002   3.238  0.4894 -0.1514 -0.3414
    1BTD     N2 4245   0.171   9.203   3.403 -0.3213 -0.1240 -0.1203
    1BTD     N3 4246   0.338   8.923   3.741 -0.6490  0.0529  0.1897
    1BTD     N4 4247   0.276   8.676   3.538  0.3499  0.0196 -0.0827
    1BTD     C5 4248   0.203   8.835   3.397  0.4045 -0.0618 -0.2031
    1BTD     C6 4249   0.173   8.969   3.355  0.2516 -0.1013 -0.2204
    1BTD     C7 4250   0.201   9.082   3.447 -0.2022 -0.0858 -0.0967
    1BTD     C8 4251   0.258   9.054   3.577 -0.4803 -0.0319  0.0382
    1BTD    C15 4252   0.285   8.921   3.613 -0.3166  0.0053  0.0502
    1BTD    C16 4253   0.258   8.812   3.524  0.1207 -0.0096 -0.0689
    1BTD    C43 4254   0.366   8.601   3.622 -0.1849 -0.2724 -0.1898
    1BTD    C44 4255   0.514   8.570   3.567 -0.8701 -0.0079 -0.4078
    1BTD    C45 4256   0.606   8.687   3.522 -0.7147 -0.5369  1.0515
    1BTD    C46 4257   0.742   8.658   3.459 -0.7019  0.8445  0.3289
    1BTD    C47 4258   0.589   8.459   3.645 -0.2390 -0.0119 -0.6963
    1BTD    C48 4259   0.520   8.327   3.663 -0.0286  0.2664 -0.3189
    1BTD    C49 4260   0.615   8.214   3.706 -0.0006  0.0543 -0.5881
    1BTD    C50 4261   0.580   8.081   3.644 -0.2814  0.3215 -0.5202
    1BTD    C75 4262   0.321   8.822   3.851 -0.1006 -0.4757 -0.7241
    1BTD    C76 4263   0.205   8.824   3.953  0.2578 -0.7703 -0.3452
    1BTD    C77 4264   0.213   8.712   4.056 -0.0637  0.2191  0.0506
    1BTD    C78 4265   0.341   8.669   4.120 -0.0142  0.6446  0.6328
    1BTD    C79 4266   0.073   8.850   3.881  0.3932 -0.3702  0.1295
    1BTD    C80 4267  -0.044   8.888   3.966  1.0467  0.0487  0.2962
    1BTD    C81 4268  -0.029   9.009   4.054 -0.5263 -0.2203 -0.4090
    1BTD    C82 4269  -0.047   9.142   3.984 -0.1345 -0.1707 -0.2445
    2TTP     S1 4270   0.123   8.638   3.175  0.1401 -0.1036 -0.2990
    2TTP     S5 4271   0.264   8.318   3.426 -0.1888 -0.0572 -0.0534
    2TTP     C1 4272   0.203   8.247   3.270 -0.0298 -0.0910 -0.1002
    2TTP     C2 4273   0.156   8.341   3.183  0.0812 -0.1070 -0.1788
    2TTP     C3 4274   0.166   8.474   3.237  0.0446 -0.0939 -0.2049
    2TTP     C4 4275   0.183   8.709   3.331 -0.0189 -0.0701 -0.2522
    2TTP    C17 4276   0.231   8.615   3.417 -0.1299 -0.0537 -0.1736
    2TTP    C18 4277   0.221   8.483   3.364 -0.0933 -0.0672 -0.1475
    2TTP    C32 4278   0.106   8.308   3.037  0.4645  0.1856 -0.5521
    2TTP    C33 4279  -0.039   8.365   3.019 -0.2082  0.3551  0.2402
    2TTP    C34 4280  -0.109   8.315   2.894 -0.0540  0.3997 -0.0722
    2TTP    C35 4281  -0.260   8.342   2.883 -0.3399  0.1626  0.3078
    2TTP    C36 4282  -0.363   8.305   2.980 -0.3108  0.2620 -0.8147
    2TTP    C37 4283  -0.373   8.155   3.012  0.1175  0.1012 -0.0805
    2TTP    C38 4284  -0.479   8.111   3.113  0.2664 -0.3720 -0.3136
    2TTP    C39 4285  -0.473   7.967   3.153  0.8201  0.1002  0.5887
    2TTP    C40 4286  -0.527   7.948   3.289  0.0459  0.0632  0.1971
    2TTP    C41 4287  -0.542   7.802   3.319  0.1644  0.7783 -0.4314
    2TTP    C42 4288  -0.564   7.758   3.471 -0.0844  0.5799 -0.0715
    3TTP     S1 4289   0.311   9.310   3.719 -0.3678  0.1005  0.2847
    3TTP     S5 4290   0.542   9.100   4.014 -0.2301 -0.0572  0.0656
    3TTP     C1 4291   0.554   9.279   4.047 -0.2038 -0.0737  0.1469
    3TTP     C2 4292   0.484   9.354   3.958 -0.2447 -0.0262  0.2193
    3TTP     C3 4293   0.417   9.273   3.860 -0.2984  0.0253  0.2133
    3TTP     C4 4294   0.298   9.131   3.686 -0.3942  0.1173  0.2034
    3TTP    C17 4295   0.369   9.056   3.775 -0.3532  0.0695  0.1311
    3TTP    C18 4296   0.435   9.137   3.873 -0.2995  0.0181  0.1371
    3TTP    C32 4297   0.456   9.506   3.951  0.1536  0.4025  0.1267
    3TTP    C33 4298   0.325   9.567   3.994  0.3803  0.2441 -0.5521
    3TTP    C34 4299   0.306   9.720   3.972  0.4015  0.3725  0.4230
    3TTP    C35 4300   0.407   9.828   4.011 -0.4060 -0.5810  0.1791
    3TTP    C36 4301   0.403   9.972   3.961 -0.3526 -0.3855  0.4259
    3TTP    C37 4302   0.399  10.002   3.811  0.6337  0.1567 -0.3291
    3TTP    C38 4303   0.500   9.947   3.715  0.2765  1.0354 -0.2429
    3TTP    C39 4304   0.640   9.985   3.745  0.1895 -0.3015  0.9232
    3TTP    C40 4305   0.747   9.916   3.645 -0.8153  0.4261  0.2085
    3TTP    C41 4306   0.716   9.909   3.503  0.3901 -0.4027 -0.5237
    3TTP    C42 4307   0.812   9.824   3.428 -0.6985 -0.1646  0.2761
    4FIC     F1 4308   0.402   7.552   3.657  0.1110  0.0962  0.0507
    4FIC     F2 4309   0.457   7.441   3.414 -0.4497 -0.1569  0.0363
    4FIC     O1 4310   0.229   8.043   3.508  0.4931  0.2112 -0.0154
    4FIC     N5 4311   0.413   7.631   2.960 -0.9833 -0.4385 -0.0315
    4FIC     N6 4312   0.267   8.037   2.892 -0.5718 -0.2973 -0.0802
    4FIC    C19 4313   0.220   8.111   3.223  0.0932  0.0104 -0.0527
    4FIC    C20 4314   0.262   7.992   3.270  0.0189 -0.0087 -0.0354
    4FIC    C21 4315   0.263   7.964   3.418  0.2367  0.0994 -0.0169
    4FIC    C22 4316   0.313   7.826   3.434  0.0855  0.0459 -0.0011
    4FIC    C23 4317   0.332   7.756   3.553  0.1985  0.1098  0.0187
    4FIC    C24 4318   0.381   7.627   3.543  0.0134  0.0391  0.0309
    4FIC    C25 4319   0.409   7.570   3.418 -0.2753 -0.0912  0.0235
    4FIC    C26 4320   0.390   7.639   3.299 -0.3895 -0.1553  0.0038
    4FIC    C27 4321   0.341   7.770   3.307 -0.2054 -0.0854 -0.0088
    4FIC    C28 4322   0.311   7.870   3.201 -0.2578 -0.1242 -0.0302
    4FIC    C29 4323   0.325   7.852   3.066 -0.5139 -0.2443 -0.0429
    4FIC    C30 4324   0.373   7.731   3.008 -0.7711 -0.3505 -0.0365
    4FIC    C31 4325   0.293   7.954   2.971 -0.5443 -0.2728 -0.0633
    5FIC     F1 4326   1.049   9.023   4.652  0.2932  0.1192 -0.1442
    5FIC     F2 4327   1.130   9.281   4.686 -0.3401  0.2518  0.4180
    5FIC     O1 4328   0.685   9.082   4.255  0.5892 -0.0005 -0.4339
    5FIC     N5 4329   0.988   9.693   4.451 -1.0397  0.3569  1.0198
    5FIC     N6 4330   0.687   9.686   4.134 -0.6809  0.2370  0.6802
    5FIC    C19 4331   0.634   9.348   4.146  0.0892  0.0838  0.0004
    5FIC    C20 4332   0.722   9.324   4.245  0.0395  0.1087  0.0513
    5FIC    C21 4333   0.743   9.184   4.295  0.3086  0.0622 -0.1830
    5FIC    C22 4334   0.845   9.193   4.402  0.1730  0.1056 -0.0557
    5FIC    C23 4335   0.897   9.089   4.478  0.3309  0.0854 -0.1898
    5FIC    C24 4336   0.993   9.121   4.573  0.1522  0.1358 -0.0252
    5FIC    C25 4337   1.035   9.254   4.590 -0.1741  0.2037  0.2644
    5FIC    C26 4338   0.983   9.358   4.514 -0.3331  0.2244  0.3996
    5FIC    C27 4339   0.886   9.327   4.418 -0.1562  0.1740  0.2364
    5FIC    C28 4340   0.812   9.413   4.322 -0.2512  0.1791  0.3137
    5FIC    C29 4341   0.825   9.549   4.307 -0.5513  0.2370  0.5780
    5FIC    C30 4342   0.914   9.628   4.386 -0.8188  0.3028  0.8200
    5FIC    C31 4343   0.749   9.624   4.212 -0.6208  0.2367  0.6327
    1BTD     S2 4344   1.720   9.145   1.715  0.0482  0.3514  0.0084
    1BTD     N1 4345   1.701   8.966   1.712 -0.1946  0.3715  0.2919
    1BTD     N2 4346   1.648   9.171   1.553  0.4494  0.1581 -0.2041
    1BTD     N3 4347   1.465   8.901   1.215  0.8285 -0.1998 -0.1256
    1BTD     N4 4348   1.529   8.649   1.411  0.0351  0.0627  0.4857
    1BTD     C5 4349   1.610   8.803   1.553 -0.0651  0.2069  0.3857
    1BTD     C6 4350   1.644   8.937   1.596  0.0246  0.2396  0.2173
    1BTD     C7 4351   1.614   9.051   1.507  0.3850  0.1204 -0.0603
    1BTD     C8 4352   1.553   9.027   1.379  0.6378 -0.0257 -0.1558
    1BTD    C15 4353   1.522   8.895   1.341  0.5382 -0.0524  0.0162
    1BTD    C16 4354   1.550   8.784   1.427  0.1909  0.0627  0.2837
    1BTD    C43 4355   1.443   8.575   1.311  0.0998 -0.3070  0.1289
    1BTD    C44 4356   1.291   8.575   1.321  0.9042 -0.0425  0.3425
    1BTD    C45 4357   1.232   8.518   1.186 -0.2815  0.2229 -0.5933
    1BTD    C46 4358   1.091   8.554   1.152  0.3217  0.2465 -0.0578
    1BTD    C47 4359   1.228   8.542   1.455  0.1934 -0.5640 -0.5766
    1BTD    C48 4360   1.216   8.389   1.493  0.2765 -0.5169 -0.2118
    1BTD    C49 4361   1.183   8.368   1.637 -0.2674  0.8370  0.1839
    1BTD    C50 4362   1.183   8.214   1.631  0.1047  0.3336  0.1391
    1BTD    C75 4363   1.471   8.808   1.102 -0.1575 -0.3177 -0.1082
    1BTD    C76 4364   1.600   8.788   1.016  0.1578  0.5955 -0.3520
    1BTD    C77 4365   1.570   8.673   0.908 -0.7563  0.1055 -0.6863
    1BTD    C78 4366   1.482   8.702   0.788  0.3447  0.1764  0.0301
    1BTD    C79 4367   1.672   8.911   0.968 -0.0561 -0.0652 -0.0921
    1BTD    C80 4368   1.806   8.898   0.898 -0.1953  0.3009 -0.5941
    1BTD    C81 4369   1.864   9.024   0.834  0.4642  0.3391  0.1036
    1BTD    C82 4370   1.966   8.999   0.726 -0.2746 -0.2464 -0.0506
    2TTP     S1 4371   1.666   8.599   1.772 -0.4531 -0.1716  0.0755
    2TTP     S5 4372   1.579   8.287   1.488  0.0790 -0.3006  0.0516
    2TTP     C1 4373   1.623   8.210   1.647 -0.1960 -0.2288  0.1658
    2TTP     C2 4374   1.653   8.302   1.744 -0.3766 -0.1845  0.1799
    2TTP     C3 4375   1.641   8.436   1.696 -0.3041 -0.2060  0.1010
    2TTP     C4 4376   1.621   8.676   1.613 -0.1780 -0.2434 -0.0387
    2TTP    C17 4377   1.591   8.584   1.516  0.0026 -0.2873 -0.0527
    2TTP    C18 4378   1.603   8.450   1.564 -0.0699 -0.2661  0.0261
    2TTP    C32 4379   1.686   8.267   1.892  0.2166 -0.2448  0.4666
    2TTP    C33 4380   1.830   8.302   1.939 -0.5156 -0.2545  0.7055
    2TTP    C34 4381   1.957   8.227   1.873  0.4836 -0.0248 -0.3936
    2TTP    C35 4382   1.956   8.079   1.834 -0.1160 -0.5362 -0.3764
    2TTP    C36 4383   1.887   7.972   1.917  0.9222  0.2171 -0.1267
    2TTP    C37 4384   1.942   7.935   2.048 -0.8507 -0.1619 -1.1626
    2TTP    C38 4385   1.872   7.839   2.144 -0.1811  0.7073  0.1330
    2TTP    C39 4386   1.959   7.807   2.265  0.2463 -0.3512  0.0008
    2TTP    C40 4387   1.883   7.743   2.382 -0.3155  0.4324  0.3323
    2TTP    C41 4388   1.983   7.686   2.484 -1.3743  0.4859  0.7187
    2TTP    C42 4389   1.925   7.560   2.539 -0.5048  0.5320 -1.1929
    3TTP     S1 4390   1.443   9.281   1.280 -0.1047  0.1490  0.1572
    3TTP     S5 4391   1.246   9.066   0.963  0.3283  0.3781 -0.2692
    3TTP     C1 4392   1.186   9.238   0.964  0.2768  0.3597 -0.1835
    3TTP     C2 4393   1.243   9.314   1.061  0.1401  0.2882 -0.0468
    3TTP     C3 4394   1.336   9.240   1.140  0.0711  0.2451 -0.0048
    3TTP     C4 4395   1.504   9.109   1.280 -0.0532  0.1676  0.0716
    3TTP    C17 4396   1.446   9.033   1.182  0.0836  0.2393 -0.0652
    3TTP    C18 4397   1.353   9.107   1.104  0.1526  0.2823 -0.1072
    3TTP    C32 4398   1.209   9.459   1.093  0.4880  0.3423 -0.9655
    3TTP    C33 4399   1.326   9.553   1.090  0.3238 -0.0244 -0.3827
    3TTP    C34 4400   1.295   9.703   1.110  0.1746  0.5757 -0.2286
    3TTP    C35 4401   1.413   9.798   1.108 -0.4423 -0.0664 -0.4072
    3TTP    C36 4402   1.470   9.837   1.246 -0.2597  0.3657 -0.6552
    3TTP    C37 4403   1.583   9.935   1.221 -0.5652 -0.1027 -0.7348
    3TTP    C38 4404   1.646  10.001   1.346 -0.1820 -0.3171 -0.0111
    3TTP    C39 4405   1.725   9.909   1.436  0.1916  0.0078 -0.1042
    3TTP    C40 4406   1.777   9.972   1.566  0.4068 -0.0231 -0.0703
    3TTP    C41 4407   1.864  10.100   1.570  0.1953 -0.1337  0.0551
    3TTP    C42 4408   1.993  10.110   1.488 -0.3587 -0.2136 -0.4690
    4FIC     F1 4409   1.599   7.560   1.149 -0.4258 -0.0211 -0.1502
    4FIC     F2 4410   1.508   7.411   1.358  0.5130 -0.2339  0.1176
    4FIC     O1 4411   1.676   8.039   1.390 -0.6322  0.1004 -0.3251
    4FIC     N5 4412   1.432   7.539   1.830  1.7157 -0.4535  0.3780
    4FIC     N6 4413   1.510   7.943   1.976  1.3653 -0.3157  0.1874
    4FIC    C19 4414   1.616   8.067   1.675  0.1915 -0.0597 -0.1313
    4FIC    C20 4415   1.601   7.952   1.606  0.2067 -0.0823 -0.0978
    4FIC    C21 4416   1.634   7.946   1.460 -0.2318  0.0045 -0.2031
    4FIC    C22 4417   1.605   7.808   1.417 -0.0912 -0.0466 -0.1329
    4FIC    C23 4418   1.620   7.754   1.289 -0.3769  0.0017 -0.1886
    4FIC    C24 4419   1.587   7.620   1.272 -0.1640 -0.0635 -0.1019
    4FIC    C25 4420   1.540   7.544   1.380  0.3197 -0.1730  0.0360
    4FIC    C26 4421   1.525   7.597   1.508  0.6069 -0.2216  0.0923
    4FIC    C27 4422   1.558   7.732   1.527  0.3977 -0.1572  0.0061
    4FIC    C28 4423   1.553   7.818   1.647  0.6000 -0.1831  0.0331
    4FIC    C29 4424   1.513   7.780   1.773  1.0634 -0.2824  0.1562
    4FIC    C30 4425   1.468   7.648   1.804  1.4205 -0.3763  0.2777
    4FIC    C31 4426   1.512   7.870   1.884  1.2268 -0.3004  0.1726
    5FIC     F1 4427   0.655   8.924   0.422 -0.1996  0.1788  0.1359
    5FIC     F2 4428   0.630   9.173   0.314  0.3213  0.1495 -0.0566
    5FIC     O1 4429   0.999   9.022   0.828 -0.2537 -0.1664  0.2659
    5FIC     N5 4430   0.840   9.600   0.449  1.0315 -0.1388 -0.2408
    5FIC     N6 4431   1.114   9.627   0.788  0.8841 -0.4027 -0.1004
    5FIC    C19 4432   1.098   9.295   0.869  0.2246 -0.3167  0.1281
    5FIC    C20 4433   1.012   9.260   0.771  0.2179 -0.2289  0.1029
    5FIC    C21 4434   0.966   9.118   0.756 -0.0357 -0.1554  0.1779
    5FIC    C22 4435   0.874   9.116   0.641  0.0267 -0.0687  0.1263
    5FIC    C23 4436   0.806   9.006   0.589 -0.1452  0.0186  0.1654
    5FIC    C24 4437   0.725   9.028   0.479 -0.0406  0.0904  0.1021
    5FIC    C25 4438   0.712   9.156   0.423  0.2278  0.0752  0.0029
    5FIC    C26 4439   0.780   9.266   0.475  0.4004 -0.0114 -0.0366
    5FIC    C27 4440   0.863   9.246   0.586  0.2982 -0.0851  0.0264
    5FIC    C28 4441   0.947   9.340   0.664  0.4263 -0.1845  0.0080
    5FIC    C29 4442   0.962   9.475   0.641  0.6882 -0.2267 -0.0800
    5FIC    C30 4443   0.895   9.543   0.536  0.8760 -0.1783 -0.1681
    5FIC    C31 4444   1.045   9.557   0.722  0.7944 -0.3233 -0.0907
    1BTD     S2 4445   0.433   4.025   0.301 -0.1412  0.2199  0.0466
    1BTD     N1 4446   0.450   4.204   0.302  0.0056  0.2067 -0.0142
    1BTD     N2 4447   0.491   4.004   0.470 -0.2647  0.2391  0.0912
    1BTD     N3 4448   0.638   4.284   0.816 -0.2510  0.2553  0.0723
    1BTD     N4 4449   0.588   4.531   0.609  0.0821  0.2154 -0.0576
    1BTD     C5 4450   0.522   4.371   0.465  0.0415  0.2117 -0.0353
    1BTD     C6 4451   0.495   4.237   0.422 -0.0424  0.2171  0.0011
    1BTD     C7 4452   0.518   4.125   0.516 -0.1937  0.2352  0.0601
    1BTD     C8 4453   0.567   4.153   0.649 -0.2535  0.2472  0.0797
    1BTD    C15 4454   0.592   4.286   0.686 -0.1673  0.2414  0.0426
    1BTD    C16 4455   0.570   4.394   0.595 -0.0215  0.2239 -0.0142
    1BTD    C43 4456   0.686   4.603   0.693  0.2939  0.3226 -0.2295
    1BTD    C44 4457   0.826   4.624   0.640  0.1587  0.3879 -0.4329
    1BTD    C45 4458   0.899   4.498   0.597  0.1016  1.1048  0.4106
    1BTD    C46 4459   1.024   4.508   0.505  0.2824 -0.7370 -0.1215
    1BTD    C47 4460   0.906   4.702   0.746  0.0211 -0.0927  0.4910
    1BTD    C48 4461   0.944   4.652   0.886 -0.5128 -0.2285 -0.2429
    1BTD    C49 4462   1.027   4.527   0.913 -0.3111  0.3095 -0.0687
    1BTD    C50 4463   1.034   4.478   1.057  0.8035  0.1811 -0.2644
    1BTD    C75 4464   0.631   4.383   0.924 -0.5986 -0.0011  0.5165
    1BTD    C76 4465   0.503   4.415   0.998  0.0255  0.0644 -0.1550
    1BTD    C77 4466   0.522   4.522   1.112  0.2125  0.4003  0.8749
    1BTD    C78 4467   0.571   4.660   1.063  0.0036  0.0262 -0.4389
    1BTD    C79 4468   0.435   4.286   1.039 -0.0532  0.6200 -0.3421
    1BTD    C80 4469   0.295   4.310   1.106 -0.2175  0.4334  0.2431
    1BTD    C81 4470   0.225   4.188   1.165 -0.1351 -0.0825  0.2320
    1BTD    C82 4471   0.118   4.219   1.270  0.2824  0.2197  0.1072
    2TTP     S1 4472   0.461   4.565   0.239  0.3443  0.0546 -0.1487
    2TTP     S5 4473   0.590   4.891   0.488  0.1230  0.0421 -0.0164
    2TTP     C1 4474   0.539   4.958   0.326  0.0131  0.0810  0.0341
    2TTP     C2 4475   0.496   4.861   0.240  0.0750  0.0870 -0.0037
    2TTP     C3 4476   0.502   4.731   0.299  0.2114  0.0614 -0.0740
    2TTP     C4 4477   0.512   4.498   0.401  0.4541  0.0159 -0.1993
    2TTP    C17 4478   0.555   4.595   0.487  0.3923  0.0098 -0.1614
    2TTP    C18 4479   0.549   4.726   0.429  0.2559  0.0354 -0.0911
    2TTP    C32 4480   0.456   4.866   0.090  0.2270 -0.1429 -0.1606
    2TTP    C33 4481   0.305   4.874   0.061 -0.2309 -0.5425 -0.0041
    2TTP    C34 4482   0.233   5.000   0.092 -0.4334 -0.1901  0.3745
    2TTP    C35 4483   0.093   4.986   0.064  0.3595 -0.0694 -0.2970
    2TTP    C36 4484   0.021   5.122   0.049  0.2907 -0.1590 -0.3338
    2TTP    C37 4485  -0.127   5.118   0.049 -0.1100 -0.2728  0.5640
    2TTP    C38 4486  -0.201   5.109   0.180 -0.2041  0.3935  0.5234
    2TTP    C39 4487  -0.165   5.199   0.293  0.0746  1.2727  0.7342
    2TTP    C40 4488  -0.219   5.340   0.273 -0.2619 -0.4650  0.0753
    2TTP    C41 4489  -0.177   5.443   0.380  0.1493  0.1676 -0.0051
    2TTP    C42 4490  -0.239   5.576   0.348  0.5298 -0.4207  0.1598
    3TTP     S1 4491   0.639   3.893   0.790 -0.1045  0.0378 -0.1544
    3TTP     S5 4492   0.874   4.120   1.069 -0.2556 -0.1842  0.1539
    3TTP     C1 4493   0.902   3.943   1.101 -0.0865 -0.2085 -0.1298
    3TTP     C2 4494   0.831   3.863   1.016 -0.0299 -0.1414 -0.2418
    3TTP     C3 4495   0.752   3.938   0.924 -0.1180 -0.0683 -0.1075
    3TTP     C4 4496   0.611   4.071   0.759 -0.2736  0.0621  0.1293
    3TTP    C17 4497   0.682   4.151   0.843 -0.3302 -0.0051  0.2413
    3TTP    C18 4498   0.761   4.076   0.936 -0.2421 -0.0780  0.1070
    3TTP    C32 4499   0.829   3.712   1.015  0.1835  0.9764  0.2937
    3TTP    C33 4500   0.695   3.654   1.076 -0.3800  0.2730 -0.0008
    3TTP    C34 4501   0.687   3.503   1.086 -0.5609  0.2734  0.4261
    3TTP    C35 4502   0.751   3.409   0.977 -0.2833 -0.0079 -0.3636
    3TTP    C36 4503   0.670   3.406   0.846  0.7742  0.4626  0.1673
    3TTP    C37 4504   0.520   3.361   0.854 -0.2040  0.3874 -0.2208
    3TTP    C38 4505   0.468   3.382   0.716  0.8931  0.2780  1.0220
    3TTP    C39 4506   0.313   3.337   0.694 -0.8394 -0.7582 -0.0558
    3TTP    C40 4507   0.250   3.375   0.562 -0.2287 -0.4442  0.4769
    3TTP    C41 4508   0.111   3.327   0.559  0.5285  0.1323 -0.0523
    3TTP    C42 4509   0.031   3.386   0.441 -0.8675  0.5002 -0.2914
    4FIC     F1 4510   0.650   5.693   0.685  0.1309 -0.1462 -0.0220
    4FIC     F2 4511   0.651   5.806   0.437 -0.0906 -0.1168 -0.0093
    4FIC     O1 4512   0.573   5.172   0.560  0.0798 -0.1396 -0.0180
    4FIC     N5 4513   0.596   5.597  -0.008 -0.4456 -0.0700  0.0117
    4FIC     N6 4514   0.536   5.167  -0.056 -0.4409 -0.0706  0.0123
    4FIC    C19 4515   0.546   5.095   0.279 -0.1500 -0.1092 -0.0045
    4FIC    C20 4516   0.566   5.221   0.320 -0.1285 -0.1121 -0.0060
    4FIC    C21 4517   0.579   5.253   0.466 -0.0080 -0.1279 -0.0130
    4FIC    C22 4518   0.599   5.399   0.476 -0.0153 -0.1268 -0.0129
    4FIC    C23 4519   0.616   5.475   0.591  0.0743 -0.1388 -0.0183
    4FIC    C24 4520   0.633   5.612   0.575  0.0465 -0.1349 -0.0169
    4FIC    C25 4521   0.633   5.670   0.447 -0.0677 -0.1199 -0.0104
    4FIC    C26 4522   0.616   5.594   0.332 -0.1576 -0.1080 -0.0050
    4FIC    C27 4523   0.598   5.456   0.346 -0.1310 -0.1115 -0.0063
    4FIC    C28 4524   0.578   5.349   0.245 -0.2052 -0.1019 -0.0018
    4FIC    C29 4525   0.572   5.365   0.109 -0.3224 -0.0862  0.0050
    4FIC    C30 4526   0.585   5.493   0.045 -0.3897 -0.0772  0.0087
    4FIC    C31 4527   0.552   5.256   0.019 -0.3869 -0.0778  0.0090
    5FIC     F1 4528   1.393   4.220   1.704  0.2941 -0.0544  0.0425
    5FIC     F2 4529   1.463   3.961   1.753  0.5847 -0.0420 -0.3049
    5FIC     O1 4530   1.040   4.153   1.298 -0.3060  0.0288  0.5477
    5FIC     N5 4531   1.314   3.543   1.535  0.5745  0.0347 -0.4444
    5FIC     N6 4532   1.024   3.543   1.208  0.0469  0.0972  0.0203
    5FIC    C19 4533   0.982   3.883   1.201 -0.2417  0.0700  0.3951
    5FIC    C20 4534   1.068   3.910   1.301 -0.1021  0.0486  0.2816
    5FIC    C21 4535   1.093   4.051   1.346 -0.1463  0.0284  0.3708
    5FIC    C22 4536   1.191   4.045   1.455  0.0364  0.0080  0.2075
    5FIC    C23 4537   1.244   4.151   1.528  0.0674 -0.0148  0.2178
    5FIC    C24 4538   1.336   4.120   1.628  0.2533 -0.0312  0.0430
    5FIC    C25 4539   1.372   3.987   1.653  0.4028 -0.0250 -0.1358
    5FIC    C26 4540   1.319   3.880   1.581  0.3729 -0.0023 -0.1472
    5FIC    C27 4541   1.226   3.910   1.479  0.1856  0.0146  0.0282
    5FIC    C28 4542   1.153   3.822   1.386  0.1064  0.0399  0.0667
    5FIC    C29 4543   1.161   3.685   1.379  0.2072  0.0526 -0.0708
    5FIC    C30 4544   1.245   3.607   1.465  0.4088  0.0427 -0.2758
    5FIC    C31 4545   1.086   3.608   1.285  0.1185  0.0771 -0.0199
    1BTD     S2 4546   1.612   4.128   2.704  0.3044  0.0831 -0.1857
    1BTD     N1 4547   1.601   4.306   2.687  0.5057  0.0846 -0.2993
    1BTD     N2 4548   1.538   4.093   2.544 -0.0902  0.0577  0.0008
    1BTD     N3 4549   1.367   4.344   2.186 -0.5306  0.0088  0.1758
    1BTD     N4 4550   1.445   4.607   2.362  0.2035  0.0420 -0.1939
    1BTD     C5 4551   1.519   4.460   2.515  0.3391  0.0620 -0.2398
    1BTD     C6 4552   1.545   4.329   2.568  0.2801  0.0671 -0.1975
    1BTD     C7 4553   1.510   4.210   2.489 -0.0534  0.0520 -0.0296
    1BTD     C8 4554   1.449   4.227   2.360 -0.3113  0.0325  0.0877
    1BTD    C15 4555   1.425   4.357   2.311 -0.2422  0.0284  0.0410
    1BTD    C16 4556   1.459   4.472   2.388  0.0791  0.0428 -0.1209
    1BTD    C43 4557   1.371   4.685   2.265  0.4876  0.2917  0.2660
    1BTD    C44 4558   1.213   4.668   2.265  0.0712  0.5707 -0.0762
    1BTD    C45 4559   1.153   4.735   2.138  0.5946  0.1155  0.4169
    1BTD    C46 4560   1.014   4.689   2.088 -0.2661 -0.3246  0.3474
    1BTD    C47 4561   1.135   4.701   2.395 -0.1466 -0.2332  0.0300
    1BTD    C48 4562   1.137   4.844   2.455 -0.6057  0.0096  0.3887
    1BTD    C49 4563   1.034   4.861   2.560 -0.2188 -0.7744  0.0107
    1BTD    C50 4564   1.022   5.005   2.608 -0.1944 -0.4313 -0.6309
    1BTD    C75 4565   1.371   4.440   2.070 -0.6842  0.2957  0.1916
    1BTD    C76 4566   1.470   4.426   1.948  0.2229  0.1097 -0.4883
    1BTD    C77 4567   1.461   4.534   1.838  0.0962 -0.8136  0.0036
    1BTD    C78 4568   1.318   4.563   1.795 -0.1718  0.0879  0.1161
    1BTD    C79 4569   1.612   4.381   1.987 -0.6543  0.2126 -0.2940
    1BTD    C80 4570   1.699   4.327   1.875 -0.2522  0.6261  0.1871
    1BTD    C81 4571   1.655   4.201   1.802 -0.1135  0.2182  0.1709
    1BTD    C82 4572   1.756   4.173   1.693  0.2090 -1.0748 -0.1556
    2TTP     S1 4573   1.611   4.677   2.713  0.1013  0.1553  0.0821
    2TTP     S5 4574   1.484   4.976   2.431  0.1964  0.0037 -0.1225
    2TTP     C1 4575   1.553   5.059   2.577  0.2410  0.0813 -0.1880
    2TTP     C2 4576   1.596   4.972   2.673  0.2142  0.1327 -0.1286
    2TTP     C3 4577   1.576   4.836   2.634  0.1576  0.1127 -0.0294
    2TTP     C4 4578   1.541   4.593   2.567  0.0568  0.0778  0.1476
    2TTP    C17 4579   1.498   4.680   2.471  0.0835  0.0263  0.0882
    2TTP    C18 4580   1.518   4.817   2.510  0.1401  0.0464 -0.0111
    2TTP    C32 4581   1.672   5.006   2.800  0.2551 -0.1370  0.3135
    2TTP    C33 4582   1.604   4.968   2.929  0.0289  0.4838  0.5816
    2TTP    C34 4583   1.711   4.994   3.033  0.3520 -0.2263 -0.2802
    2TTP    C35 4584   1.654   4.982   3.169 -0.0521  0.6939 -0.0114
    2TTP    C36 4585   1.758   4.979   3.282  0.6781  0.6198 -0.0901
    2TTP    C37 4586   1.703   5.037   3.420  0.1810 -0.0214 -0.8982
    2TTP    C38 4587   1.682   5.185   3.439  0.1719  0.4361 -0.2377
    2TTP    C39 4588   1.805   5.272   3.438 -1.0147  0.3754 -0.0857
    2TTP    C40 4589   1.770   5.418   3.455 -0.0923  0.6728  0.9600
    2TTP    C41 4590   1.873   5.513   3.495 -1.0424  0.0326 -0.6963
    2TTP    C42 4591   1.819   5.660   3.492 -0.6828 -0.2087  0.0061
    3TTP     S1 4592   1.365   3.961   2.236 -0.2514 -0.2101  0.1622
    3TTP     S5 4593   1.153   4.174   1.928  0.2912 -0.1463 -0.1692
    3TTP     C1 4594   1.116   3.996   1.912 -0.0432 -0.0943  0.0143
    3TTP     C2 4595   1.179   3.920   2.006 -0.2304 -0.1110  0.1275
    3TTP     C3 4596   1.259   3.999   2.094 -0.1166 -0.1654  0.0733
    3TTP     C4 4597   1.402   4.138   2.252  0.0829 -0.2620 -0.0215
    3TTP    C17 4598   1.339   4.214   2.158  0.2703 -0.2455 -0.1345
    3TTP    C18 4599   1.258   4.135   2.070  0.1564 -0.1911 -0.0803
    3TTP    C32 4600   1.176   3.768   2.022 -0.3448 -0.0018 -0.1987
    3TTP    C33 4601   1.289   3.701   1.953 -0.0735 -0.1872  0.2947
    3TTP    C34 4602   1.291   3.548   1.967  0.4820  0.0077 -0.4725
    3TTP    C35 4603   1.392   3.480   1.878  0.1785  0.1076  0.5767
    3TTP    C36 4604   1.377   3.326   1.845 -0.4443 -0.5424  0.0572
    3TTP    C37 4605   1.403   3.236   1.962  0.4149 -0.1041 -0.5713
    3TTP    C38 4606   1.404   3.087   1.931  0.3751 -0.3496  0.1629
    3TTP    C39 4607   1.451   3.001   2.044 -1.0767 -0.2813 -0.6379
    3TTP    C40 4608   1.445   2.851   2.030  0.0405 -0.7385 -0.4060
    3TTP    C41 4609   1.486   2.780   2.155 -0.6823  0.4507 -0.0548
    3TTP    C42 4610   1.479   2.629   2.143  0.1850  0.3514  0.0436
    4FIC     F1 4611   1.568   5.723   2.092 -0.2218  0.0569 -0.1248
    4FIC     F2 4612   1.590   5.878   2.315  0.2765  0.0516 -0.1673
    4FIC     O1 4613   1.557   5.228   2.310 -0.4798  0.0865 -0.0697
    4FIC     N5 4614   1.614   5.746   2.792  0.8090  0.0648 -0.1888
    4FIC     N6 4615   1.601   5.328   2.917  0.5070  0.0890 -0.1372
    4FIC    C19 4616   1.575   5.199   2.601 -0.0953  0.0917 -0.0906
    4FIC    C20 4617   1.576   5.318   2.537 -0.0499  0.0845 -0.1028
    4FIC    C21 4618   1.567   5.325   2.387 -0.2573  0.0821 -0.0909
    4FIC    C22 4619   1.572   5.468   2.351 -0.1442  0.0743 -0.1091
    4FIC    C23 4620   1.567   5.523   2.224 -0.2628  0.0694 -0.1064
    4FIC    C24 4621   1.573   5.662   2.215 -0.1166  0.0620 -0.1262
    4FIC    C25 4622   1.584   5.741   2.330  0.1401  0.0591 -0.1481
    4FIC    C26 4623   1.590   5.686   2.457  0.2596  0.0638 -0.1509
    4FIC    C27 4624   1.583   5.546   2.469  0.1147  0.0714 -0.1310
    4FIC    C28 4625   1.586   5.457   2.588  0.1829  0.0777 -0.1280
    4FIC    C29 4626   1.597   5.497   2.719  0.4170  0.0774 -0.1452
    4FIC    C30 4627   1.606   5.634   2.758  0.6317  0.0705 -0.1692
    4FIC    C31 4628   1.599   5.404   2.827  0.4652  0.0838 -0.1407
    5FIC     F1 4629   0.636   4.336   1.342 -0.0399 -0.0408  0.0178
    5FIC     F2 4630   0.566   4.085   1.263  0.0266 -0.0777  0.0743
    5FIC     O1 4631   0.973   4.223   1.750  0.0197  0.1404  0.0191
    5FIC     N5 4632   0.704   3.644   1.440  0.1648 -0.0018  0.1565
    5FIC     N6 4633   0.981   3.606   1.775  0.1979  0.1473  0.1462
    5FIC    C19 4634   1.025   3.943   1.820  0.1045  0.1694  0.0736
    5FIC    C20 4635   0.943   3.981   1.720  0.0869  0.1253  0.0710
    5FIC    C21 4636   0.922   4.127   1.690  0.0431  0.1130  0.0423
    5FIC    C22 4637   0.827   4.133   1.577  0.0338  0.0625  0.0472
    5FIC    C23 4638   0.778   4.247   1.514 -0.0029  0.0353  0.0270
    5FIC    C24 4639   0.690   4.228   1.409 -0.0045 -0.0119  0.0367
    5FIC    C25 4640   0.653   4.099   1.368  0.0298 -0.0308  0.0658
    5FIC    C26 4641   0.703   3.985   1.430  0.0666 -0.0038  0.0861
    5FIC    C27 4642   0.792   4.002   1.537  0.0688  0.0440  0.0767
    5FIC    C28 4643   0.862   3.904   1.623  0.1027  0.0818  0.0925
    5FIC    C29 4644   0.852   3.767   1.615  0.1414  0.0772  0.1214
    5FIC    C30 4645   0.771   3.700   1.519  0.1541  0.0339  0.1406
    5FIC    C31 4646   0.923   3.679   1.703  0.1723  0.1158  0.1349
    1BTD     S2 4647   2.378   6.520   3.595 -0.3805  0.1988 -0.0715
    1BTD     N1 4648   2.357   6.342   3.596 -0.3055  0.1900 -0.0595
    1BTD     N2 4649   2.331   6.540   3.423 -0.2917  0.1562 -0.1005
    1BTD     N3 4650   2.198   6.256   3.073  0.0243  0.0529 -0.1380
    1BTD     N4 4651   2.229   6.013   3.287  0.0073  0.0947 -0.0875
    1BTD     C5 4652   2.290   6.173   3.432 -0.1420  0.1396 -0.0747
    1BTD     C6 4653   2.318   6.307   3.474 -0.2226  0.1574 -0.0769
    1BTD     C7 4654   2.303   6.418   3.377 -0.2149  0.1383 -0.0999
    1BTD     C8 4655   2.262   6.389   3.243 -0.1269  0.1028 -0.1195
    1BTD    C15 4656   2.235   6.256   3.206 -0.0499  0.0865 -0.1165
    1BTD    C16 4657   2.249   6.149   3.299 -0.0574  0.1050 -0.0945
    1BTD    C43 4658   2.153   5.944   3.181  0.1101  0.4982  0.3812
    1BTD    C44 4659   2.001   5.909   3.203  0.4216  0.2087 -0.3652
    1BTD    C45 4660   1.918   6.024   3.254  0.7668  0.2945 -0.3537
    1BTD    C46 4661   1.778   5.989   3.309  0.0071 -0.8635  0.3437
    1BTD    C47 4662   1.932   5.824   3.088  0.5115 -0.0676 -0.5185
    1BTD    C48 4663   1.969   5.678   3.070  0.0576 -0.2638  0.0655
    1BTD    C49 4664   1.907   5.611   2.953  0.1366 -1.5728  0.2553
    1BTD    C50 4665   1.943   5.463   2.931 -0.4619 -0.2009  0.5236
    1BTD    C75 4666   2.266   6.168   2.973  1.2334  0.2241  0.1639
    1BTD    C76 4667   2.201   6.140   2.841  0.8034 -0.2854  0.3549
    1BTD    C77 4668   2.057   6.085   2.847 -0.9847  0.2318  0.1112
    1BTD    C78 4669   1.990   6.080   2.703 -0.2988 -0.8742 -0.3821
    1BTD    C79 4670   2.300   6.063   2.753 -0.4867  0.5512  0.0711
    1BTD    C80 4671   2.444   6.110   2.728  0.4310  0.3564  0.2714
    1BTD    C81 4672   2.444   6.252   2.673  0.5558 -0.2104 -0.0242
    1BTD    C82 4673   2.582   6.295   2.635 -0.2558 -0.1484 -0.5007
    2TTP     S1 4674   2.320   5.980   3.667 -0.0605  0.1838 -0.0680
    2TTP     S5 4675   2.188   5.656   3.417  0.0731 -0.0430  0.1547
    2TTP     C1 4676   2.214   5.592   3.585 -0.0472  0.1161  0.2346
    2TTP     C2 4677   2.257   5.689   3.672 -0.0956  0.1957  0.1705
    2TTP     C3 4678   2.270   5.816   3.609 -0.0393  0.1336  0.0560
    2TTP     C4 4679   2.293   6.044   3.498  0.0598  0.0247 -0.1480
    2TTP    C17 4680   2.251   5.948   3.411  0.1082 -0.0548 -0.0839
    2TTP    C18 4681   2.238   5.820   3.474  0.0520  0.0070  0.0307
    2TTP    C32 4682   2.275   5.684   3.819  0.2729  0.1553 -0.0367
    2TTP    C33 4683   2.414   5.673   3.880  0.1690  0.0713 -0.7962
    2TTP    C34 4684   2.511   5.570   3.823  0.0542  0.1689 -0.3138
    2TTP    C35 4685   2.628   5.558   3.918 -0.8862  0.1262 -0.6744
    2TTP    C36 4686   2.754   5.481   3.861  0.3927 -0.2660  0.2429
    2TTP    C37 4687   2.800   5.521   3.723  0.7221 -0.5185  0.4103
    2TTP    C38 4688   2.922   5.445   3.671 -0.0861  0.1332  0.3871
    2TTP    C39 4689   2.898   5.289   3.658  0.0909 -0.1058 -0.0160
    2TTP    C40 4690   3.014   5.210   3.607  0.0456  0.0682  0.9873
    2TTP    C41 4691   2.979   5.076   3.538  0.2648 -0.5111 -0.5063
    2TTP    C42 4692   3.089   4.981   3.557  0.6399 -0.4171 -0.2098
    3TTP     S1 4693   2.210   6.650   3.099  0.1816  0.1120  0.1008
    3TTP     S5 4694   1.997   6.425   2.801  0.2413 -0.1087  0.2239
    3TTP     C1 4695   1.966   6.602   2.773 -0.0094 -0.1429  0.2799
    3TTP     C2 4696   2.030   6.682   2.864 -0.0427 -0.0769  0.2452
    3TTP     C3 4697   2.106   6.606   2.958  0.1287  0.0035  0.1731
    3TTP     C4 4698   2.241   6.473   3.127  0.4323  0.1464  0.0448
    3TTP    C17 4699   2.177   6.393   3.037  0.4655  0.0800  0.0796
    3TTP    C18 4700   2.101   6.469   2.942  0.2942  0.0000  0.1517
    3TTP    C32 4701   2.040   6.840   2.872 -0.8123  1.4698 -0.9805
    3TTP    C33 4702   2.175   6.891   2.823  0.5443  0.1585  0.1784
    3TTP    C34 4703   2.194   7.041   2.837 -0.3738 -0.1867 -0.3254
    3TTP    C35 4704   2.106   7.129   2.748  0.2995  0.3770  0.0479
    3TTP    C36 4705   2.127   7.282   2.740  0.5229 -0.2800 -0.6053
    3TTP    C37 4706   2.124   7.362   2.872 -0.3888  0.0104 -0.2395
    3TTP    C38 4707   2.155   7.511   2.849  0.6355  0.5205 -0.4107
    3TTP    C39 4708   2.171   7.592   2.979  0.0799 -0.0286  0.1231
    3TTP    C40 4709   2.206   7.737   2.954  0.2349 -0.5824 -0.7659
    3TTP    C41 4710   2.110   7.823   2.880  1.2864  0.1580  0.4169
    3TTP    C42 4711   2.139   7.973   2.887 -0.3431  0.0300 -0.1473
    4FIC     F1 4712   2.133   4.874   3.186 -0.4719  0.1112  0.0187
    4FIC     F2 4713   2.089   4.753   3.425  0.5918 -0.1175  0.1107
    4FIC     O1 4714   2.211   5.386   3.343 -1.0473  0.1973  0.0277
    4FIC     N5 4715   2.080   4.944   3.882  1.7106 -0.3854  0.2496
    4FIC     N6 4716   2.150   5.369   3.956  1.0466 -0.2719  0.2381
    4FIC    C19 4717   2.196   5.453   3.628 -0.2356  0.0092  0.1189
    4FIC    C20 4718   2.178   5.329   3.579 -0.1324 -0.0036  0.1130
    4FIC    C21 4719   2.188   5.302   3.431 -0.5709  0.0973  0.0650
    4FIC    C22 4720   2.163   5.158   3.412 -0.3229  0.0538  0.0712
    4FIC    C23 4721   2.162   5.087   3.293 -0.5705  0.1154  0.0367
    4FIC    C24 4722   2.136   4.951   3.300 -0.2529  0.0555  0.0510
    4FIC    C25 4723   2.113   4.889   3.424  0.2949 -0.0624  0.0985
    4FIC    C26 4724   2.115   4.959   3.543  0.5447 -0.1243  0.1332
    4FIC    C27 4725   2.140   5.097   3.538  0.2297 -0.0652  0.1193
    4FIC    C28 4726   2.149   5.199   3.645  0.3685 -0.1053  0.1469
    4FIC    C29 4727   2.132   5.178   3.780  0.8662 -0.2153  0.1946
    4FIC    C30 4728   2.104   5.049   3.836  1.3288 -0.3084  0.2247
    4FIC    C31 4729   2.142   5.283   3.876  0.9626 -0.2457  0.2182
    5FIC     F1 4730   1.460   6.312   2.196 -0.2137 -0.0135  0.1912
    5FIC     F2 4731   1.353   6.561   2.174 -0.0458  0.0497  0.0846
    5FIC     O1 4732   1.840   6.397   2.572 -0.1073 -0.0923  0.1016
    5FIC     N5 4733   1.469   6.980   2.410  0.2714  0.0845 -0.1327
    5FIC     N6 4734   1.788   6.996   2.708  0.3206  0.0103 -0.1813
    5FIC    C19 4735   1.873   6.665   2.684  0.0908 -0.0597 -0.0322
    5FIC    C20 4736   1.781   6.634   2.590  0.0575 -0.0426 -0.0055
    5FIC    C21 4737   1.771   6.494   2.537 -0.0453 -0.0608  0.0636
    5FIC    C22 4738   1.662   6.495   2.438 -0.0574 -0.0347  0.0770
    5FIC    C23 4739   1.615   6.388   2.362 -0.1404 -0.0395  0.1347
    5FIC    C24 4740   1.511   6.413   2.274 -0.1344 -0.0107  0.1358
    5FIC    C25 4741   1.456   6.541   2.263 -0.0477  0.0219  0.0808
    5FIC    C26 4742   1.502   6.649   2.338  0.0353  0.0269  0.0231
    5FIC    C27 4743   1.607   6.625   2.428  0.0306 -0.0020  0.0211
    5FIC    C28 4744   1.679   6.716   2.521  0.1047 -0.0056 -0.0319
    5FIC    C29 4745   1.654   6.850   2.540  0.1989  0.0205 -0.0935
    5FIC    C30 4746   1.552   6.921   2.468  0.2384  0.0556 -0.1148
    5FIC    C31 4747   1.728   6.930   2.632  0.2653  0.0147 -0.1414
    1BTD     S2 4748   1.200   6.454   1.161  0.1688 -0.1108 -0.0018
    1BTD     N1 4749   1.204   6.275   1.176 -0.0439 -0.1148  0.0189
    1BTD     N2 4750   1.262   6.483   1.327  0.3043 -0.1658 -0.0427
    1BTD     N3 4751   1.397   6.220   1.692  0.1960 -0.2850 -0.0888
    1BTD     N4 4752   1.325   5.963   1.505 -0.2330 -0.2220 -0.0128
    1BTD     C5 4753   1.268   6.115   1.350 -0.1374 -0.1717  0.0015
    1BTD     C6 4754   1.249   6.248   1.297 -0.0050 -0.1550 -0.0045
    1BTD     C7 4755   1.282   6.364   1.382  0.1899 -0.1835 -0.0390
    1BTD     C8 4756   1.332   6.343   1.515  0.2426 -0.2273 -0.0658
    1BTD    C15 4757   1.349   6.211   1.563  0.1083 -0.2423 -0.0588
    1BTD    C16 4758   1.317   6.099   1.481 -0.0795 -0.2149 -0.0256
    1BTD    C43 4759   1.421   5.875   1.577 -0.4702  0.4221  0.5684
    1BTD    C44 4760   1.565   5.916   1.603 -0.3518 -0.2893  0.0358
    1BTD    C45 4761   1.617   5.845   1.733 -0.7988  0.3086 -0.2287
    1BTD    C46 4762   1.741   5.894   1.803 -0.7865  0.2260 -0.6036
    1BTD    C47 4763   1.656   5.896   1.482  0.0048 -0.3212  0.0288
    1BTD    C48 4764   1.635   5.762   1.415  0.1163 -0.0958  0.0116
    1BTD    C49 4765   1.761   5.717   1.334  0.0115 -0.5669 -0.1380
    1BTD    C50 4766   1.750   5.600   1.237  0.0088 -0.3733 -0.0732
    1BTD    C75 4767   1.384   6.123   1.800  0.2772 -0.2677 -0.6843
    1BTD    C76 4768   1.255   6.125   1.893 -0.2559  0.0348 -0.2381
    1BTD    C77 4769   1.249   5.994   1.966 -0.5181  0.1006 -0.4147
    1BTD    C78 4770   1.344   5.957   2.090 -0.2005 -0.8246  0.3878
    1BTD    C79 4771   1.235   6.252   1.972 -0.1551 -0.3152 -0.0185
    1BTD    C80 4772   1.108   6.249   2.054 -0.3333  0.1956  0.0681
    1BTD    C81 4773   1.084   6.380   2.133 -0.4659 -0.0502  0.1339
    1BTD    C82 4774   0.958   6.363   2.214 -0.5198 -0.5354  0.4192
    2TTP     S1 4775   1.157   5.908   1.155 -0.0031 -0.0607 -0.0843
    2TTP     S5 4776   1.232   5.604   1.450 -0.0504  0.1364  0.1308
    2TTP     C1 4777   1.157   5.526   1.304 -0.3151  0.0854  0.2926
    2TTP     C2 4778   1.129   5.615   1.205 -0.3161  0.0217  0.2357
    2TTP     C3 4779   1.166   5.748   1.240 -0.1078  0.0105  0.0623
    2TTP     C4 4780   1.232   5.986   1.301  0.2616 -0.0099 -0.2461
    2TTP    C17 4781   1.259   5.897   1.401  0.2626  0.0539 -0.1892
    2TTP    C18 4782   1.222   5.764   1.366  0.0544  0.0650 -0.0158
    2TTP    C32 4783   1.080   5.579   1.064 -0.2069 -0.4068  0.2749
    2TTP    C33 4784   0.971   5.663   0.994  0.1338 -0.1504  0.5169
    2TTP    C34 4785   0.947   5.631   0.840  0.5210 -0.3183 -0.4499
    2TTP    C35 4786   1.067   5.664   0.752 -0.7156  0.7945 -0.4030
    2TTP    C36 4787   1.085   5.579   0.622  0.7056  0.0687  0.2213
    2TTP    C37 4788   0.964   5.567   0.524 -0.9398 -0.1123  0.3179
    2TTP    C38 4789   0.977   5.459   0.410 -0.2272  0.2337  0.0648
    2TTP    C39 4790   0.965   5.313   0.470 -0.8242  0.3103  0.2226
    2TTP    C40 4791   0.971   5.205   0.364 -0.1106  0.9816 -1.0160
    2TTP    C41 4792   0.946   5.065   0.434  0.2265  0.4783 -0.8314
    2TTP    C42 4793   0.987   4.953   0.342 -0.2707  0.1803 -0.1687
    3TTP     S1 4794   1.429   6.608   1.633 -0.1194  0.0995  0.1751
    3TTP     S5 4795   1.614   6.387   1.952  0.1733 -0.1371 -0.1576
    3TTP     C1 4796   1.662   6.562   1.968 -0.1061 -0.0849  0.1404
    3TTP     C2 4797   1.608   6.640   1.870 -0.2129 -0.0089  0.2607
    3TTP     C3 4798   1.526   6.565   1.780 -0.0780  0.0110  0.1219
    3TTP     C4 4799   1.381   6.433   1.618  0.1600  0.0473 -0.1228
    3TTP    C17 4800   1.436   6.355   1.715  0.2668 -0.0287 -0.2431
    3TTP    C18 4801   1.517   6.430   1.806  0.1319 -0.0486 -0.1043
    3TTP    C32 4802   1.628   6.788   1.863  0.3669  0.1025  0.0456
    3TTP    C33 4803   1.502   6.862   1.890  0.3235  0.2754 -0.0810
    3TTP    C34 4804   1.491   7.013   1.911  0.0714 -0.2574 -0.1317
    3TTP    C35 4805   1.566   7.118   1.824  0.3045  0.1892 -1.0690
    3TTP    C36 4806   1.552   7.095   1.674 -0.1849 -0.0384 -0.8230
    3TTP    C37 4807   1.664   7.169   1.601  0.8040 -0.2104  0.1902
    3TTP    C38 4808   1.667   7.134   1.456  0.3222 -0.6569 -0.0042
    3TTP    C39 4809   1.764   7.226   1.380  0.6041 -0.1865  0.4380
    3TTP    C40 4810   1.762   7.223   1.230  0.5526  0.1856  0.3560
    3TTP    C41 4811   1.852   7.319   1.157 -0.0967  0.4785  0.7361
    3TTP    C42 4812   1.878   7.259   1.018 -0.0326  0.2853 -0.1757
    4FIC     F1 4813   1.117   4.888   1.824  0.4392  0.0041 -0.1505
    4FIC     F2 4814   1.112   4.722   1.608  0.0235 -0.0288 -0.1186
    4FIC     O1 4815   1.128   5.371   1.582  0.2730 -0.0392 -0.2451
    4FIC     N5 4816   1.114   4.829   1.125 -0.6927 -0.1072 -0.1400
    4FIC     N6 4817   1.123   5.240   0.979 -0.7387 -0.1343 -0.2202
    4FIC    C19 4818   1.127   5.385   1.289 -0.1832 -0.0861 -0.2481
    4FIC    C20 4819   1.125   5.270   1.359 -0.1252 -0.0739 -0.2255
    4FIC    C21 4820   1.125   5.271   1.509  0.1130 -0.0498 -0.2255
    4FIC    C22 4821   1.122   5.130   1.552  0.1176 -0.0417 -0.1980
    4FIC    C23 4822   1.121   5.081   1.682  0.3014 -0.0204 -0.1883
    4FIC    C24 4823   1.118   4.943   1.698  0.2648 -0.0167 -0.1615
    4FIC    C25 4824   1.115   4.858   1.587  0.0505 -0.0336 -0.1450
    4FIC    C26 4825   1.116   4.906   1.457 -0.1337 -0.0548 -0.1546
    4FIC    C27 4826   1.120   5.045   1.438 -0.0999 -0.0590 -0.1817
    4FIC    C28 4827   1.121   5.128   1.315 -0.2576 -0.0796 -0.1980
    4FIC    C29 4828   1.120   5.082   1.186 -0.4832 -0.0998 -0.1892
    4FIC    C30 4829   1.116   4.943   1.153 -0.5975 -0.1038 -0.1621
    4FIC    C31 4830   1.122   5.169   1.073 -0.6225 -0.1186 -0.2063
    5FIC     F1 4831   2.233   6.244   2.465 -0.0001  0.0120  0.1701
    5FIC     F2 4832   2.274   6.492   2.569  0.3424  0.0712 -0.1009
    5FIC     O1 4833   1.853   6.350   2.094 -0.2511  0.0341  0.4323
    5FIC     N5 4834   2.062   6.925   2.454  0.6558  0.1720 -0.3034
    5FIC     N6 4835   1.757   6.957   2.143  0.3905  0.1774 -0.0437
    5FIC    C19 4836   1.758   6.625   2.062 -0.0132  0.0984  0.2667
    5FIC    C20 4837   1.851   6.588   2.151  0.0366  0.0906  0.2114
    5FIC    C21 4838   1.896   6.445   2.162 -0.0934  0.0571  0.3033
    5FIC    C22 4839   1.998   6.441   2.268  0.0036  0.0567  0.2100
    5FIC    C23 4840   2.068   6.329   2.314 -0.0615  0.0309  0.2473
    5FIC    C24 4841   2.160   6.350   2.415  0.0555  0.0365  0.1406
    5FIC    C25 4842   2.181   6.478   2.469  0.2319  0.0670  0.0010
    5FIC    C26 4843   2.112   6.589   2.423  0.2978  0.0929 -0.0369
    5FIC    C27 4844   2.018   6.571   2.321  0.1813  0.0877  0.0698
    5FIC    C28 4845   1.929   6.666   2.251  0.2086  0.1097  0.0650
    5FIC    C29 4846   1.919   6.802   2.275  0.3636  0.1417 -0.0526
    5FIC    C30 4847   1.998   6.869   2.373  0.5237  0.1583 -0.1900
    5FIC    C31 4848   1.830   6.886   2.202  0.3775  0.1612 -0.0470
    1BTD     S2 4849   2.539   6.746   2.574 -0.0267  0.0563 -0.0644
    1BTD     N1 4850   2.499   6.921   2.577  0.2636  0.1270 -0.2143
    1BTD     N2 4851   2.467   6.717   2.412 -0.3904 -0.0408  0.1134
    1BTD     N3 4852   2.246   6.975   2.087 -0.6073 -0.1111  0.2046
    1BTD     N4 4853   2.286   7.226   2.290  0.1985  0.0956 -0.1994
    1BTD     C5 4854   2.387   7.078   2.425  0.2200  0.1081 -0.2017
    1BTD     C6 4855   2.437   6.948   2.463  0.0839  0.0771 -0.1287
    1BTD     C7 4856   2.419   6.834   2.370 -0.2823 -0.0167  0.0548
    1BTD     C8 4857   2.352   6.855   2.245 -0.4939 -0.0751  0.1561
    1BTD    C15 4858   2.305   6.983   2.212 -0.3495 -0.0419  0.0793
    1BTD    C16 4859   2.322   7.093   2.301  0.0032  0.0487 -0.0975
    1BTD    C43 4860   2.181   7.296   2.213 -0.3171  0.1087  0.7853
    1BTD    C44 4861   2.037   7.314   2.266 -0.4920 -0.6800 -0.0134
    1BTD    C45 4862   1.953   7.195   2.320 -0.4687  0.0047  0.3832
    1BTD    C46 4863   1.824   7.221   2.400  0.2531  0.4231  0.1210
    1BTD    C47 4864   1.961   7.419   2.178 -0.0824  0.2215 -0.3649
    1BTD    C48 4865   1.922   7.374   2.039 -0.1459 -0.2539 -0.1506
    1BTD    C49 4866   1.823   7.479   1.977 -0.2243 -0.1747 -0.1474
    1BTD    C50 4867   1.779   7.436   1.840 -0.1372  0.4221 -0.1198
    1BTD    C75 4868   2.206   7.077   1.994 -0.1193  0.0766  0.6678
    1BTD    C76 4869   2.310   7.125   1.882 -0.3416  0.4582  0.2715
    1BTD    C77 4870   2.258   7.214   1.765 -0.0141 -0.3905 -0.1272
    1BTD    C78 4871   2.125   7.177   1.699 -0.3067  0.3336  0.4783
    1BTD    C79 4872   2.453   7.161   1.934 -0.3658  0.1391  0.8526
    1BTD    C80 4873   2.583   7.151   1.840  0.5122 -0.2297 -0.2842
    1BTD    C81 4874   2.610   7.015   1.782  0.0208 -0.3729  0.0227
    1BTD    C82 4875   2.745   7.007   1.708  0.3155  0.1253 -0.0905
    2TTP     S1 4876   2.478   7.282   2.631 -0.2198  0.1886 -0.0356
    2TTP     S5 4877   2.316   7.595   2.385 -0.4547  0.1234  0.0359
    2TTP     C1 4878   2.400   7.671   2.527 -0.3363  0.1604 -0.0535
    2TTP     C2 4879   2.455   7.579   2.611 -0.2568  0.1827 -0.0808
    2TTP     C3 4880   2.433   7.445   2.567 -0.2866  0.1714 -0.0321
    2TTP     C4 4881   2.394   7.206   2.488 -0.3382  0.1515  0.0538
    2TTP    C17 4882   2.339   7.298   2.404 -0.4178  0.1292  0.0812
    2TTP    C18 4883   2.361   7.432   2.449 -0.3880  0.1405  0.0325
    2TTP    C32 4884   2.535   7.584   2.739 -0.2239 -0.3447 -0.2720
    2TTP    C33 4885   2.679   7.629   2.731 -0.0373  0.3351 -0.0080
    2TTP    C34 4886   2.762   7.614   2.857  0.3478  0.4474 -0.0065
    2TTP    C35 4887   2.912   7.634   2.847 -0.0620 -0.0783  0.2975
    2TTP    C36 4888   2.961   7.764   2.792  0.0153  0.3171  0.1665
    2TTP    C37 4889   3.115   7.747   2.803  0.4746  0.1578  0.1734
    2TTP    C38 4890   3.204   7.844   2.723 -0.6214 -0.1552 -0.5788
    2TTP    C39 4891   3.208   7.978   2.790  0.1555 -0.5540  0.6452
    2TTP    C40 4892   3.233   8.088   2.680 -0.1611 -0.2501 -0.0835
    2TTP    C41 4893   3.130   8.092   2.569  0.3246 -0.1312 -0.3908
    2TTP    C42 4894   3.144   8.215   2.483  0.0392 -0.2886  0.2099
    3TTP     S1 4895   2.289   6.590   2.111 -0.0270 -0.2095  0.1317
    3TTP     S5 4896   2.052   6.797   1.819  0.2922  0.1022  0.0922
    3TTP     C1 4897   2.034   6.618   1.792  0.1417  0.1269  0.0258
    3TTP     C2 4898   2.107   6.544   1.880  0.0343  0.0321  0.0341
    3TTP     C3 4899   2.179   6.625   1.973  0.0669 -0.0635  0.0931
    3TTP     C4 4900   2.307   6.769   2.139  0.1234 -0.2342  0.1981
    3TTP    C17 4901   2.235   6.844   2.050  0.2309 -0.1396  0.1898
    3TTP    C18 4902   2.163   6.762   1.957  0.1982 -0.0440  0.1307
    3TTP    C32 4903   2.130   6.389   1.871  0.1071 -0.3299 -0.0810
    3TTP    C33 4904   2.268   6.341   1.848 -0.3859 -0.0592 -0.2373
    3TTP    C34 4905   2.269   6.208   1.773 -0.9870  0.1954 -0.0302
    3TTP    C35 4906   2.223   6.079   1.839 -0.1118  0.0990 -0.1987
    3TTP    C36 4907   2.314   6.036   1.952  0.1711 -0.0325  0.5692
    3TTP    C37 4908   2.270   5.900   2.022 -0.6616 -0.4378  0.2317
    3TTP    C38 4909   2.365   5.864   2.143  0.0332 -0.6062 -0.3590
    3TTP    C39 4910   2.398   5.980   2.244  0.1768  0.3535 -0.0376
    3TTP    C40 4911   2.473   5.954   2.369 -0.8354  0.0592 -0.1973
    3TTP    C41 4912   2.621   5.909   2.347 -0.1740 -0.2020 -0.2457
    3TTP    C42 4913   2.700   5.890   2.475  0.1885 -0.4860 -0.1291
    4FIC     F1 4914   2.220   8.370   2.124  0.1372 -0.0038 -0.1199
    4FIC     F2 4915   2.268   8.508   2.353 -0.1953 -0.0525 -0.0188
    4FIC     O1 4916   2.320   7.863   2.286  0.3470  0.0089 -0.2088
    4FIC     N5 4917   2.409   8.345   2.799 -0.5237 -0.1135  0.0634
    4FIC     N6 4918   2.478   7.921   2.879 -0.2928 -0.0935 -0.0264
    4FIC    C19 4919   2.402   7.815   2.563  0.1038 -0.0331 -0.1437
    4FIC    C20 4920   2.375   7.937   2.513  0.0641 -0.0345 -0.1252
    4FIC    C21 4921   2.333   7.954   2.369  0.1960 -0.0122 -0.1612
    4FIC    C22 4922   2.312   8.098   2.349  0.1108 -0.0198 -0.1287
    4FIC    C23 4923   2.272   8.162   2.231  0.1815 -0.0057 -0.1447
    4FIC    C24 4924   2.258   8.300   2.236  0.0756 -0.0172 -0.1069
    4FIC    C25 4925   2.283   8.371   2.354 -0.0957 -0.0416 -0.0547
    4FIC    C26 4926   2.323   8.308   2.471 -0.1672 -0.0565 -0.0386
    4FIC    C27 4927   2.337   8.168   2.469 -0.0619 -0.0453 -0.0764
    4FIC    C28 4928   2.377   8.072   2.575 -0.0973 -0.0551 -0.0721
    4FIC    C29 4929   2.410   8.102   2.705 -0.2506 -0.0789 -0.0275
    4FIC    C30 4930   2.410   8.236   2.756 -0.4003 -0.0975  0.0223
    4FIC    C31 4931   2.447   8.002   2.800 -0.2729 -0.0868 -0.0271
    5FIC     F1 4932   1.519   6.867   1.201 -0.1793  0.1215  0.0685
    5FIC     F2 4933   1.458   6.606   1.153 -0.1259  0.1278 -0.0339
    5FIC     O1 4934   1.877   6.815   1.604 -0.0795  0.0302 -0.0318
    5FIC     N5 4935   1.624   6.194   1.371  0.0219  0.0710 -0.2526
    5FIC     N6 4936   1.916   6.206   1.695  0.0891 -0.0017 -0.3103
    5FIC    C19 4937   1.945   6.547   1.701  0.0069  0.0034 -0.1652
    5FIC    C20 4938   1.858   6.571   1.601 -0.0203  0.0261 -0.1360
    5FIC    C21 4939   1.828   6.711   1.557 -0.0641  0.0386 -0.0672
    5FIC    C22 4940   1.729   6.700   1.448 -0.0851  0.0629 -0.0507
    5FIC    C23 4941   1.671   6.804   1.375 -0.1262  0.0812  0.0078
    5FIC    C24 4942   1.580   6.769   1.276 -0.1391  0.1027  0.0121
    5FIC    C25 4943   1.549   6.635   1.252 -0.1115  0.1059 -0.0408
    5FIC    C26 4944   1.606   6.531   1.324 -0.0705  0.0877 -0.0993
    5FIC    C27 4945   1.699   6.564   1.424 -0.0570  0.0657 -0.1045
    5FIC    C28 4946   1.776   6.479   1.518 -0.0159  0.0433 -0.1590
    5FIC    C29 4947   1.773   6.342   1.525  0.0192  0.0391 -0.2193
    5FIC    C30 4948   1.691   6.261   1.440  0.0205  0.0567 -0.2374
    5FIC    C31 4949   1.852   6.268   1.619  0.0575  0.0168 -0.2691
    1BTD     S2 4950   1.298   6.792   0.233  0.1596 -0.1973 -0.2990
    1BTD     N1 4951   1.287   6.971   0.252 -0.4474 -0.2676  0.0718
    1BTD     N2 4952   1.378   6.766   0.392  0.6622 -0.2143 -0.5537
    1BTD     N3 4953   1.523   7.033   0.749  0.5904 -0.3756 -0.4034
    1BTD     N4 4954   1.411   7.286   0.577 -0.7769 -0.4413  0.3673
    1BTD     C5 4955   1.353   7.133   0.424 -0.6029 -0.3574  0.2168
    1BTD     C6 4956   1.341   7.000   0.370 -0.2542 -0.2984 -0.0092
    1BTD     C7 4957   1.392   6.885   0.448  0.3669 -0.2686 -0.3593
    1BTD     C8 4958   1.453   6.908   0.576  0.6082 -0.2992 -0.4659
    1BTD    C15 4959   1.462   7.040   0.625  0.2503 -0.3570 -0.2360
    1BTD    C16 4960   1.413   7.151   0.550 -0.3481 -0.3859  0.1014
    1BTD    C43 4961   1.488   7.371   0.672 -0.2601 -0.0424 -0.5389
    1BTD    C44 4962   1.616   7.454   0.646 -0.6895 -0.2290  0.5298
    1BTD    C45 4963   1.728   7.367   0.589 -0.5776 -0.1938  0.2107
    1BTD    C46 4964   1.845   7.426   0.516 -0.4713 -0.5292  0.5164
    1BTD    C47 4965   1.667   7.548   0.762 -0.0386 -0.1097 -0.0399
    1BTD    C48 4966   1.596   7.689   0.764 -0.5126 -0.4193 -0.5507
    1BTD    C49 4967   1.613   7.758   0.894 -0.1563 -0.0983 -0.8302
    1BTD    C50 4968   1.581   7.909   0.890  0.3990 -0.0482 -0.3964
    1BTD    C75 4969   1.509   7.119   0.869 -0.4845  0.3160 -0.1383
    1BTD    C76 4970   1.409   7.075   0.981  0.0821  0.0457 -0.1586
    1BTD    C77 4971   1.406   7.172   1.094 -0.5620 -0.2551 -0.3773
    1BTD    C78 4972   1.350   7.314   1.074  0.3314 -0.0669 -0.4306
    1BTD    C79 4973   1.272   7.035   0.936  0.4577 -0.1197  1.0506
    1BTD    C80 4974   1.166   6.960   1.022  0.0045  0.2202  0.1458
    1BTD    C81 4975   1.219   6.878   1.137  0.3290 -0.1070  0.0813
    1BTD    C82 4976   1.106   6.840   1.237  0.0731 -0.5129  0.4594
    2TTP     S1 4977   1.220   7.337   0.238  0.0805  0.1984 -0.3644
    2TTP     S5 4978   1.332   7.653   0.507  0.3577  0.0267 -0.2774
    2TTP     C1 4979   1.238   7.725   0.369 -0.0514  0.0743  0.0236
    2TTP     C2 4980   1.198   7.632   0.278 -0.1612  0.1302  0.0145
    2TTP     C3 4981   1.240   7.500   0.314  0.0739  0.1374 -0.2306
    2TTP     C4 4982   1.314   7.265   0.376  0.4897  0.1508 -0.6654
    2TTP    C17 4983   1.355   7.359   0.467  0.5995  0.0950 -0.6563
    2TTP    C18 4984   1.313   7.490   0.431  0.3643  0.0879 -0.4113
    2TTP    C32 4985   1.118   7.654   0.152  0.3670  0.1150  0.1164
    2TTP    C33 4986   1.193   7.617   0.023 -0.6001  0.6697  0.4622
    2TTP    C34 4987   1.113   7.635  -0.102 -0.0762 -0.4246  0.1793
    2TTP    C35 4988   1.184   7.613  -0.235 -0.3664  0.0632 -0.0264
    2TTP    C36 4989   1.213   7.467  -0.282 -0.3191  0.3483 -0.3594
    2TTP    C37 4990   1.220   7.446  -0.429 -0.0653  0.6872  0.1487
    2TTP    C38 4991   1.239   7.310  -0.491  0.9426 -0.1311  0.6813
    2TTP    C39 4992   1.346   7.223  -0.436 -0.4689  0.0919  0.3912
    2TTP    C40 4993   1.493   7.285  -0.434  0.0517  0.7503 -0.7841
    2TTP    C41 4994   1.597   7.192  -0.377 -1.0146  0.0141 -0.4146
    2TTP    C42 4995   1.748   7.238  -0.384 -0.0727 -0.0033 -0.2619
    3TTP     S1 4996   1.569   6.653   0.681  0.0589  0.1195 -0.3242
    3TTP     S5 4997   1.757   6.868   1.003 -0.4244 -0.0973  0.1054
    3TTP     C1 4998   1.806   6.693   1.014 -0.3168 -0.0759 -0.0317
    3TTP     C2 4999   1.751   6.617   0.915 -0.1612 -0.0077 -0.1724
    3TTP     C3 5000   1.668   6.693   0.827 -0.1214  0.0302 -0.1771
    3TTP     C4 5001   1.520   6.828   0.671 -0.0487  0.0981 -0.1871
    3TTP    C17 5002   1.575   6.905   0.769 -0.2043  0.0299 -0.0464
    3TTP    C18 5003   1.658   6.828   0.857 -0.2442 -0.0079 -0.0417
    3TTP    C32 5004   1.751   6.462   0.907  0.4875 -0.3243  0.1403
    3TTP    C33 5005   1.615   6.387   0.925 -0.0395 -0.3994  0.4309
    3TTP    C34 5006   1.632   6.242   0.896  0.1625  0.1695 -0.8006
    3TTP    C35 5007   1.512   6.156   0.909  0.2207  0.2341  1.0066
    3TTP    C36 5008   1.548   6.010   0.932 -0.1893 -0.1985  0.0864
    3TTP    C37 5009   1.425   5.909   0.925 -1.0582  0.3373 -0.2614
    3TTP    C38 5010   1.493   5.765   0.939  0.3685 -0.5467  0.1560
    3TTP    C39 5011   1.400   5.652   0.912  0.6030  0.6354  0.5974
    3TTP    C40 5012   1.475   5.527   0.871 -0.1531  0.0270  0.8998
    3TTP    C41 5013   1.395   5.416   0.798 -0.3129  0.1218  0.4065
    3TTP    C42 5014   1.463   5.278   0.792  0.0052  0.2979  0.9094
    4FIC     F1 5015   1.568   8.419   0.655 -0.0044  0.0522 -0.0600
    4FIC     F2 5016   1.438   8.554   0.458  0.2317  0.0279 -0.2343
    4FIC     O1 5017   1.404   7.912   0.557 -0.0521  0.0684 -0.0634
    4FIC     N5 5018   1.133   8.387   0.105  0.5370  0.0041 -0.4875
    4FIC     N6 5019   1.031   7.964   0.069  0.4520  0.0216 -0.4550
    4FIC    C19 5020   1.221   7.861   0.334  0.1564  0.0505 -0.2312
    4FIC    C20 5021   1.267   7.984   0.366  0.1592  0.0476 -0.2235
    4FIC    C21 5022   1.361   8.002   0.482  0.0483  0.0575 -0.1350
    4FIC    C22 5023   1.392   8.146   0.490  0.0825  0.0508 -0.1502
    4FIC    C23 5024   1.474   8.211   0.581  0.0098  0.0558 -0.0879
    4FIC    C24 5025   1.488   8.348   0.568  0.0624  0.0478 -0.1181
    4FIC    C25 5026   1.421   8.418   0.466  0.1840  0.0352 -0.2079
    4FIC    C26 5027   1.338   8.353   0.375  0.2571  0.0300 -0.2705
    4FIC    C27 5028   1.323   8.214   0.386  0.2055  0.0381 -0.2412
    4FIC    C28 5029   1.244   8.117   0.307  0.2574  0.0355 -0.2898
    4FIC    C29 5030   1.164   8.146   0.198  0.3743  0.0243 -0.3792
    4FIC    C30 5031   1.147   8.279   0.147  0.4633  0.0134 -0.4384
    4FIC    C31 5032   1.091   8.046   0.128  0.4164  0.0229 -0.4204
    5FIC     F1 5033   2.347   7.041   1.521  0.2249 -0.1034 -0.1990
    5FIC     F2 5034   2.403   6.795   1.622 -0.0384 -0.0983 -0.0392
    5FIC     O1 5035   1.981   6.917   1.142  0.2394  0.0207 -0.2538
    5FIC     N5 5036   2.222   6.352   1.496 -0.4065 -0.0029  0.1514
    5FIC     N6 5037   1.925   6.304   1.180 -0.3420  0.0929  0.0764
    5FIC    C19 5038   1.904   6.637   1.104 -0.0070  0.0693 -0.1207
    5FIC    C20 5039   1.994   6.678   1.195 -0.0003  0.0379 -0.1131
    5FIC    C21 5040   2.029   6.824   1.209  0.1301  0.0144 -0.1844
    5FIC    C22 5041   2.129   6.833   1.317  0.1018 -0.0173 -0.1554
    5FIC    C23 5042   2.191   6.948   1.365  0.1916 -0.0466 -0.1996
    5FIC    C24 5043   2.282   6.932   1.468  0.1416 -0.0736 -0.1589
    5FIC    C25 5044   2.311   6.805   1.520  0.0059 -0.0709 -0.0766
    5FIC    C26 5045   2.250   6.690   1.472 -0.0842 -0.0417 -0.0321
    5FIC    C27 5046   2.156   6.704   1.368 -0.0354 -0.0143 -0.0722
    5FIC    C28 5047   2.075   6.604   1.295 -0.1036  0.0198 -0.0430
    5FIC    C29 5048   2.074   6.468   1.316 -0.2369  0.0321  0.0343
    5FIC    C30 5049   2.155   6.404   1.415 -0.3297  0.0129  0.0984
    5FIC    C31 5050   1.992   6.379   1.241 -0.2940  0.0656  0.0570
    1BTD     S2 5051   0.267   3.834   1.269  0.1688  0.3944 -0.1960
    1BTD     N1 5052   0.285   3.655   1.279  0.1386  0.3855 -0.2874
    1BTD     N2 5053   0.336   3.866   1.432 -0.0333  0.2840 -0.0881
    1BTD     N3 5054   0.510   3.608   1.783 -0.4998  0.0431 -0.0333
    1BTD     N4 5055   0.447   3.349   1.596 -0.2880  0.1681 -0.2789
    1BTD     C5 5056   0.370   3.498   1.447 -0.0867  0.2705 -0.2800
    1BTD     C6 5057   0.339   3.630   1.398 -0.0128  0.3049 -0.2355
    1BTD     C7 5058   0.368   3.748   1.483 -0.1090  0.2482 -0.1239
    1BTD     C8 5059   0.426   3.728   1.613 -0.2743  0.1598 -0.0625
    1BTD    C15 5060   0.455   3.597   1.657 -0.3416  0.1289 -0.1094
    1BTD    C16 5061   0.427   3.484   1.575 -0.2489  0.1836 -0.2168
    1BTD    C43 5062   0.537   3.272   1.680 -0.0014 -0.2807 -0.3990
    1BTD    C44 5063   0.673   3.231   1.626  0.0221 -0.7411 -0.0570
    1BTD    C45 5064   0.756   3.348   1.567  0.3959 -0.8730 -0.0692
    1BTD    C46 5065   0.888   3.314   1.509  0.1037 -0.1268  0.4131
    1BTD    C47 5066   0.745   3.134   1.720 -0.2420  0.2650 -0.8624
    1BTD    C48 5067   0.779   3.182   1.868 -0.0167  0.0106  0.5459
    1BTD    C49 5068   0.849   3.067   1.937 -0.4830 -0.2824 -0.8619
    1BTD    C50 5069   0.766   2.943   1.974 -0.1984 -0.5103 -0.2333
    1BTD    C75 5070   0.534   3.509   1.892  0.3734 -0.2124 -0.3533
    1BTD    C76 5071   0.424   3.476   1.992 -0.2762  0.8692 -0.2475
    1BTD    C77 5072   0.479   3.367   2.091 -0.7743  0.1822 -0.2699
    1BTD    C78 5073   0.391   3.298   2.199 -0.0121 -0.3759  0.0615
    1BTD    C79 5074   0.360   3.600   2.055 -0.3394 -0.5136  0.7461
    1BTD    C80 5075   0.238   3.599   2.151 -0.2199 -0.0224  0.4283
    1BTD    C81 5076   0.109   3.546   2.088 -0.1551 -0.2568  0.2209
    1BTD    C82 5077   0.000   3.540   2.200 -0.0295  0.0790 -0.5565
    2TTP     S1 5078   0.342   3.289   1.222  0.1709 -0.0309  0.1597
    2TTP     S5 5079   0.444   2.982   1.505 -0.1447 -0.2258  0.0637
    2TTP     C1 5080   0.421   2.905   1.342 -0.1691 -0.1430  0.0280
    2TTP     C2 5081   0.388   2.996   1.245 -0.0731 -0.0778  0.0555
    2TTP     C3 5082   0.380   3.129   1.296  0.0232 -0.0912  0.1059
    2TTP     C4 5083   0.365   3.366   1.386  0.1953 -0.1138  0.1954
    2TTP    C17 5084   0.398   3.276   1.483  0.0993 -0.1789  0.1679
    2TTP    C18 5085   0.406   3.143   1.432  0.0030 -0.1657  0.1176
    2TTP    C32 5086   0.353   2.974   1.099 -0.3488  0.7823  0.2412
    2TTP    C33 5087   0.229   2.894   1.053 -0.2614  0.3806  0.0888
    2TTP    C34 5088   0.098   2.945   1.107 -0.3180 -0.1357  0.2719
    2TTP    C35 5089  -0.022   2.848   1.080 -0.4575 -0.0008  0.3851
    2TTP    C36 5090  -0.153   2.903   1.120  0.2792 -0.4847  1.1430
    2TTP    C37 5091  -0.273   2.820   1.091  0.0378  0.2742  0.1041
    2TTP    C38 5092  -0.274   2.677   1.145  0.7299  0.0419  0.5037
    2TTP    C39 5093  -0.268   2.644   1.294  0.1275 -0.3095 -0.2596
    2TTP    C40 5094  -0.269   2.502   1.347  0.2505  0.1975 -0.1932
    2TTP    C41 5095  -0.377   2.403   1.306 -0.3919  1.0342 -0.4148
    2TTP    C42 5096  -0.316   2.267   1.257  0.2627 -0.4198 -0.2033
    3TTP     S1 5097   0.506   3.995   1.740 -0.1054  0.0168 -0.0032
    3TTP     S5 5098   0.727   3.783   2.042 -0.1127 -0.0647 -0.0548
    3TTP     C1 5099   0.756   3.962   2.063 -0.1053 -0.0709 -0.0122
    3TTP     C2 5100   0.689   4.038   1.971 -0.1027 -0.0460  0.0061
    3TTP     C3 5101   0.613   3.958   1.881 -0.1063 -0.0213 -0.0126
    3TTP     C4 5102   0.477   3.817   1.719 -0.1128  0.0230 -0.0458
    3TTP    C17 5103   0.543   3.741   1.811 -0.1155 -0.0018 -0.0641
    3TTP    C18 5104   0.620   3.821   1.902 -0.1118 -0.0266 -0.0454
    3TTP    C32 5105   0.679   4.192   1.960 -0.1411  0.2930  0.1153
    3TTP    C33 5106   0.568   4.253   2.047 -0.1556 -0.3626 -0.3103
    3TTP    C34 5107   0.553   4.403   2.027  0.7384  0.4258 -0.2934
    3TTP    C35 5108   0.492   4.435   1.890  0.1870  0.1553 -0.0862
    3TTP    C36 5109   0.512   4.583   1.862 -0.0053  0.3466 -0.1801
    3TTP    C37 5110   0.482   4.629   1.718  0.2191  0.8591 -0.0648
    3TTP    C38 5111   0.350   4.590   1.660  0.4404 -0.6568 -0.1531
    3TTP    C39 5112   0.343   4.610   1.503  0.0868 -0.2156 -0.1697
    3TTP    C40 5113   0.214   4.584   1.433 -0.0090  0.1388 -1.1082
    3TTP    C41 5114   0.091   4.665   1.486 -0.6514  0.7286 -0.6510
    3TTP    C42 5115  -0.039   4.644   1.412  0.3606  0.4308  0.0406
    4FIC     F1 5116   0.498   2.188   1.739 -0.0781  0.1828  0.0324
    4FIC     F2 5117   0.544   2.069   1.499 -0.3084  0.0703  0.0439
    4FIC     O1 5118   0.428   2.703   1.586  0.2133  0.1858 -0.0928
    4FIC     N5 5119   0.560   2.264   1.044 -0.4317 -0.0894 -0.0290
    4FIC     N6 5120   0.496   2.690   0.973 -0.1575 -0.0644 -0.1291
    4FIC    C19 5121   0.447   2.771   1.302  0.0969  0.0793 -0.1264
    4FIC    C20 5122   0.463   2.647   1.350  0.0325  0.0830 -0.0953
    4FIC    C21 5123   0.452   2.619   1.497  0.0990  0.1392 -0.0797
    4FIC    C22 5124   0.474   2.475   1.514  0.0020  0.1281 -0.0461
    4FIC    C23 5125   0.474   2.402   1.633  0.0185  0.1671 -0.0223
    4FIC    C24 5126   0.498   2.266   1.625 -0.0876  0.1464  0.0078
    4FIC    C25 5127   0.521   2.205   1.501 -0.2062  0.0885  0.0135
    4FIC    C26 5128   0.522   2.276   1.382 -0.2233  0.0493 -0.0101
    4FIC    C27 5129   0.498   2.414   1.389 -0.1169  0.0693 -0.0407
    4FIC    C28 5130   0.492   2.518   1.282 -0.1029  0.0393 -0.0707
    4FIC    C29 5131   0.510   2.497   1.147 -0.1974 -0.0178 -0.0748
    4FIC    C30 5132   0.537   2.369   1.091 -0.3259 -0.0570 -0.0496
    4FIC    C31 5133   0.502   2.603   1.052 -0.1749 -0.0432 -0.1047
    5FIC     F1 5134   1.281   3.722   2.657  0.0675 -0.1717 -0.2488
    5FIC     F2 5135   1.326   3.984   2.715 -0.0754 -0.2016 -0.0004
    5FIC     O1 5136   0.930   3.767   2.247  0.1170  0.0265 -0.2695
    5FIC     N5 5137   1.141   4.393   2.506 -0.2455 -0.1031  0.3421
    5FIC     N6 5138   0.857   4.375   2.174 -0.1780  0.0578  0.2757
    5FIC    C19 5139   0.848   4.033   2.157 -0.0019  0.0685 -0.0395
    5FIC    C20 5140   0.935   4.012   2.258 -0.0088  0.0198 -0.0440
    5FIC    C21 5141   0.972   3.872   2.298  0.0549  0.0010 -0.1658
    5FIC    C22 5142   1.067   3.885   2.410  0.0288 -0.0532 -0.1374
    5FIC    C23 5143   1.129   3.782   2.481  0.0682 -0.0868 -0.2206
    5FIC    C24 5144   1.216   3.818   2.583  0.0318 -0.1365 -0.1718
    5FIC    C25 5145   1.239   3.953   2.613 -0.0418 -0.1518 -0.0438
    5FIC    C26 5146   1.177   4.056   2.542 -0.0815 -0.1184  0.0397
    5FIC    C27 5147   1.089   4.021   2.439 -0.0456 -0.0679 -0.0079
    5FIC    C28 5148   1.009   4.105   2.346 -0.0716 -0.0237  0.0545
    5FIC    C29 5149   1.004   4.242   2.344 -0.1406 -0.0232  0.1799
    5FIC    C30 5150   1.079   4.325   2.433 -0.1981 -0.0671  0.2686
    5FIC    C31 5151   0.923   4.315   2.250 -0.1608  0.0213  0.2319
    1BTD     S2 5152   1.471   3.836   3.708  0.0337 -0.0252  0.3155
    1BTD     N1 5153   1.455   3.657   3.698 -0.0442 -0.0117  0.1928
    1BTD     N2 5154   1.416   3.865   3.539  0.1339  0.1087  0.3055
    1BTD     N3 5155   1.276   3.601   3.177  0.1974  0.4058  0.0636
    1BTD     N4 5156   1.324   3.345   3.373 -0.0220  0.2573 -0.0754
    1BTD     C5 5157   1.386   3.497   3.526 -0.0299  0.1305  0.0544
    1BTD     C6 5158   1.412   3.629   3.576  0.0059  0.0867  0.1528
    1BTD     C7 5159   1.390   3.746   3.487  0.1056  0.1541  0.2158
    1BTD     C8 5160   1.343   3.724   3.353  0.1644  0.2620  0.1776
    1BTD    C15 5161   1.319   3.592   3.308  0.1263  0.3014  0.0809
    1BTD    C16 5162   1.340   3.480   3.394  0.0302  0.2365  0.0200
    1BTD    C43 5163   1.246   3.271   3.266  0.3010  0.6309 -0.6476
    1BTD    C44 5164   1.088   3.278   3.274 -0.1107 -0.0107 -0.0617
    1BTD    C45 5165   1.016   3.215   3.158 -0.2428  0.1361 -0.2238
    1BTD    C46 5166   1.014   3.279   3.024 -0.1915 -0.4110  0.0446
    1BTD    C47 5167   1.022   3.222   3.404 -0.1507  1.0171 -0.0478
    1BTD    C48 5168   1.021   3.069   3.433 -0.1379  0.7220  0.5601
    1BTD    C49 5169   0.953   3.034   3.558  0.0004 -0.3242 -0.9972
    1BTD    C50 5170   0.946   2.886   3.587 -0.4882  0.1066 -0.1274
    1BTD    C75 5171   1.277   3.505   3.061 -0.5772  0.1487  0.4432
    1BTD    C76 5172   1.407   3.488   2.977  0.1210  0.0385  0.1713
    1BTD    C77 5173   1.404   3.371   2.884  0.3985  0.4279  0.4477
    1BTD    C78 5174   1.313   3.375   2.758 -0.1144  0.2216  0.0789
    1BTD    C79 5175   1.481   3.612   2.928 -0.3327 -0.0426  0.2684
    1BTD    C80 5176   1.623   3.588   2.854  0.9958  0.5668 -0.4153
    1BTD    C81 5177   1.658   3.692   2.746  0.2080  0.9455  0.4156
    1BTD    C82 5178   1.777   3.658   2.655 -0.3160  0.1092  0.5287
    2TTP     S1 5179   1.451   3.288   3.738  0.3196 -0.2743  0.1350
    2TTP     S5 5180   1.372   2.974   3.455  0.0162  0.0079 -0.0924
    2TTP     C1 5181   1.424   2.899   3.611  0.0143 -0.1544 -0.1700
    2TTP     C2 5182   1.452   2.991   3.708  0.1078 -0.2511 -0.1044
    2TTP     C3 5183   1.433   3.125   3.662  0.1844 -0.2006  0.0095
    2TTP     C4 5184   1.398   3.363   3.582  0.3215 -0.1121  0.2126
    2TTP    C17 5185   1.371   3.271   3.485  0.2280 -0.0154  0.1470
    2TTP    C18 5186   1.390   3.137   3.531  0.1513 -0.0660  0.0330
    2TTP    C32 5187   1.489   2.970   3.864 -0.3297 -0.2631  0.3669
    2TTP    C33 5188   1.642   2.981   3.889 -0.4217 -0.5443 -0.6482
    2TTP    C34 5189   1.740   2.869   3.845 -0.2035 -0.0396  0.4041
    2TTP    C35 5190   1.733   2.729   3.906  0.8570 -0.1917  0.3614
    2TTP    C36 5191   1.756   2.713   4.055 -0.4788 -0.6228  0.0802
    2TTP    C37 5192   1.726   2.580   4.123 -0.3900 -0.0047 -0.0511
    2TTP    C38 5193   1.764   2.584   4.269  0.0989  0.4098  0.0306
    2TTP    C39 5194   1.732   2.453   4.346 -0.0917  0.3125  0.0940
    2TTP    C40 5195   1.754   2.467   4.496  0.1001 -0.0863  0.5916
    2TTP    C41 5196   1.722   2.338   4.563 -0.0529  0.1889  0.1045
    2TTP    C42 5197   1.735   2.358   4.715  0.0838  0.2000 -0.0813
    3TTP     S1 5198   1.247   3.986   3.218 -0.1074  0.0012  0.0910
    3TTP     S5 5199   1.064   3.754   2.906 -0.0757  0.0308  0.0502
    3TTP     C1 5200   1.009   3.926   2.890 -0.2177 -0.0022  0.1715
    3TTP     C2 5201   1.062   4.008   2.985 -0.2358 -0.0134  0.1912
    3TTP     C3 5202   1.149   3.938   3.075 -0.1383  0.0039  0.1113
    3TTP     C4 5203   1.302   3.814   3.235  0.0346  0.0343 -0.0302
    3TTP    C17 5204   1.249   3.732   3.139  0.0527  0.0453 -0.0499
    3TTP    C18 5205   1.163   3.802   3.050 -0.0449  0.0281  0.0299
    3TTP    C32 5206   1.054   4.160   2.998  0.5031  0.2096  0.4086
    3TTP    C33 5207   1.177   4.221   2.928 -0.5839 -0.6597  0.5939
    3TTP    C34 5208   1.164   4.373   2.919  0.1983 -0.0986  0.3916
    3TTP    C35 5209   1.256   4.445   2.822 -0.1265  0.3865  0.1396
    3TTP    C36 5210   1.226   4.587   2.818 -0.0294 -0.4168  0.4929
    3TTP    C37 5211   1.284   4.685   2.919  0.0319 -0.6529  0.3515
    3TTP    C38 5212   1.229   4.824   2.903 -0.0943  0.2935 -0.8161
    3TTP    C39 5213   1.255   4.915   3.024  0.6795 -0.6741 -0.7089
    3TTP    C40 5214   1.214   5.060   2.997 -0.1927 -0.9202 -0.1670
    3TTP    C41 5215   1.257   5.162   3.106  0.2014  0.3460 -0.1750
    3TTP    C42 5216   1.245   5.303   3.065 -0.5621 -0.3785 -0.2456
    4FIC     F1 5217   1.483   2.231   3.144 -0.4070  0.0290 -0.1365
    4FIC     F2 5218   1.422   2.079   3.361  0.0319  0.0340 -0.0083
    4FIC     O1 5219   1.483   2.727   3.362 -0.2112  0.0575 -0.2000
    4FIC     N5 5220   1.335   2.214   3.829  0.8025  0.0615  0.1305
    4FIC     N6 5221   1.346   2.632   3.956  0.8670  0.0826  0.0551
    4FIC    C19 5222   1.424   2.758   3.647  0.2778  0.0722 -0.1002
    4FIC    C20 5223   1.427   2.639   3.584  0.2113  0.0649 -0.0892
    4FIC    C21 5224   1.458   2.631   3.437 -0.0435  0.0575 -0.1431
    4FIC    C22 5225   1.452   2.489   3.400 -0.0537  0.0507 -0.1147
    4FIC    C23 5226   1.474   2.432   3.275 -0.2523  0.0426 -0.1457
    4FIC    C24 5227   1.463   2.294   3.265 -0.2182  0.0371 -0.1088
    4FIC    C25 5228   1.432   2.216   3.377  0.0081  0.0397 -0.0428
    4FIC    C26 5229   1.410   2.272   3.502  0.2070  0.0477 -0.0114
    4FIC    C27 5230   1.420   2.411   3.515  0.1760  0.0533 -0.0481
    4FIC    C28 5231   1.404   2.501   3.632  0.3479  0.0623 -0.0298
    4FIC    C29 5232   1.372   2.462   3.760  0.5877  0.0670  0.0306
    4FIC    C30 5233   1.352   2.326   3.798  0.7049  0.0639  0.0853
    4FIC    C31 5234   1.358   2.556   3.867  0.7400  0.0755  0.0438
    5FIC     F1 5235   0.532   3.573   2.325  0.0641 -0.1875  0.0904
    5FIC     F2 5236   0.462   3.821   2.237 -0.0335 -0.2248  0.0625
    5FIC     O1 5237   0.864   3.700   2.733  0.1501 -0.0122 -0.0338
    5FIC     N5 5238   0.600   4.267   2.400 -0.1125 -0.1534 -0.0660
    5FIC     N6 5239   0.874   4.316   2.737 -0.0257 -0.0089 -0.1575
    5FIC    C19 5240   0.916   3.981   2.794  0.0874  0.0146 -0.1046
    5FIC    C20 5241   0.835   3.940   2.694  0.0696 -0.0281 -0.0722
    5FIC    C21 5242   0.814   3.793   2.670  0.1041 -0.0392 -0.0370
    5FIC    C22 5243   0.721   3.783   2.555  0.0728 -0.0882 -0.0073
    5FIC    C23 5244   0.671   3.668   2.496  0.0881 -0.1140  0.0302
    5FIC    C24 5245   0.585   3.683   2.389  0.0516 -0.1600  0.0530
    5FIC    C25 5246   0.549   3.811   2.343  0.0013 -0.1790  0.0387
    5FIC    C26 5247   0.598   3.927   2.402 -0.0143 -0.1534  0.0013
    5FIC    C27 5248   0.686   3.913   2.511  0.0222 -0.1069 -0.0224
    5FIC    C28 5249   0.755   4.014   2.594  0.0183 -0.0707 -0.0628
    5FIC    C29 5250   0.746   4.151   2.581 -0.0248 -0.0761 -0.0868
    5FIC    C30 5251   0.666   4.214   2.482 -0.0729 -0.1185 -0.0753
    5FIC    C31 5252   0.816   4.241   2.667 -0.0250 -0.0390 -0.1255
    1BTD     S2 5253   0.116   9.428   2.308 -0.0190  0.2079 -0.2163
    1BTD     N1 5254   0.142   9.606   2.308 -0.1536  0.2275 -0.0601
    1BTD     N2 5255   0.188   9.402   2.471  0.2079  0.0887 -0.3336
    1BTD     N3 5256   0.380   9.672   2.804  0.4271 -0.1194 -0.2908
    1BTD     N4 5257   0.323   9.923   2.604 -0.0183  0.0515  0.0460
    1BTD     C5 5258   0.237   9.768   2.465 -0.0776  0.1335 -0.0088
    1BTD     C6 5259   0.199   9.636   2.424 -0.0289  0.1481 -0.1014
    1BTD     C7 5260   0.225   9.522   2.515  0.1734  0.0703 -0.2545
    1BTD     C8 5261   0.287   9.546   2.642  0.3170 -0.0181 -0.3073
    1BTD    C15 5262   0.322   9.678   2.678  0.2627 -0.0291 -0.2126
    1BTD    C16 5263   0.297   9.787   2.591  0.0678  0.0456 -0.0651
    1BTD    C43 5264   0.422  10.003   2.687  0.1174  0.9718 -0.5789
    1BTD    C44 5265   0.556  10.035   2.631 -0.1573 -0.2996 -0.7268
    1BTD    C45 5266   0.636   9.909   2.573 -0.1145  0.0624  0.0632
    1BTD    C46 5267   0.764   9.943   2.494  0.2828  0.1900  0.3907
    1BTD    C47 5268   0.642  10.112   2.730 -0.1950  0.7344 -0.4804
    1BTD    C48 5269   0.694  10.043   2.857 -0.3651 -0.0686 -0.6846
    1BTD    C49 5270   0.772  10.132   2.952  0.0340 -0.1931 -0.8532
    1BTD    C50 5271   0.773  10.077   3.100 -0.7727  0.3011  0.2374
    1BTD    C75 5272   0.415   9.773   2.899 -0.5849 -0.0777 -0.5324
    1BTD    C76 5273   0.310   9.829   3.001  0.3673 -0.2402  0.3625
    1BTD    C77 5274   0.361   9.954   3.089  0.2002  0.3071 -0.2220
    1BTD    C78 5275   0.458   9.910   3.201 -0.1343  0.3849  0.0711
    1BTD    C79 5276   0.227   9.723   3.083 -0.6125 -0.0679  0.2050
    1BTD    C80 5277   0.104   9.770   3.170 -0.1494 -0.1743  0.0725
    1BTD    C81 5278   0.046   9.649   3.240  0.2623  0.1355 -0.0352
    1BTD    C82 5279  -0.068   9.688   3.330  0.3116  0.2698  0.3673
    2TTP     S1 5280   0.185   9.965   2.236 -0.0145 -0.0696 -0.0342
    2TTP     S5 5281   0.382  10.275   2.461 -0.2213 -0.0072  0.0612
    2TTP     C1 5282   0.338  10.341   2.297 -0.1524 -0.0248  0.0358
    2TTP     C2 5283   0.275  10.249   2.218 -0.0845 -0.0451  0.0048
    2TTP     C3 5284   0.258  10.123   2.284 -0.0844 -0.0474  0.0001
    2TTP     C4 5285   0.228   9.899   2.400 -0.0833 -0.0525 -0.0087
    2TTP    C17 5286   0.291   9.991   2.479 -0.1513 -0.0317  0.0223
    2TTP    C18 5287   0.308  10.117   2.413 -0.1514 -0.0296  0.0270
    2TTP    C32 5288   0.221  10.262   2.078  0.0052  0.6302  0.7400
    2TTP    C33 5289   0.078  10.320   2.079 -0.2885  0.2364  0.3415
    2TTP    C34 5290   0.013  10.342   1.942  0.4256  0.8435  0.0474
    2TTP    C35 5291  -0.125  10.399   1.940  0.6869  0.1711 -0.4010
    2TTP    C36 5292  -0.227  10.303   2.003 -0.0120  0.9110 -0.3997
    2TTP    C37 5293  -0.369  10.348   2.000 -0.2351  0.8782  0.7392
    2TTP    C38 5294  -0.408  10.475   2.068  0.3653 -0.5863 -0.4585
    2TTP    C39 5295  -0.359  10.522   2.204 -0.0335 -0.2710  0.2898
    2TTP    C40 5296  -0.434  10.644   2.252  0.1361 -0.1444  0.8172
    2TTP    C41 5297  -0.368  10.697   2.372  0.0733  0.1130 -0.1549
    2TTP    C42 5298  -0.447  10.813   2.437 -0.2153 -0.2785 -0.0184
    3TTP     S1 5299   0.353   9.284   2.774 -0.1333  0.0259 -0.0562
    3TTP     S5 5300   0.620   9.488   3.042  0.1145 -0.1907 -0.1374
    3TTP     C1 5301   0.644   9.309   3.062  0.2664 -0.2041 -0.4379
    3TTP     C2 5302   0.563   9.235   2.980  0.1988 -0.1383 -0.4306
    3TTP     C3 5303   0.479   9.318   2.899  0.0247 -0.0744 -0.1873
    3TTP     C4 5304   0.329   9.463   2.754 -0.2852  0.0393  0.2444
    3TTP    C17 5305   0.410   9.537   2.836 -0.2176 -0.0265  0.2370
    3TTP    C18 5306   0.494   9.454   2.917 -0.0434 -0.0901 -0.0063
    3TTP    C32 5307   0.534   9.088   2.963  0.1900  0.0206  0.0284
    3TTP    C33 5308   0.407   9.014   3.019 -0.2247  0.5374  0.6182
    3TTP    C34 5309   0.400   8.862   3.002  0.1840  0.7959 -0.3206
    3TTP    C35 5310   0.481   8.784   3.099  1.1140  0.3627 -0.5485
    3TTP    C36 5311   0.467   8.629   3.077 -0.0525 -0.7552  1.0593
    3TTP    C37 5312   0.575   8.546   3.136 -0.6674 -0.3933 -0.1060
    3TTP    C38 5313   0.540   8.398   3.121  0.5693 -0.9114  0.2702
    3TTP    C39 5314   0.638   8.306   3.185  0.3756  0.0345 -0.0709
    3TTP    C40 5315   0.610   8.160   3.172 -0.2868  0.4723  0.8336
    3TTP    C41 5316   0.696   8.076   3.271  0.2998 -0.0531  0.7119
    3TTP    C42 5317   0.698   7.929   3.238  0.5499  0.1293  0.0359
    4FIC     F1 5318   0.395  11.063   2.685 -0.1793  0.1309 -0.1710
    4FIC     F2 5319   0.478  11.174   2.450  0.2156 -0.1035 -0.1435
    4FIC     O1 5320   0.308  10.551   2.532 -0.4057  0.0937  0.0793
    4FIC     N5 5321   0.535  10.968   2.004  0.6221 -0.4663  0.0745
    4FIC     N6 5322   0.451  10.545   1.931  0.3656 -0.4478  0.2646
    4FIC    C19 5323   0.357  10.475   2.253 -0.1088 -0.1429  0.1945
    4FIC    C20 5324   0.375  10.599   2.301 -0.0673 -0.1242  0.1305
    4FIC    C21 5325   0.348  10.631   2.445 -0.2280 -0.0002  0.0740
    4FIC    C22 5326   0.378  10.774   2.463 -0.1326 -0.0124  0.0115
    4FIC    C23 5327   0.369  10.849   2.580 -0.2217  0.0787 -0.0539
    4FIC    C24 5328   0.403  10.983   2.573 -0.1009  0.0453 -0.1051
    4FIC    C25 5329   0.445  11.040   2.452  0.1025 -0.0753 -0.0908
    4FIC    C26 5330   0.455  10.966   2.335  0.1924 -0.1667 -0.0257
    4FIC    C27 5331   0.421  10.830   2.340  0.0726 -0.1342  0.0268
    4FIC    C28 5332   0.421  10.725   2.236  0.1208 -0.2079  0.1005
    4FIC    C29 5333   0.456  10.740   2.104  0.3046 -0.3309  0.1344
    4FIC    C30 5334   0.500  10.865   2.049  0.4785 -0.4046  0.1013
    4FIC    C31 5335   0.453  10.633   2.010  0.3371 -0.3941  0.2058
    5FIC     F1 5336   1.159   9.543   3.653  0.1038  0.0143 -0.2714
    5FIC     F2 5337   1.232   9.282   3.683 -0.2833 -0.0696 -0.0430
    5FIC     O1 5338   0.795   9.501   3.255  0.0596  0.2093 -0.2515
    5FIC     N5 5339   1.078   8.879   3.443 -0.8714 -0.0515  0.2996
    5FIC     N6 5340   0.779   8.899   3.125 -0.8279  0.1180  0.2691
    5FIC    C19 5341   0.736   9.238   3.142 -0.3260  0.1981 -0.0261
    5FIC    C20 5342   0.825   9.258   3.241 -0.2997  0.1528 -0.0401
    5FIC    C21 5343   0.850   9.397   3.294 -0.0969  0.1616 -0.1588
    5FIC    C22 5344   0.951   9.384   3.400 -0.1213  0.1035 -0.1428
    5FIC    C23 5345   1.006   9.485   3.478  0.0253  0.0894 -0.2279
    5FIC    C24 5346   1.101   9.448   3.573 -0.0335  0.0310 -0.1919
    5FIC    C25 5347   1.138   9.314   3.588 -0.2331 -0.0119 -0.0740
    5FIC    C26 5348   1.084   9.212   3.510 -0.3801  0.0012  0.0113
    5FIC    C27 5349   0.988   9.248   3.414 -0.3234  0.0601 -0.0236
    5FIC    C28 5350   0.912   9.165   3.317 -0.4410  0.0889  0.0442
    5FIC    C29 5351   0.920   9.029   3.301 -0.6423  0.0615  0.1625
    5FIC    C30 5352   1.007   8.947   3.379 -0.7676 -0.0005  0.2373
    5FIC    C31 5353   0.842   8.958   3.204 -0.7432  0.0927  0.2204
    1BTD     S2 5354   1.847   9.424   0.749  0.1275 -0.0370  0.1473
    1BTD     N1 5355   1.844   9.604   0.742  0.0219 -0.0403  0.1301
    1BTD     N2 5356   1.777   9.401   0.586  0.3174 -0.0949  0.0731
    1BTD     N3 5357   1.627   9.678   0.238  0.5137 -0.2172 -0.1092
    1BTD     N4 5358   1.710   9.928   0.430  0.1495 -0.1495 -0.0391
    1BTD     C5 5359   1.773   9.770   0.576  0.0929 -0.0982  0.0409
    1BTD     C6 5360   1.793   9.635   0.623  0.1281 -0.0818  0.0729
    1BTD     C7 5361   1.756   9.522   0.536  0.2935 -0.1125  0.0410
    1BTD     C8 5362   1.700   9.549   0.406  0.4155 -0.1581 -0.0212
    1BTD    C15 5363   1.682   9.682   0.364  0.3755 -0.1725 -0.0507
    1BTD    C16 5364   1.718   9.791   0.449  0.2162 -0.1430 -0.0200
    1BTD    C43 5365   1.619  10.002   0.343  0.1354 -0.4152  0.0880
    1BTD    C44 5366   1.466  10.002   0.338 -0.0372  0.2066 -0.8612
    1BTD    C45 5367   1.412  10.067   0.215 -0.2153 -0.0116 -0.7614
    1BTD    C46 5368   1.265  10.047   0.183  0.4069  0.1883 -0.0596
    1BTD    C47 5369   1.403  10.038   0.477  0.7323  0.2344  0.3278
    1BTD    C48 5370   1.424  10.182   0.535 -0.0172  0.5112 -0.1511
    1BTD    C49 5371   1.363  10.185   0.668 -0.1346 -0.1739  0.5248
    1BTD    C50 5372   1.348  10.324   0.726  0.2475 -0.0835  1.0164
    1BTD    C75 5373   1.638   9.777   0.125  0.2679 -0.5393 -0.5622
    1BTD    C76 5374   1.728   9.753   0.008  0.5631  0.3589  0.9147
    1BTD    C77 5375   1.699   9.853  -0.105  0.2182  0.4367  0.3585
    1BTD    C78 5376   1.567   9.840  -0.188 -0.1471  0.3036  0.0773
    1BTD    C79 5377   1.875   9.727   0.046  0.8732 -0.6045 -0.2979
    1BTD    C80 5378   1.962   9.668  -0.060 -0.4701  0.3368  0.3460
    1BTD    C81 5379   1.924   9.524  -0.110 -0.6843 -0.2545  0.2079
    1BTD    C82 5380   2.009   9.469  -0.222  0.1766 -0.3354 -0.0245
    2TTP     S1 5381   1.864   9.976   0.786 -0.1972 -0.0278  0.0744
    2TTP     S5 5382   1.742  10.292   0.522  0.2279  0.1926  0.1389
    2TTP     C1 5383   1.804  10.366   0.676  0.0966  0.0685  0.2516
    2TTP     C2 5384   1.845  10.273   0.766 -0.0424 -0.0064  0.2384
    2TTP     C3 5385   1.829  10.139   0.717 -0.0502  0.0308  0.1387
    2TTP     C4 5386   1.802   9.902   0.631 -0.0659  0.0963 -0.0383
    2TTP    C17 5387   1.761   9.995   0.541  0.0731  0.1716 -0.0251
    2TTP    C18 5388   1.776  10.128   0.590  0.0809  0.1340  0.0746
    2TTP    C32 5389   1.888  10.291   0.909  0.0151 -0.5828 -0.1689
    2TTP    C33 5390   2.037  10.311   0.931 -0.0128  0.0342 -0.1199
    2TTP    C34 5391   2.091  10.452   0.904 -0.2469 -0.6965  0.4894
    2TTP    C35 5392   2.068  10.544   1.021  0.2575 -0.3917  0.3436
    2TTP    C36 5393   2.055  10.699   0.985  0.0054  0.4628 -0.1692
    2TTP    C37 5394   2.004  10.798   1.094 -0.7985  0.1628 -0.3203
    2TTP    C38 5395   2.095  10.808   1.217 -0.6174 -0.1532  0.7857
    2TTP    C39 5396   2.028  10.882   1.329  0.1842 -0.1677  0.2335
    2TTP    C40 5397   2.108  10.906   1.455 -0.8826  0.5116  0.2664
    2TTP    C41 5398   2.059  11.009   1.566  0.0240  0.4333  0.2636
    2TTP    C42 5399   1.936  10.972   1.641  0.2407 -0.0303  0.2801
    3TTP     S1 5400   1.603   9.288   0.276  0.0047 -0.2439 -0.1591
    3TTP     S5 5401   1.401   9.524  -0.021  0.3074 -0.0477 -0.2095
    3TTP     C1 5402   1.347   9.352  -0.038  0.2426 -0.0176 -0.3084
    3TTP     C2 5403   1.406   9.268   0.053  0.1454 -0.0765 -0.2987
    3TTP     C3 5404   1.496   9.338   0.139  0.1184 -0.1473 -0.2128
    3TTP     C4 5405   1.657   9.461   0.293  0.0694 -0.2737 -0.0602
    3TTP    C17 5406   1.598   9.544   0.202  0.1666 -0.2146 -0.0699
    3TTP    C18 5407   1.508   9.474   0.116  0.1936 -0.1440 -0.1559
    3TTP    C32 5408   1.389   9.115   0.069  0.5524  0.6564  0.2421
    3TTP    C33 5409   1.509   9.049   0.016  0.1595  0.2810 -0.3965
    3TTP    C34 5410   1.501   8.896   0.037  0.3285 -0.4041 -0.5154
    3TTP    C35 5411   1.589   8.810  -0.057 -0.2351 -0.6086 -0.1065
    3TTP    C36 5412   1.567   8.657  -0.067  0.2487 -0.9656  0.2670
    3TTP    C37 5413   1.590   8.578   0.056 -0.1644  0.4473  0.1383
    3TTP    C38 5414   1.588   8.425   0.037 -0.2184 -0.5775  0.3766
    3TTP    C39 5415   1.604   8.323   0.151 -0.0100 -0.5149  0.9051
    3TTP    C40 5416   1.603   8.173   0.102  0.1828 -0.4505 -0.4351
    3TTP    C41 5417   1.477   8.128   0.023 -0.9685  0.0592 -0.3873
    3TTP    C42 5418   1.500   7.982  -0.021 -0.5725  0.4234 -0.2787
    4FIC     F1 5419   1.733  11.019   0.194 -0.0163  0.0162  0.0385
    4FIC     F2 5420   1.655  11.164   0.410 -0.0407  0.0196  0.0274
    4FIC     O1 5421   1.834  10.539   0.423 -0.0778  0.0098  0.0514
    4FIC     N5 5422   1.615  11.031   0.885 -0.1195  0.0196  0.0207
    4FIC     N6 5423   1.709  10.627   1.021 -0.1627  0.0138  0.0330
    4FIC    C19 5424   1.795  10.508   0.712 -0.1229  0.0107  0.0454
    4FIC    C20 5425   1.773  10.623   0.645 -0.1065  0.0122  0.0426
    4FIC    C21 5426   1.795  10.631   0.497 -0.0838  0.0114  0.0460
    4FIC    C22 5427   1.762  10.769   0.458 -0.0700  0.0134  0.0416
    4FIC    C23 5428   1.767  10.825   0.330 -0.0478  0.0138  0.0427
    4FIC    C24 5429   1.731  10.958   0.317 -0.0383  0.0158  0.0378
    4FIC    C25 5430   1.690  11.033   0.429 -0.0509  0.0176  0.0321
    4FIC    C26 5431   1.685  10.978   0.556 -0.0731  0.0172  0.0310
    4FIC    C27 5432   1.721  10.843   0.571 -0.0830  0.0150  0.0359
    4FIC    C28 5433   1.727  10.756   0.691 -0.1059  0.0141  0.0363
    4FIC    C29 5434   1.695  10.792   0.820 -0.1232  0.0153  0.0317
    4FIC    C30 5435   1.651  10.923   0.855 -0.1211  0.0174  0.0256
    4FIC    C31 5436   1.703  10.701   0.930 -0.1448  0.0143  0.0325
    5FIC     F1 5437   0.778   9.684  -0.529 -0.0548 -0.0739 -0.0784
    5FIC     F2 5438   0.736   9.437  -0.635  0.0101 -0.0961 -0.0540
    5FIC     O1 5439   1.157   9.574  -0.159 -0.1269  0.0389  0.0291
    5FIC     N5 5440   0.945   9.003  -0.523  0.0521 -0.0479  0.0575
    5FIC     N6 5441   1.250   8.966  -0.213 -0.0173  0.0443  0.1366
    5FIC    C19 5442   1.252   9.298  -0.129 -0.0905  0.0575  0.0907
    5FIC    C20 5443   1.158   9.336  -0.218 -0.0749  0.0300  0.0626
    5FIC    C21 5444   1.115   9.479  -0.227 -0.0954  0.0219  0.0320
    5FIC    C22 5445   1.012   9.485  -0.333 -0.0706 -0.0091  0.0064
    5FIC    C23 5446   0.943   9.597  -0.378 -0.0775 -0.0265 -0.0261
    5FIC    C24 5447   0.850   9.578  -0.480 -0.0499 -0.0557 -0.0460
    5FIC    C25 5448   0.829   9.450  -0.534 -0.0164 -0.0668 -0.0333
    5FIC    C26 5449   0.898   9.338  -0.490 -0.0094 -0.0501 -0.0008
    5FIC    C27 5450   0.992   9.356  -0.387 -0.0370 -0.0205  0.0194
    5FIC    C28 5451   1.080   9.259  -0.318 -0.0384  0.0033  0.0546
    5FIC    C29 5452   1.089   9.124  -0.343 -0.0109  0.0010  0.0755
    5FIC    C30 5453   1.010   9.058  -0.442  0.0236 -0.0260  0.0656
    5FIC    C31 5454   1.178   9.038  -0.271 -0.0146  0.0248  0.1090
    1BTD     S2 5455   2.590   1.195   1.679  0.0261 -0.1128 -0.0547
    1BTD     N1 5456   2.579   1.015   1.673  0.2248 -0.1207 -0.2009
    1BTD     N2 5457   2.523   1.219   1.513 -0.2017 -0.0413  0.0466
    1BTD     N3 5458   2.368   0.943   1.166 -0.3071  0.0900 -0.0109
    1BTD     N4 5459   2.437   0.693   1.363  0.2187 -0.0078 -0.3159
    1BTD     C5 5460   2.504   0.850   1.509  0.2152 -0.0606 -0.2573
    1BTD     C6 5461   2.529   0.984   1.555  0.1168 -0.0722 -0.1684
    1BTD     C7 5462   2.498   1.098   1.465 -0.1220 -0.0278 -0.0298
    1BTD     C8 5463   2.443   1.072   1.335 -0.2504  0.0261  0.0129
    1BTD    C15 5464   2.420   0.939   1.294 -0.1470  0.0356 -0.0776
    1BTD    C16 5465   2.450   0.829   1.380  0.0832 -0.0072 -0.2111
    1BTD    C43 5466   2.360   0.612   1.265  0.4388  0.0187  0.6005
    1BTD    C44 5467   2.212   0.578   1.287 -0.4744  0.0257 -0.5341
    1BTD    C45 5468   2.122   0.696   1.328 -0.6762  0.3170 -0.3842
    1BTD    C46 5469   1.980   0.660   1.380 -0.3162 -0.7066 -0.3197
    1BTD    C47 5470   2.164   0.486   1.170  0.0888  0.6349 -0.6419
    1BTD    C48 5471   2.146   0.539   1.028  0.3899  0.0895  0.3802
    1BTD    C49 5472   2.015   0.611   1.005  0.2665  0.1122  0.1413
    1BTD    C50 5473   1.893   0.517   0.993  0.0637  0.3605  0.3067
    1BTD    C75 5474   2.382   0.841   1.062  0.8877  0.1497  0.7996
    1BTD    C76 5475   2.512   0.809   0.985  1.4360 -0.3297  0.4566
    1BTD    C77 5476   2.496   0.675   0.899  0.0144 -1.0596 -0.0088
    1BTD    C78 5477   2.432   0.679   0.757 -0.2316  0.2116  0.5155
    1BTD    C79 5478   2.579   0.925   0.917  0.1926  0.1592 -0.3155
    1BTD    C80 5479   2.716   0.899   0.854  0.1330 -0.0120 -0.4325
    1BTD    C81 5480   2.791   1.019   0.798 -0.5049 -0.3980 -0.6658
    1BTD    C82 5481   2.922   0.980   0.726 -0.1703 -0.5007 -0.6291
    2TTP     S1 5482   2.597   0.655   1.718 -0.1514  0.1028  0.0221
    2TTP     S5 5483   2.459   0.333   1.467  0.2411 -0.1702  0.1545
    2TTP     C1 5484   2.525   0.262   1.621  0.1059 -0.0101  0.2872
    2TTP     C2 5485   2.572   0.357   1.708 -0.0233  0.0836  0.2542
    2TTP     C3 5486   2.557   0.490   1.655 -0.0201  0.0324  0.1228
    2TTP     C4 5487   2.530   0.725   1.564 -0.0162 -0.0573 -0.1107
    2TTP    C17 5488   2.484   0.630   1.477  0.1131 -0.1510 -0.0776
    2TTP    C18 5489   2.499   0.498   1.530  0.1099 -0.0998  0.0537
    2TTP    C32 5490   2.628   0.340   1.843 -0.7522 -0.0776  0.5122
    2TTP    C33 5491   2.781   0.350   1.864 -0.6426  0.1475  0.5010
    2TTP    C34 5492   2.870   0.254   1.773  0.2833  0.1980 -0.6907
    2TTP    C35 5493   3.011   0.252   1.817 -0.3934 -0.0811  0.3179
    2TTP    C36 5494   3.091   0.188   1.702  0.3683  0.1872 -0.3890
    2TTP    C37 5495   3.105   0.036   1.699 -0.2121 -0.2381  0.3736
    2TTP    C38 5496   3.199  -0.015   1.586 -0.4721 -0.4505 -0.5429
    2TTP    C39 5497   3.197  -0.165   1.575  0.3875 -0.1401  0.5030
    2TTP    C40 5498   3.259  -0.209   1.443  0.2097 -0.2430 -0.1800
    2TTP    C41 5499   3.293  -0.353   1.416  0.5595 -0.0091  0.0245
    2TTP    C42 5500   3.413  -0.405   1.491  0.2258 -0.0701 -0.0841
    3TTP     S1 5501   2.383   1.330   1.193  0.1024  0.1291  0.1979
    3TTP     S5 5502   2.154   1.105   0.906  0.0762  0.0707  0.2647
    3TTP     C1 5503   2.129   1.283   0.874 -0.0014  0.0642  0.2903
    3TTP     C2 5504   2.198   1.363   0.961  0.0023  0.0819  0.2712
    3TTP     C3 5505   2.274   1.287   1.055  0.0662  0.1011  0.2356
    3TTP     C4 5506   2.408   1.153   1.224  0.1800  0.1356  0.1724
    3TTP    C17 5507   2.339   1.073   1.138  0.1764  0.1179  0.1915
    3TTP    C18 5508   2.264   1.149   1.043  0.1124  0.0986  0.2270
    3TTP    C32 5509   2.206   1.514   0.968 -0.1760 -0.2457 -0.5340
    3TTP    C33 5510   2.339   1.564   0.918 -0.5743 -0.5247 -0.7424
    3TTP    C34 5511   2.378   1.707   0.965  0.3689  0.7801  0.3343
    3TTP    C35 5512   2.268   1.812   0.968 -0.4641  0.0710 -0.1949
    3TTP    C36 5513   2.320   1.945   1.007  0.0744  0.5178  0.3179
    3TTP    C37 5514   2.206   2.031   1.054  0.2660 -0.3123 -0.0926
    3TTP    C38 5515   2.254   2.174   1.094  0.2977 -0.2030 -0.8178
    3TTP    C39 5516   2.330   2.178   1.222  0.3054 -0.3469 -1.3789
    3TTP    C40 5517   2.367   2.323   1.261 -0.3182 -0.5536  0.0314
    3TTP    C41 5518   2.472   2.343   1.371 -0.5524 -0.6044 -0.4357
    3TTP    C42 5519   2.434   2.291   1.507 -0.0710  0.2088 -0.2191
    4FIC     F1 5520   2.360  -0.444   1.227 -0.3902 -0.1199 -0.0426
    4FIC     F2 5521   2.441  -0.581   1.448 -0.2553 -0.2067 -0.1452
    4FIC     O1 5522   2.427   0.067   1.392 -0.0494 -0.1872  0.0277
    4FIC     N5 5523   2.605  -0.413   1.883  0.1815 -0.3798 -0.2426
    4FIC     N6 5524   2.642   0.014   1.968  0.4206 -0.4148 -0.1670
    4FIC    C19 5525   2.529   0.118   1.662  0.2006 -0.2941 -0.0453
    4FIC    C20 5526   2.508  -0.005   1.612  0.1096 -0.2738 -0.0590
    4FIC    C21 5527   2.456  -0.024   1.472 -0.0166 -0.2184 -0.0192
    4FIC    C22 5528   2.446  -0.169   1.450 -0.0926 -0.2089 -0.0470
    4FIC    C23 5529   2.402  -0.234   1.335 -0.2161 -0.1633 -0.0264
    4FIC    C24 5530   2.402  -0.373   1.337 -0.2684 -0.1639 -0.0604
    4FIC    C25 5531   2.443  -0.443   1.451 -0.1988 -0.2087 -0.1132
    4FIC    C26 5532   2.487  -0.379   1.566 -0.0755 -0.2544 -0.1340
    4FIC    C27 5533   2.489  -0.238   1.565 -0.0209 -0.2546 -0.1003
    4FIC    C28 5534   2.529  -0.141   1.670  0.1062 -0.2961 -0.1098
    4FIC    C29 5535   2.575  -0.170   1.796  0.2021 -0.3459 -0.1566
    4FIC    C30 5536   2.592  -0.304   1.843  0.1904 -0.3643 -0.2037
    4FIC    C31 5537   2.612  -0.069   1.890  0.3218 -0.3836 -0.1621
    5FIC     F1 5538   1.626   0.998   0.287  0.0890 -0.0018 -0.2044
    5FIC     F2 5539   1.550   1.254   0.235 -0.2068 -0.0154  0.1516
    5FIC     O1 5540   1.983   1.076   0.687  0.2795 -0.1165 -0.3517
    5FIC     N5 5541   1.696   1.678   0.445 -0.4962 -0.1167  0.5585
    5FIC     N6 5542   1.990   1.687   0.768 -0.2876 -0.2036  0.3716
    5FIC    C19 5543   2.037   1.348   0.779  0.0646 -0.1702 -0.0639
    5FIC    C20 5544   1.951   1.319   0.681  0.0283 -0.1408 -0.0407
    5FIC    C21 5545   1.928   1.176   0.639  0.1450 -0.1144 -0.1953
    5FIC    C22 5546   1.828   1.179   0.530  0.0681 -0.0859 -0.1241
    5FIC    C23 5547   1.776   1.072   0.460  0.1302 -0.0556 -0.2170
    5FIC    C24 5548   1.682   1.100   0.361  0.0350 -0.0323 -0.1208
    5FIC    C25 5549   1.644   1.232   0.334 -0.1173 -0.0393  0.0626
    5FIC    C26 5550   1.696   1.340   0.404 -0.1800 -0.0696  0.1562
    5FIC    C27 5551   1.790   1.313   0.505 -0.0854 -0.0934  0.0611
    5FIC    C28 5552   1.864   1.404   0.596 -0.1160 -0.1275  0.1196
    5FIC    C29 5553   1.853   1.541   0.601 -0.2519 -0.1436  0.2898
    5FIC    C30 5554   1.767   1.616   0.516 -0.3858 -0.1287  0.4369
    5FIC    C31 5555   1.928   1.621   0.693 -0.2708 -0.1765  0.3338
    1BTD     S2 5556   1.021   1.136   3.125  0.0179  0.2957  0.2388
    1BTD     N1 5557   1.020   0.956   3.142  0.3348  0.2632 -0.0719
    1BTD     N2 5558   1.066   1.166   3.297 -0.3655  0.0916  0.3791
    1BTD     N3 5559   1.158   0.905   3.676 -0.5744 -0.3830  0.1042
    1BTD     N4 5560   1.101   0.647   3.485  0.2885 -0.1714 -0.4515
    1BTD     C5 5561   1.063   0.798   3.324  0.3003  0.0338 -0.2633
    1BTD     C6 5562   1.052   0.930   3.268  0.1482  0.1099 -0.0557
    1BTD     C7 5563   1.078   1.047   3.355 -0.2438  0.0138  0.1968
    1BTD     C8 5564   1.113   1.026   3.492 -0.4642 -0.1536  0.2289
    1BTD    C15 5565   1.123   0.895   3.543 -0.3036 -0.2231  0.0203
    1BTD    C16 5566   1.098   0.782   3.459  0.0741 -0.1304 -0.2229
    1BTD    C43 5567   1.185   0.577   3.587 -0.0362 -0.0327 -0.4156
    1BTD    C44 5568   1.342   0.587   3.558  0.1511 -0.1866  0.0772
    1BTD    C45 5569   1.410   0.537   3.687  1.0672  0.6734  0.0871
    1BTD    C46 5570   1.558   0.580   3.713  0.4789 -0.4255 -0.1080
    1BTD    C47 5571   1.395   0.518   3.428  0.7698  0.4922  0.2856
    1BTD    C48 5572   1.396   0.366   3.422  0.5285 -0.3865 -0.5262
    1BTD    C49 5573   1.445   0.291   3.299 -0.3098  0.2514  0.0665
    1BTD    C50 5574   1.407   0.143   3.278  0.0362 -0.4372  0.9104
    1BTD    C75 5575   1.158   0.807   3.795  0.2553  0.2185  0.2954
    1BTD    C76 5576   1.038   0.783   3.889  0.2319 -0.5570 -0.2510
    1BTD    C77 5577   1.073   0.666   3.983  0.2212 -0.4182 -0.2454
    1BTD    C78 5578   1.176   0.674   4.096 -0.1035 -0.1158 -0.2489
    1BTD    C79 5579   0.964   0.910   3.942 -0.3093  0.5827 -0.1905
    1BTD    C80 5580   0.859   0.891   4.045  0.2128  0.0121 -1.1073
    1BTD    C81 5581   0.833   1.023   4.124 -0.1260  0.8124  0.0221
    1BTD    C82 5582   0.717   0.995   4.223 -0.6303 -0.7230  0.1591
    2TTP     S1 5583   1.001   0.593   3.108  0.0970  0.0426 -0.0558
    2TTP     S5 5584   1.057   0.282   3.399  0.0540  0.1077  0.0220
    2TTP     C1 5585   1.015   0.205   3.240  0.0132  0.0748  0.0485
    2TTP     C2 5586   0.995   0.296   3.140  0.0240  0.0528  0.0260
    2TTP     C3 5587   1.012   0.430   3.186  0.0650  0.0610 -0.0130
    2TTP     C4 5588   1.042   0.670   3.267  0.1378  0.0754 -0.0823
    2TTP    C17 5589   1.062   0.578   3.367  0.1270  0.0974 -0.0598
    2TTP    C18 5590   1.045   0.444   3.320  0.0860  0.0892 -0.0208
    2TTP    C32 5591   0.948   0.275   2.998 -0.2061  0.3247 -0.1279
    2TTP    C33 5592   0.796   0.283   2.994 -0.1351  0.5541  0.3115
    2TTP    C34 5593   0.737   0.256   2.860  0.5082  0.2663 -0.0293
    2TTP    C35 5594   0.763   0.117   2.800  0.1292  0.0416 -0.3099
    2TTP    C36 5595   0.689  -0.001   2.864 -0.0005  0.4454  0.5008
    2TTP    C37 5596   0.733  -0.140   2.809 -0.3691 -0.3137 -0.3436
    2TTP    C38 5597   0.686  -0.147   2.665  0.2875  0.3637 -0.2278
    2TTP    C39 5598   0.728  -0.258   2.577  0.1426  0.0182 -0.2455
    2TTP    C40 5599   0.715  -0.227   2.433  0.0250  0.3828  0.6029
    2TTP    C41 5600   0.785  -0.328   2.342 -0.2158  0.2193  0.1486
    2TTP    C42 5601   0.736  -0.293   2.197  0.5600  0.3758 -0.3631
    3TTP     S1 5602   1.191   1.291   3.626  0.0816  0.2063  0.1221
    3TTP     S5 5603   1.384   1.068   3.938 -0.2173 -0.1986  0.0199
    3TTP     C1 5604   1.425   1.244   3.959 -0.4026 -0.1987  0.4083
    3TTP     C2 5605   1.368   1.323   3.863 -0.3211 -0.0737  0.4628
    3TTP     C3 5606   1.289   1.248   3.771 -0.1096  0.0267  0.1998
    3TTP     C4 5607   1.150   1.115   3.605  0.2668  0.2064 -0.2663
    3TTP    C17 5608   1.207   1.036   3.700  0.1854  0.0814 -0.3207
    3TTP    C18 5609   1.285   1.111   3.793 -0.0262 -0.0190 -0.0576
    3TTP    C32 5610   1.377   1.480   3.844 -0.0027  0.5650 -0.4370
    3TTP    C33 5611   1.255   1.547   3.911 -0.1851  0.0804  0.1216
    3TTP    C34 5612   1.264   1.697   3.940  0.2594 -0.1946  0.3549
    3TTP    C35 5613   1.311   1.791   3.832  0.0633 -0.0306  0.0663
    3TTP    C36 5614   1.462   1.785   3.799  0.5413  0.2495 -0.4375
    3TTP    C37 5615   1.509   1.872   3.686  0.0017  0.2992 -0.6290
    3TTP    C38 5616   1.651   1.846   3.640 -0.5540 -0.1395 -0.1176
    3TTP    C39 5617   1.732   1.916   3.529 -0.5045 -0.4844  0.3421
    3TTP    C40 5618   1.676   1.913   3.388 -0.1234  0.2835  0.1863
    3TTP    C41 5619   1.786   1.922   3.291  0.0774 -0.5420  0.1406
    3TTP    C42 5620   1.744   1.916   3.142  0.8797  0.4698 -0.8343
    4FIC     F1 5621   1.026  -0.450   3.736  0.0530 -0.1078 -0.2524
    4FIC     F2 5622   1.105  -0.602   3.524 -0.0525  0.0050 -0.3724
    4FIC     O1 5623   0.963   0.032   3.500  0.0416  0.0434  0.0575
    4FIC     N5 5624   1.172  -0.475   3.051 -0.2123  0.2747 -0.3238
    4FIC     N6 5625   1.107  -0.068   2.908 -0.1999  0.3703 -0.0575
    4FIC    C19 5626   1.015   0.059   3.213 -0.0633  0.2047  0.0530
    4FIC    C20 5627   1.028  -0.056   3.281 -0.0563  0.1624 -0.0203
    4FIC    C21 5628   0.999  -0.062   3.428 -0.0011  0.0796 -0.0126
    4FIC    C22 5629   1.023  -0.201   3.470 -0.0079  0.0508 -0.1042
    4FIC    C23 5630   1.010  -0.255   3.597  0.0319 -0.0224 -0.1308
    4FIC    C24 5631   1.038  -0.390   3.613  0.0157 -0.0362 -0.2215
    4FIC    C25 5632   1.078  -0.468   3.503 -0.0386  0.0219 -0.2831
    4FIC    C26 5633   1.092  -0.415   3.376 -0.0785  0.0954 -0.2571
    4FIC    C27 5634   1.064  -0.279   3.358 -0.0630  0.1104 -0.1655
    4FIC    C28 5635   1.068  -0.192   3.238 -0.0949  0.1810 -0.1164
    4FIC    C29 5636   1.104  -0.231   3.111 -0.1496  0.2506 -0.1531
    4FIC    C30 5637   1.141  -0.365   3.078 -0.1839  0.2637 -0.2468
    4FIC    C31 5638   1.105  -0.141   3.000 -0.1770  0.3161 -0.1004
    5FIC     F1 5639   1.971   0.925   4.486 -0.0660 -0.1501 -0.3843
    5FIC     F2 5640   2.017   1.176   4.579 -0.0752 -0.2120 -0.2122
    5FIC     O1 5641   1.605   1.024   4.100  0.0930  0.1257 -0.4647
    5FIC     N5 5642   1.822   1.609   4.438  0.0250 -0.1045 -0.0221
    5FIC     N6 5643   1.527   1.635   4.117  0.1510  0.1236 -0.1197
    5FIC    C19 5644   1.519   1.300   4.052  0.1407  0.1645 -0.3288
    5FIC    C20 5645   1.609   1.265   4.145  0.1011  0.0976 -0.3153
    5FIC    C21 5646   1.649   1.121   4.164  0.0786  0.0818 -0.3884
    5FIC    C22 5647   1.748   1.119   4.273  0.0365  0.0044 -0.3516
    5FIC    C23 5648   1.813   1.008   4.326  0.0044 -0.0351 -0.3945
    5FIC    C24 5649   1.903   1.030   4.429 -0.0329 -0.1078 -0.3459
    5FIC    C25 5650   1.927   1.160   4.477 -0.0375 -0.1396 -0.2573
    5FIC    C26 5651   1.862   1.271   4.424 -0.0056 -0.1005 -0.2141
    5FIC    C27 5652   1.770   1.250   4.320  0.0322 -0.0268 -0.2622
    5FIC    C28 5653   1.686   1.345   4.243  0.0718  0.0292 -0.2364
    5FIC    C29 5654   1.680   1.482   4.261  0.0798  0.0194 -0.1548
    5FIC    C30 5655   1.758   1.551   4.358  0.0496 -0.0487 -0.0822
    5FIC    C31 5656   1.596   1.565   4.182  0.1189  0.0768 -0.1360
    1BTD     S2 5657   2.716   6.741   0.693  0.5228 -0.0608 -0.0869
    1BTD     N1 5658   2.704   6.921   0.684  0.5279 -0.0620 -0.1175
    1BTD     N2 5659   2.662   6.715   0.523  0.3594 -0.0968 -0.0295
    1BTD     N3 5660   2.530   6.985   0.163  0.0356 -0.1720  0.0319
    1BTD     N4 5661   2.582   7.238   0.361  0.2432 -0.1291 -0.0765
    1BTD     C5 5662   2.640   7.084   0.513  0.3768 -0.0976 -0.0948
    1BTD     C6 5663   2.663   6.950   0.562  0.4135 -0.0879 -0.0851
    1BTD     C7 5664   2.639   6.835   0.472  0.3192 -0.1072 -0.0359
    1BTD     C8 5665   2.594   6.859   0.338  0.1929 -0.1357  0.0012
    1BTD    C15 5666   2.573   6.992   0.294  0.1613 -0.1444 -0.0099
    1BTD    C16 5667   2.596   7.102   0.381  0.2521 -0.1254 -0.0573
    1BTD    C43 5668   2.525   7.317   0.250 -0.0221 -0.2187  0.1518
    1BTD    C44 5669   2.371   7.353   0.254  0.1179  0.2664  0.1044
    1BTD    C45 5670   2.283   7.231   0.293  0.2926  0.1605  0.5739
    1BTD    C46 5671   2.132   7.253   0.312 -0.1403 -0.7298 -0.2431
    1BTD    C47 5672   2.323   7.437   0.132 -0.2078 -0.0326 -0.0245
    1BTD    C48 5673   2.388   7.577   0.118 -0.5340  0.4320 -0.2325
    1BTD    C49 5674   2.329   7.666   0.007 -0.0096 -0.1366  0.2829
    1BTD    C50 5675   2.393   7.806  -0.003  0.0576 -0.1657 -0.4963
    1BTD    C75 5676   2.594   7.071   0.063  0.0287  0.1159 -0.1828
    1BTD    C76 5677   2.538   7.079  -0.081 -0.1242  0.3063 -0.7782
    1BTD    C77 5678   2.409   7.157  -0.081 -0.4230  0.0076  0.7322
    1BTD    C78 5679   2.317   7.156  -0.204 -0.2517 -0.1492  0.2438
    1BTD    C79 5680   2.634   7.131  -0.186  0.1110 -0.4224 -0.2686
    1BTD    C80 5681   2.776   7.082  -0.202  0.6120  0.1806  0.1905
    1BTD    C81 5682   2.785   6.930  -0.247 -0.4446 -0.4524 -0.7128
    1BTD    C82 5683   2.928   6.878  -0.275  0.1448 -0.3241 -0.0024
    2TTP     S1 5684   2.711   7.288   0.726  0.1107 -0.0634  0.2234
    2TTP     S5 5685   2.623   7.601   0.446  0.3677 -0.1688  0.0232
    2TTP     C1 5686   2.683   7.677   0.600  0.4210 -0.1198 -0.0217
    2TTP     C2 5687   2.714   7.584   0.695  0.3448 -0.0844  0.0375
    2TTP     C3 5688   2.691   7.451   0.651  0.2415 -0.0947  0.1204
    2TTP     C4 5689   2.651   7.212   0.572  0.0574 -0.1125  0.2683
    2TTP    C17 5690   2.620   7.305   0.476  0.1336 -0.1481  0.2091
    2TTP    C18 5691   2.643   7.438   0.521  0.2369 -0.1374  0.1262
    2TTP    C32 5692   2.770   7.618   0.832 -0.4705  0.0604 -0.1040
    2TTP    C33 5693   2.712   7.562   0.961 -0.0216  0.4207 -0.4635
    2TTP    C34 5694   2.565   7.581   0.989  0.5059 -0.2793  0.0779
    2TTP    C35 5695   2.538   7.528   1.127 -0.3648 -0.0264 -0.0667
    2TTP    C36 5696   2.401   7.559   1.184 -0.0974  0.0362  0.1160
    2TTP    C37 5697   2.371   7.709   1.207  0.2103  0.3197 -0.3024
    2TTP    C38 5698   2.465   7.762   1.317 -0.1561  0.8473  0.4809
    2TTP    C39 5699   2.397   7.888   1.362  0.3988  0.1145 -0.0091
    2TTP    C40 5700   2.466   7.961   1.485  0.2451 -0.4984  0.5011
    2TTP    C41 5701   2.373   8.078   1.513 -0.3539 -0.5856 -0.0371
    2TTP    C42 5702   2.402   8.151   1.652 -0.2897 -0.2260  0.3647
    3TTP     S1 5703   2.524   6.597   0.210  0.0296  0.3765 -0.1914
    3TTP     S5 5704   2.342   6.808  -0.117 -0.3015  0.2693 -0.0775
    3TTP     C1 5705   2.298   6.632  -0.131 -0.1284  0.2281 -0.1025
    3TTP     C2 5706   2.352   6.556  -0.030 -0.0160  0.2589 -0.1391
    3TTP     C3 5707   2.429   6.635   0.061 -0.0625  0.3160 -0.1488
    3TTP     C4 5708   2.567   6.773   0.224 -0.1435  0.4177 -0.1664
    3TTP    C17 5709   2.513   6.849   0.123 -0.2559  0.3870 -0.1298
    3TTP    C18 5710   2.436   6.770   0.032 -0.2095  0.3299 -0.1201
    3TTP    C32 5711   2.344   6.400  -0.007  0.1339 -0.5261  0.0902
    3TTP    C33 5712   2.450   6.309  -0.066  0.2890  0.6908 -0.9255
    3TTP    C34 5713   2.424   6.160  -0.026 -0.3879  0.0521 -0.6580
    3TTP    C35 5714   2.430   6.119   0.125  0.4120 -0.3933  0.3640
    3TTP    C36 5715   2.367   5.984   0.160  0.0867  0.3878  0.0343
    3TTP    C37 5716   2.214   5.957   0.126  0.3834 -1.3557 -0.3779
    3TTP    C38 5717   2.119   6.056   0.195  0.1138  0.6265 -0.4186
    3TTP    C39 5718   2.114   6.062   0.348  0.2112  0.1217 -0.4145
    3TTP    C40 5719   1.990   6.129   0.407  0.3133  1.0626  0.5381
    3TTP    C41 5720   1.993   6.141   0.549  0.1833  0.3408 -0.2984
    3TTP    C42 5721   2.004   6.012   0.638  0.3078 -0.2839  0.1783
    4FIC     F1 5722   2.471   8.360   0.193  0.2896  0.1512 -0.3141
    4FIC     F2 5723   2.575   8.506   0.398 -0.2486  0.1295 -0.0218
    4FIC     O1 5724   2.556   7.856   0.372  0.3295  0.1278 -0.4001
    4FIC     N5 5725   2.786   8.356   0.820 -0.9938  0.0815  0.3372
    4FIC     N6 5726   2.831   7.933   0.918 -0.8543  0.0676  0.2111
    4FIC    C19 5727   2.686   7.816   0.631 -0.1705  0.0986 -0.1513
    4FIC    C20 5728   2.660   7.937   0.578 -0.1595  0.1055 -0.1411
    4FIC    C21 5729   2.593   7.950   0.444  0.1053  0.1203 -0.2740
    4FIC    C22 5730   2.581   8.094   0.417  0.0451  0.1245 -0.2245
    4FIC    C23 5731   2.525   8.155   0.305  0.2262  0.1373 -0.3087
    4FIC    C24 5732   2.524   8.294   0.301  0.1218  0.1389 -0.2375
    4FIC    C25 5733   2.578   8.368   0.407 -0.1556  0.1275 -0.0869
    4FIC    C26 5734   2.634   8.308   0.519 -0.3375  0.1147 -0.0023
    4FIC    C27 5735   2.635   8.168   0.524 -0.2356  0.1130 -0.0724
    4FIC    C28 5736   2.687   8.075   0.628 -0.3723  0.1009 -0.0152
    4FIC    C29 5737   2.747   8.109   0.747 -0.6441  0.0880  0.1274
    4FIC    C30 5738   2.768   8.245   0.787 -0.8355  0.0846  0.2422
    4FIC    C31 5739   2.793   8.012   0.840 -0.7582  0.0770  0.1726
    5FIC     F1 5740   1.770   6.922  -0.692 -0.1700  0.1774  0.2199
    5FIC     F2 5741   1.693   6.666  -0.744  0.4434  0.1273 -0.4745
    5FIC     O1 5742   2.146   6.841  -0.311 -0.5944  0.1127  0.6261
    5FIC     N5 5743   1.851   6.241  -0.547  1.0228  0.0092 -1.1834
    5FIC     N6 5744   2.160   6.229  -0.238  0.5676 -0.0314 -0.7260
    5FIC    C19 5745   2.206   6.568  -0.225 -0.1590  0.0419  0.1070
    5FIC    C20 5746   2.115   6.598  -0.319 -0.0763  0.0601  0.0319
    5FIC    C21 5747   2.089   6.741  -0.358 -0.3135  0.0964  0.3130
    5FIC    C22 5748   1.985   6.739  -0.461 -0.1464  0.1085  0.1433
    5FIC    C23 5749   1.928   6.847  -0.528 -0.2686  0.1408  0.2981
    5FIC    C24 5750   1.830   6.820  -0.622 -0.0647  0.1463  0.0839
    5FIC    C25 5751   1.791   6.688  -0.649  0.2512  0.1204 -0.2738
    5FIC    C26 5752   1.847   6.579  -0.583  0.3746  0.0882 -0.4301
    5FIC    C27 5753   1.946   6.605  -0.487  0.1719  0.0823 -0.2174
    5FIC    C28 5754   2.024   6.513  -0.400  0.2276  0.0513 -0.3000
    5FIC    C29 5755   2.015   6.376  -0.397  0.5073  0.0205 -0.6226
    5FIC    C30 5756   1.925   6.302  -0.479  0.7898  0.0145 -0.9298
    5FIC    C31 5757   2.095   6.296  -0.310  0.5389 -0.0079 -0.6776
    1BTD     S2 5758   1.061   6.748   2.126 -0.2755 -0.0208 -0.1506
    1BTD     N1 5759   1.064   6.927   2.140 -0.1010 -0.0237 -0.1547
    1BTD     N2 5760   1.111   6.720   2.297 -0.2894 -0.0653 -0.1540
    1BTD     N3 5761   1.219   6.986   2.668 -0.0024 -0.1614 -0.1684
    1BTD     N4 5762   1.162   7.241   2.475  0.2297 -0.1101 -0.1695
    1BTD     C5 5763   1.116   7.088   2.317  0.0688 -0.0695 -0.1624
    1BTD     C6 5764   1.101   6.955   2.264 -0.0640 -0.0561 -0.1583
    1BTD     C7 5765   1.127   6.839   2.352 -0.1694 -0.0794 -0.1579
    1BTD     C8 5766   1.167   6.862   2.488 -0.1368 -0.1148 -0.1615
    1BTD    C15 5767   1.180   6.993   2.536 -0.0054 -0.1269 -0.1654
    1BTD    C16 5768   1.155   7.105   2.451  0.0962 -0.1044 -0.1660
    1BTD    C43 5769   1.245   7.318   2.575  0.2507  0.5950  0.3426
    1BTD    C44 5770   1.392   7.320   2.571 -0.7762 -0.3231  0.1898
    1BTD    C45 5771   1.449   7.362   2.705 -0.5869  0.6560  0.2602
    1BTD    C46 5772   1.603   7.321   2.728 -0.0633 -0.4795  0.2568
    1BTD    C47 5773   1.467   7.367   2.443 -0.0964  0.1120 -0.6342
    1BTD    C48 5774   1.496   7.518   2.413  0.2289 -0.1055  0.3293
    1BTD    C49 5775   1.555   7.545   2.279  0.1733  0.0457 -0.6830
    1BTD    C50 5776   1.512   7.690   2.244 -0.2545 -0.1601 -0.0300
    1BTD    C75 5777   1.192   7.088   2.770 -0.1872 -0.0521  0.3315
    1BTD    C76 5778   1.179   7.055   2.918  0.4838  0.7010  0.5701
    1BTD    C77 5779   1.193   7.177   3.010 -0.0888  0.4132  0.0635
    1BTD    C78 5780   1.069   7.269   3.032  0.2983  0.2006  0.0009
    1BTD    C79 5781   1.061   6.963   2.939  0.3162  0.4337  0.8463
    1BTD    C80 5782   1.030   6.913   3.077 -0.2446  0.0043 -0.1115
    1BTD    C81 5783   0.885   6.874   3.104 -0.0990  0.3441  0.6401
    1BTD    C82 5784   0.869   6.845   3.254  0.2770 -0.0659 -0.2257
    2TTP     S1 5785   1.048   7.291   2.102  0.0299  0.2364 -0.0001
    2TTP     S5 5786   1.131   7.609   2.379  0.0129  0.3273 -0.0994
    2TTP     C1 5787   1.084   7.682   2.220  0.1806  0.2747 -0.1732
    2TTP     C2 5788   1.055   7.589   2.125  0.1957  0.2433 -0.1469
    2TTP     C3 5789   1.070   7.455   2.175  0.0754  0.2600 -0.0675
    2TTP     C4 5790   1.095   7.218   2.262 -0.1378  0.2892  0.0736
    2TTP    C17 5791   1.123   7.312   2.357 -0.1529  0.3204  0.0474
    2TTP    C18 5792   1.109   7.445   2.307 -0.0326  0.3037 -0.0320
    2TTP    C32 5793   1.017   7.608   1.978 -0.1608  0.3504 -0.5129
    2TTP    C33 5794   0.881   7.558   1.926  0.0290 -0.6675  0.5270
    2TTP    C34 5795   0.749   7.613   1.998 -0.5497  0.0839  0.2513
    2TTP    C35 5796   0.721   7.767   1.993 -0.4080 -1.0119 -0.4871
    2TTP    C36 5797   0.708   7.843   1.865  0.5301 -0.1953  0.8800
    2TTP    C37 5798   0.734   7.989   1.879  0.1646 -0.1102  0.4365
    2TTP    C38 5799   0.716   8.087   1.764 -0.4130 -0.1306  0.1254
    2TTP    C39 5800   0.811   8.070   1.649  0.1455  0.2299 -0.0845
    2TTP    C40 5801   0.772   8.157   1.534  0.0743 -0.1847  0.0064
    2TTP    C41 5802   0.856   8.170   1.406 -0.0957 -0.1369 -0.7505
    2TTP    C42 5803   0.810   8.286   1.316  0.2182  0.0452 -0.0391
    3TTP     S1 5804   1.273   6.603   2.600 -0.0009  0.0356 -0.3138
    3TTP     S5 5805   1.447   6.832   2.920  0.1706 -0.0086 -0.3752
    3TTP     C1 5806   1.514   6.664   2.926  0.1860 -0.0050 -0.4443
    3TTP     C2 5807   1.465   6.583   2.828  0.1340  0.0088 -0.4293
    3TTP     C3 5808   1.371   6.651   2.744  0.0800  0.0170 -0.3628
    3TTP     C4 5809   1.205   6.772   2.594 -0.0164  0.0318 -0.2447
    3TTP    C17 5810   1.255   6.853   2.692  0.0357  0.0182 -0.2596
    3TTP    C18 5811   1.348   6.784   2.776  0.0896  0.0099 -0.3261
    3TTP    C32 5812   1.500   6.435   2.805  0.0796 -0.1795  0.5261
    3TTP    C33 5813   1.389   6.328   2.792  0.2284  0.0885 -0.1136
    3TTP    C34 5814   1.294   6.307   2.907  0.2840 -0.8376  0.0262
    3TTP    C35 5815   1.193   6.188   2.898 -0.0336  0.4273  0.2894
    3TTP    C36 5816   1.259   6.056   2.862  0.4388  1.3497  0.7481
    3TTP    C37 5817   1.159   5.948   2.823  0.0237  0.2735  0.2076
    3TTP    C38 5818   1.220   5.815   2.818 -0.7756 -0.4400  0.0275
    3TTP    C39 5819   1.123   5.714   2.773 -0.0718 -0.2775  0.1365
    3TTP    C40 5820   1.190   5.579   2.756  0.1994 -0.1322  0.3281
    3TTP    C41 5821   1.076   5.484   2.745  0.0281  0.3537  0.3377
    3TTP    C42 5822   1.124   5.345   2.718 -0.4259  0.2492  0.1932
    4FIC     F1 5823   1.043   8.380   2.640 -0.0249  0.0696 -0.1388
    4FIC     F2 5824   1.131   8.512   2.419  0.2799  0.0496 -0.0314
    4FIC     O1 5825   1.018   7.872   2.453 -0.3738  0.1488 -0.3073
    4FIC     N5 5826   1.238   8.340   1.967  0.4694  0.0772  0.0028
    4FIC     N6 5827   1.201   7.917   1.866  0.1354  0.1431 -0.1505
    4FIC    C19 5828   1.092   7.818   2.175 -0.2065  0.1575 -0.2646
    4FIC    C20 5829   1.095   7.941   2.231 -0.1307  0.1385 -0.2264
    4FIC    C21 5830   1.056   7.961   2.375 -0.2250  0.1351 -0.2518
    4FIC    C22 5831   1.070   8.105   2.403 -0.1061  0.1128 -0.1981
    4FIC    C23 5832   1.045   8.171   2.522 -0.1361  0.1023 -0.1985
    4FIC    C24 5833   1.066   8.308   2.525 -0.0040  0.0807 -0.1417
    4FIC    C25 5834   1.111   8.376   2.411  0.1530  0.0710 -0.0865
    4FIC    C26 5835   1.137   8.310   2.291  0.1839  0.0811 -0.0857
    4FIC    C27 5836   1.116   8.172   2.286  0.0515  0.1028 -0.1428
    4FIC    C28 5837   1.133   8.074   2.176  0.0427  0.1180 -0.1579
    4FIC    C29 5838   1.175   8.101   2.048  0.1707  0.1142 -0.1165
    4FIC    C30 5839   1.210   8.232   2.004  0.3345  0.0939 -0.0510
    4FIC    C31 5840   1.189   8.000   1.949  0.1506  0.1299 -0.1355
    5FIC     F1 5841   2.074   7.015   3.414 -0.1365 -0.0046  0.3055
    5FIC     F2 5842   2.140   6.767   3.505 -0.0873 -0.0358  0.1856
    5FIC     O1 5843   1.692   6.893   3.051 -0.2346  0.1090  0.3704
    5FIC     N5 5844   1.962   6.324   3.377 -0.0866  0.0005  0.0595
    5FIC     N6 5845   1.650   6.278   3.075 -0.1733  0.0955  0.1344
    5FIC    C19 5846   1.619   6.613   3.009 -0.2226  0.1194  0.2789
    5FIC    C20 5847   1.712   6.653   3.097 -0.1998  0.0921  0.2673
    5FIC    C21 5848   1.744   6.799   3.113 -0.2078  0.0885  0.3167
    5FIC    C22 5849   1.850   6.808   3.215 -0.1778  0.0561  0.2888
    5FIC    C23 5850   1.911   6.923   3.264 -0.1733  0.0420  0.3166
    5FIC    C24 5851   2.009   6.906   3.362 -0.1426  0.0109  0.2809
    5FIC    C25 5852   2.042   6.778   3.408 -0.1173 -0.0049  0.2191
    5FIC    C26 5853   1.981   6.663   3.360 -0.1216  0.0091  0.1910
    5FIC    C27 5854   1.882   6.678   3.261 -0.1525  0.0404  0.2264
    5FIC    C28 5855   1.799   6.578   3.190 -0.1650  0.0619  0.2108
    5FIC    C29 5856   1.803   6.442   3.208 -0.1477  0.0550  0.1548
    5FIC    C30 5857   1.890   6.377   3.301 -0.1142  0.0249  0.1025
    5FIC    C31 5858   1.718   6.353   3.134 -0.1619  0.0772  0.1439
    1BTD     S2 5859   0.091   3.826   3.194  0.2270  0.4330  0.0823
    1BTD     N1 5860   0.104   3.647   3.192  0.2365  0.4354 -0.0948
    1BTD     N2 5861   0.150   3.843   3.363  0.0798  0.2589  0.1519
    1BTD     N3 5862   0.294   3.554   3.703 -0.2032 -0.0917 -0.0259
    1BTD     N4 5863   0.236   3.312   3.493 -0.0101  0.1256 -0.3299
    1BTD     C5 5864   0.173   3.475   3.351  0.1054  0.2710 -0.2139
    1BTD     C6 5865   0.149   3.611   3.311  0.1347  0.3125 -0.0930
    1BTD     C7 5866   0.175   3.721   3.407  0.0470  0.2138  0.0451
    1BTD     C8 5867   0.224   3.689   3.538 -0.0657  0.0784  0.0554
    1BTD    C15 5868   0.247   3.555   3.573 -0.0904  0.0423 -0.0657
    1BTD    C16 5869   0.222   3.449   3.481 -0.0059  0.1375 -0.1988
    1BTD    C43 5870   0.318   3.236   3.591  0.7459 -0.0020 -0.7194
    1BTD    C44 5871   0.467   3.212   3.550 -0.5402 -0.5535  0.3821
    1BTD    C45 5872   0.548   3.342   3.515  0.2746 -0.1302  0.4338
    1BTD    C46 5873   0.688   3.331   3.448  0.4641 -0.0336  0.5146
    1BTD    C47 5874   0.536   3.101   3.642 -0.4548 -0.7398 -0.3527
    1BTD    C48 5875   0.477   2.962   3.660  0.5637 -0.2973  0.3846
    1BTD    C49 5876   0.553   2.880   3.759 -0.3133  0.5423  0.4249
    1BTD    C50 5877   0.478   2.753   3.774  0.4347  0.2210 -0.0711
    1BTD    C75 5878   0.253   3.460   3.809  0.0409 -0.2761 -0.0885
    1BTD    C76 5879   0.327   3.425   3.937 -0.1897 -0.4781  0.9413
    1BTD    C77 5880   0.470   3.391   3.896 -0.1536  0.7515 -0.2680
    1BTD    C78 5881   0.560   3.352   4.016 -0.0391  0.5927  0.2262
    1BTD    C79 5882   0.249   3.321   4.018 -0.1300 -0.3200 -0.0601
    1BTD    C80 5883   0.111   3.368   4.082 -0.4986 -0.1876 -0.1491
    1BTD    C81 5884   0.029   3.251   4.136 -0.6193 -0.1179  0.2530
    1BTD    C82 5885   0.091   3.179   4.256  0.9734 -0.6352  0.1219
    2TTP     S1 5886   0.123   3.287   3.119  0.1147  0.0020  0.2039
    2TTP     S5 5887   0.216   2.955   3.377  0.5002 -0.1226 -0.0949
    2TTP     C1 5888   0.180   2.891   3.210  0.5232 -0.0187 -0.1399
    2TTP     C2 5889   0.149   2.990   3.121  0.4055  0.0259 -0.0502
    2TTP     C3 5890   0.153   3.119   3.181  0.2929 -0.0203  0.0571
    2TTP     C4 5891   0.158   3.351   3.286  0.0917 -0.1019  0.2488
    2TTP    C17 5892   0.189   3.252   3.375  0.2095 -0.1465  0.1592
    2TTP    C18 5893   0.186   3.122   3.315  0.3220 -0.1003  0.0518
    2TTP    C32 5894   0.140   2.972   2.966 -0.1381 -0.1828 -0.5086
    2TTP    C33 5895  -0.001   2.960   2.908  0.0588 -0.2980  0.2681
    2TTP    C34 5896  -0.087   2.846   2.956 -0.5992 -0.5934 -0.1032
    2TTP    C35 5897  -0.231   2.855   2.904 -0.0743  0.4542 -0.4765
    2TTP    C36 5898  -0.332   2.780   2.994  0.3360 -0.6281  0.0094
    2TTP    C37 5899  -0.480   2.773   2.945 -0.1864 -0.6994  0.0361
    2TTP    C38 5900  -0.558   2.686   3.044  0.1494 -0.0943  0.0353
    2TTP    C39 5901  -0.577   2.755   3.177 -0.2199  0.3791  0.5866
    2TTP    C40 5902  -0.602   2.668   3.303 -0.3171  0.2632 -0.1460
    2TTP    C41 5903  -0.494   2.556   3.341  0.4767 -0.5580  0.4702
    2TTP    C42 5904  -0.522   2.491   3.474  0.2854  0.0251 -0.0237
    3TTP     S1 5905   0.292   3.944   3.680  0.3942 -0.0755 -0.1312
    3TTP     S5 5906   0.475   3.718   3.997 -0.3101 -0.4268  0.0268
    3TTP     C1 5907   0.504   3.895   4.028  0.0207 -0.4830  0.0400
    3TTP     C2 5908   0.449   3.975   3.932  0.2577 -0.3778 -0.0079
    3TTP     C3 5909   0.382   3.900   3.831  0.1866 -0.2490 -0.0569
    3TTP     C4 5910   0.263   3.767   3.650  0.0634 -0.0193 -0.1444
    3TTP    C17 5911   0.317   3.687   3.746 -0.1735 -0.1245 -0.0965
    3TTP    C18 5912   0.384   3.762   3.847 -0.1024 -0.2532 -0.0475
    3TTP    C32 5913   0.460   4.126   3.918  0.1999  0.1657 -0.0627
    3TTP    C33 5914   0.331   4.200   3.947 -0.2009 -0.2886  0.4470
    3TTP    C34 5915   0.347   4.360   3.921  0.2135 -0.4231 -0.3146
    3TTP    C35 5916   0.371   4.394   3.776  0.4323  0.2444  0.2235
    3TTP    C36 5917   0.415   4.531   3.753 -0.5132 -0.5057  0.1227
    3TTP    C37 5918   0.447   4.571   3.606  0.2795  0.1822 -0.3548
    3TTP    C38 5919   0.588   4.541   3.564 -0.3411  0.2553  0.1268
    3TTP    C39 5920   0.610   4.579   3.420 -0.4888  0.9341  0.1654
    3TTP    C40 5921   0.737   4.499   3.379  0.4589 -0.4414  0.1904
    3TTP    C41 5922   0.792   4.552   3.243  0.7929 -0.3113 -0.2403
    3TTP    C42 5923   0.923   4.479   3.203  1.3165  0.0590 -0.0461
    4FIC     F1 5924   0.307   2.180   3.594  0.1771 -0.0959  0.0187
    4FIC     F2 5925   0.386   2.074   3.356  0.2101 -0.0755  0.0209
    4FIC     O1 5926   0.168   2.680   3.441 -0.0463 -0.1645 -0.0036
    4FIC     N5 5927   0.402   2.278   2.906  0.0983 -0.0953  0.0080
    4FIC     N6 5928   0.277   2.690   2.834 -0.0830 -0.1530 -0.0098
    4FIC    C19 5929   0.195   2.757   3.160 -0.0942 -0.1695 -0.0095
    4FIC    C20 5930   0.226   2.635   3.208 -0.0392 -0.1530 -0.0040
    4FIC    C21 5931   0.210   2.603   3.354 -0.0178 -0.1515 -0.0012
    4FIC    C22 5932   0.253   2.463   3.371  0.0433 -0.1318  0.0048
    4FIC    C23 5933   0.256   2.389   3.489  0.0813 -0.1237  0.0090
    4FIC    C24 5934   0.301   2.258   3.481  0.1372 -0.1048  0.0144
    4FIC    C25 5935   0.342   2.204   3.358  0.1541 -0.0944  0.0154
    4FIC    C26 5936   0.340   2.277   3.240  0.1163 -0.1024  0.0113
    4FIC    C27 5937   0.294   2.410   3.247  0.0596 -0.1215  0.0057
    4FIC    C28 5938   0.279   2.513   3.141  0.0095 -0.1341  0.0005
    4FIC    C29 5939   0.309   2.499   3.008  0.0087 -0.1292 -0.0002
    4FIC    C30 5940   0.360   2.377   2.952  0.0579 -0.1105  0.0043
    4FIC    C31 5941   0.291   2.604   2.913 -0.0417 -0.1423 -0.0055
    5FIC     F1 5942   1.078   3.624   4.550  0.0231 -0.1284  0.0684
    5FIC     F2 5943   1.152   3.882   4.594  0.0735 -0.1451  0.0813
    5FIC     O1 5944   0.669   3.692   4.201 -0.0725 -0.0224  0.2009
    5FIC     N5 5945   0.966   4.302   4.408  0.0776 -0.0935  0.1942
    5FIC     N6 5946   0.632   4.303   4.127 -0.0073 -0.0073  0.2952
    5FIC    C19 5947   0.595   3.963   4.119 -0.0583 -0.0005  0.2603
    5FIC    C20 5948   0.695   3.936   4.205 -0.0363 -0.0266  0.2264
    5FIC    C21 5949   0.727   3.794   4.242 -0.0454 -0.0364  0.1973
    5FIC    C22 5950   0.840   3.800   4.337 -0.0159 -0.0654  0.1642
    5FIC    C23 5951   0.905   3.694   4.399 -0.0124 -0.0831  0.1301
    5FIC    C24 5952   1.009   3.725   4.485  0.0180 -0.1099  0.1027
    5FIC    C25 5953   1.047   3.858   4.507  0.0438 -0.1184  0.1095
    5FIC    C26 5954   0.983   3.964   4.446  0.0405 -0.1008  0.1433
    5FIC    C27 5955   0.877   3.935   4.358  0.0100 -0.0736  0.1714
    5FIC    C28 5956   0.789   4.024   4.278 -0.0016 -0.0502  0.2099
    5FIC    C29 5957   0.794   4.161   4.273  0.0166 -0.0503  0.2270
    5FIC    C30 5958   0.889   4.238   4.347  0.0501 -0.0740  0.2089
    5FIC    C31 5959   0.705   4.239   4.193  0.0033 -0.0266  0.2644
    1BTD     S2 5960   1.697   3.779   1.706 -0.1841 -0.1473 -0.1493
    1BTD     N1 5961   1.686   3.600   1.700 -0.1588 -0.1501 -0.1113
    1BTD     N2 5962   1.643   3.803   1.536 -0.2214 -0.1892 -0.1433
    1BTD     N3 5963   1.512   3.527   1.179 -0.2519 -0.2797 -0.0622
    1BTD     N4 5964   1.565   3.277   1.381 -0.1747 -0.2316 -0.0228
    1BTD     C5 5965   1.622   3.434   1.531 -0.1681 -0.1933 -0.0656
    1BTD     C6 5966   1.644   3.568   1.578 -0.1785 -0.1806 -0.0968
    1BTD     C7 5967   1.620   3.682   1.486 -0.2135 -0.2025 -0.1146
    1BTD     C8 5968   1.575   3.656   1.352 -0.2365 -0.2359 -0.1004
    1BTD    C15 5969   1.555   3.523   1.311 -0.2251 -0.2472 -0.0698
    1BTD    C16 5970   1.578   3.413   1.399 -0.1913 -0.2262 -0.0526
    1BTD    C43 5971   1.469   3.209   1.290  0.3144 -0.4493  0.2851
    1BTD    C44 5972   1.319   3.226   1.316 -0.4165  0.5164  0.0378
    1BTD    C45 5973   1.245   3.163   1.197  0.2419 -0.8160 -0.2678
    1BTD    C46 5974   1.101   3.214   1.177 -0.1323 -0.0926  0.0361
    1BTD    C47 5975   1.265   3.183   1.457  0.0028  0.9636  0.0582
    1BTD    C48 5976   1.259   3.030   1.484  0.1361 -0.1373 -0.3900
    1BTD    C49 5977   1.187   3.002   1.612  0.5178  0.1038  0.1089
    1BTD    C50 5978   1.224   2.867   1.677 -0.2789 -0.3024 -0.2583
    1BTD    C75 5979   1.521   3.430   1.072  0.7478 -0.1242 -0.0570
    1BTD    C76 5980   1.643   3.421   0.980  0.4759 -0.2681  0.1656
    1BTD    C77 5981   1.633   3.293   0.889 -0.1405 -0.4883  0.1386
    1BTD    C78 5982   1.537   3.293   0.765 -0.1089 -0.3481 -0.2116
    1BTD    C79 5983   1.686   3.559   0.905  0.7267  0.5150  0.3661
    1BTD    C80 5984   1.822   3.554   0.843  0.8141  0.2170  0.3672
    1BTD    C81 5985   1.862   3.678   0.759  0.1166  0.0613  0.1557
    1BTD    C82 5986   2.001   3.664   0.701  0.7621 -0.1771  0.0391
    2TTP     S1 5987   1.713   3.226   1.741  0.2701 -0.2762  0.0327
    2TTP     S5 5988   1.594   2.915   1.468 -0.0934 -0.1561  0.0541
    2TTP     C1 5989   1.663   2.838   1.617 -0.2110 -0.2277  0.0717
    2TTP     C2 5990   1.704   2.929   1.710 -0.1056 -0.2690  0.0661
    2TTP     C3 5991   1.682   3.063   1.667  0.0717 -0.2456  0.0478
    2TTP     C4 5992   1.644   3.303   1.592  0.3877 -0.2046  0.0151
    2TTP    C17 5993   1.603   3.212   1.499  0.2824 -0.1633  0.0207
    2TTP    C18 5994   1.625   3.078   1.542  0.1050 -0.1866  0.0390
    2TTP    C32 5995   1.766   2.898   1.844  0.1378  0.2037 -0.4778
    2TTP    C33 5996   1.907   2.954   1.862 -0.5244  0.2618  0.2787
    2TTP    C34 5997   1.976   2.947   1.997 -0.0437 -0.1500 -0.3945
    2TTP    C35 5998   1.892   3.004   2.106  0.0089 -0.3695  0.1822
    2TTP    C36 5999   1.950   2.985   2.246 -0.2032  0.2408 -0.0564
    2TTP    C37 6000   1.850   3.013   2.366 -0.5332  0.3339  0.3519
    2TTP    C38 6001   1.819   3.165   2.396  0.5253  0.1312 -0.5171
    2TTP    C39 6002   1.715   3.186   2.510  0.2516  0.3659 -0.1735
    2TTP    C40 6003   1.611   3.296   2.472  0.1409  0.0371  0.1737
    2TTP    C41 6004   1.510   3.266   2.356  0.3315  0.0506 -0.1480
    2TTP    C42 6005   1.399   3.376   2.352 -0.0775 -0.7164 -0.0910
    3TTP     S1 6006   1.473   3.911   1.225 -0.1276 -0.3339 -0.0915
    3TTP     S5 6007   1.287   3.682   0.911 -0.2226 -0.0268 -0.2601
    3TTP     C1 6008   1.241   3.857   0.891 -0.2632 -0.0124 -0.0499
    3TTP     C2 6009   1.295   3.938   0.987 -0.2362 -0.1065  0.0146
    3TTP     C3 6010   1.376   3.865   1.079 -0.1825 -0.1932 -0.0997
    3TTP     C4 6011   1.519   3.736   1.245 -0.0870 -0.3482 -0.3017
    3TTP    C17 6012   1.465   3.655   1.150 -0.1139 -0.2542 -0.3662
    3TTP    C18 6013   1.384   3.728   1.057 -0.1676 -0.1675 -0.2519
    3TTP    C32 6014   1.282   4.091   0.991 -0.3314 -0.2194  0.3886
    3TTP    C33 6015   1.395   4.174   0.917  0.0960  0.1060 -0.2778
    3TTP    C34 6016   1.382   4.325   0.935 -0.0736 -0.0230  0.0794
    3TTP    C35 6017   1.497   4.401   0.859  0.2821  0.4979  0.1742
    3TTP    C36 6018   1.486   4.552   0.871  0.3912  0.2004 -0.1640
    3TTP    C37 6019   1.510   4.607   1.012  0.2957 -0.0277  0.2992
    3TTP    C38 6020   1.491   4.760   0.996  0.3249  0.8703  0.1180
    3TTP    C39 6021   1.510   4.837   1.121  0.2769 -0.1978  0.0033
    3TTP    C40 6022   1.497   4.983   1.103  0.0155 -0.8318 -0.0563
    3TTP    C41 6023   1.544   5.063   1.224 -0.6706  0.5319  0.1228
    3TTP    C42 6024   1.518   5.214   1.219 -0.0653 -0.4884  0.3740
    4FIC     F1 6025   1.556   2.143   1.175  0.1370 -0.2154 -0.0798
    4FIC     F2 6026   1.631   2.001   1.395  0.0515 -0.1874 -0.0325
    4FIC     O1 6027   1.593   2.650   1.362  0.2331 -0.1844 -0.1828
    4FIC     N5 6028   1.766   2.159   1.844 -0.0030 -0.1252 -0.0378
    4FIC     N6 6029   1.780   2.583   1.946  0.0894 -0.1066 -0.1279
    4FIC    C19 6030   1.678   2.695   1.638  0.1856 -0.1467 -0.1742
    4FIC    C20 6031   1.666   2.573   1.583  0.1647 -0.1555 -0.1501
    4FIC    C21 6032   1.622   2.558   1.440  0.1915 -0.1750 -0.1564
    4FIC    C22 6033   1.619   2.413   1.412  0.1586 -0.1804 -0.1253
    4FIC    C23 6034   1.584   2.350   1.292  0.1674 -0.1972 -0.1191
    4FIC    C24 6035   1.589   2.212   1.290  0.1307 -0.1991 -0.0876
    4FIC    C25 6036   1.628   2.139   1.403  0.0867 -0.1848 -0.0633
    4FIC    C26 6037   1.663   2.201   1.522  0.0777 -0.1680 -0.0693
    4FIC    C27 6038   1.658   2.341   1.527  0.1144 -0.1656 -0.1010
    4FIC    C28 6039   1.689   2.436   1.637  0.1164 -0.1499 -0.1153
    4FIC    C29 6040   1.730   2.404   1.764  0.0803 -0.1331 -0.0993
    4FIC    C30 6041   1.749   2.269   1.808  0.0347 -0.1288 -0.0656
    4FIC    C31 6042   1.757   2.503   1.863  0.0855 -0.1187 -0.1151
    5FIC     F1 6043   0.648   3.525   0.422 -0.3509 -0.0851  0.6660
    5FIC     F2 6044   0.598   3.773   0.322  0.4236 -0.3666 -0.4559
    5FIC     O1 6045   1.051   3.633   0.767 -0.6045  0.3453  0.8287
    5FIC     N5 6046   0.813   4.207   0.424  1.3563 -0.4641 -1.9529
    5FIC     N6 6047   1.138   4.241   0.713  1.0020 -0.0712 -1.5996
    5FIC    C19 6048   1.146   3.909   0.794  0.0453  0.2293 -0.1853
    5FIC    C20 6049   1.047   3.872   0.711  0.0789  0.1321 -0.1824
    5FIC    C21 6050   1.003   3.728   0.703 -0.2687  0.2006  0.3559
    5FIC    C22 6051   0.894   3.723   0.604 -0.1310  0.0628  0.2097
    5FIC    C23 6052   0.822   3.611   0.563 -0.3482  0.0665  0.5697
    5FIC    C24 6053   0.723   3.631   0.468 -0.1539 -0.0798  0.3341
    5FIC    C25 6054   0.697   3.759   0.416  0.2451 -0.2247 -0.2440
    5FIC    C26 6055   0.769   3.871   0.457  0.4635 -0.2291 -0.6057
    5FIC    C27 6056   0.870   3.853   0.553  0.2720 -0.0823 -0.3749
    5FIC    C28 6057   0.962   3.949   0.617  0.4168 -0.0455 -0.6389
    5FIC    C29 6058   0.969   4.084   0.593  0.7924 -0.1551 -1.1992
    5FIC    C30 6059   0.883   4.151   0.500  1.1011 -0.3246 -1.6116
    5FIC    C31 6060   1.062   4.170   0.659  0.9055 -0.1084 -1.4162
    1BTD     S2 6061   0.414   9.414   0.342 -0.3265 -0.1506  0.1467
    1BTD     N1 6062   0.450   9.590   0.336 -0.4605 -0.1230  0.1240
    1BTD     N2 6063   0.465   9.394   0.513 -0.1056 -0.1347  0.0834
    1BTD     N3 6064   0.635   9.670   0.852  0.1025 -0.0536 -0.0864
    1BTD     N4 6065   0.617   9.912   0.634 -0.3348 -0.0393 -0.0365
    1BTD     C5 6066   0.538   9.755   0.495 -0.3896 -0.0799  0.0396
    1BTD     C6 6067   0.496   9.623   0.456 -0.3400 -0.1049  0.0730
    1BTD     C7 6068   0.504   9.513   0.555 -0.1413 -0.1113  0.0504
    1BTD     C8 6069   0.553   9.541   0.688 -0.0022 -0.0920 -0.0047
    1BTD    C15 6070   0.592   9.672   0.721 -0.0573 -0.0682 -0.0359
    1BTD    C16 6071   0.585   9.778   0.625 -0.2487 -0.0617 -0.0141
    1BTD    C43 6072   0.707   9.993   0.723  0.2783  0.5529 -0.1204
    1BTD    C44 6073   0.861  10.008   0.681  0.1933 -0.0864 -0.3631
    1BTD    C45 6074   0.926   9.885   0.621  0.0584 -0.1278  0.8351
    1BTD    C46 6075   1.061   9.889   0.551  0.1460 -0.3735  0.3321
    1BTD    C47 6076   0.942  10.089   0.782 -0.9581  0.0656  0.7257
    1BTD    C48 6077   0.994  10.022   0.903 -0.1214  0.3254 -0.0285
    1BTD    C49 6078   1.070  10.131   0.976 -0.1732  0.3680 -0.2336
    1BTD    C50 6079   1.142  10.062   1.104 -0.4211  0.1934 -0.0092
    1BTD    C75 6080   0.687   9.777   0.940  0.4299  0.1512 -0.2834
    1BTD    C76 6081   0.580   9.837   1.041 -0.1279  0.7250 -0.3475
    1BTD    C77 6082   0.629   9.927   1.149 -0.3242 -0.5605 -0.3611
    1BTD    C78 6083   0.753   9.888   1.230  0.2957 -0.4196  0.0934
    1BTD    C79 6084   0.447   9.887   0.980  0.5181 -0.2924 -0.0087
    1BTD    C80 6085   0.326   9.887   1.069 -0.5572  0.2079 -0.7860
    1BTD    C81 6086   0.252   9.756   1.063  0.0157 -0.4031 -0.3612
    1BTD    C82 6087   0.162   9.754   1.182  0.2748 -0.2004  0.2789
    2TTP     S1 6088   0.497   9.950   0.265  0.0149 -0.1879 -0.0461
    2TTP     S5 6089   0.656  10.266   0.509  0.0469  0.0176 -0.3321
    2TTP     C1 6090   0.615  10.334   0.346  0.0253 -0.1194 -0.3842
    2TTP     C2 6091   0.563  10.241   0.261  0.0141 -0.1912 -0.2989
    2TTP     C3 6092   0.554  10.112   0.322  0.0223 -0.1402 -0.1894
    2TTP     C4 6093   0.537   9.882   0.429  0.0366 -0.0505  0.0059
    2TTP    C17 6094   0.589   9.976   0.514  0.0477  0.0209 -0.0794
    2TTP    C18 6095   0.598  10.105   0.453  0.0396 -0.0303 -0.1888
    2TTP    C32 6096   0.513  10.250   0.116  0.6240 -0.4751  0.0116
    2TTP    C33 6097   0.377  10.314   0.097 -0.1247  0.0091  0.7104
    2TTP    C34 6098   0.333  10.277  -0.041 -0.1255  0.0190  0.6132
    2TTP    C35 6099   0.204  10.337  -0.090  0.0360 -0.5134 -0.0989
    2TTP    C36 6100   0.077  10.306  -0.008  0.3635 -0.0479  0.4738
    2TTP    C37 6101  -0.050  10.378  -0.045  0.0666  0.3289  0.3449
    2TTP    C38 6102  -0.075  10.523  -0.005 -0.1062 -0.5938 -0.2230
    2TTP    C39 6103  -0.058  10.564   0.139 -0.0302  0.3864 -0.1365
    2TTP    C40 6104  -0.078  10.709   0.166  0.3399  0.0575  0.2209
    2TTP    C41 6105  -0.072  10.756   0.311 -0.2097 -0.5251  0.1624
    2TTP    C42 6106  -0.094  10.908   0.333  0.9395 -0.3082  0.0251
    3TTP     S1 6107   0.584   9.284   0.835  0.0873  0.0324 -0.0502
    3TTP     S5 6108   0.808   9.488   1.139  0.1574 -0.0374 -0.0548
    3TTP     C1 6109   0.824   9.309   1.166 -0.0397 -0.0412  0.0479
    3TTP     C2 6110   0.756   9.235   1.073 -0.0730 -0.0198  0.0553
    3TTP     C3 6111   0.688   9.318   0.978  0.0560  0.0002 -0.0197
    3TTP     C4 6112   0.567   9.463   0.808  0.2844  0.0362 -0.1528
    3TTP    C17 6113   0.636   9.537   0.901  0.3177  0.0145 -0.1603
    3TTP    C18 6114   0.703   9.454   0.996  0.1887 -0.0057 -0.0852
    3TTP    C32 6115   0.740   9.078   1.061 -0.4177 -0.5413 -0.2462
    3TTP    C33 6116   0.601   9.023   1.061  0.1000 -0.7485 -0.1437
    3TTP    C34 6117   0.601   8.873   1.055 -0.3372  0.0794  0.0092
    3TTP    C35 6118   0.657   8.806   0.936  0.0319 -0.2911  0.5045
    3TTP    C36 6119   0.634   8.656   0.937  0.2685  0.7818 -0.3536
    3TTP    C37 6120   0.496   8.589   0.938 -0.2880 -0.0004 -0.2945
    3TTP    C38 6121   0.386   8.640   0.838  0.2239 -0.4501 -0.0731
    3TTP    C39 6122   0.413   8.626   0.689 -0.3228 -0.3706  0.2635
    3TTP    C40 6123   0.311   8.683   0.584  0.6359  0.5176 -0.2253
    3TTP    C41 6124   0.311   8.835   0.570 -0.1051  0.2817 -0.5501
    3TTP    C42 6125   0.209   8.899   0.471  0.2973  0.0413 -0.8819
    4FIC     F1 6126   0.742  11.037   0.750 -0.0782  0.1135  0.0298
    4FIC     F2 6127   0.753  11.165   0.510  0.8658 -0.0665 -0.0294
    4FIC     O1 6128   0.649  10.528   0.590 -0.5333  0.1724  0.1041
    4FIC     N5 6129   0.703  10.986   0.051  1.8986 -0.2832 -0.0615
    4FIC     N6 6130   0.629  10.563  -0.025  1.3527 -0.2010  0.0085
    4FIC    C19 6131   0.627  10.470   0.304  0.2069  0.0212  0.0739
    4FIC    C20 6132   0.650  10.593   0.354  0.2845  0.0136  0.0575
    4FIC    C21 6133   0.660  10.615   0.502 -0.1142  0.0942  0.0747
    4FIC    C22 6134   0.685  10.759   0.521  0.0914  0.0622  0.0500
    4FIC    C23 6135   0.702  10.827   0.642 -0.1407  0.1128  0.0543
    4FIC    C24 6136   0.724  10.964   0.635  0.1288  0.0678  0.0272
    4FIC    C25 6137   0.730  11.029   0.511  0.6150 -0.0251 -0.0033
    4FIC    C26 6138   0.714  10.962   0.391  0.8490 -0.0761 -0.0078
    4FIC    C27 6139   0.691  10.824   0.396  0.5821 -0.0312  0.0194
    4FIC    C28 6140   0.669  10.724   0.288  0.7201 -0.0651  0.0228
    4FIC    C29 6141   0.668  10.749   0.152  1.1663 -0.1526 -0.0015
    4FIC    C30 6142   0.687  10.879   0.097  1.5674 -0.2241 -0.0344
    4FIC    C31 6143   0.646  10.646   0.056  1.2662 -0.1788  0.0041
    5FIC     F1 6144   1.385   9.534   1.723  0.0838  0.0310 -0.1405
    5FIC     F2 6145   1.458   9.273   1.743 -0.3849 -0.0646  0.3774
    5FIC     O1 6146   0.985   9.501   1.360  0.1881  0.0632 -0.2586
    5FIC     N5 6147   1.278   8.873   1.514 -0.9843 -0.1783  1.0377
    5FIC     N6 6148   0.951   8.900   1.226 -0.8083 -0.1338  0.8409
    5FIC    C19 6149   0.913   9.239   1.250 -0.2226 -0.0163  0.1942
    5FIC    C20 6150   1.011   9.258   1.341 -0.2305 -0.0207  0.2036
    5FIC    C21 6151   1.042   9.395   1.392 -0.0118  0.0222 -0.0375
    5FIC    C22 6152   1.153   9.380   1.488 -0.0823  0.0048  0.0411
    5FIC    C23 6153   1.216   9.480   1.562  0.0600  0.0312 -0.1155
    5FIC    C24 6154   1.318   9.441   1.647 -0.0466  0.0070  0.0029
    5FIC    C25 6155   1.356   9.306   1.657 -0.2881 -0.0424  0.2698
    5FIC    C26 6156   1.293   9.206   1.584 -0.4312 -0.0689  0.4272
    5FIC    C27 6157   1.189   9.243   1.498 -0.3264 -0.0446  0.3108
    5FIC    C28 6158   1.103   9.163   1.407 -0.4271 -0.0625  0.4213
    5FIC    C29 6159   1.109   9.027   1.389 -0.6583 -0.1085  0.6765
    5FIC    C30 6160   1.202   8.943   1.457 -0.8368 -0.1469  0.8742
    5FIC    C31 6161   1.022   8.958   1.299 -0.7395 -0.1223  0.7655
    1BTD     S2 6162   1.585   9.404   2.671 -0.0205  0.1559 -0.2194
    1BTD     N1 6163   1.584   9.584   2.670  0.1732  0.1566 -0.2950
    1BTD     N2 6164   1.512   9.388   2.507 -0.2772  0.1633 -0.1070
    1BTD     N3 6165   1.363   9.681   2.172 -0.4505  0.1810 -0.0151
    1BTD     N4 6166   1.451   9.922   2.373  0.1045  0.1726 -0.2468
    1BTD     C5 6167   1.514   9.758   2.512  0.1306  0.1652 -0.2671
    1BTD     C6 6168   1.532   9.621   2.554  0.0433  0.1624 -0.2359
    1BTD     C7 6169   1.492   9.512   2.463 -0.2088  0.1662 -0.1306
    1BTD     C8 6170   1.435   9.544   2.335 -0.3610  0.1724 -0.0618
    1BTD    C15 6171   1.419   9.679   2.298 -0.2677  0.1746 -0.0958
    1BTD    C16 6172   1.457   9.785   2.386 -0.0248  0.1714 -0.1971
    1BTD    C43 6173   1.362  10.003   2.287  0.3656  0.2346 -1.0330
    1BTD    C44 6174   1.209  10.008   2.320 -0.7464  0.3180  0.3507
    1BTD    C45 6175   1.118  10.066   2.208  0.2398 -0.0573  0.3707
    1BTD    C46 6176   1.117   9.992   2.075 -0.3665 -0.4705 -0.2422
    1BTD    C47 6177   1.163  10.043   2.462 -0.0705 -0.3193 -0.2010
    1BTD    C48 6178   1.142  10.188   2.503 -0.1216 -0.1373  0.7687
    1BTD    C49 6179   1.083  10.203   2.639 -0.1018  0.0134  0.4262
    1BTD    C50 6180   1.045  10.343   2.678  0.5809  0.5404 -0.1054
    1BTD    C75 6181   1.375   9.789   2.064 -0.2220  1.3383  0.2782
    1BTD    C76 6182   1.475   9.773   1.944  0.2141  0.2324 -0.2279
    1BTD    C77 6183   1.437   9.879   1.838  0.1763 -0.4198  0.0196
    1BTD    C78 6184   1.308   9.848   1.768  0.6352 -0.1646  0.4055
    1BTD    C79 6185   1.614   9.761   2.002 -0.2762 -0.3366  0.4993
    1BTD    C80 6186   1.726   9.722   1.903  0.1676 -0.4423 -0.6136
    1BTD    C81 6187   1.711   9.588   1.827  0.1376  0.0342  0.6772
    1BTD    C82 6188   1.773   9.606   1.693  0.2569  0.2862  0.4544
    2TTP     S1 6189   1.609   9.947   2.729 -0.2063  0.0062  0.2397
    2TTP     S5 6190   1.495  10.278   2.479  0.3590 -0.2398 -0.3515
    2TTP     C1 6191   1.561  10.343   2.636 -0.0444 -0.0861 -0.2432
    2TTP     C2 6192   1.600  10.245   2.722 -0.2427 -0.0012 -0.0544
    2TTP     C3 6193   1.579  10.114   2.668 -0.0832 -0.0544  0.0117
    2TTP     C4 6194   1.543   9.882   2.572  0.1971 -0.1478  0.1314
    2TTP    C17 6195   1.504   9.980   2.486  0.3955 -0.2328 -0.0575
    2TTP    C18 6196   1.525  10.111   2.540  0.2360 -0.1795 -0.1236
    2TTP    C32 6197   1.653  10.271   2.866  0.5523  0.1046 -0.2339
    2TTP    C33 6198   1.806  10.256   2.868  0.1603  0.0149 -0.4770
    2TTP    C34 6199   1.892  10.375   2.837  0.4599  0.6717  0.7402
    2TTP    C35 6200   1.850  10.519   2.886 -0.0521  0.0236  0.2816
    2TTP    C36 6201   1.850  10.533   3.037 -0.7873 -0.7684 -0.9251
    2TTP    C37 6202   1.796  10.678   3.084 -0.2620  0.4940 -0.6213
    2TTP    C38 6203   1.835  10.700   3.231  0.3439  0.6440  0.0586
    2TTP    C39 6204   1.790  10.824   3.289  1.0271 -0.5264  0.3655
    2TTP    C40 6205   1.817  10.821   3.436 -0.7130  0.8652  0.6953
    2TTP    C41 6206   1.790  10.956   3.503 -0.2017 -0.0561  0.0347
    2TTP    C42 6207   1.790  10.960   3.657  0.4029  0.0758 -0.1427
    3TTP     S1 6208   1.337   9.288   2.202 -0.4498 -0.0161  0.0056
    3TTP     S5 6209   1.125   9.534   1.921  0.1932  0.1433 -0.3419
    3TTP     C1 6210   1.073   9.362   1.898  0.1912  0.1658 -0.5109
    3TTP     C2 6211   1.135   9.275   1.983 -0.0075  0.1178 -0.4136
    3TTP     C3 6212   1.226   9.343   2.070 -0.1653  0.0618 -0.2021
    3TTP     C4 6213   1.390   9.460   2.225 -0.4478 -0.0389  0.1746
    3TTP    C17 6214   1.328   9.547   2.140 -0.2490  0.0091  0.0773
    3TTP    C18 6215   1.236   9.480   2.053 -0.0913  0.0656 -0.1343
    3TTP    C32 6216   1.113   9.132   1.991 -0.5177  0.4231 -0.2668
    3TTP    C33 6217   1.223   9.046   1.934  0.1144  0.4208 -0.2208
    3TTP    C34 6218   1.164   8.901   1.920 -0.0296 -0.0753  0.2905
    3TTP    C35 6219   1.254   8.791   1.864 -0.3098 -0.1297 -0.5664
    3TTP    C36 6220   1.399   8.781   1.922  0.7040 -0.3754 -0.3925
    3TTP    C37 6221   1.415   8.742   2.071 -0.0668  0.1433 -0.0309
    3TTP    C38 6222   1.413   8.591   2.098 -0.0391  0.3776 -0.3173
    3TTP    C39 6223   1.461   8.542   2.233  0.5143  0.4249  0.4401
    3TTP    C40 6224   1.599   8.593   2.267  0.0397 -0.1490  0.1096
    3TTP    C41 6225   1.659   8.553   2.400  0.5368  0.7649 -0.3319
    3TTP    C42 6226   1.777   8.625   2.444 -0.2184 -0.1113 -0.7766
    4FIC     F1 6227   1.551  11.039   2.202  0.1061 -0.0098  0.1491
    4FIC     F2 6228   1.461  11.169   2.424  0.2141  0.0281  0.1711
    4FIC     O1 6229   1.620  10.539   2.396  0.0717 -0.0086  0.1658
    4FIC     N5 6230   1.381  10.998   2.881  0.3447  0.0834  0.2145
    4FIC     N6 6231   1.453  10.581   2.988  0.2961  0.0770  0.2232
    4FIC    C19 6232   1.559  10.485   2.677  0.1627  0.0281  0.1927
    4FIC    C20 6233   1.545  10.605   2.620  0.1671  0.0265  0.1876
    4FIC    C21 6234   1.578  10.625   2.475  0.1185  0.0072  0.1737
    4FIC    C22 6235   1.552  10.767   2.445  0.1374  0.0103  0.1714
    4FIC    C23 6236   1.569  10.833   2.323  0.1070 -0.0038  0.1600
    4FIC    C24 6237   1.537  10.968   2.319  0.1338  0.0028  0.1601
    4FIC    C25 6238   1.491  11.035   2.433  0.1894  0.0223  0.1714
    4FIC    C26 6239   1.474  10.970   2.555  0.2201  0.0362  0.1829
    4FIC    C27 6240   1.506  10.833   2.561  0.1936  0.0298  0.1829
    4FIC    C28 6241   1.499  10.736   2.673  0.2140  0.0408  0.1934
    4FIC    C29 6242   1.459  10.762   2.802  0.2665  0.0601  0.2059
    4FIC    C30 6243   1.416  10.892   2.845  0.3093  0.0730  0.2106
    4FIC    C31 6244   1.456  10.662   2.904  0.2825  0.0694  0.2153
    5FIC     F1 6245   0.458   9.717   1.489  0.2774  0.1349 -0.1397
    5FIC     F2 6246   0.405   9.477   1.371  0.0019  0.1342 -0.0140
    5FIC     O1 6247   0.877   9.584   1.806  0.1229 -0.1817 -0.0673
    5FIC     N5 6248   0.626   9.038   1.429 -0.5042 -0.0923  0.2184
    5FIC     N6 6249   0.964   8.983   1.700 -0.5693 -0.3393  0.2497
    5FIC    C19 6250   0.974   9.308   1.806 -0.1951 -0.2947  0.0786
    5FIC    C20 6251   0.871   9.351   1.731 -0.1455 -0.2146  0.0555
    5FIC    C21 6252   0.827   9.495   1.736  0.0199 -0.1605 -0.0204
    5FIC    C22 6253   0.713   9.507   1.643  0.0344 -0.0784 -0.0275
    5FIC    C23 6254   0.639   9.621   1.614  0.1661 -0.0076 -0.0880
    5FIC    C24 6255   0.536   9.608   1.522  0.1517  0.0630 -0.0819
    5FIC    C25 6256   0.509   9.484   1.462  0.0097  0.0625 -0.0171
    5FIC    C26 6257   0.582   9.370   1.490 -0.1222 -0.0079  0.0435
    5FIC    C27 6258   0.687   9.381   1.583 -0.1099 -0.0799  0.0384
    5FIC    C28 6259   0.783   9.281   1.635 -0.2261 -0.1638  0.0919
    5FIC    C29 6260   0.789   9.148   1.600 -0.3791 -0.1893  0.1619
    5FIC    C30 6261   0.699   9.088   1.506 -0.4473 -0.1357  0.1928
    5FIC    C31 6262   0.885   9.058   1.655 -0.4829 -0.2716  0.2097
    1BTD     S2 6263   2.348   1.153   3.640 -0.2067  0.3208 -0.1497
    1BTD     N1 6264   2.334   0.974   3.627 -0.6311  0.3269  0.1810
    1BTD     N2 6265   2.290   1.184   3.473  0.2121  0.1371 -0.3334
    1BTD     N3 6266   2.146   0.925   3.109  0.2992 -0.2264 -0.1107
    1BTD     N4 6267   2.200   0.666   3.299 -0.7398  0.0074  0.5231
    1BTD     C5 6268   2.264   0.816   3.453 -0.6753  0.1573  0.3520
    1BTD     C6 6269   2.289   0.948   3.505 -0.4482  0.1983  0.1396
    1BTD     C7 6270   2.264   1.066   3.419  0.0237  0.0921 -0.1484
    1BTD     C8 6271   2.215   1.046   3.285  0.2451 -0.0499 -0.2096
    1BTD    C15 6272   2.192   0.915   3.239  0.0095 -0.0852  0.0051
    1BTD    C16 6273   2.216   0.802   3.322 -0.4453  0.0171  0.2826
    1BTD    C43 6274   2.117   0.590   3.202  0.2774 -0.0401 -0.4091
    1BTD    C44 6275   1.969   0.556   3.244 -0.3925  0.5137  0.0644
    1BTD    C45 6276   1.882   0.667   3.295 -0.4638 -0.2956 -0.2776
    1BTD    C46 6277   1.740   0.640   3.357  0.2283  0.1286 -0.2205
    1BTD    C47 6278   1.896   0.466   3.142 -0.1223  0.3781  0.0488
    1BTD    C48 6279   1.819   0.529   3.027 -0.3127  0.4435  0.0934
    1BTD    C49 6280   1.712   0.441   2.955  0.1467 -0.3896 -0.9114
    1BTD    C50 6281   1.760   0.351   2.845 -0.1111 -0.3714  0.3397
    1BTD    C75 6282   2.150   0.824   2.999 -0.4021 -0.1047 -0.3213
    1BTD    C76 6283   2.208   0.854   2.860 -0.1312  0.1050  0.1647
    1BTD    C77 6284   2.184   0.735   2.766 -0.1615  0.6880  0.5511
    1BTD    C78 6285   2.045   0.699   2.723 -0.0229  0.0798  0.0924
    1BTD    C79 6286   2.349   0.919   2.861 -0.0888 -0.3609 -0.1103
    1BTD    C80 6287   2.402   0.954   2.725 -0.1045 -0.6812  0.3630
    1BTD    C81 6288   2.526   1.051   2.734 -0.8248  0.3731 -0.0818
    1BTD    C82 6289   2.619   1.056   2.610 -0.0923 -0.0468  0.2803
    2TTP     S1 6290   2.311   0.606   3.669 -0.0384  0.2302 -0.1966
    2TTP     S5 6291   2.197   0.300   3.390 -0.0223  0.2589 -0.2345
    2TTP     C1 6292   2.225   0.222   3.552  0.1864  0.2095 -0.2946
    2TTP     C2 6293   2.262   0.312   3.648  0.1937  0.1977 -0.2863
    2TTP     C3 6294   2.270   0.446   3.596  0.0347  0.2273 -0.2324
    2TTP     C4 6295   2.283   0.683   3.507 -0.2471  0.2797 -0.1366
    2TTP    C17 6296   2.245   0.593   3.411 -0.2544  0.2915 -0.1449
    2TTP    C18 6297   2.238   0.460   3.462 -0.0955  0.2619 -0.1988
    2TTP    C32 6298   2.299   0.278   3.790  0.2732  0.2573 -0.2121
    2TTP    C33 6299   2.444   0.296   3.840 -0.4103 -0.8034 -0.1619
    2TTP    C34 6300   2.557   0.216   3.776  0.4949 -0.3779 -0.6065
    2TTP    C35 6301   2.692   0.244   3.845  0.0903  0.7546  0.8498
    2TTP    C36 6302   2.798   0.133   3.814  0.0510  0.9843 -0.3244
    2TTP    C37 6303   2.843   0.124   3.667 -0.3156  1.1159 -0.3319
    2TTP    C38 6304   2.925  -0.009   3.643  0.6886 -0.2269  0.3587
    2TTP    C39 6305   2.957  -0.035   3.494 -0.2158  0.3497 -0.1082
    2TTP    C40 6306   3.015  -0.173   3.486  0.0354  0.3147 -0.6310
    2TTP    C41 6307   3.074  -0.244   3.360 -0.5249 -0.6828 -0.8234
    2TTP    C42 6308   2.983  -0.253   3.239  0.6188 -0.3205  0.2563
    3TTP     S1 6309   2.134   1.314   3.159  0.1676  0.0725 -0.0379
    3TTP     S5 6310   1.958   1.099   2.831  0.0383  0.1765 -0.0370
    3TTP     C1 6311   1.916   1.276   2.814 -0.0253  0.1718  0.0725
    3TTP     C2 6312   1.968   1.352   2.914  0.0108  0.1395  0.0786
    3TTP     C3 6313   2.043   1.275   3.008  0.0900  0.1171 -0.0029
    3TTP     C4 6314   2.177   1.138   3.176  0.2311  0.0771 -0.1473
    3TTP    C17 6315   2.125   1.062   3.076  0.1951  0.1095 -0.1534
    3TTP    C18 6316   2.050   1.139   2.982  0.1158  0.1318 -0.0720
    3TTP    C32 6317   1.947   1.501   2.939 -0.1424 -0.2392  0.0751
    3TTP    C33 6318   2.065   1.587   2.890 -0.3122  0.5250  0.0180
    3TTP    C34 6319   2.093   1.721   2.950 -0.0415 -0.1084 -0.3567
    3TTP    C35 6320   2.210   1.794   2.889  0.0419 -0.2381  0.3440
    3TTP    C36 6321   2.201   1.946   2.905 -0.1505 -0.0225  0.7710
    3TTP    C37 6322   2.097   2.017   2.823 -0.0262 -0.3074  0.2477
    3TTP    C38 6323   2.122   2.171   2.815 -0.4613  0.1166 -0.0828
    3TTP    C39 6324   2.021   2.228   2.721 -0.1006 -0.1258  0.1718
    3TTP    C40 6325   2.003   2.381   2.716  0.1050  0.8238  0.5709
    3TTP    C41 6326   1.889   2.422   2.630 -0.3430 -0.1706  0.2514
    3TTP    C42 6327   1.876   2.573   2.643 -0.2624  0.5788  0.2435
    4FIC     F1 6328   2.111  -0.480   3.134 -0.1851  0.0715 -0.0929
    4FIC     F2 6329   2.056  -0.604   3.370 -0.0035  0.0069 -0.0849
    4FIC     O1 6330   2.216   0.023   3.304 -0.1688  0.0526 -0.0471
    4FIC     N5 6331   2.053  -0.423   3.831  0.2691 -0.0997 -0.0403
    4FIC     N6 6332   2.146  -0.005   3.916  0.2453 -0.1016 -0.0060
    4FIC    C19 6333   2.201   0.084   3.590  0.0105 -0.0160 -0.0230
    4FIC    C20 6334   2.177  -0.038   3.538 -0.0008 -0.0088 -0.0348
    4FIC    C21 6335   2.187  -0.062   3.390 -0.0951  0.0272 -0.0468
    4FIC    C22 6336   2.154  -0.204   3.368 -0.0825  0.0262 -0.0579
    4FIC    C23 6337   2.150  -0.272   3.246 -0.1503  0.0532 -0.0710
    4FIC    C24 6338   2.117  -0.407   3.250 -0.1217  0.0460 -0.0799
    4FIC    C25 6339   2.089  -0.470   3.372 -0.0281  0.0127 -0.0756
    4FIC    C26 6340   2.093  -0.403   3.493  0.0399 -0.0145 -0.0626
    4FIC    C27 6341   2.126  -0.266   3.491  0.0122 -0.0076 -0.0535
    4FIC    C28 6342   2.139  -0.167   3.601  0.0662 -0.0305 -0.0391
    4FIC    C29 6343   2.119  -0.190   3.735  0.1603 -0.0651 -0.0312
    4FIC    C30 6344   2.083  -0.318   3.787  0.2198 -0.0842 -0.0363
    4FIC    C31 6345   2.134  -0.088   3.834  0.2065 -0.0851 -0.0175
    5FIC     F1 6346   1.354   0.967   2.293  0.2755  0.2112  0.1043
    5FIC     F2 6347   1.296   1.221   2.215  0.2342  0.2556  0.2782
    5FIC     O1 6348   1.743   1.058   2.659  0.3332  0.0171  0.0916
    5FIC     N5 6349   1.490   1.652   2.363  0.2159  0.1809  0.5190
    5FIC     N6 6350   1.806   1.672   2.665  0.2693  0.0204  0.4740
    5FIC    C19 6351   1.826   1.333   2.714  0.3142 -0.0094  0.2531
    5FIC    C20 6352   1.730   1.300   2.625  0.3013  0.0376  0.2496
    5FIC    C21 6353   1.693   1.157   2.602  0.3123  0.0484  0.1640
    5FIC    C22 6354   1.587   1.157   2.500  0.2936  0.1029  0.1834
    5FIC    C23 6355   1.521   1.047   2.446  0.2953  0.1304  0.1248
    5FIC    C24 6356   1.423   1.071   2.350  0.2750  0.1817  0.1585
    5FIC    C25 6357   1.394   1.202   2.310  0.2538  0.2045  0.2482
    5FIC    C26 6358   1.459   1.313   2.363  0.2519  0.1772  0.3070
    5FIC    C27 6359   1.558   1.290   2.461  0.2722  0.1252  0.2741
    5FIC    C28 6360   1.645   1.383   2.536  0.2761  0.0860  0.3182
    5FIC    C29 6361   1.646   1.520   2.525  0.2596  0.0933  0.4060
    5FIC    C30 6362   1.561   1.592   2.436  0.2356  0.1414  0.4678
    5FIC    C31 6363   1.734   1.603   2.602  0.2651  0.0531  0.4430
    1BTD     S2 6364   1.205   1.175   1.198  0.0319  0.0933  0.0715
    1BTD     N1 6365   1.215   0.996   1.211  0.1348  0.0917 -0.0252
    1BTD     N2 6366   1.253   1.204   1.369 -0.1164  0.0250  0.1256
    1BTD     N3 6367   1.369   0.941   1.740 -0.2325 -0.1173  0.0612
    1BTD     N4 6368   1.322   0.684   1.546  0.0769 -0.0352 -0.1246
    1BTD     C5 6369   1.271   0.836   1.388  0.1009  0.0245 -0.0749
    1BTD     C6 6370   1.252   0.968   1.336  0.0574  0.0428 -0.0128
    1BTD     C7 6371   1.273   1.085   1.424 -0.0832  0.0055  0.0716
    1BTD     C8 6372   1.313   1.064   1.560 -0.1733 -0.0483  0.0897
    1BTD    C15 6373   1.331   0.932   1.607 -0.1263 -0.0645  0.0271
    1BTD    C16 6374   1.310   0.820   1.522  0.0091 -0.0285 -0.0543
    1BTD    C43 6375   1.409   0.616   1.646 -0.1978  0.0742  0.3691
    1BTD    C44 6376   1.567   0.617   1.645  0.0755 -1.0439  0.6094
    1BTD    C45 6377   1.631   0.572   1.772 -0.4424  0.5865  0.1257
    1BTD    C46 6378   1.779   0.613   1.796 -0.0754  0.1606 -0.1050
    1BTD    C47 6379   1.632   0.568   1.513  0.6129  0.4330  0.2061
    1BTD    C48 6380   1.641   0.415   1.476 -0.2679 -0.0668 -0.2651
    1BTD    C49 6381   1.689   0.389   1.333 -0.2272 -0.5224 -0.1577
    1BTD    C50 6382   1.675   0.244   1.305 -0.0941 -0.4210  0.0239
    1BTD    C75 6383   1.365   0.846   1.851  0.2260 -0.2046  0.3628
    1BTD    C76 6384   1.241   0.820   1.940 -0.0406  0.1910 -0.0480
    1BTD    C77 6385   1.248   0.687   2.021 -0.5051  0.2064  0.0590
    1BTD    C78 6386   1.326   0.665   2.148 -0.2510 -0.5526  0.6090
    1BTD    C79 6387   1.180   0.943   2.002 -0.0955  0.5269 -0.2208
    1BTD    C80 6388   1.080   0.927   2.119  0.0720 -0.2266 -0.6141
    1BTD    C81 6389   1.034   1.062   2.171  0.2167  0.0709 -0.6152
    1BTD    C82 6390   0.933   1.042   2.288 -0.0361 -0.2630  0.3730
    2TTP     S1 6391   1.232   0.635   1.170 -0.0806  0.2583  0.1342
    2TTP     S5 6392   1.304   0.320   1.454  0.1006  0.1999  0.0243
    2TTP     C1 6393   1.270   0.245   1.292  0.1705  0.2379 -0.0078
    2TTP     C2 6394   1.246   0.338   1.195  0.1187  0.2582  0.0243
    2TTP     C3 6395   1.253   0.472   1.245  0.0219  0.2444  0.0753
    2TTP     C4 6396   1.266   0.710   1.332 -0.1505  0.2203  0.1663
    2TTP    C17 6397   1.290   0.617   1.430 -0.0987  0.2000  0.1342
    2TTP    C18 6398   1.282   0.484   1.380 -0.0019  0.2137  0.0832
    2TTP    C32 6399   1.205   0.316   1.052  0.2267  0.3089  1.0035
    2TTP    C33 6400   1.056   0.314   1.004 -0.6887 -0.3236 -0.9051
    2TTP    C34 6401   0.952   0.224   1.067 -0.3035  0.4675 -0.1686
    2TTP    C35 6402   0.990   0.074   1.053  0.0512 -0.3865 -0.4386
    2TTP    C36 6403   0.945   0.010   0.923 -0.2731  0.3314 -0.1827
    2TTP    C37 6404   1.024  -0.119   0.898  0.3086  0.4213 -0.2319
    2TTP    C38 6405   0.976  -0.199   0.775  0.1904 -0.0000 -0.4306
    2TTP    C39 6406   1.014  -0.146   0.637 -0.2127  0.1393  0.2395
    2TTP    C40 6407   0.993  -0.254   0.540 -0.9075 -0.0736  0.5449
    2TTP    C41 6408   1.033  -0.211   0.405 -0.1608 -0.1680 -0.3762
    2TTP    C42 6409   1.037  -0.333   0.308 -0.4369 -0.2892 -0.2225
    3TTP     S1 6410   1.407   1.327   1.683 -0.0156 -0.0808 -0.2834
    3TTP     S5 6411   1.576   1.101   2.008 -0.2810  0.0415 -0.0595
    3TTP     C1 6412   1.632   1.273   2.022 -0.2927  0.0468 -0.0787
    3TTP     C2 6413   1.583   1.353   1.923 -0.2114  0.0094 -0.1490
    3TTP     C3 6414   1.499   1.281   1.832 -0.1369 -0.0249 -0.1902
    3TTP     C4 6415   1.351   1.154   1.669 -0.0038 -0.0862 -0.2643
    3TTP    C17 6416   1.400   1.074   1.769 -0.0852 -0.0487 -0.1940
    3TTP    C18 6417   1.483   1.147   1.860 -0.1596 -0.0144 -0.1527
    3TTP    C32 6418   1.589   1.508   1.903 -0.7235  0.3627  0.4705
    3TTP    C33 6419   1.474   1.581   1.974  0.3910  0.3345  0.1823
    3TTP    C34 6420   1.455   1.734   1.944 -0.5750 -0.1473 -0.5146
    3TTP    C35 6421   1.347   1.792   2.026  0.6805  0.8239 -0.1743
    3TTP    C36 6422   1.281   1.914   1.970  0.7789 -0.1841  0.3821
    3TTP    C37 6423   1.354   2.041   1.992  0.5466  0.6347  0.4760
    3TTP    C38 6424   1.280   2.150   1.914 -0.2657 -0.3325 -0.2280
    3TTP    C39 6425   1.343   2.287   1.936  0.0486  0.2261  0.1111
    3TTP    C40 6426   1.376   2.384   1.822  0.1423 -0.0558 -0.3605
    3TTP    C41 6427   1.260   2.409   1.728 -0.4695  0.5719 -0.7040
    3TTP    C42 6428   1.274   2.524   1.635  0.0589 -0.1147  0.0778
    4FIC     F1 6429   1.279  -0.473   1.710  0.1996 -0.0021 -0.0208
    4FIC     F2 6430   1.368  -0.593   1.483 -0.0408 -0.0441 -0.0940
    4FIC     O1 6431   1.215   0.036   1.537  0.3476  0.0398  0.0461
    4FIC     N5 6432   1.451  -0.403   1.033 -0.2809 -0.0751 -0.1516
    4FIC     N6 6433   1.383   0.019   0.945 -0.1169 -0.0339 -0.0846
    4FIC    C19 6434   1.277   0.102   1.259  0.1705  0.0143 -0.0001
    4FIC    C20 6435   1.290  -0.021   1.312  0.1427  0.0055 -0.0141
    4FIC    C21 6436   1.256  -0.047   1.455  0.2387  0.0196  0.0114
    4FIC    C22 6437   1.281  -0.191   1.479  0.1780  0.0050 -0.0127
    4FIC    C23 6438   1.263  -0.261   1.598  0.2300  0.0105 -0.0017
    4FIC    C24 6439   1.294  -0.397   1.596  0.1542 -0.0062 -0.0297
    4FIC    C25 6440   1.340  -0.458   1.479  0.0303 -0.0277 -0.0674
    4FIC    C26 6441   1.357  -0.388   1.360 -0.0221 -0.0339 -0.0786
    4FIC    C27 6442   1.327  -0.251   1.360  0.0532 -0.0169 -0.0506
    4FIC    C28 6443   1.335  -0.150   1.252  0.0266 -0.0174 -0.0530
    4FIC    C29 6444   1.376  -0.171   1.123 -0.0845 -0.0358 -0.0851
    4FIC    C30 6445   1.417  -0.298   1.074 -0.1921 -0.0572 -0.1216
    4FIC    C31 6446   1.380  -0.066   1.025 -0.1017 -0.0346 -0.0847
    5FIC     F1 6447   2.172   0.953   2.552 -0.2127 -0.3328 -0.0605
    5FIC     F2 6448   2.232   1.206   2.633 -0.2581 -0.3900  0.1528
    5FIC     O1 6449   1.805   1.053   2.167 -0.0162 -0.0609 -0.1779
    5FIC     N5 6450   2.057   1.640   2.475 -0.1834 -0.2783  0.3757
    5FIC     N6 6451   1.758   1.668   2.158 -0.0208 -0.0544  0.2411
    5FIC    C19 6452   1.732   1.330   2.108  0.0101 -0.0189 -0.0157
    5FIC    C20 6453   1.822   1.295   2.202 -0.0376 -0.0851  0.0055
    5FIC    C21 6454   1.855   1.150   2.226 -0.0481 -0.1026 -0.0822
    5FIC    C22 6455   1.955   1.148   2.334 -0.1033 -0.1785 -0.0319
    5FIC    C23 6456   2.016   1.036   2.391 -0.1310 -0.2188 -0.0812
    5FIC    C24 6457   2.109   1.059   2.492 -0.1830 -0.2898 -0.0171
    5FIC    C25 6458   2.139   1.189   2.533 -0.2063 -0.3191  0.0928
    5FIC    C26 6459   2.079   1.301   2.477 -0.1789 -0.2792  0.1425
    5FIC    C27 6460   1.985   1.280   2.375 -0.1262 -0.2072  0.0789
    5FIC    C28 6461   1.904   1.376   2.295 -0.0867 -0.1510  0.1062
    5FIC    C29 6462   1.906   1.513   2.306 -0.0943 -0.1587  0.2058
    5FIC    C30 6463   1.989   1.582   2.399 -0.1433 -0.2245  0.2989
    5FIC    C31 6464   1.824   1.597   2.224 -0.0538 -0.1012  0.2247
    1BTD     S2 6465   4.095   1.411   2.641 -0.1034  0.1801  0.2723
    1BTD     N1 6466   4.079   1.590   2.631 -0.0211  0.1836  0.1974
    1BTD     N2 6467   4.030   1.382   2.476 -0.0684  0.1446  0.2647
    1BTD     N3 6468   3.867   1.644   2.122  0.1522  0.0787  0.1140
    1BTD     N4 6469   3.928   1.901   2.313  0.2106  0.1268  0.0309
    1BTD     C5 6470   3.999   1.749   2.463  0.0992  0.1534  0.1114
    1BTD     C6 6471   4.028   1.617   2.511  0.0261  0.1594  0.1718
    1BTD     C7 6472   4.001   1.500   2.425 -0.0005  0.1376  0.2096
    1BTD     C8 6473   3.946   1.522   2.294  0.0475  0.1108  0.1850
    1BTD    C15 6474   3.919   1.653   2.250  0.1187  0.1058  0.1256
    1BTD    C16 6475   3.945   1.765   2.334  0.1442  0.1268  0.0894
    1BTD    C43 6476   3.819   1.964   2.232 -0.1319  0.2044  0.4972
    1BTD    C44 6477   3.685   2.022   2.288  0.4272  0.2388  0.8574
    1BTD    C45 6478   3.633   1.925   2.388  0.3786  0.2396 -0.2720
    1BTD    C46 6479   3.489   1.961   2.448 -0.1823  0.7451  0.0266
    1BTD    C47 6480   3.596   2.092   2.185  0.1615  0.2391  0.1896
    1BTD    C48 6481   3.508   2.011   2.086 -0.6075  0.0624  0.7270
    1BTD    C49 6482   3.453   2.092   1.967  0.1058  0.3727  0.3899
    1BTD    C50 6483   3.382   1.990   1.879 -0.1275 -0.0487  0.0414
    1BTD    C75 6484   3.853   1.750   2.014 -0.3001  0.4223 -0.1943
    1BTD    C76 6485   3.976   1.793   1.944  0.5782 -0.4524  0.4313
    1BTD    C77 6486   3.950   1.929   1.879  0.0651  0.1305  0.4654
    1BTD    C78 6487   3.853   1.946   1.763  0.2427  0.0569  0.2426
    1BTD    C79 6488   4.039   1.679   1.858  0.1086 -0.0289  0.6769
    1BTD    C80 6489   4.170   1.692   1.786 -0.2513  0.0725  0.5703
    1BTD    C81 6490   4.224   1.548   1.756  0.1470  0.2336  0.4558
    1BTD    C82 6491   4.358   1.555   1.681  0.4704 -0.2026 -0.0244
    2TTP     S1 6492   4.043   1.954   2.678 -0.0980  0.1488 -0.1843
    2TTP     S5 6493   3.893   2.263   2.420  0.1885  0.1671 -0.3295
    2TTP     C1 6494   3.930   2.336   2.583  0.1133  0.1782 -0.3172
    2TTP     C2 6495   3.979   2.245   2.672  0.0204  0.1732 -0.2716
    2TTP     C3 6496   3.988   2.114   2.615  0.0053  0.1604 -0.2447
    2TTP     C4 6497   4.006   1.881   2.516 -0.0226  0.1377 -0.1966
    2TTP    C17 6498   3.957   1.972   2.427  0.0702  0.1428 -0.2422
    2TTP    C18 6499   3.948   2.103   2.483  0.0853  0.1554 -0.2690
    2TTP    C32 6500   4.023   2.273   2.816  0.2870  0.3591 -0.5681
    2TTP    C33 6501   4.163   2.240   2.864  0.2144  0.2329 -0.2681
    2TTP    C34 6502   4.274   2.305   2.780  0.5592 -0.0914 -0.3596
    2TTP    C35 6503   4.406   2.281   2.841 -0.3758  0.3832 -0.2012
    2TTP    C36 6504   4.513   2.370   2.778 -0.0713 -0.0549 -0.5658
    2TTP    C37 6505   4.486   2.517   2.748  0.4575  0.5856 -0.0430
    2TTP    C38 6506   4.589   2.559   2.643  0.1764  0.0596 -0.5422
    2TTP    C39 6507   4.579   2.708   2.609  0.3174 -0.4621 -0.3289
    2TTP    C40 6508   4.672   2.767   2.500  0.0297  0.4294 -0.8218
    2TTP    C41 6509   4.646   2.698   2.368 -0.3548 -0.0176 -0.6797
    2TTP    C42 6510   4.695   2.785   2.251  0.1578  0.7573  0.0338
    3TTP     S1 6511   3.881   1.257   2.150  0.0697 -0.1432 -0.3043
    3TTP     S5 6512   3.663   1.476   1.850 -0.1499  0.2712  0.1538
    3TTP     C1 6513   3.642   1.298   1.819 -0.1693  0.3133 -0.0779
    3TTP     C2 6514   3.708   1.220   1.910 -0.1027  0.1878 -0.2330
    3TTP     C3 6515   3.778   1.298   2.007 -0.0339  0.0539 -0.1745
    3TTP     C4 6516   3.902   1.435   2.181  0.0892 -0.1853 -0.0727
    3TTP    C17 6517   3.836   1.513   2.090  0.0224 -0.0598  0.0824
    3TTP    C18 6518   3.767   1.435   1.993 -0.0463  0.0741  0.0239
    3TTP    C32 6519   3.714   1.066   1.927  0.5962 -0.6138  0.1315
    3TTP    C33 6520   3.831   0.991   1.859  0.0607 -0.1751 -0.1521
    3TTP    C34 6521   3.817   0.842   1.881  0.8505  0.4025 -0.5109
    3TTP    C35 6522   3.856   0.778   2.023 -0.0690 -0.7736 -0.4412
    3TTP    C36 6523   3.826   0.632   2.043  0.0153 -0.0839  0.1448
    3TTP    C37 6524   3.674   0.602   2.043 -1.0188 -0.6260  0.2905
    3TTP    C38 6525   3.587   0.675   2.145 -0.7445  0.1281  0.0222
    3TTP    C39 6526   3.438   0.656   2.132  0.3747  0.0874 -0.1154
    3TTP    C40 6527   3.349   0.724   2.241  1.1973 -0.0205  0.4971
    3TTP    C41 6528   3.366   0.687   2.390 -0.5112 -0.9250 -0.1929
    3TTP    C42 6529   3.297   0.777   2.488  0.1477 -0.1490  0.4166
    4FIC     F1 6530   3.734   3.022   2.186  0.0298  0.0384 -0.0110
    4FIC     F2 6531   3.630   3.119   2.418  0.1715  0.0384  0.0526
    4FIC     O1 6532   3.927   2.544   2.351 -0.2431 -0.1456 -0.2209
    4FIC     N5 6533   3.619   2.917   2.870  0.1808 -0.0928 -0.0055
    4FIC     N6 6534   3.791   2.524   2.952 -0.0612 -0.2365 -0.1823
    4FIC    C19 6535   3.897   2.467   2.632 -0.2048 -0.2109 -0.2346
    4FIC    C20 6536   3.852   2.583   2.581 -0.1416 -0.1646 -0.1844
    4FIC    C21 6537   3.871   2.616   2.436 -0.1666 -0.1332 -0.1807
    4FIC    C22 6538   3.812   2.749   2.414 -0.0826 -0.0855 -0.1203
    4FIC    C23 6539   3.805   2.821   2.295 -0.0718 -0.0445 -0.0961
    4FIC    C24 6540   3.744   2.945   2.300  0.0144 -0.0033 -0.0378
    4FIC    C25 6541   3.690   2.995   2.419  0.0874 -0.0034 -0.0051
    4FIC    C26 6542   3.696   2.923   2.538  0.0771 -0.0442 -0.0290
    4FIC    C27 6543   3.758   2.797   2.536 -0.0097 -0.0862 -0.0879
    4FIC    C28 6544   3.781   2.698   2.643 -0.0432 -0.1348 -0.1261
    4FIC    C29 6545   3.743   2.709   2.775  0.0077 -0.1495 -0.1103
    4FIC    C30 6546   3.675   2.824   2.827  0.1026 -0.1183 -0.0528
    4FIC    C31 6547   3.770   2.607   2.872 -0.0305 -0.1973 -0.1500
    5FIC     F1 6548   3.101   1.554   1.256  0.2522 -0.1623 -0.1999
    5FIC     F2 6549   3.034   1.295   1.211  0.1683 -0.1353 -0.2303
    5FIC     O1 6550   3.484   1.496   1.634  0.0597 -0.3163 -0.0279
    5FIC     N5 6551   3.210   0.880   1.415 -0.0895 -0.2062 -0.1515
    5FIC     N6 6552   3.523   0.887   1.720 -0.2230 -0.3320 -0.0110
    5FIC    C19 6553   3.556   1.228   1.725 -0.0890 -0.3452  0.0041
    5FIC    C20 6554   3.462   1.252   1.632 -0.0372 -0.3075 -0.0380
    5FIC    C21 6555   3.431   1.393   1.590  0.0380 -0.2948 -0.0520
    5FIC    C22 6556   3.325   1.384   1.488  0.0802 -0.2524 -0.0994
    5FIC    C23 6557   3.264   1.489   1.420  0.1527 -0.2276 -0.1269
    5FIC    C24 6558   3.166   1.456   1.327  0.1809 -0.1884 -0.1708
    5FIC    C25 6559   3.132   1.322   1.304  0.1376 -0.1746 -0.1864
    5FIC    C26 6560   3.192   1.217   1.371  0.0652 -0.1990 -0.1591
    5FIC    C27 6561   3.292   1.249   1.466  0.0357 -0.2389 -0.1146
    5FIC    C28 6562   3.374   1.162   1.553 -0.0381 -0.2722 -0.0775
    5FIC    C29 6563   3.370   1.025   1.560 -0.0963 -0.2706 -0.0793
    5FIC    C30 6564   3.282   0.946   1.480 -0.0924 -0.2352 -0.1190
    5FIC    C31 6565   3.454   0.950   1.648 -0.1658 -0.3044 -0.0417
    1BTD     S2 6566   2.873   1.464   0.261 -0.2357  0.0701  0.0457
    1BTD     N1 6567   2.883   1.643   0.274 -0.6088  0.0806  0.2096
    1BTD     N2 6568   2.938   1.434   0.426  0.3514  0.0361 -0.1884
    1BTD     N3 6569   3.089   1.696   0.785  0.8739 -0.0142 -0.3696
    1BTD     N4 6570   3.021   1.954   0.598 -0.3093  0.0407  0.1208
    1BTD     C5 6571   2.956   1.802   0.445 -0.4382  0.0591  0.1573
    1BTD     C6 6572   2.932   1.670   0.394 -0.2930  0.0594  0.0877
    1BTD     C7 6573   2.963   1.553   0.479  0.2444  0.0344 -0.1351
    1BTD     C8 6574   3.016   1.574   0.611  0.6099  0.0105 -0.2771
    1BTD    C15 6575   3.038   1.705   0.657  0.4504  0.0112 -0.2019
    1BTD    C16 6576   3.008   1.818   0.575 -0.0674  0.0352  0.0127
    1BTD    C43 6577   3.117   2.020   0.686 -0.0581 -0.1126  0.2687
    1BTD    C44 6578   3.262   2.003   0.645 -0.3115  0.4386 -0.1791
    1BTD    C45 6579   3.369   2.043   0.748 -0.4503  0.4986 -0.2436
    1BTD    C46 6580   3.356   2.001   0.897 -0.3046 -0.0851  0.0000
    1BTD    C47 6581   3.308   2.044   0.500  0.4367 -0.5352 -0.6496
    1BTD    C48 6582   3.322   2.193   0.476  0.5402 -0.4738  0.1170
    1BTD    C49 6583   3.358   2.244   0.335  0.3497  0.4504  0.4385
    1BTD    C50 6584   3.350   2.398   0.315  0.4774  0.7274 -0.0527
    1BTD    C75 6585   3.080   1.778   0.907  0.2395  0.3995 -0.2162
    1BTD    C76 6586   2.944   1.794   0.974  0.1894 -0.4968  0.0308
    1BTD    C77 6587   2.962   1.915   1.070  0.8669  0.0957 -1.0696
    1BTD    C78 6588   3.035   1.904   1.205  0.1651 -0.7833 -0.3019
    1BTD    C79 6589   2.872   1.667   1.028 -0.7186  0.2237  0.0022
    1BTD    C80 6590   2.723   1.685   1.073  0.0296  0.4759  0.5285
    1BTD    C81 6591   2.666   1.569   1.154  0.2633 -0.7142  1.1151
    1BTD    C82 6592   2.729   1.537   1.291  0.1744  0.2680 -0.2073
    2TTP     S1 6593   2.876   2.011   0.236 -0.2123  0.2522  0.1107
    2TTP     S5 6594   2.987   2.327   0.505 -0.2087  0.1727  0.2028
    2TTP     C1 6595   2.933   2.401   0.347 -0.0667  0.2129  0.1733
    2TTP     C2 6596   2.896   2.308   0.255 -0.0594  0.2398  0.1431
    2TTP     C3 6597   2.908   2.174   0.305 -0.1658  0.2298  0.1422
    2TTP     C4 6598   2.929   1.937   0.393 -0.3543  0.2120  0.1402
    2TTP    C17 6599   2.966   2.030   0.485 -0.3616  0.1851  0.1704
    2TTP    C18 6600   2.954   2.163   0.435 -0.2552  0.1953  0.1713
    2TTP    C32 6601   2.854   2.331   0.116  0.9731  0.5415  0.0666
    2TTP    C33 6602   2.702   2.301   0.092 -0.1695  0.0873  0.5354
    2TTP    C34 6603   2.581   2.378   0.144 -0.6194  0.0515 -0.2118
    2TTP    C35 6604   2.581   2.526   0.123 -0.5073 -0.4308 -0.0944
    2TTP    C36 6605   2.585   2.573  -0.027 -0.3359  0.4179 -0.1304
    2TTP    C37 6606   2.585   2.724  -0.046  0.1138 -0.4993  0.1603
    2TTP    C38 6607   2.565   2.757  -0.196  0.0212 -0.3292 -0.3598
    2TTP    C39 6608   2.690   2.740  -0.285  0.3572 -0.5652 -0.5215
    2TTP    C40 6609   2.669   2.755  -0.427  0.3479 -0.1527 -0.0041
    2TTP    C41 6610   2.637   2.899  -0.476 -0.1712  0.1871 -0.1235
    2TTP    C42 6611   2.662   2.919  -0.621  0.2498 -0.2486  0.2287
    3TTP     S1 6612   3.117   1.315   0.724 -0.2492 -0.0888  0.1454
    3TTP     S5 6613   3.317   1.537   1.033  0.0510 -0.0544 -0.0730
    3TTP     C1 6614   3.373   1.364   1.041 -0.2845 -0.1547  0.1843
    3TTP     C2 6615   3.315   1.285   0.946 -0.3971 -0.1713  0.2670
    3TTP     C3 6616   3.223   1.359   0.864 -0.2223 -0.1052  0.1300
    3TTP     C4 6617   3.061   1.488   0.717  0.0864  0.0116 -0.1119
    3TTP    C17 6618   3.119   1.567   0.812  0.1989  0.0282 -0.1946
    3TTP    C18 6619   3.211   1.493   0.894  0.0241 -0.0378 -0.0576
    3TTP    C32 6620   3.317   1.138   0.922 -0.1663 -0.3304 -0.1586
    3TTP    C33 6621   3.193   1.063   0.987 -0.1137 -0.2279 -0.1083
    3TTP    C34 6622   3.174   0.908   0.962 -0.1278 -0.0355  0.2632
    3TTP    C35 6623   3.285   0.809   0.982 -0.2927 -0.4887 -0.1545
    3TTP    C36 6624   3.394   0.789   0.870  0.4059  0.2586 -0.1236
    3TTP    C37 6625   3.344   0.746   0.733  0.0005 -0.1546  0.1326
    3TTP    C38 6626   3.466   0.742   0.639  0.1901 -0.2420 -0.0919
    3TTP    C39 6627   3.433   0.723   0.492 -0.1795  0.0338 -0.2954
    3TTP    C40 6628   3.558   0.727   0.403 -0.2841 -0.2470 -0.3784
    3TTP    C41 6629   3.537   0.696   0.262 -0.1301 -0.2338  0.0611
    3TTP    C42 6630   3.662   0.696   0.188 -0.5039 -0.1241  0.3966
    4FIC     F1 6631   2.929   3.091   0.780 -0.4027  0.0291 -0.1149
    4FIC     F2 6632   2.948   3.230   0.546  0.0799 -0.0906 -0.1495
    4FIC     O1 6633   2.911   2.582   0.595 -0.2555 -0.0532  0.0967
    4FIC     N5 6634   2.962   3.067   0.079  0.8788 -0.3214 -0.0483
    4FIC     N6 6635   2.944   2.641  -0.018  0.8965 -0.3616  0.1240
    4FIC    C19 6636   2.922   2.534   0.307  0.2578 -0.1968  0.1389
    4FIC    C20 6637   2.926   2.657   0.362  0.2020 -0.1714  0.0870
    4FIC    C21 6638   2.920   2.674   0.511 -0.0667 -0.0970  0.0683
    4FIC    C22 6639   2.926   2.818   0.538 -0.0601 -0.0867  0.0102
    4FIC    C23 6640   2.924   2.883   0.661 -0.2634 -0.0261 -0.0247
    4FIC    C24 6641   2.931   3.021   0.661 -0.2106 -0.0290 -0.0782
    4FIC    C25 6642   2.941   3.092   0.541  0.0382 -0.0906 -0.0959
    4FIC    C26 6643   2.943   3.029   0.417  0.2419 -0.1513 -0.0613
    4FIC    C27 6644   2.936   2.889   0.415  0.1922 -0.1495 -0.0070
    4FIC    C28 6645   2.936   2.792   0.302  0.3632 -0.2040  0.0395
    4FIC    C29 6646   2.944   2.823   0.169  0.6215 -0.2717  0.0386
    4FIC    C30 6647   2.954   2.957   0.120  0.7622 -0.2988 -0.0091
    4FIC    C31 6648   2.944   2.723   0.067  0.7713 -0.3208  0.0856
    5FIC     F1 6649   3.885   1.681   1.603 -0.1736 -0.0153  0.1153
    5FIC     F2 6650   3.954   1.427   1.672  0.1041 -0.0055 -0.1221
    5FIC     O1 6651   3.528   1.584   1.207 -0.2173 -0.0395  0.1608
    5FIC     N5 6652   3.800   0.993   1.491  0.4719 -0.0086 -0.4309
    5FIC     N6 6653   3.506   0.969   1.168  0.3818 -0.0295 -0.3474
    5FIC    C19 6654   3.467   1.308   1.134  0.0322 -0.0387 -0.0498
    5FIC    C20 6655   3.554   1.342   1.230  0.0325 -0.0330 -0.0519
    5FIC    C21 6656   3.580   1.486   1.263 -0.1001 -0.0339  0.0601
    5FIC    C22 6657   3.679   1.488   1.372 -0.0630 -0.0266  0.0263
    5FIC    C23 6658   3.734   1.599   1.435 -0.1513 -0.0247  0.0999
    5FIC    C24 6659   3.827   1.575   1.536 -0.0922 -0.0175  0.0476
    5FIC    C25 6660   3.862   1.445   1.571  0.0508 -0.0125 -0.0747
    5FIC    C26 6661   3.808   1.333   1.509  0.1395 -0.0144 -0.1488
    5FIC    C27 6662   3.714   1.355   1.406  0.0817 -0.0216 -0.0974
    5FIC    C28 6663   3.639   1.260   1.321  0.1460 -0.0253 -0.1503
    5FIC    C29 6664   3.646   1.123   1.325  0.2844 -0.0222 -0.2680
    5FIC    C30 6665   3.730   1.052   1.416  0.3871 -0.0148 -0.3571
    5FIC    C31 6666   3.569   1.039   1.239  0.3371 -0.0263 -0.3110
    1BTD     S2 6667   1.885   9.168   1.245  0.0171  0.0569 -0.1884
    1BTD     N1 6668   1.897   8.989   1.250  0.5139  0.0827 -0.3313
    1BTD     N2 6669   1.951   9.192   1.411 -0.5286  0.0849  0.0265
    1BTD     N3 6670   2.105   8.916   1.757 -0.7436  0.1900  0.2066
    1BTD     N4 6671   2.039   8.666   1.559  0.5411  0.1874 -0.2342
    1BTD     C5 6672   1.972   8.823   1.413  0.5126  0.1376 -0.2753
    1BTD     C6 6673   1.947   8.958   1.368  0.2606  0.1099 -0.2173
    1BTD     C7 6674   1.977   9.071   1.459 -0.3231  0.1109 -0.0170
    1BTD     C8 6675   2.031   9.045   1.589 -0.6254  0.1400  0.1152
    1BTD    C15 6676   2.054   8.912   1.629 -0.3617  0.1661  0.0521
    1BTD    C16 6677   2.025   8.802   1.542  0.2007  0.1647 -0.1409
    1BTD    C43 6678   2.113   8.588   1.661 -0.1314  0.1835  0.1781
    1BTD    C44 6679   2.268   8.584   1.650 -0.1906  0.1969 -0.5366
    1BTD    C45 6680   2.324   8.534   1.512  0.0456 -0.4097  0.9285
    1BTD    C46 6681   2.465   8.561   1.464 -0.3531 -0.2230 -0.0545
    1BTD    C47 6682   2.323   8.485   1.756 -0.2291 -1.0289 -0.5936
    1BTD    C48 6683   2.354   8.540   1.897  0.1550  0.1283 -0.5557
    1BTD    C49 6684   2.417   8.682   1.913 -0.0022  0.5651 -0.0714
    1BTD    C50 6685   2.459   8.703   2.057 -0.1483 -0.2649 -0.4148
    1BTD    C75 6686   2.091   8.820   1.869 -0.0567  0.1462  0.0901
    1BTD    C76 6687   1.966   8.817   1.955  0.0178  0.0937  0.7147
    1BTD    C77 6688   1.921   8.673   2.001  0.1139 -0.1619 -0.1376
    1BTD    C78 6689   2.004   8.611   2.112 -0.1754  0.5809 -0.5211
    1BTD    C79 6690   1.941   8.943   2.042  0.0767  0.1078  0.4221
    1BTD    C80 6691   1.815   8.944   2.118  0.0950  0.2839  0.0361
    1BTD    C81 6692   1.757   9.078   2.169 -0.0807 -0.1880 -0.0007
    1BTD    C82 6693   1.620   9.060   2.222 -0.0152  0.1516 -0.3384
    2TTP     S1 6694   1.891   8.621   1.194  0.1424  0.0991  0.1645
    2TTP     S5 6695   2.032   8.303   1.447 -0.0748 -0.3333 -0.2539
    2TTP     C1 6696   1.982   8.232   1.288  0.1595 -0.0485 -0.4563
    2TTP     C2 6697   1.935   8.326   1.200  0.2404  0.1020 -0.3391
    2TTP     C3 6698   1.937   8.458   1.256  0.1202 -0.0029 -0.0851
    2TTP     C4 6699   1.941   8.692   1.354 -0.0919 -0.1860  0.3670
    2TTP    C17 6700   1.987   8.598   1.441 -0.1728 -0.3363  0.2497
    2TTP    C18 6701   1.985   8.467   1.386 -0.0526 -0.2320 -0.0042
    2TTP    C32 6702   1.880   8.310   1.053 -0.2192 -0.3686  0.0954
    2TTP    C33 6703   1.754   8.389   1.011 -0.4850 -0.1043 -0.1223
    2TTP    C34 6704   1.623   8.372   1.089 -0.7102  0.0056  1.0005
    2TTP    C35 6705   1.559   8.232   1.079 -0.5634 -0.1748 -0.3756
    2TTP    C36 6706   1.434   8.227   1.160  0.8352 -0.3356  0.1307
    2TTP    C37 6707   1.383   8.087   1.182 -0.0090  0.6429 -0.1288
    2TTP    C38 6708   1.252   8.071   1.265  0.2937 -0.3161  0.5590
    2TTP    C39 6709   1.210   7.923   1.256  0.0688 -0.4406  0.1721
    2TTP    C40 6710   1.108   7.880   1.355  0.6737  0.4913 -0.6462
    2TTP    C41 6711   1.039   7.757   1.309  0.3234 -0.3680 -0.4990
    2TTP    C42 6712   0.924   7.721   1.398  0.2444 -0.0759  0.0164
    3TTP     S1 6713   2.103   9.305   1.728  0.1699  0.3046  0.0449
    3TTP     S5 6714   2.309   9.080   2.030 -0.2241  0.1621  0.2089
    3TTP     C1 6715   2.340   9.257   2.058  0.0830  0.1298  0.0819
    3TTP     C2 6716   2.278   9.337   1.967  0.2227  0.1721  0.0237
    3TTP     C3 6717   2.204   9.261   1.871  0.0924  0.2310  0.0774
    3TTP     C4 6718   2.072   9.128   1.699 -0.1372  0.3369  0.1719
    3TTP    C17 6719   2.134   9.048   1.791 -0.2768  0.2944  0.2301
    3TTP    C18 6720   2.208   9.124   1.887 -0.1465  0.2353  0.1764
    3TTP    C32 6721   2.275   9.487   1.969 -0.1830 -0.4558  0.0797
    3TTP    C33 6722   2.140   9.554   1.982 -0.1111  0.1465 -0.0611
    3TTP    C34 6723   2.133   9.696   2.035  0.2087 -0.4162  1.0231
    3TTP    C35 6724   2.148   9.798   1.911 -0.3359  0.4195  0.2230
    3TTP    C36 6725   2.153   9.945   1.959  0.0407  0.9150  0.6505
    3TTP    C37 6726   2.181  10.053   1.858  0.1712  0.6299  0.4643
    3TTP    C38 6727   2.189  10.192   1.912 -0.2988 -0.5145  0.2707
    3TTP    C39 6728   2.157  10.300   1.812  0.3075 -0.1204  0.0874
    3TTP    C40 6729   2.184  10.439   1.863 -0.0624 -0.2172 -0.2938
    3TTP    C41 6730   2.150  10.547   1.758 -0.3463 -0.0297  0.5235
    3TTP    C42 6731   2.174  10.693   1.788 -0.1703  0.3408 -0.3251
    4FIC     F1 6732   2.062   7.505   1.671 -0.2195  0.1360  0.2115
    4FIC     F2 6733   2.074   7.387   1.426  0.1664  0.0863  0.2535
    4FIC     O1 6734   1.988   8.023   1.532 -0.2030  0.0801 -0.0058
    4FIC     N5 6735   2.039   7.587   0.974  0.7330 -0.0249  0.1589
    4FIC     N6 6736   1.979   8.016   0.915  0.6681 -0.0584 -0.0194
    4FIC    C19 6737   1.974   8.095   1.248  0.1716  0.0128 -0.0429
    4FIC    C20 6738   1.992   7.969   1.293  0.1523  0.0288  0.0101
    4FIC    C21 6739   1.998   7.940   1.440 -0.0452  0.0634  0.0260
    4FIC    C22 6740   2.018   7.795   1.453 -0.0137  0.0734  0.0863
    4FIC    C23 6741   2.030   7.721   1.571 -0.1537  0.1034  0.1199
    4FIC    C24 6742   2.049   7.584   1.559 -0.0888  0.1071  0.1760
    4FIC    C25 6743   2.055   7.524   1.432  0.1100  0.0814  0.1975
    4FIC    C26 6744   2.043   7.597   1.315  0.2505  0.0514  0.1642
    4FIC    C27 6745   2.024   7.735   1.325  0.1876  0.0471  0.1073
    4FIC    C28 6746   2.008   7.840   1.221  0.2976  0.0188  0.0614
    4FIC    C29 6747   2.008   7.821   1.085  0.4961 -0.0110  0.0656
    4FIC    C30 6748   2.025   7.692   1.025  0.6257 -0.0186  0.1169
    4FIC    C31 6749   1.992   7.928   0.992  0.5896 -0.0370  0.0188
    5FIC     F1 6750   2.889   8.928   2.579 -0.1275 -0.0005  0.1654
    5FIC     F2 6751   2.963   9.179   2.653 -0.2775 -0.0215  0.3865
    5FIC     O1 6752   2.509   9.039   2.210  0.1837  0.0994 -0.1267
    5FIC     N5 6753   2.799   9.619   2.498 -0.2716  0.0198  0.4961
    5FIC     N6 6754   2.486   9.655   2.195  0.0019  0.1023  0.2233
    5FIC    C19 6755   2.444   9.318   2.150  0.1510  0.1150 -0.0192
    5FIC    C20 6756   2.537   9.280   2.240  0.0784  0.0908  0.0456
    5FIC    C21 6757   2.565   9.135   2.265  0.1011  0.0844 -0.0162
    5FIC    C22 6758   2.670   9.129   2.368  0.0064  0.0563  0.0802
    5FIC    C23 6759   2.729   9.016   2.424 -0.0098  0.0412  0.0671
    5FIC    C24 6760   2.827   9.035   2.519 -0.1062  0.0152  0.1717
    5FIC    C25 6761   2.865   9.165   2.558 -0.1833  0.0045  0.2855
    5FIC    C26 6762   2.807   9.278   2.503 -0.1677  0.0193  0.2993
    5FIC    C27 6763   2.707   9.260   2.405 -0.0707  0.0460  0.1943
    5FIC    C28 6764   2.627   9.358   2.328 -0.0294  0.0665  0.1777
    5FIC    C29 6765   2.635   9.496   2.337 -0.0814  0.0637  0.2674
    5FIC    C30 6766   2.725   9.563   2.426 -0.1857  0.0398  0.3929
    5FIC    C31 6767   2.553   9.582   2.259 -0.0352  0.0851  0.2427
    1BTD     S2 6768   3.083   9.179   3.668 -0.1668  0.1929  0.1538
    1BTD     N1 6769   3.090   9.000   3.655 -0.2838  0.1757  0.3346
    1BTD     N2 6770   3.025   9.203   3.500  0.1018  0.0775  0.0423
    1BTD     N3 6771   2.917   8.930   3.134  0.4382 -0.1884  0.1412
    1BTD     N4 6772   2.997   8.679   3.325 -0.0370 -0.0679  0.5014
    1BTD     C5 6773   3.041   8.835   3.480 -0.1492  0.0470  0.4173
    1BTD     C6 6774   3.050   8.969   3.532 -0.1248  0.0889  0.3040
    1BTD     C7 6775   3.013   9.083   3.445  0.0911  0.0343  0.1404
    1BTD     C8 6776   2.969   9.057   3.311  0.2717 -0.0598  0.0983
    1BTD    C15 6777   2.962   8.925   3.264  0.2402 -0.0980  0.2132
    1BTD    C16 6778   2.997   8.815   3.348  0.0321 -0.0455  0.3708
    1BTD    C43 6779   2.920   8.590   3.235 -0.1141  0.1163 -0.0394
    1BTD    C44 6780   2.768   8.603   3.245 -0.2982  0.1825  0.6090
    1BTD    C45 6781   2.706   8.553   3.106  0.4247 -0.2075  0.3707
    1BTD    C46 6782   2.558   8.575   3.082 -0.2131  0.3546 -0.0616
    1BTD    C47 6783   2.701   8.565   3.380 -0.0349  0.5873 -0.0174
    1BTD    C48 6784   2.696   8.424   3.435  0.1283  0.7872  0.5480
    1BTD    C49 6785   2.606   8.321   3.359  0.2751 -0.2388  0.0696
    1BTD    C50 6786   2.598   8.195   3.443  0.0898  0.1646  0.9642
    1BTD    C75 6787   2.932   8.826   3.031 -0.8498 -0.7557  0.2116
    1BTD    C76 6788   3.066   8.800   2.950 -0.0356 -0.2625 -0.4382
    1BTD    C77 6789   3.059   8.669   2.872 -0.8071 -0.0460 -0.4906
    1BTD    C78 6790   2.969   8.655   2.749 -0.6138 -0.1465 -0.2957
    1BTD    C79 6791   3.105   8.927   2.875 -0.7768 -0.2063 -0.0599
    1BTD    C80 6792   3.241   8.931   2.798  0.8096  0.1210 -0.6000
    1BTD    C81 6793   3.235   9.016   2.673  0.3033 -0.0537 -0.5595
    1BTD    C82 6794   3.374   9.024   2.609 -0.1411  0.5579 -0.0349
    2TTP     S1 6795   3.141   8.630   3.686  0.3412  0.0074  0.0341
    2TTP     S5 6796   3.047   8.314   3.409 -0.0953  0.0300  0.1565
    2TTP     C1 6797   3.107   8.240   3.564 -0.0115  0.0132  0.1157
    2TTP     C2 6798   3.139   8.333   3.658  0.1282  0.0048  0.0755
    2TTP     C3 6799   3.118   8.466   3.612  0.1742  0.0124  0.0755
    2TTP     C4 6800   3.081   8.704   3.531  0.2574  0.0246  0.0749
    2TTP    C17 6801   3.049   8.611   3.437  0.1176  0.0327  0.1151
    2TTP    C18 6802   3.070   8.478   3.483  0.0717  0.0257  0.1151
    2TTP    C32 6803   3.192   8.312   3.799  0.4145 -0.3963 -0.3175
    2TTP    C33 6804   3.341   8.268   3.804  0.3301  0.6946 -0.0475
    2TTP    C34 6805   3.395   8.253   3.949 -0.4938  0.2410  0.3488
    2TTP    C35 6806   3.333   8.131   4.019  0.1290 -0.3163  0.2757
    2TTP    C36 6807   3.365   8.124   4.160 -0.0817  0.9200 -0.3438
    2TTP    C37 6808   3.305   8.219   4.258 -0.6279  0.5175 -0.8214
    2TTP    C38 6809   3.160   8.211   4.289 -0.6952  0.2113 -0.4735
    2TTP    C39 6810   3.130   8.078   4.365 -0.2275  0.3625  0.3074
    2TTP    C40 6811   2.994   8.024   4.344  0.4111 -0.3561  0.5780
    2TTP    C41 6812   2.991   7.883   4.405  0.9856 -0.0563 -0.0888
    2TTP    C42 6813   2.861   7.813   4.370 -0.2258 -0.3893 -0.4751
    3TTP     S1 6814   2.871   9.313   3.185 -0.0843 -0.1129  0.0483
    3TTP     S5 6815   2.695   9.084   2.866 -0.2396 -0.2255  0.2149
    3TTP     C1 6816   2.639   9.256   2.851 -0.3301 -0.2525  0.2426
    3TTP     C2 6817   2.690   9.337   2.949 -0.2877 -0.2196  0.1928
    3TTP     C3 6818   2.775   9.266   3.039 -0.1819 -0.1717  0.1310
    3TTP     C4 6819   2.927   9.140   3.199  0.0063 -0.0861  0.0206
    3TTP    C17 6820   2.876   9.059   3.102 -0.0362 -0.1191  0.0703
    3TTP    C18 6821   2.791   9.131   3.012 -0.1420 -0.1671  0.1323
    3TTP    C32 6822   2.665   9.487   2.971 -0.3111 -0.0819  0.2951
    3TTP    C33 6823   2.792   9.579   2.968  0.3567 -0.6497  0.2218
    3TTP    C34 6824   2.753   9.727   2.982 -0.4520  0.4717  0.3487
    3TTP    C35 6825   2.874   9.820   2.964 -0.3640 -0.4893  0.3988
    3TTP    C36 6826   2.832   9.954   3.026  0.0891  0.2852 -0.6834
    3TTP    C37 6827   2.949  10.056   3.046 -0.0471  0.8782 -0.9199
    3TTP    C38 6828   3.068  10.013   3.130  0.1964 -0.2012 -0.5199
    3TTP    C39 6829   3.064  10.033   3.285  0.4131  0.2762  0.3143
    3TTP    C40 6830   3.190  10.008   3.364 -0.3374 -0.5473 -0.5996
    3TTP    C41 6831   3.155   9.996   3.515  0.5285 -0.0413 -0.2019
    3TTP    C42 6832   3.268   9.987   3.621 -1.0729 -0.0845  0.1277
    4FIC     F1 6833   3.140   7.597   3.059 -0.2506 -0.1708  0.1374
    4FIC     F2 6834   3.074   7.437   3.269 -0.2544 -0.1163  0.1781
    4FIC     O1 6835   3.168   8.080   3.304  0.0364 -0.1526  0.0691
    4FIC     N5 6836   3.000   7.550   3.745 -0.0553 -0.0253  0.1879
    4FIC     N6 6837   3.035   7.959   3.894  0.1698 -0.0218  0.1262
    4FIC    C19 6838   3.115   8.098   3.592  0.1347 -0.0938  0.0836
    4FIC    C20 6839   3.111   7.983   3.522  0.0627 -0.1011  0.0992
    4FIC    C21 6840   3.139   7.981   3.374  0.0157 -0.1314  0.0904
    4FIC    C22 6841   3.126   7.841   3.330 -0.0592 -0.1312  0.1119
    4FIC    C23 6842   3.143   7.791   3.202 -0.1218 -0.1544  0.1128
    4FIC    C24 6843   3.125   7.654   3.184 -0.1867 -0.1489  0.1354
    4FIC    C25 6844   3.091   7.572   3.292 -0.1884 -0.1208  0.1562
    4FIC    C26 6845   3.074   7.622   3.421 -0.1263 -0.0976  0.1555
    4FIC    C27 6846   3.091   7.759   3.440 -0.0601 -0.1025  0.1329
    4FIC    C28 6847   3.081   7.843   3.563  0.0148 -0.0832  0.1259
    4FIC    C29 6848   3.050   7.799   3.689  0.0357 -0.0540  0.1412
    4FIC    C30 6849   3.022   7.662   3.719 -0.0144 -0.0381  0.1668
    4FIC    C31 6850   3.042   7.887   3.801  0.1093 -0.0366  0.1329
    5FIC     F1 6851   2.106   8.928   2.323  0.0333  0.0396 -0.0737
    5FIC     F2 6852   2.029   9.179   2.252 -0.0051  0.0601  0.0422
    5FIC     O1 6853   2.483   9.039   2.696  0.0433 -0.0744 -0.0501
    5FIC     N5 6854   2.186   9.619   2.416 -0.0529  0.0083  0.2258
    5FIC     N6 6855   2.496   9.655   2.722 -0.0374 -0.0846  0.2210
    5FIC    C19 6856   2.543   9.318   2.761  0.0103 -0.0951  0.0692
    5FIC    C20 6857   2.451   9.280   2.670  0.0092 -0.0672  0.0587
    5FIC    C21 6858   2.426   9.135   2.642  0.0268 -0.0579 -0.0039
    5FIC    C22 6859   2.321   9.129   2.539  0.0207 -0.0269  0.0007
    5FIC    C23 6860   2.264   9.016   2.481  0.0319 -0.0086 -0.0456
    5FIC    C24 6861   2.166   9.036   2.385  0.0229  0.0206 -0.0303
    5FIC    C25 6862   2.127   9.165   2.348  0.0033  0.0308  0.0295
    5FIC    C26 6863   2.183   9.279   2.406 -0.0081  0.0131  0.0759
    5FIC    C27 6864   2.282   9.261   2.503  0.0007 -0.0162  0.0612
    5FIC    C28 6865   2.360   9.359   2.582 -0.0071 -0.0412  0.0993
    5FIC    C29 6866   2.351   9.496   2.576 -0.0258 -0.0396  0.1605
    5FIC    C30 6867   2.260   9.563   2.488 -0.0407 -0.0134  0.1962
    5FIC    C31 6868   2.431   9.582   2.656 -0.0321 -0.0644  0.1934
    1BTD     S2 6869   1.771   4.081   2.275  0.3730 -0.1882  0.3441
    1BTD     N1 6870   1.780   4.260   2.271  0.3928 -0.1919  0.1947
    1BTD     N2 6871   1.842   4.066   2.439  0.3389 -0.0575  0.3708
    1BTD     N3 6872   2.003   4.360   2.768  0.3052  0.2029  0.1556
    1BTD     N4 6873   1.927   4.599   2.561  0.3715  0.0370 -0.0616
    1BTD     C5 6874   1.858   4.434   2.425  0.3809 -0.0706  0.0635
    1BTD     C6 6875   1.833   4.298   2.387  0.3739 -0.1001  0.1735
    1BTD     C7 6876   1.867   4.189   2.481  0.3438 -0.0248  0.2721
    1BTD     C8 6877   1.925   4.222   2.608  0.3221  0.0765  0.2558
    1BTD    C15 6878   1.948   4.357   2.641  0.3299  0.1022  0.1466
    1BTD    C16 6879   1.914   4.462   2.551  0.3590  0.0295  0.0515
    1BTD    C43 6880   1.992   4.685   2.654  0.1529 -0.6540 -0.0549
    1BTD    C44 6881   2.142   4.716   2.633  0.6135  0.3626  0.4888
    1BTD    C45 6882   2.222   4.587   2.615  0.2091 -0.5160  0.3453
    1BTD    C46 6883   2.371   4.600   2.584  0.0755  0.2179  0.5970
    1BTD    C47 6884   2.196   4.820   2.722 -0.1309 -0.2256  0.1935
    1BTD    C48 6885   2.128   4.955   2.717 -0.1681  0.0308 -0.4825
    1BTD    C49 6886   2.180   5.051   2.819  0.6346  0.3229  0.4122
    1BTD    C50 6887   2.073   5.153   2.846 -0.0514 -0.1451 -0.1683
    1BTD    C75 6888   1.989   4.464   2.874 -0.0859 -0.1291  0.2926
    1BTD    C76 6889   1.851   4.468   2.935  0.3291  0.1219 -0.1737
    1BTD    C77 6890   1.828   4.603   3.005  0.1457 -0.2855 -0.2971
    1BTD    C78 6891   1.901   4.649   3.136  0.5535  0.8560  0.1677
    1BTD    C79 6892   1.790   4.346   3.008 -0.1300  0.2207 -0.2955
    1BTD    C80 6893   1.641   4.354   3.054 -0.0585 -0.1531  0.1169
    1BTD    C81 6894   1.586   4.227   3.110  0.1039 -0.3600 -0.5148
    1BTD    C82 6895   1.452   4.249   3.163  0.2326  0.5768  0.0319
    2TTP     S1 6896   1.801   4.623   2.186  0.5575 -0.2478 -0.0561
    2TTP     S5 6897   1.930   4.951   2.432 -0.3370  0.0857 -0.0229
    2TTP     C1 6898   1.892   5.015   2.265 -0.1917 -0.0588 -0.1122
    2TTP     C2 6899   1.850   4.917   2.180  0.0931 -0.1704 -0.1278
    2TTP     C3 6900   1.846   4.789   2.242  0.2068 -0.1458 -0.0696
    2TTP     C4 6901   1.839   4.560   2.352  0.4122 -0.1032  0.0334
    2TTP    C17 6902   1.881   4.657   2.437  0.1274  0.0082  0.0488
    2TTP    C18 6903   1.885   4.786   2.375  0.0136 -0.0165 -0.0093
    2TTP    C32 6904   1.816   4.933   2.033  0.7783  0.2629 -0.2715
    2TTP    C33 6905   1.672   4.916   1.985 -0.0707 -0.1910  0.4078
    2TTP    C34 6906   1.580   5.022   2.048 -0.1044 -0.1399  0.4815
    2TTP    C35 6907   1.447   5.031   1.963  0.1409  0.3733 -0.1576
    2TTP    C36 6908   1.339   5.130   2.019  0.2892  0.3365  0.0717
    2TTP    C37 6909   1.248   5.069   2.131  0.4661 -0.2353 -0.0692
    2TTP    C38 6910   1.146   5.176   2.194  0.0589 -0.1670  0.2570
    2TTP    C39 6911   1.212   5.300   2.253 -0.2094  0.9273 -0.4450
    2TTP    C40 6912   1.128   5.419   2.283 -0.0072  0.7941 -0.2074
    2TTP    C41 6913   1.205   5.515   2.371 -0.2051  0.1711 -0.1344
    2TTP    C42 6914   1.132   5.645   2.392  0.0027  0.1331 -0.2530
    3TTP     S1 6915   1.998   3.970   2.756 -0.2822  0.0677  0.3747
    3TTP     S5 6916   2.228   4.206   3.033  0.1075  0.0792  0.0429
    3TTP     C1 6917   2.257   4.030   3.069 -0.0722  0.0806  0.1985
    3TTP     C2 6918   2.188   3.946   2.985 -0.2031  0.0770  0.3102
    3TTP     C3 6919   2.109   4.019   2.890 -0.1662  0.0733  0.2767
    3TTP     C4 6920   1.969   4.146   2.721 -0.1025  0.0663  0.2190
    3TTP    C17 6921   2.038   4.229   2.804  0.0284  0.0700  0.1073
    3TTP    C18 6922   2.117   4.157   2.899 -0.0085  0.0737  0.1407
    3TTP    C32 6923   2.177   3.795   2.973  0.1013  0.0201 -0.7331
    3TTP    C33 6924   2.041   3.734   3.019 -0.2392 -0.1331  0.1113
    3TTP    C34 6925   2.025   3.585   3.006  0.2423  0.0035 -0.2467
    3TTP    C35 6926   2.027   3.526   2.861  0.6755 -1.4031 -0.5013
    3TTP    C36 6927   1.991   3.380   2.861 -0.2949  0.4684 -0.0729
    3TTP    C37 6928   2.064   3.282   2.951 -1.0161  0.0497 -0.0182
    3TTP    C38 6929   2.009   3.140   2.935  0.2340 -0.0407 -0.5039
    3TTP    C39 6930   2.045   3.060   2.814 -0.3698 -0.0782 -0.1530
    3TTP    C40 6931   2.017   2.912   2.834  0.5072 -0.5948 -0.4065
    3TTP    C41 6932   2.072   2.835   2.951  0.4000  0.2020  0.2020
    3TTP    C42 6933   2.049   2.687   2.936 -0.1982  0.3974 -0.2979
    4FIC     F1 6934   2.018   5.728   2.655 -0.1256  0.0942 -0.0194
    4FIC     F2 6935   2.063   5.844   2.413  0.2703 -0.0390 -0.0104
    4FIC     O1 6936   1.905   5.220   2.506 -0.4762  0.1552  0.0363
    4FIC     N5 6937   2.048   5.648   1.959  0.5898 -0.1868  0.0421
    4FIC     N6 6938   1.950   5.228   1.891  0.2361 -0.1122  0.0839
    4FIC    C19 6939   1.908   5.150   2.222 -0.2224  0.0496  0.0647
    4FIC    C20 6940   1.935   5.273   2.269 -0.1497  0.0397  0.0502
    4FIC    C21 6941   1.931   5.302   2.416 -0.2898  0.0963  0.0363
    4FIC    C22 6942   1.964   5.444   2.433 -0.1620  0.0681  0.0226
    4FIC    C23 6943   1.974   5.516   2.551 -0.2238  0.1014  0.0071
    4FIC    C24 6944   2.007   5.651   2.542 -0.0750  0.0644 -0.0038
    4FIC    C25 6945   2.030   5.710   2.417  0.1288 -0.0043  0.0008
    4FIC    C26 6946   2.021   5.639   2.298  0.1916 -0.0379  0.0163
    4FIC    C27 6947   1.988   5.503   2.306  0.0432 -0.0011  0.0275
    4FIC    C28 6948   1.970   5.400   2.200  0.0588 -0.0212  0.0447
    4FIC    C29 6949   1.984   5.419   2.065  0.2334 -0.0844  0.0538
    4FIC    C30 6950   2.019   5.545   2.007  0.4288 -0.1405  0.0474
    4FIC    C31 6951   1.965   5.314   1.970  0.2338 -0.0994  0.0702
    5FIC     F1 6952   2.784   4.324   3.629  0.4827 -0.1687 -0.4314
    5FIC     F2 6953   2.852   4.067   3.687 -0.0469 -0.2400 -0.1051
    5FIC     O1 6954   2.411   4.246   3.244  0.4931  0.1214 -0.5009
    5FIC     N5 6955   2.686   3.642   3.496 -0.8008 -0.1357  0.3145
    5FIC     N6 6956   2.380   3.633   3.184 -0.6859  0.1051  0.1945
    5FIC    C19 6957   2.344   3.972   3.163 -0.0092  0.1562 -0.2138
    5FIC    C20 6958   2.435   4.002   3.257  0.0089  0.0861 -0.2091
    5FIC    C21 6959   2.464   4.145   3.294  0.2743  0.0727 -0.3620
    5FIC    C22 6960   2.567   4.142   3.399  0.2226 -0.0093 -0.3136
    5FIC    C23 6961   2.626   4.250   3.464  0.4073 -0.0486 -0.4135
    5FIC    C24 6962   2.721   4.222   3.560  0.3110 -0.1264 -0.3399
    5FIC    C25 6963   2.757   4.089   3.590  0.0380 -0.1627 -0.1717
    5FIC    C26 6964   2.699   3.981   3.526 -0.1474 -0.1240 -0.0715
    5FIC    C27 6965   2.602   4.007   3.428 -0.0536 -0.0454 -0.1436
    5FIC    C28 6966   2.522   3.916   3.342 -0.1958  0.0118 -0.0728
    5FIC    C29 6967   2.527   3.779   3.341 -0.4656 -0.0017  0.0884
    5FIC    C30 6968   2.614   3.704   3.426 -0.6490 -0.0754  0.2122
    5FIC    C31 6969   2.446   3.699   3.255 -0.5853  0.0572  0.1459
    1BTD     S2 6970   3.425   4.088   0.691  0.3918  0.1622  0.0949
    1BTD     N1 6971   3.403   4.267   0.695 -0.0318  0.1116  0.1633
    1BTD     N2 6972   3.356   4.069   0.526  0.5671  0.0770  0.0311
    1BTD     N3 6973   3.176   4.352   0.197  0.1597 -0.1878  0.0246
    1BTD     N4 6974   3.234   4.596   0.405 -0.5785 -0.1452  0.1875
    1BTD     C5 6975   3.314   4.436   0.541 -0.3083 -0.0230  0.1740
    1BTD     C6 6976   3.348   4.301   0.579 -0.0213  0.0377  0.1364
    1BTD     C7 6977   3.322   4.190   0.484  0.3141  0.0184  0.0624
    1BTD     C8 6978   3.263   4.220   0.356  0.3455 -0.0607  0.0297
    1BTD    C15 6979   3.231   4.353   0.324  0.0575 -0.1181  0.0684
    1BTD    C16 6980   3.256   4.460   0.415 -0.2656 -0.0997  0.1397
    1BTD    C43 6981   3.168   4.675   0.305 -0.3924  0.1066 -0.0346
    1BTD    C44 6982   3.015   4.675   0.308 -0.9743  0.7875  0.3210
    1BTD    C45 6983   2.969   4.736   0.173  0.1887 -0.0421  0.7336
    1BTD    C46 6984   2.821   4.729   0.145 -0.5657 -0.5328  0.5809
    1BTD    C47 6985   2.949   4.715   0.434 -0.1499 -1.1018 -0.2415
    1BTD    C48 6986   2.957   4.862   0.469  0.2205 -0.5430  0.1493
    1BTD    C49 6987   2.884   4.873   0.600 -0.1580 -0.6255 -0.9391
    1BTD    C50 6988   2.886   5.016   0.650 -0.5289 -0.3522 -0.0510
    1BTD    C75 6989   3.193   4.448   0.084  0.3539 -0.1559 -0.3905
    1BTD    C76 6990   3.335   4.480   0.039 -0.8509 -0.4089  0.1888
    1BTD    C77 6991   3.333   4.615  -0.029 -0.0565 -0.0002  0.7782
    1BTD    C78 6992   3.253   4.646  -0.152 -0.2635 -0.4892 -0.0100
    1BTD    C79 6993   3.401   4.359  -0.029  0.2619  0.0954  0.5098
    1BTD    C80 6994   3.533   4.374  -0.105  0.6045  0.3336  0.2250
    1BTD    C81 6995   3.556   4.251  -0.202  0.1461 -0.1885 -0.7276
    1BTD    C82 6996   3.686   4.255  -0.286 -0.6379  0.6230  0.0236
    2TTP     S1 6997   3.385   4.632   0.766 -0.0976  0.0464 -0.2342
    2TTP     S5 6998   3.277   4.957   0.505 -0.0129 -0.0648 -0.4086
    2TTP     C1 6999   3.334   5.026   0.664 -0.0907  0.0021 -0.4098
    2TTP     C2 7000   3.371   4.930   0.753 -0.1214  0.0403 -0.3560
    2TTP     C3 7001   3.355   4.798   0.700 -0.0846  0.0181 -0.3119
    2TTP     C4 7002   3.328   4.563   0.607 -0.0199 -0.0206 -0.2331
    2TTP    C17 7003   3.292   4.660   0.517  0.0109 -0.0589 -0.2869
    2TTP    C18 7004   3.307   4.791   0.571 -0.0258 -0.0368 -0.3309
    2TTP    C32 7005   3.404   4.942   0.905  0.8088  0.4105 -0.1818
    2TTP    C33 7006   3.545   4.917   0.957 -0.3351 -0.2298 -0.2823
    2TTP    C34 7007   3.576   4.957   1.106  0.0556 -0.0986  0.0994
    2TTP    C35 7008   3.545   5.096   1.156 -0.0528 -0.3193 -0.1424
    2TTP    C36 7009   3.613   5.141   1.282 -0.0821 -0.9852 -0.4428
    2TTP    C37 7010   3.582   5.284   1.332  0.2334 -0.5222 -0.5811
    2TTP    C38 7011   3.661   5.338   1.450 -0.4266 -0.0434 -0.2123
    2TTP    C39 7012   3.629   5.484   1.477  0.1146 -0.4392 -0.6151
    2TTP    C40 7013   3.691   5.552   1.597 -0.1721  0.3932 -0.4853
    2TTP    C41 7014   3.632   5.690   1.622 -0.7206  0.2608 -0.6815
    2TTP    C42 7015   3.693   5.753   1.754  0.1216 -0.1684  0.4322
    3TTP     S1 7016   3.154   3.964   0.242  0.0275  0.0930  0.3527
    3TTP     S5 7017   2.945   4.189  -0.059  0.1512 -0.4021 -0.1055
    3TTP     C1 7018   2.892   4.015  -0.070  0.3079 -0.4578  0.0241
    3TTP     C2 7019   2.954   3.935   0.023  0.2789 -0.3083  0.1733
    3TTP     C3 7020   3.045   4.008   0.105  0.1320 -0.1442  0.1905
    3TTP     C4 7021   3.207   4.138   0.252 -0.1292  0.1488  0.2230
    3TTP    C17 7022   3.145   4.217   0.160 -0.1002 -0.0009  0.0738
    3TTP    C18 7023   3.054   4.144   0.078  0.0468 -0.1650  0.0566
    3TTP    C32 7024   2.939   3.784   0.042  0.0433  0.1134 -0.5252
    3TTP    C33 7025   3.072   3.705   0.014  0.2922  0.1051  0.5995
    3TTP    C34 7026   3.068   3.553   0.047  0.5873  0.2610 -0.1823
    3TTP    C35 7027   3.187   3.481  -0.016  0.0476 -0.1764  1.1169
    3TTP    C36 7028   3.198   3.335   0.006  0.7552  0.1500 -0.5537
    3TTP    C37 7029   3.192   3.278   0.150 -0.8891 -0.2725 -0.5120
    3TTP    C38 7030   3.322   3.298   0.235  0.5338  0.3236  0.2322
    3TTP    C39 7031   3.302   3.253   0.379 -0.6570  0.4274  0.2053
    3TTP    C40 7032   3.433   3.249   0.462  0.3464 -0.0843  0.1449
    3TTP    C41 7033   3.411   3.217   0.612 -0.1278 -0.3085  0.6684
    3TTP    C42 7034   3.541   3.210   0.688 -0.4497 -0.2699 -0.1487
    4FIC     F1 7035   3.313   5.717   0.232  0.0044 -0.1699 -0.0377
    4FIC     F2 7036   3.266   5.852   0.464 -0.2059 -0.1286 -0.1039
    4FIC     O1 7037   3.361   5.210   0.415  0.2984 -0.0745  0.1514
    4FIC     N5 7038   3.232   5.683   0.928 -0.2987 -0.0012 -0.0644
    4FIC     N6 7039   3.279   5.260   1.025 -0.0265  0.0651  0.0967
    4FIC    C19 7040   3.333   5.158   0.702  0.2019 -0.0011  0.1553
    4FIC    C20 7041   3.322   5.281   0.647  0.1362 -0.0267  0.1103
    4FIC    C21 7042   3.338   5.299   0.499  0.1922 -0.0639  0.1115
    4FIC    C22 7043   3.321   5.443   0.473  0.0963 -0.0848  0.0563
    4FIC    C23 7044   3.327   5.509   0.350  0.1051 -0.1206  0.0376
    4FIC    C24 7045   3.308   5.646   0.350  0.0020 -0.1347 -0.0165
    4FIC    C25 7046   3.284   5.715   0.470 -0.1062 -0.1134 -0.0505
    4FIC    C26 7047   3.278   5.651   0.592 -0.1157 -0.0775 -0.0322
    4FIC    C27 7048   3.297   5.511   0.594 -0.0122 -0.0629  0.0225
    4FIC    C28 7049   3.297   5.414   0.706  0.0080 -0.0263  0.0543
    4FIC    C29 7050   3.276   5.443   0.839 -0.0762  0.0024  0.0355
    4FIC    C30 7051   3.252   5.575   0.888 -0.1983  0.0004 -0.0194
    4FIC    C31 7052   3.278   5.342   0.940 -0.0484  0.0366  0.0693
    5FIC     F1 7053   2.377   4.343  -0.622 -0.0273 -0.0283 -0.0711
    5FIC     F2 7054   2.321   4.092  -0.712  0.0109 -0.0254 -0.1027
    5FIC     O1 7055   2.726   4.232  -0.222 -0.1482 -0.0366  0.0322
    5FIC     N5 7056   2.489   3.653  -0.558 -0.0204 -0.0275 -0.0744
    5FIC     N6 7057   2.772   3.617  -0.228 -0.1227 -0.0348  0.0127
    5FIC    C19 7058   2.796   3.953  -0.167 -0.1547 -0.0372  0.0388
    5FIC    C20 7059   2.711   3.991  -0.264 -0.1259 -0.0350  0.0141
    5FIC    C21 7060   2.679   4.136  -0.286 -0.1245 -0.0350  0.0124
    5FIC    C22 7061   2.584   4.142  -0.398 -0.0896 -0.0325 -0.0174
    5FIC    C23 7062   2.526   4.255  -0.455 -0.0761 -0.0317 -0.0293
    5FIC    C24 7063   2.438   4.235  -0.561 -0.0422 -0.0292 -0.0581
    5FIC    C25 7064   2.409   4.106  -0.607 -0.0226 -0.0278 -0.0741
    5FIC    C26 7065   2.466   3.993  -0.551 -0.0359 -0.0287 -0.0625
    5FIC    C27 7066   2.556   4.011  -0.444 -0.0700 -0.0311 -0.0334
    5FIC    C28 7067   2.633   3.913  -0.363 -0.0916 -0.0326 -0.0148
    5FIC    C29 7068   2.631   3.776  -0.378 -0.0817 -0.0319 -0.0227
    5FIC    C30 7069   2.553   3.709  -0.477 -0.0481 -0.0294 -0.0510
    5FIC    C31 7070   2.709   3.689  -0.295 -0.1044 -0.0334 -0.0030
    1BTD     S2 7071   4.196   6.554   1.642  0.1669 -0.3307  0.0953
    1BTD     N1 7072   4.168   6.377   1.650 -0.0213 -0.3015  0.0979
    1BTD     N2 7073   4.149   6.569   1.469  0.3334 -0.3089  0.0521
    1BTD     N3 7074   4.004   6.278   1.130  0.3326 -0.2115 -0.0312
    1BTD     N4 7075   4.027   6.041   1.353 -0.1044 -0.2025  0.0252
    1BTD     C5 7076   4.094   6.205   1.492 -0.0595 -0.2500  0.0593
    1BTD     C6 7077   4.128   6.340   1.529  0.0461 -0.2782  0.0680
    1BTD     C7 7078   4.117   6.447   1.428  0.2446 -0.2823  0.0423
    1BTD     C8 7079   4.074   6.414   1.295  0.3277 -0.2580  0.0093
    1BTD    C15 7080   4.042   6.281   1.263  0.2190 -0.2307  0.0019
    1BTD    C16 7081   4.052   6.177   1.360  0.0276 -0.2268  0.0266
    1BTD    C43 7082   3.920   5.965   1.282  0.0430 -0.8026  0.2347
    1BTD    C44 7083   3.781   5.939   1.337  0.0522 -0.2390 -0.3315
    1BTD    C45 7084   3.720   6.067   1.394  1.0046  0.4474  0.9935
    1BTD    C46 7085   3.590   6.044   1.476 -0.4919 -0.7813  0.0024
    1BTD    C47 7086   3.690   5.849   1.255  0.1912 -0.6525  0.1448
    1BTD    C48 7087   3.746   5.728   1.185  0.0457  0.3860  0.4393
    1BTD    C49 7088   3.643   5.630   1.130  0.2145 -0.6076 -0.6297
    1BTD    C50 7089   3.685   5.505   1.060  0.4914 -0.2205  0.8233
    1BTD    C75 7090   4.001   6.170   1.031  0.9885  0.2141 -0.1470
    1BTD    C76 7091   4.126   6.124   0.960  0.0438  0.1355  0.6684
    1BTD    C77 7092   4.108   6.010   0.860  0.7554  0.0322  0.2985
    1BTD    C78 7093   4.005   6.026   0.749  0.5190  0.3373  0.8077
    1BTD    C79 7094   4.214   6.235   0.898  0.2468 -0.5990 -1.0640
    1BTD    C80 7095   4.351   6.208   0.843  0.2866  0.5632  0.1966
    1BTD    C81 7096   4.413   6.330   0.778  0.8417 -0.7584 -0.5669
    1BTD    C82 7097   4.365   6.356   0.631 -0.2164  0.1180  0.2713
    2TTP     S1 7098   4.153   6.013   1.723  0.0652 -0.2701  0.0109
    2TTP     S5 7099   4.044   5.682   1.470  0.1090  0.0073 -0.3724
    2TTP     C1 7100   4.100   5.617   1.630 -0.1448 -0.1585 -0.3501
    2TTP     C2 7101   4.137   5.715   1.718 -0.1732 -0.2542 -0.2304
    2TTP     C3 7102   4.123   5.845   1.661  0.0043 -0.1997 -0.1521
    2TTP     C4 7103   4.097   6.078   1.563  0.3190 -0.1043 -0.0114
    2TTP    C17 7104   4.060   5.980   1.475  0.3472 -0.0087 -0.1311
    2TTP    C18 7105   4.075   5.849   1.531  0.1699 -0.0632 -0.2095
    2TTP    C32 7106   4.167   5.709   1.871  0.3933  0.1276  0.0396
    2TTP    C33 7107   4.318   5.720   1.914  0.4717  0.2707 -0.3187
    2TTP    C34 7108   4.409   5.610   1.849  0.3956 -0.2411 -0.3932
    2TTP    C35 7109   4.552   5.619   1.889  0.1694  0.0522 -0.5097
    2TTP    C36 7110   4.620   5.490   1.851  0.7242 -0.0171 -0.7945
    2TTP    C37 7111   4.771   5.497   1.856 -0.3201  0.3119 -0.6497
    2TTP    C38 7112   4.845   5.362   1.836 -0.4061 -0.0591  0.9568
    2TTP    C39 7113   4.820   5.298   1.697  0.2778 -0.4047  0.3700
    2TTP    C40 7114   4.848   5.153   1.681  0.5328 -0.1905  0.5488
    2TTP    C41 7115   4.848   5.109   1.534 -0.4225  0.7971 -0.0305
    2TTP    C42 7116   4.866   4.955   1.510 -0.0252  0.4038 -0.0727
    3TTP     S1 7117   4.024   6.669   1.129 -0.0704 -0.0037 -0.2233
    3TTP     S5 7118   3.804   6.427   0.850  0.1438 -0.2962 -0.1395
    3TTP     C1 7119   3.777   6.602   0.808 -0.0502 -0.3330 -0.1707
    3TTP     C2 7120   3.843   6.687   0.892 -0.1277 -0.2447 -0.1985
    3TTP     C3 7121   3.918   6.617   0.992 -0.0368 -0.1450 -0.1961
    3TTP     C4 7122   4.051   6.494   1.170  0.1237  0.0329 -0.1921
    3TTP    C17 7123   3.984   6.409   1.086  0.2013 -0.0551 -0.1643
    3TTP    C18 7124   3.910   6.479   0.986  0.1102 -0.1549 -0.1668
    3TTP    C32 7125   3.854   6.840   0.880  0.5688  0.6314 -0.7619
    3TTP    C33 7126   3.985   6.873   0.814 -0.3981  0.1616 -0.6259
    3TTP    C34 7127   4.052   7.011   0.848 -0.7572  0.6441  0.3209
    3TTP    C35 7128   3.961   7.140   0.844 -0.2252  0.1235  0.2197
    3TTP    C36 7129   3.875   7.162   0.711  0.3177 -0.0401  0.0489
    3TTP    C37 7130   3.767   7.270   0.709  0.1336 -0.3026 -0.5667
    3TTP    C38 7131   3.803   7.414   0.735  0.6131 -0.1601  0.4968
    3TTP    C39 7132   3.684   7.510   0.735  0.0151 -0.1276 -0.5391
    3TTP    C40 7133   3.728   7.661   0.738 -0.1669  0.0264 -0.5522
    3TTP    C41 7134   3.811   7.704   0.615  0.4441  0.2351  0.5709
    3TTP    C42 7135   3.829   7.855   0.608 -0.2303  0.1070 -0.0395
    4FIC     F1 7136   3.969   4.892   1.265 -0.0042  0.1202 -0.1312
    4FIC     F2 7137   4.034   4.769   1.499 -0.3468  0.0356 -0.0804
    4FIC     O1 7138   4.021   5.412   1.406  0.1696  0.0615  0.0224
    4FIC     N5 7139   4.163   4.962   1.936 -0.7154 -0.1278  0.1020
    4FIC     N6 7140   4.190   5.393   1.999 -0.5106 -0.1565  0.2117
    4FIC    C19 7141   4.101   5.479   1.680 -0.0960 -0.0401  0.1254
    4FIC    C20 7142   4.085   5.353   1.635 -0.1261 -0.0222  0.0848
    4FIC    C21 7143   4.044   5.327   1.493  0.0169  0.0305  0.0330
    4FIC    C22 7144   4.037   5.180   1.478 -0.0600  0.0379 -0.0021
    4FIC    C23 7145   4.002   5.108   1.364  0.0224  0.0808 -0.0542
    4FIC    C24 7146   4.002   4.970   1.374 -0.0773  0.0791 -0.0796
    4FIC    C25 7147   4.035   4.906   1.494 -0.2538  0.0353 -0.0534
    4FIC    C26 7148   4.070   4.978   1.609 -0.3368 -0.0076 -0.0014
    4FIC    C27 7149   4.070   5.118   1.600 -0.2379 -0.0064  0.0249
    4FIC    C28 7150   4.102   5.221   1.702 -0.2857 -0.0449  0.0794
    4FIC    C29 7151   4.139   5.200   1.832 -0.4470 -0.0930  0.1175
    4FIC    C30 7152   4.152   5.069   1.889 -0.5939 -0.1119  0.1088
    4FIC    C31 7153   4.167   5.306   1.923 -0.4809 -0.1278  0.1691
    5FIC     F1 7154   3.293   6.252   0.249  0.0051 -0.0131  0.0630
    5FIC     F2 7155   3.198   6.498   0.185  0.3564  0.0457 -0.2370
    5FIC     O1 7156   3.644   6.376   0.642 -0.2722 -0.1031  0.3405
    5FIC     N5 7157   3.311   6.942   0.372  0.6637  0.0662 -0.4706
    5FIC     N6 7158   3.605   6.990   0.692  0.3762 -0.0160 -0.1933
    5FIC    C19 7159   3.678   6.657   0.720 -0.0351 -0.0789  0.1524
    5FIC    C20 7160   3.593   6.615   0.624  0.0209 -0.0584  0.0943
    5FIC    C21 7161   3.581   6.470   0.589 -0.1091 -0.0728  0.1984
    5FIC    C22 7162   3.481   6.460   0.481 -0.0045 -0.0440  0.0986
    5FIC    C23 7163   3.437   6.345   0.417 -0.0669 -0.0448  0.1428
    5FIC    C24 7164   3.341   6.361   0.317  0.0575 -0.0142  0.0274
    5FIC    C25 7165   3.293   6.488   0.284  0.2385  0.0161 -0.1271
    5FIC    C26 7166   3.337   6.603   0.348  0.3016  0.0170 -0.1721
    5FIC    C27 7167   3.433   6.589   0.449  0.1777 -0.0137 -0.0569
    5FIC    C28 7168   3.500   6.690   0.535  0.2004 -0.0215 -0.0656
    5FIC    C29 7169   3.479   6.826   0.534  0.3579  0.0017 -0.1969
    5FIC    C30 7170   3.387   6.889   0.445  0.5255  0.0371 -0.3469
    5FIC    C31 7171   3.549   6.915   0.621  0.3671 -0.0081 -0.1942
    1BTD     S2 7172   2.586   6.470   3.074 -0.2800 -0.2492 -0.1175
    1BTD     N1 7173   2.596   6.292   3.093 -0.5309 -0.2511  0.0085
    1BTD     N2 7174   2.630   6.506   3.244  0.0139 -0.1823 -0.2068
    1BTD     N3 7175   2.739   6.256   3.627  0.1597 -0.0491 -0.1613
    1BTD     N4 7176   2.697   5.993   3.440 -0.5116 -0.1338  0.1040
    1BTD     C5 7177   2.649   6.139   3.276 -0.5127 -0.1887  0.0552
    1BTD     C6 7178   2.630   6.269   3.219 -0.3899 -0.2040 -0.0210
    1BTD     C7 7179   2.649   6.389   3.304 -0.0851 -0.1657 -0.1416
    1BTD     C8 7180   2.687   6.373   3.442  0.0820 -0.1137 -0.1799
    1BTD    C15 7181   2.704   6.243   3.494 -0.0473 -0.1005 -0.1024
    1BTD    C16 7182   2.686   6.127   3.412 -0.3411 -0.1375  0.0138
    1BTD    C43 7183   2.798   5.930   3.529  0.2452  0.4155  0.1160
    1BTD    C44 7184   2.950   5.927   3.486  0.1515 -0.5552  0.1291
    1BTD    C45 7185   3.051   5.916   3.602 -0.4135  0.2737 -0.5726
    1BTD    C46 7186   3.040   5.998   3.727  0.4510  0.1256  0.1464
    1BTD    C47 7187   2.998   5.845   3.366  0.6568 -0.4201  0.2299
    1BTD    C48 7188   2.985   5.698   3.380  0.2227 -0.0841 -0.8440
    1BTD    C49 7189   3.016   5.636   3.252  0.1956  0.1411  0.8150
    1BTD    C50 7190   3.155   5.632   3.190  0.0481  0.0060  0.0483
    1BTD    C75 7191   2.719   6.162   3.731 -0.9976  0.2578 -0.6519
    1BTD    C76 7192   2.595   6.142   3.821  0.3981  0.1510  0.0801
    1BTD    C77 7193   2.591   6.009   3.886 -0.3393  0.3142 -0.0637
    1BTD    C78 7194   2.693   5.979   4.000  0.7060 -1.4010  0.4120
    1BTD    C79 7195   2.558   6.270   3.894  0.7293  0.3177 -0.1115
    1BTD    C80 7196   2.422   6.277   3.973  0.1679 -0.2928  0.3535
    1BTD    C81 7197   2.431   6.375   4.082  0.0801  0.0430 -0.3719
    1BTD    C82 7198   2.322   6.363   4.186  0.5530  0.4552 -0.6877
    2TTP     S1 7199   2.556   5.924   3.079 -0.0380 -0.0037  0.0859
    2TTP     S5 7200   2.635   5.623   3.376 -0.3807 -0.2211 -0.0418
    2TTP     C1 7201   2.564   5.542   3.229 -0.2228 -0.1126 -0.1796
    2TTP     C2 7202   2.535   5.630   3.129 -0.1079 -0.0390 -0.1482
    2TTP     C3 7203   2.569   5.765   3.164 -0.1400 -0.0658 -0.0144
    2TTP     C4 7204   2.628   6.004   3.225 -0.1959 -0.1122  0.2236
    2TTP    C17 7205   2.657   5.916   3.326 -0.3109 -0.1858  0.1923
    2TTP    C18 7206   2.623   5.782   3.290 -0.2787 -0.1591  0.0584
    2TTP    C32 7207   2.468   5.601   2.989  0.7920 -0.4508 -0.2529
    2TTP    C33 7208   2.312   5.627   2.989 -0.8439  0.2401  0.0784
    2TTP    C34 7209   2.260   5.670   2.846 -0.5393 -0.0104 -0.1048
    2TTP    C35 7210   2.311   5.608   2.716  0.4715  1.1724  0.8792
    2TTP    C36 7211   2.316   5.452   2.706  0.0275  0.0851 -0.3465
    2TTP    C37 7212   2.318   5.414   2.555  0.0442 -0.0828  0.1653
    2TTP    C38 7213   2.321   5.258   2.541  0.0263  0.3594 -0.1459
    2TTP    C39 7214   2.302   5.209   2.401  0.4331 -0.7901  0.4388
    2TTP    C40 7215   2.307   5.061   2.398 -0.1855  0.0293 -0.3694
    2TTP    C41 7216   2.284   5.005   2.261  0.1590 -0.3903 -0.2174
    2TTP    C42 7217   2.277   4.855   2.277  0.3831 -0.7912 -0.4006
    3TTP     S1 7218   2.774   6.641   3.560 -0.3516  0.3513  0.3440
    3TTP     S5 7219   2.965   6.421   3.876  0.2351 -0.2615 -0.4280
    3TTP     C1 7220   3.021   6.594   3.884  0.0341 -0.2136 -0.0265
    3TTP     C2 7221   2.965   6.672   3.787 -0.1589 -0.0215  0.2355
    3TTP     C3 7222   2.876   6.598   3.702 -0.1550  0.0947  0.1287
    3TTP     C4 7223   2.719   6.467   3.552 -0.1506  0.3034 -0.0575
    3TTP    C17 7224   2.775   6.389   3.649  0.0424  0.1113 -0.3195
    3TTP    C18 7225   2.863   6.464   3.733  0.0386 -0.0050 -0.2127
    3TTP    C32 7226   2.985   6.823   3.761  0.4312  0.4265  0.3953
    3TTP    C33 7227   2.866   6.901   3.826  0.2051 -0.1213  0.1427
    3TTP    C34 7228   2.855   7.046   3.785  0.4792 -0.7880  0.0337
    3TTP    C35 7229   2.844   7.070   3.633 -0.1404 -0.4630 -0.0233
    3TTP    C36 7230   2.857   7.220   3.595  0.0075 -0.6428  0.0224
    3TTP    C37 7231   2.844   7.272   3.449 -0.2755  0.3818 -0.4354
    3TTP    C38 7232   2.726   7.229   3.362 -0.3500  0.5540 -0.1487
    3TTP    C39 7233   2.590   7.265   3.413 -0.2580 -0.4397  0.1363
    3TTP    C40 7234   2.480   7.243   3.313  0.5194  0.2586  0.4976
    3TTP    C41 7235   2.346   7.291   3.360  0.4076 -0.4433 -0.4352
    3TTP    C42 7236   2.254   7.296   3.232  0.0556  0.0901  0.8220
    4FIC     F1 7237   2.542   4.903   3.740 -0.0691  0.2245  0.1337
    4FIC     F2 7238   2.548   4.737   3.524  0.0619  0.1122  0.2226
    4FIC     O1 7239   2.539   5.387   3.497  0.0024  0.0982 -0.1205
    4FIC     N5 7240   2.554   4.844   3.041  0.3011 -0.1392  0.1694
    4FIC     N6 7241   2.551   5.256   2.895  0.3306 -0.2152 -0.0471
    4FIC    C19 7242   2.544   5.401   3.205  0.1529 -0.0538 -0.1258
    4FIC    C20 7243   2.544   5.285   3.274  0.1298 -0.0178 -0.0653
    4FIC    C21 7244   2.542   5.286   3.425  0.0516  0.0604 -0.0669
    4FIC    C22 7245   2.543   5.145   3.468  0.0452  0.0827  0.0074
    4FIC    C23 7246   2.542   5.096   3.598 -0.0170  0.1507  0.0325
    4FIC    C24 7247   2.543   4.958   3.614 -0.0098  0.1589  0.1052
    4FIC    C25 7248   2.546   4.873   3.502  0.0578  0.1009  0.1509
    4FIC    C26 7249   2.548   4.922   3.372  0.1200  0.0333  0.1262
    4FIC    C27 7250   2.546   5.061   3.354  0.1138  0.0238  0.0528
    4FIC    C28 7251   2.547   5.144   3.231  0.1684 -0.0403  0.0100
    4FIC    C29 7252   2.550   5.097   3.101  0.2410 -0.1078  0.0352
    4FIC    C30 7253   2.552   4.958   3.068  0.2738 -0.1248  0.1089
    4FIC    C31 7254   2.550   5.185   2.988  0.2899 -0.1664 -0.0103
    5FIC     F1 7255   3.557   6.295   4.425 -0.2494  0.2384  0.1092
    5FIC     F2 7256   3.627   6.550   4.489 -0.1202  0.2742 -0.1717
    5FIC     O1 7257   3.186   6.383   4.041 -0.1888  0.0048 -0.0032
    5FIC     N5 7258   3.462   6.980   4.307  0.1089  0.1587 -0.6556
    5FIC     N6 7259   3.157   6.997   3.994  0.1302 -0.0310 -0.6869
    5FIC    C19 7260   3.120   6.658   3.966 -0.0437 -0.0443 -0.3115
    5FIC    C20 7261   3.211   6.626   4.060 -0.0641  0.0131 -0.2723
    5FIC    C21 7262   3.239   6.482   4.093 -0.1395  0.0350 -0.1114
    5FIC    C22 7263   3.342   6.483   4.198 -0.1433  0.0989 -0.1082
    5FIC    C23 7264   3.400   6.373   4.261 -0.2025  0.1384  0.0160
    5FIC    C24 7265   3.496   6.399   4.359 -0.1932  0.1971 -0.0087
    5FIC    C25 7266   3.531   6.531   4.391 -0.1265  0.2152 -0.1535
    5FIC    C26 7267   3.474   6.640   4.329 -0.0672  0.1762 -0.2780
    5FIC    C27 7268   3.377   6.616   4.230 -0.0757  0.1167 -0.2552
    5FIC    C28 7269   3.297   6.709   4.146 -0.0244  0.0647 -0.3618
    5FIC    C29 7270   3.303   6.847   4.148  0.0465  0.0643 -0.5142
    5FIC    C30 7271   3.390   6.920   4.235  0.0806  0.1162 -0.5914
    5FIC    C31 7272   3.223   6.929   4.063  0.0921  0.0118 -0.6083
    1BTD     S2 7273   4.311   1.427   0.707 -0.1012 -0.0536 -0.1484
    1BTD     N1 7274   4.297   1.606   0.703 -0.1117 -0.0513 -0.0165
    1BTD     N2 7275   4.245   1.404   0.541 -0.0638  0.0669 -0.1804
    1BTD     N3 7276   4.086   1.679   0.196 -0.0074  0.3166 -0.0075
    1BTD     N4 7277   4.150   1.929   0.395 -0.0665  0.1710  0.1945
    1BTD     C5 7278   4.219   1.772   0.540 -0.0874  0.0665  0.0912
    1BTD     C6 7279   4.246   1.638   0.584 -0.0882  0.0347 -0.0038
    1BTD     C7 7280   4.218   1.524   0.494 -0.0614  0.1009 -0.0955
    1BTD     C8 7281   4.163   1.551   0.363 -0.0349  0.1955 -0.0877
    1BTD    C15 7282   4.138   1.684   0.324 -0.0350  0.2236  0.0069
    1BTD    C16 7283   4.166   1.793   0.411 -0.0610  0.1598  0.0953
    1BTD    C43 7284   4.047   2.004   0.316 -0.0924  0.0345 -0.0908
    1BTD    C44 7285   3.910   2.035   0.373  0.0381 -0.2266  0.2884
    1BTD    C45 7286   3.831   1.905   0.419 -0.8783  0.1609  0.4234
    1BTD    C46 7287   3.700   1.929   0.489  0.3738  0.0606 -0.6852
    1BTD    C47 7288   3.834   2.123   0.284  0.4968 -0.0770  0.6657
    1BTD    C48 7289   3.791   2.059   0.143 -0.2087 -0.6259  0.8250
    1BTD    C49 7290   3.672   2.130   0.090 -0.2546 -0.6727 -0.0139
    1BTD    C50 7291   3.606   2.073  -0.039 -0.2631 -0.5974  0.2094
    1BTD    C75 7292   4.041   1.780   0.097  0.0324 -0.1472  0.0651
    1BTD    C76 7293   4.147   1.838  -0.001 -0.4200 -0.0909 -0.6547
    1BTD    C77 7294   4.091   1.963  -0.080  0.1152  0.0107 -0.0962
    1BTD    C78 7295   3.972   1.950  -0.174 -0.5826  0.7232 -0.2059
    1BTD    C79 7296   4.233   1.738  -0.072  0.5336 -0.2485  0.1962
    1BTD    C80 7297   4.329   1.810  -0.157 -0.6521 -0.3971  0.8013
    1BTD    C81 7298   4.432   1.733  -0.236  0.3552  0.1340 -0.0431
    1BTD    C82 7299   4.520   1.826  -0.314 -0.6190 -0.6322  0.2888
    2TTP     S1 7300   4.281   1.973   0.761 -0.1165 -0.0493  0.4721
    2TTP     S5 7301   4.130   2.293   0.516  0.5151 -0.2432 -0.1751
    2TTP     C1 7302   4.175   2.361   0.678  0.2077 -0.0916 -0.1525
    2TTP     C2 7303   4.224   2.266   0.764 -0.0055 -0.0228  0.0487
    2TTP     C3 7304   4.228   2.136   0.704  0.0664 -0.0873  0.1922
    2TTP     C4 7305   4.236   1.905   0.599  0.1910 -0.2009  0.4494
    2TTP    C17 7306   4.187   2.000   0.513  0.4042 -0.2697  0.2483
    2TTP    C18 7307   4.183   2.129   0.573  0.3322 -0.2052  0.1047
    2TTP    C32 7308   4.276   2.289   0.906  0.5163  0.3223 -0.3260
    2TTP    C33 7309   4.428   2.253   0.923  0.6650  0.0628 -0.2433
    2TTP    C34 7310   4.523   2.356   0.859 -0.8262  0.4174  0.4551
    2TTP    C35 7311   4.669   2.327   0.891  0.0937 -0.2464  0.3741
    2TTP    C36 7312   4.763   2.430   0.834 -0.1243 -1.1376  0.1490
    2TTP    C37 7313   4.783   2.437   0.684 -0.1405  0.2895 -0.0736
    2TTP    C38 7314   4.872   2.563   0.636 -0.1388  0.9011 -0.1783
    2TTP    C39 7315   4.828   2.707   0.665 -0.1681  0.5230 -0.4192
    2TTP    C40 7316   4.877   2.821   0.578  0.5461  0.3900 -0.1938
    2TTP    C41 7317   4.819   2.950   0.633 -0.0718  0.4413 -0.1134
    2TTP    C42 7318   4.895   3.064   0.567 -0.0077  0.0747 -0.4281
    3TTP     S1 7319   4.094   1.289   0.221 -0.0206 -0.1187  0.1477
    3TTP     S5 7320   3.880   1.518  -0.074  0.3673 -0.0543 -0.0854
    3TTP     C1 7321   3.848   1.342  -0.103  0.2079 -0.0371 -0.0136
    3TTP     C2 7322   3.912   1.261  -0.014  0.0788 -0.0560  0.0625
    3TTP     C3 7323   3.989   1.335   0.081  0.1010 -0.0847  0.0670
    3TTP     C4 7324   4.127   1.466   0.250  0.1390 -0.1359  0.0760
    3TTP    C17 7325   4.062   1.547   0.161  0.2681 -0.1170 -0.0002
    3TTP    C18 7326   3.985   1.473   0.066  0.2457 -0.0883 -0.0047
    3TTP    C32 7327   3.918   1.110  -0.019  0.0725  0.1832  0.2475
    3TTP    C33 7328   4.043   1.054  -0.090  0.0030 -0.1804  0.1185
    3TTP    C34 7329   4.044   0.902  -0.101  0.5906 -0.0104 -0.2427
    3TTP    C35 7330   4.046   0.819   0.029 -0.2602  0.6761 -0.5669
    3TTP    C36 7331   4.027   0.665   0.019  0.1842  0.1337 -0.1708
    3TTP    C37 7332   4.030   0.600   0.160 -0.4975 -0.1571  0.3705
    3TTP    C38 7333   4.072   0.459   0.172 -0.1089  0.1676  0.4537
    3TTP    C39 7334   4.017   0.355   0.074  0.3753  0.0449  0.4028
    3TTP    C40 7335   4.094   0.226   0.085 -0.5319  0.5750  0.4557
    3TTP    C41 7336   4.044   0.115  -0.009  0.1020 -0.6244 -0.1131
    3TTP    C42 7337   4.063  -0.031   0.037 -0.3290 -0.0058 -0.0224
    4FIC     F1 7338   3.931   3.053   0.304 -0.2772 -0.0921 -0.1028
    4FIC     F2 7339   3.821   3.133   0.540  0.0328  0.1237 -0.0297
    4FIC     O1 7340   4.156   2.583   0.449 -0.3015 -0.0809 -0.0287
    4FIC     N5 7341   3.823   2.912   0.983  0.4609  0.4420  0.1284
    4FIC     N6 7342   4.021   2.528   1.049  0.3792  0.4072  0.1715
    4FIC    C19 7343   4.131   2.492   0.726 -0.0143  0.1293  0.0676
    4FIC    C20 7344   4.079   2.607   0.681 -0.0201  0.1180  0.0461
    4FIC    C21 7345   4.096   2.647   0.537 -0.1724  0.0072 -0.0035
    4FIC    C22 7346   4.027   2.777   0.521 -0.1372  0.0243 -0.0160
    4FIC    C23 7347   4.016   2.853   0.405 -0.2413 -0.0544 -0.0583
    4FIC    C24 7348   3.946   2.973   0.414 -0.1808 -0.0186 -0.0619
    4FIC    C25 7349   3.890   3.013   0.536 -0.0211  0.0926 -0.0242
    4FIC    C26 7350   3.900   2.938   0.652  0.0834  0.1716  0.0181
    4FIC    C27 7351   3.971   2.816   0.644  0.0243  0.1370  0.0225
    4FIC    C28 7352   4.000   2.714   0.747  0.1027  0.1990  0.0621
    4FIC    C29 7353   3.962   2.717   0.880  0.2590  0.3101  0.1054
    4FIC    C30 7354   3.886   2.824   0.936  0.3694  0.3822  0.1179
    4FIC    C31 7355   3.995   2.613   0.972  0.3242  0.3629  0.1415
    5FIC     F1 7356   3.316   1.624  -0.672 -0.0647 -0.1225  0.1288
    5FIC     F2 7357   3.250   1.365  -0.728 -0.1599 -0.1241  0.2477
    5FIC     O1 7358   3.685   1.553  -0.282  0.1991 -0.0920 -0.1154
    5FIC     N5 7359   3.419   0.944  -0.530 -0.1088 -0.1048  0.2446
    5FIC     N6 7360   3.721   0.941  -0.215  0.1167 -0.0806  0.0299
    5FIC    C19 7361   3.754   1.281  -0.197  0.2019 -0.0828 -0.0885
    5FIC    C20 7362   3.663   1.309  -0.293  0.1392 -0.0904 -0.0318
    5FIC    C21 7363   3.634   1.452  -0.331  0.1423 -0.0947 -0.0502
    5FIC    C22 7364   3.532   1.446  -0.438  0.0650 -0.1028  0.0243
    5FIC    C23 7365   3.473   1.553  -0.505  0.0398 -0.1090  0.0366
    5FIC    C24 7366   3.378   1.523  -0.602 -0.0362 -0.1161  0.1124
    5FIC    C25 7367   3.344   1.390  -0.630 -0.0850 -0.1169  0.1735
    5FIC    C26 7368   3.403   1.282  -0.564 -0.0604 -0.1108  0.1616
    5FIC    C27 7369   3.499   1.311  -0.465  0.0163 -0.1035  0.0854
    5FIC    C28 7370   3.578   1.222  -0.378  0.0600 -0.0959  0.0533
    5FIC    C29 7371   3.574   1.084  -0.375  0.0323 -0.0943  0.0947
    5FIC    C30 7372   3.489   1.008  -0.461 -0.0451 -0.1001  0.1770
    5FIC    C31 7373   3.655   1.006  -0.287  0.0789 -0.0868  0.0588
    1BTD     S2 7374   2.659   1.457   2.169 -0.0517  0.1764  0.1600
    1BTD     N1 7375   2.675   1.636   2.179  0.1451  0.1585  0.1819
    1BTD     N2 7376   2.713   1.428   2.338 -0.3212  0.1113  0.2357
    1BTD     N3 7377   2.852   1.691   2.701 -0.5151 -0.0538  0.4296
    1BTD     N4 7378   2.804   1.948   2.506  0.0594  0.0043  0.3633
    1BTD     C5 7379   2.743   1.796   2.352  0.0935  0.0773  0.2773
    1BTD     C6 7380   2.717   1.663   2.302  0.0070  0.1075  0.2414
    1BTD     C7 7381   2.739   1.547   2.391 -0.2541  0.0811  0.2716
    1BTD     C8 7382   2.785   1.569   2.525 -0.4155  0.0257  0.3361
    1BTD    C15 7383   2.809   1.700   2.570 -0.3227 -0.0022  0.3695
    1BTD    C16 7384   2.788   1.812   2.484 -0.0712  0.0233  0.3405
    1BTD    C43 7385   2.885   2.014   2.606 -0.7399  0.6615 -0.0949
    1BTD    C44 7386   3.034   2.008   2.600 -0.8203 -0.3456  0.2710
    1BTD    C45 7387   3.108   2.050   2.727 -0.6414  0.1104  0.2317
    1BTD    C46 7388   3.260   2.034   2.737  0.0836  0.2498  0.1368
    1BTD    C47 7389   3.107   2.071   2.472 -0.3400  0.4257 -0.3704
    1BTD    C48 7390   3.116   2.208   2.445  0.7501 -0.6582 -0.9189
    1BTD    C49 7391   3.155   2.239   2.304  0.4084  0.3186 -0.1132
    1BTD    C50 7392   3.140   2.387   2.273  0.4726 -0.7786 -0.2985
    1BTD    C75 7393   2.854   1.790   2.813 -0.0951  0.0996 -0.0623
    1BTD    C76 7394   2.729   1.811   2.898  0.0356 -0.5599 -0.2940
    1BTD    C77 7395   2.730   1.944   2.977 -0.1350 -0.1475  0.3667
    1BTD    C78 7396   2.824   1.960   3.105  0.3320  0.0617  0.1892
    1BTD    C79 7397   2.676   1.685   2.973  0.2943  0.2497  0.2218
    1BTD    C80 7398   2.543   1.693   3.041  0.2586  0.4024  0.3117
    1BTD    C81 7399   2.518   1.565   3.129  0.3772  0.2325 -0.1061
    1BTD    C82 7400   2.396   1.580   3.210  0.2759  0.5979 -0.6919
    2TTP     S1 7401   2.688   2.011   2.136 -0.3091 -0.0183  0.2235
    2TTP     S5 7402   2.790   2.312   2.427  0.2217 -0.1366  0.1618
    2TTP     C1 7403   2.750   2.394   2.270  0.2104 -0.0894  0.1894
    2TTP     C2 7404   2.716   2.306   2.171  0.0459 -0.0501  0.2101
    2TTP     C3 7405   2.720   2.170   2.215 -0.0772 -0.0558  0.2049
    2TTP     C4 7406   2.727   1.929   2.294 -0.2979 -0.0655  0.1959
    2TTP    C17 7407   2.761   2.017   2.393 -0.1334 -0.1048  0.1752
    2TTP    C18 7408   2.757   2.152   2.348 -0.0101 -0.0991  0.1805
    2TTP    C32 7409   2.670   2.333   2.030  0.8558  0.2731  0.6110
    2TTP    C33 7410   2.524   2.371   2.010  0.4654  0.0363  0.5001
    2TTP    C34 7411   2.468   2.503   2.075 -0.6858  0.5809 -0.2638
    2TTP    C35 7412   2.490   2.636   2.002  0.0323 -0.2621  0.9056
    2TTP    C36 7413   2.417   2.639   1.865 -0.0450  0.0216  0.0298
    2TTP    C37 7414   2.465   2.755   1.778 -0.3883  0.2620  0.5924
    2TTP    C38 7415   2.396   2.758   1.639  0.0020  0.7417 -0.0897
    2TTP    C39 7416   2.460   2.853   1.547 -0.3454 -0.4382  0.2727
    2TTP    C40 7417   2.400   2.880   1.410 -0.5451 -0.2956 -0.3218
    2TTP    C41 7418   2.380   2.747   1.331 -0.0396 -0.1802  0.2668
    2TTP    C42 7419   2.355   2.751   1.188  0.6325  0.3752  0.4020
    3TTP     S1 7420   2.877   1.311   2.634 -0.2461  0.0356  0.0349
    3TTP     S5 7421   3.077   1.519   2.953  0.0024 -0.0742 -0.0483
    3TTP     C1 7422   3.129   1.345   2.956 -0.2103 -0.1372  0.0255
    3TTP     C2 7423   3.070   1.270   2.857 -0.2996 -0.1070  0.0555
    3TTP     C3 7424   2.982   1.348   2.776 -0.2032 -0.0330  0.0214
    3TTP     C4 7425   2.825   1.485   2.631 -0.0334  0.0985 -0.0389
    3TTP    C17 7426   2.884   1.560   2.729  0.0559  0.0683 -0.0689
    3TTP    C18 7427   2.972   1.482   2.810 -0.0404 -0.0056 -0.0347
    3TTP    C32 7428   3.098   1.124   2.819 -0.2827  0.4082  0.7791
    3TTP    C33 7429   2.986   1.026   2.859  0.4063 -0.1447  0.7183
    3TTP    C34 7430   3.035   0.871   2.859  0.1208 -1.3411  0.0955
    3TTP    C35 7431   2.942   0.768   2.914 -0.1441  0.3022  0.4674
    3TTP    C36 7432   2.813   0.731   2.847  0.0279  0.1343 -0.0694
    3TTP    C37 7433   2.832   0.686   2.704  0.3077 -0.2663  0.5368
    3TTP    C38 7434   2.710   0.632   2.635  0.4221 -0.1459  0.2724
    3TTP    C39 7435   2.726   0.613   2.483 -0.1169 -0.3534 -0.0393
    3TTP    C40 7436   2.592   0.602   2.412  0.4048  0.1545 -0.7554
    3TTP    C41 7437   2.481   0.704   2.436  0.3578  0.3039  0.1884
    3TTP    C42 7438   2.356   0.673   2.352 -0.3946  0.6911  0.3515
    4FIC     F1 7439   2.853   3.066   2.733  0.0903 -0.0548 -0.0462
    4FIC     F2 7440   2.925   3.199   2.507 -0.1706 -0.1239 -0.1705
    4FIC     O1 7441   2.734   2.578   2.530  0.1947 -0.2198  0.2884
    4FIC     N5 7442   2.943   3.044   2.038 -0.4713 -0.3409 -0.1108
    4FIC     N6 7443   2.835   2.636   1.925 -0.3371 -0.4559  0.1757
    4FIC    C19 7444   2.760   2.532   2.242 -0.0175 -0.3445  0.2885
    4FIC    C20 7445   2.787   2.650   2.302 -0.0335 -0.3002  0.2092
    4FIC    C21 7446   2.772   2.666   2.451  0.0803 -0.2372  0.2148
    4FIC    C22 7447   2.809   2.805   2.483  0.0290 -0.2008  0.1164
    4FIC    C23 7448   2.810   2.866   2.607  0.0979 -0.1397  0.0858
    4FIC    C24 7449   2.850   2.999   2.613  0.0282 -0.1150 -0.0111
    4FIC    C25 7450   2.886   3.067   2.496 -0.1061 -0.1507 -0.0749
    4FIC    C26 7451   2.886   3.007   2.371 -0.1755 -0.2118 -0.0450
    4FIC    C27 7452   2.846   2.872   2.364 -0.1067 -0.2375  0.0529
    4FIC    C28 7453   2.834   2.780   2.248 -0.1504 -0.3000  0.1073
    4FIC    C29 7454   2.861   2.809   2.117 -0.2754 -0.3484  0.0703
    4FIC    C30 7455   2.906   2.938   2.074 -0.3827 -0.3442 -0.0291
    4FIC    C31 7456   2.847   2.714   2.012 -0.3087 -0.4073  0.1285
    5FIC     F1 7457   3.647   1.657   3.511  0.3305  0.1154 -0.4426
    5FIC     F2 7458   3.700   1.404   3.597 -0.3619  0.1642  0.1409
    5FIC     O1 7459   3.300   1.557   3.107  0.3775  0.1121 -0.4821
    5FIC     N5 7460   3.528   0.970   3.434 -1.3241  0.2321  0.9516
    5FIC     N6 7461   3.246   0.943   3.101 -1.1477  0.2198  0.8032
    5FIC    C19 7462   3.227   1.281   3.046 -0.2674  0.1576  0.0614
    5FIC    C20 7463   3.313   1.315   3.145 -0.2521  0.1565  0.0485
    5FIC    C21 7464   3.345   1.460   3.170  0.0892  0.1324 -0.2393
    5FIC    C22 7465   3.440   1.462   3.283  0.0129  0.1378 -0.1749
    5FIC    C23 7466   3.499   1.574   3.342  0.2470  0.1213 -0.3722
    5FIC    C24 7467   3.586   1.551   3.448  0.1136  0.1307 -0.2598
    5FIC    C25 7468   3.613   1.421   3.492 -0.2433  0.1559  0.0409
    5FIC    C26 7469   3.555   1.309   3.433 -0.4784  0.1725  0.2391
    5FIC    C27 7470   3.466   1.330   3.326 -0.3482  0.1633  0.1293
    5FIC    C28 7471   3.389   1.235   3.243 -0.5252  0.1758  0.2785
    5FIC    C29 7472   3.388   1.098   3.255 -0.8753  0.2005  0.5736
    5FIC    C30 7473   3.465   1.028   3.353 -1.1208  0.2178  0.7804
    5FIC    C31 7474   3.310   1.013   3.170 -1.0231  0.2110  0.6982
    1BTD     S2 7475   1.665   9.102   3.161 -0.0998  0.2276  0.1583
    1BTD     N1 7476   1.690   8.924   3.166  0.2712  0.2704 -0.0929
    1BTD     N2 7477   1.726   9.129   3.329 -0.3920  0.0911  0.2884
    1BTD     N3 7478   1.894   8.864   3.677 -0.3174 -0.1106  0.0997
    1BTD     N4 7479   1.849   8.611   3.477  0.4998  0.1099 -0.3703
    1BTD     C5 7480   1.774   8.763   3.331  0.3807  0.1838 -0.2321
    1BTD     C6 7481   1.739   8.896   3.286  0.1638  0.1848 -0.0682
    1BTD     C7 7482   1.759   9.011   3.377 -0.2075  0.0846  0.1452
    1BTD     C8 7483   1.813   8.988   3.508 -0.3432 -0.0117  0.1842
    1BTD    C15 7484   1.845   8.857   3.548 -0.1212 -0.0087  0.0190
    1BTD    C16 7485   1.826   8.746   3.461  0.2365  0.0879 -0.1867
    1BTD    C43 7486   1.924   8.532   3.578  0.1321  0.1188  0.3598
    1BTD    C44 7487   2.072   8.512   3.555  0.0574 -0.3114  0.0624
    1BTD    C45 7488   2.140   8.648   3.539 -0.5955  0.5494 -0.2873
    1BTD    C46 7489   2.294   8.652   3.511 -0.0826  0.4359 -0.2851
    1BTD    C47 7490   2.146   8.411   3.645  0.0063 -0.0100 -0.1084
    1BTD    C48 7491   2.110   8.264   3.640  0.2390 -0.0114 -0.2065
    1BTD    C49 7492   2.149   8.184   3.769 -0.2056  0.2434  0.3328
    1BTD    C50 7493   2.296   8.140   3.788 -0.5825 -0.4220  0.8748
    1BTD    C75 7494   1.882   8.764   3.789  0.3209  0.4608  0.2379
    1BTD    C76 7495   1.746   8.736   3.845  0.7274 -0.9239  0.4412
    1BTD    C77 7496   1.744   8.600   3.927  0.3399  0.1811 -0.0276
    1BTD    C78 7497   1.841   8.577   4.048 -0.4019  0.3339 -0.0862
    1BTD    C79 7498   1.677   8.855   3.910  0.5093 -0.6069 -0.5356
    1BTD    C80 7499   1.535   8.843   3.983 -0.1508 -0.3979 -0.0284
    1BTD    C81 7500   1.466   8.976   4.026  0.2036  0.4374  0.2981
    1BTD    C82 7501   1.529   9.047   4.139  0.3677 -0.3146 -0.7383
    2TTP     S1 7502   1.704   8.555   3.119  0.0715  0.2666  0.0954
    2TTP     S5 7503   1.858   8.248   3.378  0.0540  0.3562  0.2121
    2TTP     C1 7504   1.806   8.171   3.222  0.4969  0.3682  0.0544
    2TTP     C2 7505   1.755   8.261   3.132  0.5284  0.3407  0.0092
    2TTP     C3 7506   1.756   8.394   3.184  0.2038  0.3102  0.0973
    2TTP     C4 7507   1.756   8.632   3.275 -0.3715  0.2551  0.2530
    2TTP    C17 7508   1.807   8.542   3.364 -0.4030  0.2821  0.2983
    2TTP    C18 7509   1.806   8.409   3.312 -0.0784  0.3130  0.2102
    2TTP    C32 7510   1.686   8.228   2.997 -0.6454 -0.0068 -0.0884
    2TTP    C33 7511   1.540   8.272   2.994 -0.0176 -0.1522  0.4101
    2TTP    C34 7512   1.476   8.258   2.853 -0.0190 -0.1709 -0.2542
    2TTP    C35 7513   1.326   8.236   2.861 -0.4552 -0.2260  0.8669
    2TTP    C36 7514   1.276   8.103   2.903  0.4066  0.3146 -0.0842
    2TTP    C37 7515   1.125   8.094   2.880  0.0873 -0.0251  0.3686
    2TTP    C38 7516   1.055   7.986   2.964  0.5351  0.2969 -0.7640
    2TTP    C39 7517   1.082   7.994   3.121 -0.0725 -0.3625  0.3435
    2TTP    C40 7518   1.072   7.859   3.188  0.0242  0.1274  0.0231
    2TTP    C41 7519   1.117   7.861   3.336  0.4309  0.0401  0.0497
    2TTP    C42 7520   1.116   7.721   3.394  0.3776 -0.5516  0.4616
    3TTP     S1 7521   1.856   9.248   3.644 -0.0869  0.0804  0.0746
    3TTP     S5 7522   2.105   9.050   3.933 -0.3210 -0.1462  0.1217
    3TTP     C1 7523   2.121   9.230   3.957 -0.2815 -0.1627  0.2259
    3TTP     C2 7524   2.045   9.302   3.869 -0.2069 -0.0939  0.2176
    3TTP     C3 7525   1.972   9.217   3.780 -0.1782 -0.0255  0.1284
    3TTP     C4 7526   1.840   9.069   3.621 -0.1265  0.0973 -0.0297
    3TTP    C17 7527   1.916   8.997   3.709 -0.2011  0.0284 -0.0213
    3TTP    C18 7528   1.990   9.081   3.798 -0.2297 -0.0403  0.0678
    3TTP    C32 7529   2.017   9.454   3.872  0.1910  0.1752 -0.0785
    3TTP    C33 7530   1.911   9.506   3.973 -0.3064  0.1214  0.2904
    3TTP    C34 7531   1.908   9.659   3.994 -0.4490  0.5688 -0.1621
    3TTP    C35 7532   1.843   9.721   3.873  0.0255  1.2737  0.4516
    3TTP    C36 7533   1.845   9.871   3.840 -0.3439 -0.3145 -0.2993
    3TTP    C37 7534   1.982   9.925   3.809 -0.2441 -0.2426 -0.0126
    3TTP    C38 7535   2.062   9.847   3.705  0.0181  0.0037 -0.2193
    3TTP    C39 7536   2.198   9.907   3.662  0.1895 -1.0750  0.3355
    3TTP    C40 7537   2.260   9.850   3.538 -0.4527  0.2035 -0.9189
    3TTP    C41 7538   2.407   9.901   3.531  0.0853 -0.6795 -0.2302
    3TTP    C42 7539   2.506   9.849   3.424 -0.4128 -0.1551 -0.0757
    4FIC     F1 7540   1.959   7.470   3.636 -0.0203 -0.2768 -0.0782
    4FIC     F2 7541   1.929   7.334   3.402 -0.1507 -0.2419 -0.0820
    4FIC     O1 7542   1.863   7.977   3.471  0.1263 -0.2226  0.0031
    4FIC     N5 7543   1.818   7.498   2.949 -0.2337 -0.1531 -0.0295
    4FIC     N6 7544   1.750   7.922   2.867 -0.0927 -0.1179  0.0347
    4FIC    C19 7545   1.801   8.027   3.189  0.0538 -0.1701  0.0284
    4FIC    C20 7546   1.826   7.904   3.240  0.0221 -0.1851  0.0080
    4FIC    C21 7547   1.857   7.887   3.386  0.0628 -0.2117 -0.0039
    4FIC    C22 7548   1.879   7.743   3.407  0.0127 -0.2227 -0.0253
    4FIC    C23 7549   1.911   7.678   3.526  0.0260 -0.2470 -0.0421
    4FIC    C24 7550   1.927   7.541   3.522 -0.0299 -0.2529 -0.0609
    4FIC    C25 7551   1.912   7.470   3.401 -0.0970 -0.2350 -0.0629
    4FIC    C26 7552   1.880   7.534   3.282 -0.1108 -0.2105 -0.0463
    4FIC    C27 7553   1.864   7.673   3.284 -0.0548 -0.2042 -0.0270
    4FIC    C28 7554   1.830   7.770   3.177 -0.0517 -0.1804 -0.0066
    4FIC    C29 7555   1.807   7.740   3.045 -0.1067 -0.1583 -0.0020
    4FIC    C30 7556   1.813   7.607   2.992 -0.1763 -0.1554 -0.0171
    4FIC    C31 7557   1.776   7.840   2.948 -0.0987 -0.1361  0.0182
    5FIC     F1 7558   2.674   8.977   4.511 -0.1928 -0.2091 -0.0265
    5FIC     F2 7559   2.718   9.237   4.578 -0.0051 -0.2477  0.0029
    5FIC     O1 7560   2.299   9.033   4.125 -0.1459  0.1059 -0.0271
    5FIC     N5 7561   2.514   9.651   4.399  0.2981 -0.0792  0.0447
    5FIC     N6 7562   2.212   9.642   4.084  0.2971  0.1750  0.0383
    5FIC    C19 7563   2.208   9.301   4.052  0.0502  0.1806  0.0007
    5FIC    C20 7564   2.300   9.277   4.146  0.0311  0.1030 -0.0002
    5FIC    C21 7565   2.342   9.136   4.179 -0.0716  0.0689 -0.0150
    5FIC    C22 7566   2.444   9.146   4.285 -0.0665 -0.0167 -0.0121
    5FIC    C23 7567   2.512   9.042   4.347 -0.1432 -0.0727 -0.0223
    5FIC    C24 7568   2.604   9.075   4.446 -0.1204 -0.1501 -0.0169
    5FIC    C25 7569   2.626   9.209   4.480 -0.0236 -0.1701 -0.0018
    5FIC    C26 7570   2.559   9.314   4.418  0.0532 -0.1140  0.0085
    5FIC    C27 7571   2.465   9.282   4.318  0.0316 -0.0355  0.0033
    5FIC    C28 7572   2.378   9.368   4.235  0.0953  0.0372  0.0111
    5FIC    C29 7573   2.371   9.505   4.238  0.1950  0.0424  0.0261
    5FIC    C30 7574   2.450   9.585   4.327  0.2514 -0.0243  0.0363
    5FIC    C31 7575   2.283   9.580   4.153  0.2506  0.1152  0.0327
    1BTD     S2 7576   3.306   9.082   1.696 -0.1533  0.2195  0.0162
    1BTD     N1 7577   3.301   8.903   1.680 -0.1843  0.2036  0.2108
    1BTD     N2 7578   3.259   9.113   1.525  0.0182  0.0412 -0.0630
    1BTD     N3 7579   3.156   8.852   1.148  0.3113 -0.3510  0.1270
    1BTD     N4 7580   3.207   8.594   1.340  0.0619 -0.1509  0.4643
    1BTD     C5 7581   3.251   8.745   1.500 -0.0528  0.0160  0.3391
    1BTD     C6 7582   3.267   8.877   1.555 -0.0712  0.0730  0.2069
    1BTD     C7 7583   3.244   8.994   1.468  0.0421 -0.0179  0.0536
    1BTD     C8 7584   3.206   8.974   1.330  0.1682 -0.1612  0.0402
    1BTD    C15 7585   3.192   8.842   1.281  0.1816 -0.2119  0.1728
    1BTD    C16 7586   3.215   8.729   1.365  0.0725 -0.1247  0.3205
    1BTD    C43 7587   3.144   8.525   1.228 -0.7340 -0.2862  1.0425
    1BTD    C44 7588   3.009   8.456   1.249  0.6716  0.4200 -0.1004
    1BTD    C45 7589   2.882   8.539   1.292 -0.6013 -0.1510  0.6701
    1BTD    C46 7590   2.818   8.634   1.194 -0.0298 -0.0002  0.0932
    1BTD    C47 7591   2.976   8.370   1.130  0.3334  0.4368 -0.8004
    1BTD    C48 7592   2.858   8.267   1.140  0.7274 -0.5851  0.2699
    1BTD    C49 7593   2.834   8.186   1.270 -0.5072 -0.3739  0.0858
    1BTD    C50 7594   2.738   8.067   1.264  0.2600 -0.2164 -0.3463
    1BTD    C75 7595   3.230   8.772   1.042  0.7261 -0.4071 -0.1979
    1BTD    C76 7596   3.190   8.758   0.889 -0.4480  0.0315 -0.3051
    1BTD    C77 7597   3.068   8.668   0.868 -0.7566  0.3183  0.3134
    1BTD    C78 7598   3.024   8.658   0.720  0.5137 -0.5480 -0.1332
    1BTD    C79 7599   3.318   8.739   0.794  0.6353  0.0568 -0.2251
    1BTD    C80 7600   3.431   8.840   0.784  0.0145  0.0678  0.0689
    1BTD    C81 7601   3.390   8.991   0.773 -0.1884  0.4295  0.1137
    1BTD    C82 7602   3.521   9.077   0.764  0.8087  0.3110 -0.1664
    2TTP     S1 7603   3.320   8.537   1.708 -0.0064  0.3136 -0.0107
    2TTP     S5 7604   3.259   8.228   1.414  0.1220  0.0317  0.2581
    2TTP     C1 7605   3.320   8.151   1.568 -0.0033  0.1713  0.3786
    2TTP     C2 7606   3.342   8.242   1.667 -0.0503  0.2666  0.3027
    2TTP     C3 7607   3.312   8.375   1.626  0.0108  0.2327  0.1467
    2TTP     C4 7608   3.259   8.614   1.554  0.1190  0.1740 -0.1311
    2TTP    C17 7609   3.237   8.523   1.455  0.1659  0.0787 -0.0552
    2TTP    C18 7610   3.267   8.389   1.496  0.1047  0.1123  0.1008
    2TTP    C32 7611   3.398   8.217   1.806  0.2787  0.0553 -0.0007
    2TTP    C33 7612   3.544   8.241   1.831  0.3973  0.2445  0.2128
    2TTP    C34 7613   3.578   8.232   1.979  0.1772  0.0032 -0.3595
    2TTP    C35 7614   3.499   8.313   2.083 -0.6644 -0.5553 -0.6340
    2TTP    C36 7615   3.522   8.278   2.231 -0.4064 -0.5342  0.1433
    2TTP    C37 7616   3.507   8.132   2.262 -0.3303 -0.2827 -0.6543
    2TTP    C38 7617   3.564   8.083   2.400  0.4302 -0.4004  0.3503
    2TTP    C39 7618   3.525   7.938   2.410 -0.2758 -0.0425  0.6509
    2TTP    C40 7619   3.584   7.856   2.517  0.6660 -0.5556 -0.4573
    2TTP    C41 7620   3.591   7.704   2.487 -0.4018 -0.0068 -0.8602
    2TTP    C42 7621   3.667   7.624   2.596  0.2384 -0.7608  0.1096
    3TTP     S1 7622   3.129   9.235   1.206 -0.1878 -0.2022  0.1566
    3TTP     S5 7623   2.927   9.013   0.898  0.3070 -0.0079 -0.3111
    3TTP     C1 7624   2.872   9.187   0.890  0.0077 -0.0865 -0.0204
    3TTP     C2 7625   2.931   9.265   0.984 -0.1627 -0.1514  0.1411
    3TTP     C3 7626   3.022   9.192   1.067 -0.0631 -0.1411  0.0412
    3TTP     C4 7627   3.183   9.062   1.214  0.1115 -0.1233 -0.1340
    3TTP    C17 7628   3.124   8.983   1.119  0.2819 -0.0586 -0.2956
    3TTP    C18 7629   3.034   9.057   1.037  0.1823 -0.0691 -0.1957
    3TTP    C32 7630   2.909   9.412   1.004  0.0020 -0.4913 -0.1392
    3TTP    C33 7631   3.023   9.513   0.979  0.6414 -0.4965 -0.7186
    3TTP    C34 7632   2.981   9.655   0.943  0.4289 -0.0716 -0.1356
    3TTP    C35 7633   2.867   9.717   1.029  0.3922 -0.3265 -0.2979
    3TTP    C36 7634   2.886   9.730   1.178 -0.4090  0.1725  0.4712
    3TTP    C37 7635   2.766   9.784   1.254  0.1767 -0.9364 -0.9494
    3TTP    C38 7636   2.808   9.796   1.402  0.1782 -0.3680 -0.2009
    3TTP    C39 7637   2.683   9.832   1.490 -0.3763 -0.5167 -0.3571
    3TTP    C40 7638   2.704   9.839   1.644  0.8006  0.0026 -0.4801
    3TTP    C41 7639   2.587   9.904   1.726  0.0021 -0.5004 -0.7206
    3TTP    C42 7640   2.455   9.837   1.716 -0.8504  0.3867 -0.5095
    4FIC     F1 7641   3.534   7.555   1.054 -0.8970 -0.2149 -0.2033
    4FIC     F2 7642   3.518   7.378   1.261 -0.0232 -0.0849 -0.0170
    4FIC     O1 7643   3.406   8.017   1.304 -0.6755 -0.1905 -0.1348
    4FIC     N5 7644   3.403   7.455   1.736  1.3909  0.1189  0.2997
    4FIC     N6 7645   3.306   7.852   1.890  1.3878  0.1118  0.3157
    4FIC    C19 7646   3.345   8.013   1.590  0.2380 -0.0577  0.0675
    4FIC    C20 7647   3.378   7.904   1.519  0.1481 -0.0690  0.0430
    4FIC    C21 7648   3.408   7.914   1.373 -0.3305 -0.1386 -0.0626
    4FIC    C22 7649   3.439   7.777   1.327 -0.3070 -0.1329 -0.0632
    4FIC    C23 7650   3.474   7.737   1.198 -0.6649 -0.1842 -0.1442
    4FIC    C24 7651   3.499   7.602   1.179 -0.5594 -0.1666 -0.1265
    4FIC    C25 7652   3.491   7.511   1.285 -0.1090 -0.0997 -0.0304
    4FIC    C26 7653   3.457   7.551   1.414  0.2498 -0.0483  0.0508
    4FIC    C27 7654   3.431   7.687   1.435  0.1496 -0.0651  0.0343
    4FIC    C28 7655   3.392   7.761   1.558  0.4473 -0.0234  0.1034
    4FIC    C29 7656   3.374   7.708   1.684  0.9114  0.0448  0.2040
    4FIC    C30 7657   3.390   7.569   1.712  1.1734  0.0855  0.2562
    4FIC    C31 7658   3.337   7.787   1.796  1.1708  0.0814  0.2649
    5FIC     F1 7659   2.378   8.839   0.339 -0.2398  0.2193 -0.0655
    5FIC     F2 7660   2.305   9.089   0.257 -0.0954  0.2427 -0.1224
    5FIC     O1 7661   2.723   8.959   0.738 -0.1803  0.1109 -0.0844
    5FIC     N5 7662   2.446   9.532   0.425  0.1546  0.1988 -0.2177
    5FIC     N6 7663   2.731   9.575   0.753  0.1720  0.1090 -0.2209
    5FIC    C19 7664   2.777   9.240   0.802 -0.0212  0.0946 -0.1454
    5FIC    C20 7665   2.692   9.200   0.705 -0.0418  0.1206 -0.1385
    5FIC    C21 7666   2.670   9.054   0.678 -0.1249  0.1276 -0.1065
    5FIC    C22 7667   2.574   9.046   0.566 -0.1269  0.1583 -0.1069
    5FIC    C23 7668   2.523   8.931   0.506 -0.1912  0.1740 -0.0826
    5FIC    C24 7669   2.432   8.948   0.402 -0.1788  0.2024 -0.0885
    5FIC    C25 7670   2.395   9.077   0.361 -0.1045  0.2142 -0.1178
    5FIC    C26 7671   2.446   9.192   0.420 -0.0400  0.1984 -0.1422
    5FIC    C27 7672   2.537   9.176   0.526 -0.0513  0.1695 -0.1367
    5FIC    C28 7673   2.609   9.276   0.609  0.0039  0.1471 -0.1572
    5FIC    C29 7674   2.599   9.413   0.599  0.0824  0.1504 -0.1878
    5FIC    C30 7675   2.515   9.478   0.503  0.1218  0.1769 -0.2041
    5FIC    C31 7676   2.672   9.501   0.684  0.1312  0.1278 -0.2059
    1BTD     S2 7677   1.977   4.100   0.256 -0.1103  0.0816  0.0528
    1BTD     N1 7678   1.995   4.279   0.259 -0.1716  0.0856  0.1976
    1BTD     N2 7679   2.043   4.076   0.422 -0.0439 -0.0353  0.0094
    1BTD     N3 7680   2.211   4.350   0.764 -0.0191 -0.2664  0.1825
    1BTD     N4 7681   2.152   4.600   0.564 -0.1765 -0.1175  0.4143
    1BTD     C5 7682   2.078   4.443   0.421 -0.1723 -0.0223  0.3080
    1BTD     C6 7683   2.047   4.310   0.377 -0.1409  0.0037  0.2057
    1BTD     C7 7684   2.074   4.196   0.468 -0.0694 -0.0640  0.1004
    1BTD     C8 7685   2.130   4.222   0.598 -0.0327 -0.1543  0.1026
    1BTD    C15 7686   2.159   4.354   0.636 -0.0656 -0.1767  0.2046
    1BTD    C16 7687   2.133   4.464   0.549 -0.1344 -0.1113  0.3061
    1BTD    C43 7688   2.231   4.682   0.660 -0.1968  0.9190  0.6485
    1BTD    C44 7689   2.377   4.708   0.612 -0.4539 -0.0528 -0.0413
    1BTD    C45 7690   2.458   4.587   0.570 -0.4162 -0.4037  0.0689
    1BTD    C46 7691   2.559   4.631   0.475 -0.1359  0.3786 -0.2270
    1BTD    C47 7692   2.442   4.815   0.705 -0.7645 -0.3832  0.4276
    1BTD    C48 7693   2.461   4.801   0.855  0.5114  0.1334 -0.0647
    1BTD    C49 7694   2.564   4.698   0.900  0.4231 -0.9380  0.2656
    1BTD    C50 7695   2.708   4.713   0.862  0.1802 -0.5737 -0.9213
    1BTD    C75 7696   2.235   4.455   0.870  0.0451 -0.1548  0.3161
    1BTD    C76 7697   2.145   4.463   0.995  0.0221  0.3765 -0.2380
    1BTD    C77 7698   2.177   4.569   1.095 -0.5995  0.2730 -0.3938
    1BTD    C78 7699   2.323   4.563   1.146 -0.5835  0.0225  0.3943
    1BTD    C79 7700   1.999   4.457   0.948 -0.4519 -0.2321 -0.0595
    1BTD    C80 7701   1.895   4.435   1.060  0.3435  0.1462  0.3769
    1BTD    C81 7702   1.913   4.293   1.109  0.1012  0.5225  0.4610
    1BTD    C82 7703   1.797   4.271   1.206 -0.6619 -0.2676  0.0971
    2TTP     S1 7704   2.007   4.637   0.197  0.3567  0.1757 -0.1675
    2TTP     S5 7705   2.186   4.952   0.429 -0.1866  0.1032  0.3549
    2TTP     C1 7706   2.144   5.018   0.265  0.0427  0.2014  0.3352
    2TTP     C2 7707   2.086   4.925   0.183  0.2239  0.2296  0.1727
    2TTP     C3 7708   2.073   4.798   0.248  0.1883  0.1745  0.0580
    2TTP     C4 7709   2.049   4.572   0.361  0.1274  0.0775 -0.1477
    2TTP    C17 7710   2.106   4.665   0.443 -0.0539  0.0494  0.0147
    2TTP    C18 7711   2.120   4.792   0.378 -0.0182  0.1043  0.1295
    2TTP    C32 7712   2.038   4.938   0.039  0.0067  0.1027 -0.3369
    2TTP    C33 7713   1.895   4.917  -0.006 -0.8396 -0.2208 -0.3050
    2TTP    C34 7714   1.783   4.980   0.070  0.0711  0.2741 -0.1783
    2TTP    C35 7715   1.639   4.947   0.026 -0.2050 -0.0010  0.1736
    2TTP    C36 7716   1.523   4.979   0.116  0.2088  0.3100 -0.1723
    2TTP    C37 7717   1.506   5.130   0.154  0.1742 -0.1730 -0.0435
    2TTP    C38 7718   1.369   5.173   0.226 -0.0636  1.0715  0.0795
    2TTP    C39 7719   1.349   5.318   0.254 -0.6919  0.0427 -0.0700
    2TTP    C40 7720   1.427   5.381   0.365  0.2628 -0.1933 -0.0347
    2TTP    C41 7721   1.384   5.529   0.384 -0.1729 -0.1269 -0.1214
    2TTP    C42 7722   1.480   5.589   0.488  0.4164 -0.2457  0.3831
    3TTP     S1 7723   2.175   3.961   0.757 -0.1823  0.0238  0.2644
    3TTP     S5 7724   2.410   4.187   1.038  0.4077 -0.3210  0.0530
    3TTP     C1 7725   2.424   4.010   1.079  0.0762 -0.3321  0.1213
    3TTP     C2 7726   2.352   3.930   0.995 -0.1256 -0.2263  0.1905
    3TTP     C3 7727   2.284   4.005   0.894 -0.0256 -0.1327  0.1923
    3TTP     C4 7728   2.162   4.138   0.715  0.1493  0.0349  0.1962
    3TTP    C17 7729   2.233   4.218   0.799  0.3511 -0.0709  0.1269
    3TTP    C18 7730   2.301   4.143   0.900  0.2511 -0.1646  0.1252
    3TTP    C32 7731   2.326   3.782   1.008 -0.8263  0.0146 -0.6256
    3TTP    C33 7732   2.195   3.746   1.082  0.0861  0.3853  0.2906
    3TTP    C34 7733   2.150   3.599   1.060 -0.7206 -0.1489 -0.2553
    3TTP    C35 7734   2.249   3.489   1.116 -0.2338 -0.4694  0.5664
    3TTP    C36 7735   2.211   3.350   1.053 -0.3967 -0.6527 -0.4644
    3TTP    C37 7736   2.308   3.238   1.062 -0.2230 -0.1687 -0.2264
    3TTP    C38 7737   2.264   3.114   0.985  0.3932 -0.3538  0.1945
    3TTP    C39 7738   2.272   3.109   0.826 -0.1825  0.0172 -0.8024
    3TTP    C40 7739   2.244   2.975   0.756  0.3089  0.1178  0.1823
    3TTP    C41 7740   2.122   2.896   0.806  0.0349  0.8364  0.5523
    3TTP    C42 7741   2.128   2.745   0.771  0.6495 -0.2622 -0.1641
    4FIC     F1 7742   2.250   5.714   0.680  0.0629 -0.0693 -0.2203
    4FIC     F2 7743   2.333   5.831   0.448  0.2775 -0.1844 -0.2022
    4FIC     O1 7744   2.125   5.217   0.504 -0.2376 -0.0087 -0.1781
    4FIC     N5 7745   2.363   5.645  -0.009  0.3719 -0.3071 -0.1461
    4FIC     N6 7746   2.249   5.233  -0.100  0.0938 -0.2365 -0.1168
    4FIC    C19 7747   2.160   5.153   0.221 -0.1393 -0.0974 -0.1458
    4FIC    C20 7748   2.188   5.273   0.274 -0.0721 -0.1081 -0.1571
    4FIC    C21 7749   2.168   5.299   0.420 -0.1292 -0.0603 -0.1734
    4FIC    C22 7750   2.208   5.438   0.445 -0.0312 -0.0867 -0.1827
    4FIC    C23 7751   2.206   5.508   0.565 -0.0402 -0.0594 -0.1985
    4FIC    C24 7752   2.249   5.640   0.564  0.0651 -0.0932 -0.2047
    4FIC    C25 7753   2.292   5.700   0.444  0.1756 -0.1529 -0.1954
    4FIC    C26 7754   2.294   5.631   0.323  0.1851 -0.1801 -0.1796
    4FIC    C27 7755   2.251   5.497   0.323  0.0795 -0.1464 -0.1731
    4FIC    C28 7756   2.240   5.398   0.214  0.0587 -0.1620 -0.1570
    4FIC    C29 7757   2.273   5.419   0.081  0.1445 -0.2162 -0.1444
    4FIC    C30 7758   2.322   5.543   0.032  0.2692 -0.2660 -0.1454
    4FIC    C31 7759   2.259   5.317  -0.018  0.1161 -0.2271 -0.1293
    5FIC     F1 7760   2.944   4.307   1.646 -0.2305  0.1438  0.0672
    5FIC     F2 7761   3.030   4.053   1.690  0.1831  0.2359 -0.1977
    5FIC     O1 7762   2.567   4.223   1.267 -0.3696 -0.1160  0.2622
    5FIC     N5 7763   2.885   3.627   1.483  0.6786  0.1830 -0.4398
    5FIC     N6 7764   2.573   3.613   1.177  0.4865 -0.0386 -0.2340
    5FIC    C19 7765   2.515   3.951   1.174 -0.0239 -0.1203  0.0782
    5FIC    C20 7766   2.607   3.982   1.268 -0.0051 -0.0586  0.0395
    5FIC    C21 7767   2.628   4.124   1.310 -0.1900 -0.0608  0.1400
    5FIC    C22 7768   2.733   4.122   1.413 -0.1156  0.0153  0.0649
    5FIC    C23 7769   2.787   4.231   1.481 -0.2307  0.0405  0.1151
    5FIC    C24 7770   2.887   4.204   1.574 -0.1261  0.1149  0.0244
    5FIC    C25 7771   2.931   4.073   1.597  0.0870  0.1625 -0.1121
    5FIC    C26 7772   2.878   3.965   1.528  0.2027  0.1375 -0.1629
    5FIC    C27 7773   2.777   3.989   1.434  0.0997  0.0622 -0.0726
    5FIC    C28 7774   2.701   3.898   1.346  0.1760  0.0188 -0.0935
    5FIC    C29 7775   2.715   3.761   1.338  0.3763  0.0452 -0.2135
    5FIC    C30 7776   2.808   3.688   1.418  0.5419  0.1209 -0.3375
    5FIC    C31 7777   2.637   3.681   1.250  0.4358 -0.0011 -0.2241
    1BTD     S2 7778   3.155   4.160   2.698 -0.2345  0.1118  0.2478
    1BTD     N1 7779   3.134   4.339   2.691  0.0117  0.1373  0.1571
    1BTD     N2 7780   3.098   4.133   2.529 -0.2435  0.1074  0.2515
    1BTD     N3 7781   2.945   4.400   2.174  0.1827  0.1445  0.0950
    1BTD     N4 7782   2.990   4.653   2.374  0.4972  0.1814 -0.0213
    1BTD     C5 7783   3.058   4.500   2.523  0.2614  0.1600  0.0653
    1BTD     C6 7784   3.088   4.367   2.570  0.0714  0.1411  0.1353
    1BTD     C7 7785   3.068   4.252   2.479 -0.0715  0.1242  0.1882
    1BTD     C8 7786   3.019   4.275   2.346 -0.0172  0.1272  0.1683
    1BTD    C15 7787   2.990   4.407   2.305  0.1704  0.1459  0.0993
    1BTD    C16 7788   3.010   4.518   2.392  0.3080  0.1621  0.0483
    1BTD    C43 7789   2.906   4.721   2.272 -0.3164  0.1834 -0.5965
    1BTD    C44 7790   2.751   4.717   2.294  0.2372  0.9480  0.0716
    1BTD    C45 7791   2.676   4.788   2.184  0.4138 -0.1463  0.2222
    1BTD    C46 7792   2.698   4.745   2.041  0.6726  0.1796  0.0553
    1BTD    C47 7793   2.700   4.746   2.431  0.4078 -0.2284 -0.3091
    1BTD    C48 7794   2.718   4.893   2.486 -0.5107 -0.3786 -0.1807
    1BTD    C49 7795   2.675   4.913   2.634 -0.4428 -0.2952  0.5206
    1BTD    C50 7796   2.696   5.053   2.682 -0.3198 -0.2525  0.1701
    1BTD    C75 7797   2.962   4.504   2.070 -0.0675  0.7079 -0.0568
    1BTD    C76 7798   3.052   4.488   1.941  0.0305 -0.2823  0.4189
    1BTD    C77 7799   3.062   4.620   1.852  0.1270 -0.9203  0.7795
    1BTD    C78 7800   2.930   4.659   1.788  0.6814  0.1962  0.3879
    1BTD    C79 7801   3.184   4.427   1.981  0.0132  0.0971  0.3771
    1BTD    C80 7802   3.286   4.382   1.876 -0.6960 -0.4100 -0.1065
    1BTD    C81 7803   3.237   4.286   1.769  0.2018 -0.5119  0.1988
    1BTD    C82 7804   3.351   4.248   1.666 -0.2128 -0.6721  0.3871
    2TTP     S1 7805   3.184   4.700   2.709 -0.1227  0.2588  0.2772
    2TTP     S5 7806   3.076   5.008   2.430 -0.1621  0.1113  0.1293
    2TTP     C1 7807   3.185   5.080   2.556 -0.0334  0.1476 -0.0009
    2TTP     C2 7808   3.225   4.989   2.650 -0.0137  0.1953  0.0371
    2TTP     C3 7809   3.171   4.859   2.625 -0.0995  0.2049  0.1704
    2TTP     C4 7810   3.076   4.627   2.582 -0.2515  0.2226  0.4073
    2TTP    C17 7811   3.036   4.718   2.488 -0.2712  0.1749  0.3694
    2TTP    C18 7812   3.090   4.848   2.513 -0.1854  0.1651  0.2361
    2TTP    C32 7813   3.327   5.002   2.765  0.2518  0.0747 -0.0983
    2TTP    C33 7814   3.277   4.998   2.910 -0.2541  0.7931  0.7998
    2TTP    C34 7815   3.395   4.945   2.996 -0.3687 -0.3429 -0.2112
    2TTP    C35 7816   3.352   4.939   3.144 -0.2585  0.0597  0.0213
    2TTP    C36 7817   3.457   4.867   3.229  0.0548  0.4914 -0.1597
    2TTP    C37 7818   3.398   4.780   3.342 -0.2221  0.1721  0.9659
    2TTP    C38 7819   3.500   4.689   3.404 -0.3454  0.1820 -0.3176
    2TTP    C39 7820   3.443   4.626   3.530  1.0348 -0.1470 -0.3800
    2TTP    C40 7821   3.407   4.715   3.654 -0.1313 -0.4950 -0.5099
    2TTP    C41 7822   3.524   4.809   3.689 -0.4556 -0.2636  0.3423
    2TTP    C42 7823   3.486   4.934   3.771  0.0931  0.3367  0.1514
    3TTP     S1 7824   2.938   4.015   2.217 -0.1618  0.0817  0.1586
    3TTP     S5 7825   2.745   4.244   1.908 -0.0088  0.1291  0.0980
    3TTP     C1 7826   2.701   4.068   1.886  0.0008  0.1328  0.0503
    3TTP     C2 7827   2.758   3.988   1.980 -0.0460  0.1182  0.0662
    3TTP     C3 7828   2.838   4.061   2.073 -0.0909  0.1038  0.1166
    3TTP     C4 7829   2.981   4.191   2.238 -0.1713  0.0781  0.2064
    3TTP    C17 7830   2.924   4.272   2.144 -0.1246  0.0926  0.1904
    3TTP    C18 7831   2.844   4.198   2.052 -0.0795  0.1070  0.1400
    3TTP    C32 7832   2.746   3.835   1.977  0.5384  0.5705 -0.6098
    3TTP    C33 7833   2.868   3.745   1.951  0.1182  0.2281  0.1710
    3TTP    C34 7834   2.857   3.590   1.950  0.1233 -0.0711 -0.1587
    3TTP    C35 7835   2.755   3.526   2.044 -0.1463  0.2462 -0.2279
    3TTP    C36 7836   2.793   3.510   2.188  0.1925 -0.3054 -0.7069
    3TTP    C37 7837   2.682   3.453   2.270 -0.5085 -0.3263  0.6610
    3TTP    C38 7838   2.691   3.474   2.420 -0.5846 -0.5977 -0.6354
    3TTP    C39 7839   2.570   3.414   2.489 -0.2006  0.1868  0.9483
    3TTP    C40 7840   2.562   3.436   2.632  0.5841  0.2561  0.7509
    3TTP    C41 7841   2.452   3.365   2.704  0.0675  0.1533 -0.3413
    3TTP    C42 7842   2.462   3.414   2.848 -0.2537  0.1356 -0.7458
    4FIC     F1 7843   3.018   5.750   2.113 -0.2373  0.0939  0.2987
    4FIC     F2 7844   3.103   5.901   2.322  0.4793 -0.0107  0.0863
    4FIC     O1 7845   3.104   5.251   2.306 -0.6035 -0.0166  0.1777
    4FIC     N5 7846   3.288   5.764   2.761  1.2486 -0.2400 -0.3055
    4FIC     N6 7847   3.338   5.344   2.869  0.8180 -0.3051 -0.3572
    4FIC    C19 7848   3.216   5.219   2.575 -0.0489 -0.1557 -0.0683
    4FIC    C20 7849   3.191   5.338   2.518  0.0152 -0.1239 -0.0296
    4FIC    C21 7850   3.133   5.347   2.380 -0.2840 -0.0522  0.0983
    4FIC    C22 7851   3.119   5.490   2.349 -0.1224 -0.0333  0.1100
    4FIC    C23 7852   3.069   5.548   2.232 -0.2941  0.0284  0.2120
    4FIC    C24 7853   3.065   5.686   2.226 -0.0849  0.0344  0.2014
    4FIC    C25 7854   3.110   5.764   2.334  0.2841 -0.0195  0.0918
    4FIC    C26 7855   3.159   5.708   2.451  0.4572 -0.0811 -0.0103
    4FIC    C27 7856   3.164   5.568   2.459  0.2499 -0.0882 -0.0013
    4FIC    C28 7857   3.210   5.477   2.567  0.3492 -0.1460 -0.0914
    4FIC    C29 7858   3.260   5.515   2.689  0.6863 -0.2083 -0.2096
    4FIC    C30 7859   3.275   5.652   2.728  0.9943 -0.2255 -0.2619
    4FIC    C31 7860   3.303   5.421   2.788  0.7568 -0.2612 -0.2901
    5FIC     F1 7861   2.173   4.373   1.327 -0.0582  0.0496 -0.0700
    5FIC     F2 7862   2.114   4.117   1.254 -0.0681  0.0814 -0.1732
    5FIC     O1 7863   2.533   4.286   1.722 -0.1534 -0.1267 -0.0216
    5FIC     N5 7864   2.286   3.688   1.430 -0.1501  0.0015 -0.2870
    5FIC     N6 7865   2.580   3.672   1.754 -0.2225 -0.1428 -0.2284
    5FIC    C19 7866   2.605   4.011   1.792 -0.1967 -0.1591 -0.1030
    5FIC    C20 7867   2.517   4.043   1.696 -0.1723 -0.1160 -0.1111
    5FIC    C21 7868   2.485   4.187   1.665 -0.1511 -0.1019 -0.0673
    5FIC    C22 7869   2.386   4.185   1.556 -0.1274 -0.0530 -0.0895
    5FIC    C23 7870   2.327   4.295   1.494 -0.1027 -0.0252 -0.0637
    5FIC    C24 7871   2.235   4.269   1.393 -0.0831  0.0201 -0.0929
    5FIC    C25 7872   2.205   4.137   1.355 -0.0881  0.0364 -0.1461
    5FIC    C26 7873   2.264   4.027   1.417 -0.1128  0.0086 -0.1719
    5FIC    C27 7874   2.357   4.052   1.519 -0.1329 -0.0372 -0.1431
    5FIC    C28 7875   2.436   3.959   1.604 -0.1607 -0.0752 -0.1585
    5FIC    C29 7876   2.434   3.822   1.598 -0.1733 -0.0728 -0.2074
    5FIC    C30 7877   2.353   3.749   1.506 -0.1605 -0.0319 -0.2510
    5FIC    C31 7878   2.514   3.740   1.684 -0.2003 -0.1113 -0.2187
    1BTD     S2 7879   3.985   6.537   3.578 -0.0404 -0.2233  0.1097
    1BTD     N1 7880   3.967   6.358   3.572 -0.0363 -0.2207  0.0110
    1BTD     N2 7881   3.921   6.563   3.412  0.0259 -0.1392  0.0973
    1BTD     N3 7882   3.757   6.294   3.064  0.1685  0.0366 -0.1062
    1BTD     N4 7883   3.814   6.041   3.261  0.0917 -0.0638 -0.2126
    1BTD     C5 7884   3.886   6.196   3.407  0.0314 -0.1374 -0.1044
    1BTD     C6 7885   3.917   6.329   3.453  0.0117 -0.1605 -0.0243
    1BTD     C7 7886   3.891   6.443   3.363  0.0467 -0.1149  0.0240
    1BTD     C8 7887   3.836   6.420   3.232  0.0995 -0.0486 -0.0103
    1BTD    C15 7888   3.808   6.288   3.192  0.1170 -0.0284 -0.0889
    1BTD    C16 7889   3.833   6.177   3.278  0.0835 -0.0722 -0.1354
    1BTD    C43 7890   3.743   5.970   3.162  0.8749  0.7144  0.2655
    1BTD    C44 7891   3.599   5.915   3.185  0.3473  0.1047  0.7231
    1BTD    C45 7892   3.502   6.035   3.203  0.1978  0.2848 -0.2504
    1BTD    C46 7893   3.366   6.015   3.263 -0.4240 -0.5181 -0.4163
    1BTD    C47 7894   3.548   5.825   3.065 -0.3288 -0.2606 -0.2839
    1BTD    C48 7895   3.610   5.685   3.059  0.2811  0.3568  0.1813
    1BTD    C49 7896   3.555   5.588   3.166  0.4177  0.4725 -0.1496
    1BTD    C50 7897   3.598   5.440   3.131  0.5745 -0.2480 -0.1705
    1BTD    C75 7898   3.765   6.204   2.945 -0.4236 -0.6644 -0.2761
    1BTD    C76 7899   3.872   6.212   2.828  0.0954  0.5443 -0.2650
    1BTD    C77 7900   3.836   6.114   2.716 -0.0906 -0.0359 -0.2231
    1BTD    C78 7901   3.835   5.960   2.745 -0.2155 -0.0853 -0.1179
    1BTD    C79 7902   4.018   6.192   2.880  0.0714 -0.4912  0.9658
    1BTD    C80 7903   4.136   6.210   2.775  0.4625 -0.2230 -0.2006
    1BTD    C81 7904   4.138   6.339   2.688 -0.0551 -0.2948 -1.1200
    1BTD    C82 7905   4.170   6.461   2.768 -0.8827  0.3519  0.1348
    2TTP     S1 7906   3.965   5.998   3.621 -0.0005 -0.0150 -0.2370
    2TTP     S5 7907   3.843   5.671   3.369  0.0507  0.0583 -0.3572
    2TTP     C1 7908   3.900   5.604   3.528  0.2139 -0.0024 -0.4419
    2TTP     C2 7909   3.942   5.701   3.615  0.2077 -0.0286 -0.4098
    2TTP     C3 7910   3.929   5.832   3.559  0.0737 -0.0018 -0.3171
    2TTP     C4 7911   3.908   6.066   3.462 -0.1637  0.0457 -0.1522
    2TTP    C17 7912   3.866   5.969   3.375 -0.1575  0.0718 -0.1844
    2TTP    C18 7913   3.879   5.838   3.430 -0.0237  0.0449 -0.2770
    2TTP    C32 7914   3.991   5.681   3.759 -1.0686 -0.3294  0.2441
    2TTP    C33 7915   4.145   5.662   3.769  0.1350 -0.4582  0.0801
    2TTP    C34 7916   4.188   5.574   3.881  0.1570  0.3460 -0.2248
    2TTP    C35 7917   4.341   5.575   3.892  0.1312  0.4919  0.6842
    2TTP    C36 7918   4.417   5.508   3.777  0.0210 -0.4551 -0.3123
    2TTP    C37 7919   4.567   5.506   3.809 -0.2201 -0.5642 -1.1629
    2TTP    C38 7920   4.665   5.426   3.723 -0.2588  0.5350  1.0601
    2TTP    C39 7921   4.625   5.284   3.664  0.3297  0.0164  0.6500
    2TTP    C40 7922   4.722   5.231   3.556 -0.1489 -0.3090  0.2868
    2TTP    C41 7923   4.680   5.111   3.478 -0.4182  0.4292 -0.0974
    2TTP    C42 7924   4.797   5.066   3.392  0.9738  0.0494  0.5610
    3TTP     S1 7925   3.788   6.679   3.089  0.0145  0.0287 -0.1754
    3TTP     S5 7926   3.564   6.465   2.791  0.1222 -0.2587 -0.0513
    3TTP     C1 7927   3.544   6.644   2.762  0.1974 -0.2872 -0.2787
    3TTP     C2 7928   3.612   6.720   2.852  0.1685 -0.2000 -0.3306
    3TTP     C3 7929   3.682   6.641   2.948  0.0860 -0.1076 -0.1923
    3TTP     C4 7930   3.808   6.501   3.118 -0.0607  0.0571  0.0521
    3TTP    C17 7931   3.740   6.424   3.028 -0.0319 -0.0298  0.1039
    3TTP    C18 7932   3.669   6.504   2.933  0.0506 -0.1222 -0.0342
    3TTP    C32 7933   3.620   6.868   2.868 -0.5502 -0.6677 -0.4594
    3TTP    C33 7934   3.728   6.937   2.781  0.1011  0.1105 -0.7030
    3TTP    C34 7935   3.815   7.047   2.837  0.1959 -0.6103  0.7472
    3TTP    C35 7936   3.758   7.172   2.917 -0.3248  0.0234  0.6074
    3TTP    C36 7937   3.643   7.244   2.851 -0.0796  0.1763  0.4125
    3TTP    C37 7938   3.564   7.338   2.946 -0.0214  0.1205  0.2593
    3TTP    C38 7939   3.500   7.256   3.052 -0.4272  0.1264 -0.4132
    3TTP    C39 7940   3.428   7.333   3.162 -0.7428 -0.8109 -0.0772
    3TTP    C40 7941   3.352   7.247   3.253 -0.6784  0.1932  0.2992
    3TTP    C41 7942   3.341   7.307   3.392  0.0951 -0.3117 -0.5649
    3TTP    C42 7943   3.238   7.228   3.480 -0.9934 -0.8568  0.2106
    4FIC     F1 7944   3.882   4.901   3.105  0.1419  0.0728 -0.0467
    4FIC     F2 7945   3.877   4.765   3.341 -0.1934  0.0212 -0.0821
    4FIC     O1 7946   3.904   5.412   3.282  0.2267  0.0207  0.0941
    4FIC     N5 7947   3.886   4.935   3.806 -0.6149 -0.0904 -0.0327
    4FIC     N6 7948   3.904   5.362   3.897 -0.4811 -0.1206  0.0846
    4FIC    C19 7949   3.907   5.464   3.570 -0.0635 -0.0471  0.1103
    4FIC    C20 7950   3.902   5.341   3.516 -0.0718 -0.0319  0.0763
    4FIC    C21 7951   3.901   5.322   3.367  0.0830  0.0030  0.0702
    4FIC    C22 7952   3.894   5.177   3.343  0.0299  0.0117  0.0303
    4FIC    C23 7953   3.891   5.111   3.221  0.1293  0.0416  0.0114
    4FIC    C24 7954   3.886   4.973   3.223  0.0509  0.0440 -0.0264
    4FIC    C25 7955   3.883   4.903   3.345 -0.1218  0.0174 -0.0446
    4FIC    C26 7956   3.886   4.968   3.467 -0.2219 -0.0125 -0.0259
    4FIC    C27 7957   3.892   5.108   3.467 -0.1447 -0.0155  0.0123
    4FIC    C28 7958   3.897   5.206   3.578 -0.2140 -0.0435  0.0399
    4FIC    C29 7959   3.896   5.178   3.713 -0.3785 -0.0741  0.0331
    4FIC    C30 7960   3.891   5.044   3.764 -0.5080 -0.0830 -0.0030
    4FIC    C31 7961   3.901   5.279   3.813 -0.4340 -0.0995  0.0614
    5FIC     F1 7962   3.026   6.370   2.190 -0.2227 -0.3233  0.2824
    5FIC     F2 7963   2.965   6.628   2.127 -0.0465 -0.3988 -0.2112
    5FIC     O1 7964   3.385   6.443   2.588 -0.4280  0.1874  0.3754
    5FIC     N5 7965   3.134   7.050   2.322  0.0606 -0.1427 -0.8548
    5FIC     N6 7966   3.427   7.056   2.646 -0.1355  0.2716 -0.6827
    5FIC    C19 7967   3.455   6.715   2.670 -0.3326  0.2968 -0.0632
    5FIC    C20 7968   3.367   6.687   2.572 -0.2878  0.1714 -0.0673
    5FIC    C21 7969   3.336   6.544   2.536 -0.3417  0.1222  0.1660
    5FIC    C22 7970   3.237   6.549   2.427 -0.2721 -0.0174  0.0961
    5FIC    C23 7971   3.179   6.442   2.360 -0.2886 -0.1044  0.2498
    5FIC    C24 7972   3.088   6.471   2.260 -0.2114 -0.2320  0.1412
    5FIC    C25 7973   3.056   6.604   2.228 -0.1208 -0.2705 -0.1131
    5FIC    C26 7974   3.114   6.712   2.294 -0.1036 -0.1844 -0.2675
    5FIC    C27 7975   3.207   6.684   2.396 -0.1810 -0.0546 -0.1611
    5FIC    C28 7976   3.285   6.774   2.484 -0.1870  0.0600 -0.2716
    5FIC    C29 7977   3.283   6.911   2.484 -0.1133  0.0621 -0.5165
    5FIC    C30 7978   3.201   6.987   2.395 -0.0179 -0.0505 -0.7016
    5FIC    C31 7979   3.362   6.990   2.573 -0.1258  0.1773 -0.6065
    1BTD     S2 7980   2.883   6.614   1.150 -0.2208  0.1380 -0.0010
    1BTD     N1 7981   2.870   6.435   1.163 -0.0080  0.1203 -0.0346
    1BTD     N2 7982   2.925   6.639   1.322 -0.1175  0.1441 -0.0272
    1BTD     N3 7983   2.990   6.367   1.700  0.4771  0.1249 -0.1414
    1BTD     N4 7984   2.922   6.116   1.504  0.6118  0.0955 -0.1505
    1BTD     C5 7985   2.898   6.271   1.343  0.3139  0.1075 -0.0950
    1BTD     C6 7986   2.897   6.405   1.290  0.1222  0.1198 -0.0622
    1BTD     C7 7987   2.928   6.519   1.379  0.0610  0.1333 -0.0581
    1BTD     C8 7988   2.958   6.494   1.517  0.1945  0.1338 -0.0870
    1BTD    C15 7989   2.958   6.362   1.565  0.3808  0.1215 -0.1185
    1BTD    C16 7990   2.928   6.252   1.479  0.4398  0.1087 -0.1225
    1BTD    C43 7991   2.992   6.031   1.605 -0.3905 -0.2430  0.3898
    1BTD    C44 7992   3.146   6.029   1.601 -0.3509 -0.2155 -0.5253
    1BTD    C45 7993   3.201   5.990   1.736  0.3206  0.7084 -0.0761
    1BTD    C46 7994   3.345   6.015   1.780 -0.3442 -0.3476  0.2869
    1BTD    C47 7995   3.226   5.978   1.477  0.2115 -0.2391  0.1531
    1BTD    C48 7996   3.213   5.828   1.447  0.2324 -0.4115 -0.0361
    1BTD    C49 7997   3.297   5.793   1.332 -0.0365 -0.0538  0.2666
    1BTD    C50 7998   3.273   5.660   1.262  0.6655 -0.5618 -0.1403
    1BTD    C75 7999   2.975   6.268   1.808 -0.2229  0.3269 -0.0336
    1BTD    C76 8000   2.846   6.245   1.875  0.1581  0.5592 -0.4326
    1BTD    C77 8001   2.834   6.106   1.955  0.1003 -0.5640 -0.4377
    1BTD    C78 8002   2.937   6.090   2.072  0.5408  0.0051  0.7160
    1BTD    C79 8003   2.796   6.377   1.938  0.0630  0.1152 -0.4615
    1BTD    C80 8004   2.651   6.402   1.986 -0.7051 -0.1293 -0.1066
    1BTD    C81 8005   2.612   6.382   2.135  0.1586 -0.2670  0.5207
    1BTD    C82 8006   2.696   6.425   2.257 -0.1772 -0.3254 -0.1740
    2TTP     S1 8007   2.856   6.068   1.124 -0.3088 -0.1200 -0.0283
    2TTP     S5 8008   2.889   5.751   1.414 -0.1839  0.2435  0.3562
    2TTP     C1 8009   2.875   5.677   1.248  0.0116  0.0394  0.4299
    2TTP     C2 8010   2.864   5.770   1.149 -0.0156 -0.0850  0.3155
    2TTP     C3 8011   2.866   5.904   1.200 -0.1916 -0.0234  0.1655
    2TTP     C4 8012   2.871   6.142   1.290 -0.5043  0.0842 -0.1020
    2TTP    C17 8013   2.882   6.049   1.389 -0.4772  0.2085  0.0124
    2TTP    C18 8014   2.879   5.915   1.338 -0.3011  0.1470  0.1624
    2TTP    C32 8015   2.843   5.742   1.004  0.0192 -0.3336  0.5871
    2TTP    C33 8016   2.712   5.775   0.938 -0.1055 -0.2448  0.0318
    2TTP    C34 8017   2.579   5.729   1.000 -0.1721  0.0263 -0.2747
    2TTP    C35 8018   2.557   5.580   1.013  0.6611  0.0161  0.2058
    2TTP    C36 8019   2.556   5.499   0.884  0.7087  0.0946 -0.1884
    2TTP    C37 8020   2.536   5.353   0.915  0.1175  0.6617  0.0024
    2TTP    C38 8021   2.581   5.255   0.803 -0.1952 -0.5584  0.0488
    2TTP    C39 8022   2.551   5.286   0.665  0.2925 -0.7183 -0.3116
    2TTP    C40 8023   2.585   5.176   0.569 -0.5728  0.3406  0.2370
    2TTP    C41 8024   2.526   5.188   0.427 -0.1444  1.0566 -0.0563
    2TTP    C42 8025   2.581   5.087   0.320 -0.5451 -0.1484  0.1731
    3TTP     S1 8026   3.058   6.746   1.647 -0.1046  0.0849  0.0995
    3TTP     S5 8027   3.224   6.506   1.963  0.0594 -0.0584 -0.0946
    3TTP     C1 8028   3.295   6.673   1.973 -0.0672 -0.0127  0.0508
    3TTP     C2 8029   3.248   6.757   1.876 -0.1252  0.0343  0.1192
    3TTP     C3 8030   3.154   6.692   1.790 -0.0719  0.0359  0.0594
    3TTP     C4 8031   2.986   6.578   1.637  0.0221  0.0390 -0.0459
    3TTP    C17 8032   3.033   6.495   1.734  0.0801 -0.0078 -0.1144
    3TTP    C18 8033   3.128   6.560   1.820  0.0268 -0.0093 -0.0545
    3TTP    C32 8034   3.262   6.906   1.859 -0.0454 -0.0306 -0.5671
    3TTP    C33 8035   3.162   6.972   1.949  0.5321 -0.7172 -0.5033
    3TTP    C34 8036   3.128   7.121   1.922 -0.2660  0.3699  0.4366
    3TTP    C35 8037   3.047   7.197   2.026  0.1378 -0.5991  0.0958
    3TTP    C36 8038   3.049   7.351   2.008  0.1623 -0.0099  0.3139
    3TTP    C37 8039   3.026   7.401   1.869 -0.0252  0.3033 -0.2971
    3TTP    C38 8040   3.041   7.552   1.849 -0.3603  0.2782 -0.5261
    3TTP    C39 8041   2.915   7.632   1.901 -0.3168 -0.0903  0.1742
    3TTP    C40 8042   2.931   7.780   1.898  0.0481  0.5111 -0.1716
    3TTP    C41 8043   2.922   7.846   1.763 -0.4135 -0.7849  0.2324
    3TTP    C42 8044   2.947   7.994   1.760 -0.0990 -0.4183 -0.3204
    4FIC     F1 8045   2.757   4.982   1.676  0.0415  0.0869 -0.0175
    4FIC     F2 8046   2.798   4.842   1.447 -0.3751  0.0291 -0.0568
    4FIC     O1 8047   2.810   5.490   1.496  0.3034  0.0234 -0.1224
    4FIC     N5 8048   2.893   5.002   0.988 -0.7874 -0.0999 -0.1880
    4FIC     N6 8049   2.926   5.427   0.894 -0.4988 -0.1378 -0.2620
    4FIC    C19 8050   2.867   5.536   1.213 -0.0017 -0.0548 -0.1972
    4FIC    C20 8051   2.852   5.414   1.267 -0.0513 -0.0365 -0.1692
    4FIC    C21 8052   2.823   5.398   1.414  0.1143  0.0037 -0.1316
    4FIC    C22 8053   2.813   5.253   1.439  0.0077  0.0148 -0.1080
    4FIC    C23 8054   2.787   5.190   1.560  0.0966  0.0496 -0.0708
    4FIC    C24 8055   2.782   5.051   1.560 -0.0360  0.0535 -0.0542
    4FIC    C25 8056   2.803   4.979   1.442 -0.2506  0.0235 -0.0745
    4FIC    C26 8057   2.829   5.042   1.320 -0.3403 -0.0112 -0.1117
    4FIC    C27 8058   2.834   5.182   1.319 -0.2086 -0.0156 -0.1289
    4FIC    C28 8059   2.859   5.278   1.208 -0.2534 -0.0484 -0.1673
    4FIC    C29 8060   2.884   5.247   1.077 -0.4455 -0.0831 -0.1957
    4FIC    C30 8061   2.889   5.112   1.029 -0.6328 -0.0920 -0.1914
    4FIC    C31 8062   2.907   5.346   0.977 -0.4738 -0.1130 -0.2320
    5FIC     F1 8063   3.804   6.340   2.527  0.0722  0.1383 -0.3054
    5FIC     F2 8064   3.883   6.591   2.595  0.2682  0.1409 -0.5398
    5FIC     O1 8065   3.445   6.448   2.136 -0.2442  0.0757 -0.0333
    5FIC     N5 8066   3.741   7.030   2.415  0.3242  0.1000 -0.6830
    5FIC     N6 8067   3.445   7.064   2.096  0.0375  0.0505 -0.4231
    5FIC    C19 8068   3.394   6.727   2.062 -0.1694  0.0559 -0.1607
    5FIC    C20 8069   3.481   6.690   2.158 -0.0975  0.0716 -0.2199
    5FIC    C21 8070   3.502   6.544   2.190 -0.1424  0.0811 -0.1481
    5FIC    C22 8071   3.602   6.540   2.298 -0.0421  0.0976 -0.2404
    5FIC    C23 8072   3.654   6.427   2.361 -0.0408  0.1104 -0.2181
    5FIC    C24 8073   3.749   6.447   2.460  0.0648  0.1250 -0.3207
    5FIC    C25 8074   3.789   6.577   2.495  0.1656  0.1263 -0.4414
    5FIC    C26 8075   3.738   6.690   2.433  0.1650  0.1134 -0.4643
    5FIC    C27 8076   3.642   6.671   2.332  0.0589  0.0987 -0.3616
    5FIC    C28 8077   3.569   6.768   2.247  0.0289  0.0827 -0.3539
    5FIC    C29 8078   3.581   6.905   2.251  0.1038  0.0792 -0.4520
    5FIC    C30 8079   3.669   6.973   2.341  0.2247  0.0906 -0.5788
    5FIC    C31 8080   3.506   6.992   2.166  0.0669  0.0635 -0.4356
    1BTD     S2 8081   4.122   6.831   2.671  0.2664 -0.0135 -0.1124
    1BTD     N1 8082   4.112   7.010   2.656  0.1266 -0.0182 -0.0762
    1BTD     N2 8083   4.082   6.800   2.499  0.2968 -0.0098 -0.1203
    1BTD     N3 8084   3.982   7.059   2.120  0.1065 -0.0103 -0.0707
    1BTD     N4 8085   4.019   7.318   2.314 -0.1032 -0.0206 -0.0164
    1BTD     C5 8086   4.063   7.168   2.475  0.0093 -0.0193 -0.0456
    1BTD     C6 8087   4.081   7.036   2.530  0.1107 -0.0168 -0.0720
    1BTD     C7 8088   4.064   6.918   2.442  0.2059 -0.0119 -0.0967
    1BTD     C8 8089   4.030   6.938   2.303  0.1949 -0.0103 -0.0938
    1BTD    C15 8090   4.014   7.069   2.254  0.0938 -0.0128 -0.0675
    1BTD    C16 8091   4.030   7.183   2.339  0.0022 -0.0174 -0.0438
    1BTD    C43 8092   3.950   7.383   2.200  0.7158 -0.2749  0.2764
    1BTD    C44 8093   3.799   7.433   2.216 -0.9207 -0.0640 -0.2884
    1BTD    C45 8094   3.707   7.314   2.244 -0.6324  0.2373  0.0783
    1BTD    C46 8095   3.556   7.344   2.254 -0.0944 -0.8099 -0.3287
    1BTD    C47 8096   3.749   7.538   2.116  0.0339 -0.2484  0.2229
    1BTD    C48 8097   3.812   7.674   2.103 -1.0679 -0.0728  0.3014
    1BTD    C49 8098   3.745   7.759   1.984 -0.1216  0.5260  0.0402
    1BTD    C50 8099   3.768   7.906   2.002  0.0274  0.5568 -0.2826
    1BTD    C75 8100   4.035   7.144   2.010 -0.7304 -0.9830  0.5255
    1BTD    C76 8101   3.989   7.138   1.859  0.3067 -0.9800 -0.8517
    1BTD    C77 8102   3.857   7.224   1.844  0.0962 -0.3273 -0.5584
    1BTD    C78 8103   3.788   7.225   1.709  0.1113  0.8663  0.3996
    1BTD    C79 8104   4.096   7.185   1.758  0.1685 -0.1147  0.6282
    1BTD    C80 8105   4.220   7.102   1.743 -0.0921  0.1286 -0.5791
    1BTD    C81 8106   4.206   6.945   1.757  1.1663  0.2889 -0.7123
    1BTD    C82 8107   4.340   6.876   1.731  0.3032 -0.0759 -0.5028
    2TTP     S1 8108   4.095   7.369   2.693  0.1318  0.1339  0.2426
    2TTP     S5 8109   3.994   7.685   2.420  0.2182  0.0161  0.0739
    2TTP     C1 8110   4.024   7.758   2.584  0.4187  0.1167 -0.0069
    2TTP     C2 8111   4.057   7.665   2.678  0.4036  0.1589  0.0404
    2TTP     C3 8112   4.060   7.532   2.624  0.2337  0.1135  0.1422
    2TTP     C4 8113   4.065   7.296   2.529 -0.0687  0.0335  0.3234
    2TTP    C17 8114   4.032   7.390   2.435 -0.0536 -0.0089  0.2760
    2TTP    C18 8115   4.029   7.522   2.489  0.1166  0.0366  0.1742
    2TTP    C32 8116   4.076   7.675   2.829 -0.4823  0.2677 -0.1359
    2TTP    C33 8117   4.211   7.650   2.888  0.4743  0.9099 -0.1830
    2TTP    C34 8118   4.322   7.726   2.821  0.8753  0.1341 -0.3989
    2TTP    C35 8119   4.448   7.714   2.899  0.0124  1.3619  0.2710
    2TTP    C36 8120   4.551   7.817   2.862 -0.5011 -0.1460  0.7085
    2TTP    C37 8121   4.631   7.799   2.735 -0.4526  0.2074  0.5783
    2TTP    C38 8122   4.699   7.937   2.698  0.1408  0.3045 -0.0455
    2TTP    C39 8123   4.773   7.957   2.573  0.2397  0.1348  0.1119
    2TTP    C40 8124   4.849   8.090   2.561 -0.3924  0.8630 -0.2971
    2TTP    C41 8125   4.772   8.210   2.579  0.9750 -0.3590  0.1940
    2TTP    C42 8126   4.856   8.337   2.604 -0.3791  0.4836 -0.3557
    3TTP     S1 8127   3.954   6.677   2.181  0.0935  0.0787 -0.0075
    3TTP     S5 8128   3.772   6.891   1.856 -0.0287  0.2046  0.1429
    3TTP     C1 8129   3.719   6.717   1.848  0.2423  0.1322 -0.1064
    3TTP     C2 8130   3.772   6.641   1.948  0.2959  0.0889 -0.1676
    3TTP     C3 8131   3.857   6.717   2.034  0.1251  0.1116 -0.0197
    3TTP     C4 8132   4.007   6.851   2.189 -0.1774  0.1512  0.2417
    3TTP    C17 8133   3.954   6.927   2.089 -0.2312  0.1944  0.3029
    3TTP    C18 8134   3.869   6.851   2.003 -0.0603  0.1717  0.1551
    3TTP    C32 8135   3.747   6.495   1.969 -0.9851 -0.0118 -0.0152
    3TTP    C33 8136   3.875   6.418   1.935  0.6678  0.0041  0.5305
    3TTP    C34 8137   3.868   6.270   1.960 -0.4758  0.4991  0.3284
    3TTP    C35 8138   3.850   6.220   2.108 -0.9251 -0.1415  0.2617
    3TTP    C36 8139   3.810   6.072   2.125  0.7397 -0.1562  0.1881
    3TTP    C37 8140   3.663   6.037   2.075 -0.2014  0.0222  0.5265
    3TTP    C38 8141   3.537   6.092   2.145  0.1741  0.3366 -0.0383
    3TTP    C39 8142   3.513   6.058   2.295  0.1845 -0.4204  0.7861
    3TTP    C40 8143   3.403   6.133   2.368 -0.7817 -0.3894  0.2286
    3TTP    C41 8144   3.376   6.071   2.503  0.9009 -0.0751 -0.4958
    3TTP    C42 8145   3.254   6.139   2.570 -0.0412  0.0398  0.5272
    4FIC     F1 8146   3.856   8.463   2.203  0.1942 -0.0432 -0.0185
    4FIC     F2 8147   3.819   8.578   2.447 -0.1501 -0.2120  0.0097
    4FIC     O1 8148   3.990   7.959   2.346  0.4801 -0.0113 -0.1708
    4FIC     N5 8149   3.860   8.382   2.900 -0.4411 -0.4320 -0.0582
    4FIC     N6 8150   3.972   7.965   2.962 -0.1484 -0.3729 -0.1829
    4FIC    C19 8151   4.002   7.888   2.630  0.2528 -0.1610 -0.1980
    4FIC    C20 8152   3.969   8.011   2.584  0.1944 -0.1624 -0.1608
    4FIC    C21 8153   3.965   8.039   2.437  0.3193 -0.0830 -0.1490
    4FIC    C22 8154   3.927   8.181   2.422  0.2132 -0.1066 -0.1069
    4FIC    C23 8155   3.911   8.253   2.304  0.2711 -0.0544 -0.0829
    4FIC    C24 8156   3.874   8.386   2.316  0.1459 -0.0914 -0.0438
    4FIC    C25 8157   3.855   8.445   2.441 -0.0313 -0.1782 -0.0293
    4FIC    C26 8158   3.871   8.374   2.560 -0.0900 -0.2313 -0.0530
    4FIC    C27 8159   3.908   8.239   2.550  0.0348 -0.1948 -0.0927
    4FIC    C28 8160   3.933   8.137   2.655  0.0161 -0.2325 -0.1252
    4FIC    C29 8161   3.925   8.155   2.791 -0.1371 -0.3161 -0.1230
    4FIC    C30 8162   3.890   8.280   2.850 -0.3037 -0.3796 -0.0873
    4FIC    C31 8163   3.951   8.050   2.884 -0.1423 -0.3469 -0.1559
    5FIC     F1 8164   3.254   6.983   1.218  0.2548  0.1531  0.0718
    5FIC     F2 8165   3.148   6.732   1.199 -0.1745  0.3108  0.3670
    5FIC     O1 8166   3.606   6.915   1.624  0.4723 -0.0857 -0.1553
    5FIC     N5 8167   3.247   6.325   1.462 -0.6367  0.3675  0.6294
    5FIC     N6 8168   3.543   6.322   1.783 -0.3802  0.1491  0.3924
    5FIC    C19 8169   3.630   6.652   1.750  0.1393 -0.0198  0.0460
    5FIC    C20 8170   3.545   6.679   1.649  0.1014  0.0342  0.0916
    5FIC    C21 8171   3.539   6.817   1.589  0.2810 -0.0048 -0.0186
    5FIC    C22 8172   3.438   6.811   1.482  0.1848  0.0716  0.0677
    5FIC    C23 8173   3.397   6.914   1.398  0.2880  0.0693  0.0140
    5FIC    C24 8174   3.299   6.885   1.304  0.1631  0.1507  0.1173
    5FIC    C25 8175   3.245   6.756   1.295 -0.0580  0.2318  0.2693
    5FIC    C26 8176   3.285   6.652   1.378 -0.1621  0.2350  0.3237
    5FIC    C27 8177   3.384   6.680   1.474 -0.0384  0.1532  0.2208
    5FIC    C28 8178   3.448   6.594   1.576 -0.0983  0.1332  0.2415
    5FIC    C29 8179   3.422   6.461   1.599 -0.3005  0.1948  0.3743
    5FIC    C30 8180   3.326   6.387   1.523 -0.4846  0.2896  0.5141
    5FIC    C31 8181   3.489   6.385   1.700 -0.3433  0.1694  0.3835
    1BTD     S2 8182   2.922   6.719   0.168 -0.3351 -0.0539  0.0222
    1BTD     N1 8183   2.914   6.899   0.169  0.0514 -0.0348 -0.0639
    1BTD     N2 8184   2.984   6.707   0.337 -0.5933 -0.1193  0.1134
    1BTD     N3 8185   3.096   7.006   0.681 -0.4218 -0.2180  0.1435
    1BTD     N4 8186   3.010   7.242   0.474  0.3726 -0.1142 -0.0750
    1BTD     C5 8187   2.965   7.076   0.331  0.2095 -0.0776 -0.0671
    1BTD     C6 8188   2.956   6.938   0.288 -0.0279 -0.0762 -0.0225
    1BTD     C7 8189   2.995   6.831   0.382 -0.3888 -0.1233  0.0768
    1BTD     C8 8190   3.041   6.866   0.514 -0.4942 -0.1696  0.1265
    1BTD    C15 8191   3.049   7.001   0.551 -0.2530 -0.1691  0.0800
    1BTD    C16 8192   3.011   7.105   0.461  0.0949 -0.1238 -0.0157
    1BTD    C43 8193   3.071   7.333   0.569  0.3126 -0.0485 -0.2531
    1BTD    C44 8194   3.215   7.390   0.556 -0.0296  0.3565  0.3602
    1BTD    C45 8195   3.268   7.464   0.687 -0.4589 -0.1437  0.0837
    1BTD    C46 8196   3.189   7.564   0.773 -0.0821 -0.5621  0.1957
    1BTD    C47 8197   3.314   7.278   0.514  0.1617  0.0694  0.3290
    1BTD    C48 8198   3.449   7.316   0.448 -0.3755  0.2642 -0.1263
    1BTD    C49 8199   3.451   7.384   0.307 -0.6320  0.3104  0.6055
    1BTD    C50 8200   3.427   7.303   0.177  0.1013 -0.5952 -0.2235
    1BTD    C75 8201   3.038   7.094   0.792  0.5509  0.5274  0.1838
    1BTD    C76 8202   3.111   7.134   0.925 -0.1665 -0.2940  0.1516
    1BTD    C77 8203   3.249   7.200   0.889  0.1197 -0.4524 -0.8251
    1BTD    C78 8204   3.343   7.235   1.003  0.5720 -0.0772  0.6450
    1BTD    C79 8205   3.020   7.217   1.025  0.1228 -0.1775  0.1780
    1BTD    C80 8206   2.886   7.149   1.071 -0.2799 -0.7224 -0.2640
    1BTD    C81 8207   2.906   7.018   1.136 -0.1949 -0.4499 -0.2673
    1BTD    C82 8208   2.796   6.960   1.227  0.1744 -0.1943  0.1115
    2TTP     S1 8209   2.908   7.256   0.094  0.4356  0.2285  0.0729
    2TTP     S5 8210   3.026   7.591   0.337 -0.1411  0.3698  0.1633
    2TTP     C1 8211   3.004   7.648   0.166  0.1468  0.2952  0.0999
    2TTP     C2 8212   2.966   7.549   0.081  0.3418  0.2474  0.0683
    2TTP     C3 8213   2.953   7.423   0.148  0.2710  0.2675  0.0930
    2TTP     C4 8214   2.930   7.199   0.265  0.1478  0.3030  0.1363
    2TTP    C17 8215   2.968   7.298   0.350 -0.0473  0.3510  0.1680
    2TTP    C18 8216   2.981   7.424   0.283  0.0236  0.3306  0.1433
    2TTP    C32 8217   2.923   7.557  -0.067 -0.2587 -0.1253  0.1460
    2TTP    C33 8218   2.769   7.571  -0.085 -0.3479 -0.2406  0.0661
    2TTP    C34 8219   2.722   7.605  -0.225  0.0216  0.3951 -0.1140
    2TTP    C35 8220   2.772   7.743  -0.271 -0.5753  0.1692 -0.3485
    2TTP    C36 8221   2.724   7.773  -0.414 -0.6508 -0.2290 -0.3293
    2TTP    C37 8222   2.743   7.913  -0.466 -0.3309 -0.3050 -0.0526
    2TTP    C38 8223   2.702   7.920  -0.610  0.0347 -0.2666 -0.3303
    2TTP    C39 8224   2.741   8.054  -0.671  0.5535  0.0141  0.6078
    2TTP    C40 8225   2.644   8.176  -0.640  0.1649 -0.7657 -0.0800
    2TTP    C41 8226   2.712   8.310  -0.673  0.2644 -0.0103  0.1463
    2TTP    C42 8227   2.602   8.391  -0.736  0.1166 -0.2429 -0.2424
    3TTP     S1 8228   3.139   6.620   0.650  0.2101  0.2570  0.0133
    3TTP     S5 8229   3.335   6.865   0.944  0.0927  0.0423  0.2724
    3TTP     C1 8230   3.389   6.693   0.967  0.1582  0.0398  0.1051
    3TTP     C2 8231   3.332   6.607   0.878  0.1984  0.1057  0.0152
    3TTP     C3 8232   3.243   6.674   0.788  0.1789  0.1609  0.0753
    3TTP     C4 8233   3.086   6.792   0.627  0.1447  0.2596  0.1806
    3TTP    C17 8234   3.143   6.878   0.716  0.1045  0.1936  0.2705
    3TTP    C18 8235   3.231   6.811   0.806  0.1240  0.1385  0.2104
    3TTP    C32 8236   3.361   6.459   0.870 -0.6056  0.8875 -0.3521
    3TTP    C33 8237   3.257   6.367   0.925  0.4200  0.1045  0.2025
    3TTP    C34 8238   3.276   6.216   0.920  0.3881  0.3628 -0.1441
    3TTP    C35 8239   3.324   6.141   0.801 -0.5628 -0.0413 -0.0155
    3TTP    C36 8240   3.229   6.142   0.686  0.5815 -0.0991  0.1434
    3TTP    C37 8241   3.110   6.043   0.698 -0.2115 -0.2188 -0.2337
    3TTP    C38 8242   3.015   6.029   0.581  0.0244 -0.6127  0.0626
    3TTP    C39 8243   2.898   5.940   0.596  0.4729  0.1627  0.1693
    3TTP    C40 8244   2.788   5.920   0.488  0.6580 -0.3995  0.1518
    3TTP    C41 8245   2.834   5.861   0.359 -0.0411 -0.1119 -0.6736
    3TTP    C42 8246   2.723   5.865   0.259 -1.2367 -0.3929  0.5097
    4FIC     F1 8247   3.087   8.374   0.539 -0.1408  0.3097 -0.1641
    4FIC     F2 8248   3.181   8.475   0.304 -0.0701  0.0482 -0.2493
    4FIC     O1 8249   2.979   7.864   0.395 -0.2066  0.1788  0.3431
    4FIC     N5 8250   3.239   8.257  -0.136 -0.0153 -0.4218 -0.0104
    4FIC     N6 8251   3.135   7.838  -0.201 -0.0810 -0.4709  0.4031
    4FIC    C19 8252   3.030   7.779   0.119 -0.1624 -0.1175  0.4418
    4FIC    C20 8253   3.054   7.904   0.165 -0.1487 -0.0745  0.3175
    4FIC    C21 8254   3.025   7.940   0.308 -0.1731  0.0799  0.2741
    4FIC    C22 8255   3.062   8.081   0.324 -0.1495  0.0896  0.1345
    4FIC    C23 8256   3.053   8.159   0.439 -0.1598  0.2110  0.0518
    4FIC    C24 8257   3.094   8.292   0.429 -0.1325  0.1939 -0.0769
    4FIC    C25 8258   3.142   8.343   0.308 -0.0961  0.0586 -0.1206
    4FIC    C26 8259   3.151   8.266   0.193 -0.0856 -0.0627 -0.0385
    4FIC    C27 8260   3.110   8.132   0.201 -0.1128 -0.0474  0.0921
    4FIC    C28 8261   3.107   8.025   0.098 -0.1109 -0.1538  0.2028
    4FIC    C29 8262   3.147   8.036  -0.033 -0.0799 -0.2978  0.1995
    4FIC    C30 8263   3.197   8.157  -0.089 -0.0445 -0.3650  0.0841
    4FIC    C31 8264   3.140   7.927  -0.125 -0.0806 -0.3922  0.3116
    5FIC     F1 8265   3.932   7.059   1.457 -0.1506 -0.0948  0.0820
    5FIC     F2 8266   3.977   6.818   1.577 -0.1577 -0.1268  0.0205
    5FIC     O1 8267   3.568   6.920   1.082 -0.2985  0.0484  0.1723
    5FIC     N5 8268   3.782   6.374   1.481 -0.2733 -0.0710 -0.0035
    5FIC     N6 8269   3.488   6.314   1.164 -0.3876  0.0471  0.0795
    5FIC    C19 8270   3.481   6.641   1.063 -0.3579  0.0684  0.1457
    5FIC    C20 8271   3.571   6.685   1.152 -0.3204  0.0336  0.1253
    5FIC    C21 8272   3.611   6.830   1.156 -0.2916  0.0254  0.1410
    5FIC    C22 8273   3.710   6.844   1.265 -0.2539 -0.0145  0.1118
    5FIC    C23 8274   3.775   6.960   1.306 -0.2183 -0.0350  0.1135
    5FIC    C24 8275   3.864   6.948   1.411 -0.1865 -0.0728  0.0823
    5FIC    C25 8276   3.887   6.824   1.473 -0.1903 -0.0891  0.0507
    5FIC    C26 8277   3.823   6.708   1.432 -0.2255 -0.0689  0.0488
    5FIC    C27 8278   3.732   6.718   1.326 -0.2580 -0.0308  0.0801
    5FIC    C28 8279   3.647   6.616   1.259 -0.2992 -0.0018  0.0871
    5FIC    C29 8280   3.641   6.482   1.290 -0.3146 -0.0069  0.0629
    5FIC    C30 8281   3.719   6.423   1.395 -0.2919 -0.0421  0.0265
    5FIC    C31 8282   3.557   6.390   1.220 -0.3547  0.0230  0.0722
    1BTD     S2 8283   1.852   3.860   1.263  0.1958 -0.0078 -0.0047
    1BTD     N1 8284   1.878   3.682   1.270  0.3921  0.0218  0.0121
    1BTD     N2 8285   1.924   3.892   1.424 -0.0876  0.0563  0.1117
    1BTD     N3 8286   2.121   3.635   1.765 -0.3110  0.2402  0.3793
    1BTD     N4 8287   2.064   3.377   1.575  0.2800  0.1977  0.2566
    1BTD     C5 8288   1.976   3.526   1.431  0.3265  0.1141  0.1413
    1BTD     C6 8289   1.937   3.657   1.386  0.2438  0.0751  0.0992
    1BTD     C7 8290   1.963   3.774   1.473 -0.0246  0.0944  0.1549
    1BTD     C8 8291   2.026   3.755   1.600 -0.1971  0.1518  0.2499
    1BTD    C15 8292   2.062   3.625   1.641 -0.1078  0.1884  0.2882
    1BTD    C16 8293   2.038   3.512   1.557  0.1509  0.1700  0.2346
    1BTD    C43 8294   2.156   3.306   1.662  0.4261 -0.4967 -0.1317
    1BTD    C44 8295   2.290   3.252   1.617  0.0388 -0.3654  0.7906
    1BTD    C45 8296   2.384   3.362   1.545  0.9919 -0.1358 -0.0230
    1BTD    C46 8297   2.514   3.313   1.473  0.4950 -0.2380 -0.4179
    1BTD    C47 8298   2.354   3.145   1.705  0.0877 -0.3435  0.2107
    1BTD    C48 8299   2.424   3.182   1.831  0.0318 -0.3828  0.2087
    1BTD    C49 8300   2.472   3.065   1.916  0.1047 -0.5592 -0.5034
    1BTD    C50 8301   2.565   3.100   2.033 -0.0518  0.1717 -0.1976
    1BTD    C75 8302   2.142   3.535   1.874  0.1143  0.3802 -0.4208
    1BTD    C76 8303   2.043   3.536   1.996 -0.4403  0.2655  0.1040
    1BTD    C77 8304   2.088   3.424   2.091 -0.5735 -0.3643 -0.1624
    1BTD    C78 8305   2.223   3.446   2.163  0.2758 -0.2983  0.4709
    1BTD    C79 8306   1.892   3.532   1.959 -0.5166 -0.0224  0.1776
    1BTD    C80 8307   1.781   3.538   2.061  0.6449  0.3897 -0.2484
    1BTD    C81 8308   1.794   3.661   2.146  0.4419  0.0798 -0.6541
    1BTD    C82 8309   1.682   3.686   2.252  0.2864  0.1558 -0.4230
    2TTP     S1 8310   1.903   3.312   1.227 -0.0762  0.0236  0.0108
    2TTP     S5 8311   2.041   3.005   1.496  0.2877  0.0911 -0.0972
    2TTP     C1 8312   1.976   2.926   1.345  0.1121  0.0547 -0.0038
    2TTP     C2 8313   1.930   3.016   1.253 -0.0106  0.0317  0.0350
    2TTP     C3 8314   1.944   3.151   1.298  0.0296  0.0420 -0.0075
    2TTP     C4 8315   1.967   3.391   1.377  0.0993  0.0598 -0.0826
    2TTP    C17 8316   2.013   3.301   1.469  0.2220  0.0829 -0.1215
    2TTP    C18 8317   2.000   3.166   1.424  0.1819  0.0727 -0.0789
    2TTP    C32 8318   1.867   2.990   1.116 -0.3575  0.3128  0.2734
    2TTP    C33 8319   1.721   2.966   1.120  0.6458  0.2372 -0.1310
    2TTP    C34 8320   1.658   2.907   0.994 -0.6241 -0.6209 -0.3655
    2TTP    C35 8321   1.506   2.882   0.991 -0.1394  0.2760 -0.4037
    2TTP    C36 8322   1.459   2.778   1.090  0.5004 -0.5817 -0.3931
    2TTP    C37 8323   1.312   2.746   1.068 -0.6219  0.3554 -0.2409
    2TTP    C38 8324   1.268   2.643   1.172 -0.3003  0.0909  0.0520
    2TTP    C39 8325   1.121   2.602   1.169 -0.1565  0.4216  0.3793
    2TTP    C40 8326   1.092   2.512   1.283 -0.5433 -0.2498 -0.6063
    2TTP    C41 8327   0.956   2.454   1.273  0.1274 -0.6950 -0.5578
    2TTP    C42 8328   0.884   2.440   1.409 -0.1876 -0.2246 -0.3833
    3TTP     S1 8329   2.076   4.022   1.733  0.2083 -0.0306  0.0591
    3TTP     S5 8330   2.316   3.824   2.030  0.0761 -0.3125 -0.0219
    3TTP     C1 8331   2.328   4.003   2.056  0.0997 -0.3356  0.1267
    3TTP     C2 8332   2.255   4.075   1.966  0.1417 -0.2500  0.1604
    3TTP     C3 8333   2.186   3.991   1.873  0.1571 -0.1630  0.0702
    3TTP     C4 8334   2.064   3.843   1.707  0.1848 -0.0075 -0.0895
    3TTP    C17 8335   2.137   3.771   1.797  0.1425 -0.0932 -0.1233
    3TTP    C18 8336   2.206   3.855   1.890  0.1273 -0.1802 -0.0330
    3TTP    C32 8337   2.222   4.227   1.951 -0.1092 -0.3940 -0.5724
    3TTP    C33 8338   2.084   4.271   2.011  0.0679 -0.0618 -0.4252
    3TTP    C34 8339   2.038   4.423   2.012 -0.6930 -0.0246 -0.6747
    3TTP    C35 8340   2.058   4.503   1.879  0.0310 -0.0670 -0.7019
    3TTP    C36 8341   2.028   4.654   1.891 -0.0151  0.7358  0.3752
    3TTP    C37 8342   2.034   4.736   1.757  0.5438  0.7722  0.6612
    3TTP    C38 8343   1.950   4.695   1.634 -0.2354 -0.2232  0.7693
    3TTP    C39 8344   1.797   4.690   1.640  0.0930  0.6986  0.5217
    3TTP    C40 8345   1.742   4.676   1.499  0.0333 -0.1807 -0.4332
    3TTP    C41 8346   1.600   4.639   1.502  0.1497  0.8655 -0.2682
    3TTP    C42 8347   1.538   4.569   1.377 -0.4884  0.2154 -0.4798
    4FIC     F1 8348   2.123   2.254   1.802  0.0572 -0.0921  0.0058
    4FIC     F2 8349   2.051   2.102   1.588 -0.1466 -0.0306  0.0296
    4FIC     O1 8350   2.058   2.752   1.600  0.1494 -0.0348  0.1170
    4FIC     N5 8351   1.902   2.238   1.136 -0.3740  0.0986  0.1431
    4FIC     N6 8352   1.866   2.658   1.021 -0.2609  0.1310  0.2252
    4FIC    C19 8353   1.967   2.784   1.323 -0.0127  0.0443  0.1793
    4FIC    C20 8354   1.986   2.664   1.383 -0.0278  0.0274  0.1504
    4FIC    C21 8355   2.033   2.656   1.525  0.0594 -0.0134  0.1194
    4FIC    C22 8356   2.043   2.513   1.558  0.0165 -0.0225  0.0927
    4FIC    C23 8357   2.083   2.456   1.678  0.0680 -0.0570  0.0595
    4FIC    C24 8358   2.085   2.317   1.686  0.0111 -0.0590  0.0388
    4FIC    C25 8359   2.048   2.239   1.575 -0.0938 -0.0272  0.0512
    4FIC    C26 8360   2.008   2.295   1.455 -0.1457  0.0073  0.0843
    4FIC    C27 8361   2.006   2.435   1.445 -0.0895  0.0098  0.1056
    4FIC    C28 8362   1.969   2.525   1.333 -0.1209  0.0417  0.1415
    4FIC    C29 8363   1.927   2.487   1.208 -0.2178  0.0777  0.1625
    4FIC    C30 8364   1.914   2.350   1.169 -0.3034  0.0890  0.1518
    4FIC    C31 8365   1.894   2.581   1.106 -0.2410  0.1068  0.1969
    5FIC     F1 8366   2.824   3.753   2.665 -0.1007  0.1520  0.0125
    5FIC     F2 8367   2.892   4.013   2.708 -0.1660  0.1547  0.0993
    5FIC     O1 8368   2.470   3.807   2.258 -0.1341  0.2013  0.0479
    5FIC     N5 8369   2.738   4.425   2.480 -0.2837  0.1938  0.2491
    5FIC     N6 8370   2.449   4.414   2.154 -0.2966  0.2317  0.2593
    5FIC    C19 8371   2.410   4.074   2.155 -0.2084  0.2214  0.1434
    5FIC    C20 8372   2.496   4.050   2.255 -0.1974  0.2090  0.1311
    5FIC    C21 8373   2.522   3.910   2.303 -0.1587  0.1992  0.0813
    5FIC    C22 8374   2.620   3.920   2.412 -0.1561  0.1866  0.0800
    5FIC    C23 8375   2.675   3.817   2.488 -0.1256  0.1748  0.0416
    5FIC    C24 8376   2.766   3.851   2.586 -0.1298  0.1641  0.0491
    5FIC    C25 8377   2.801   3.985   2.609 -0.1634  0.1656  0.0937
    5FIC    C26 8378   2.747   4.089   2.534 -0.1940  0.1775  0.1324
    5FIC    C27 8379   2.654   4.056   2.433 -0.1904  0.1884  0.1255
    5FIC    C28 8380   2.580   4.141   2.338 -0.2170  0.2021  0.1586
    5FIC    C29 8381   2.587   4.278   2.328 -0.2531  0.2074  0.2056
    5FIC    C30 8382   2.670   4.358   2.412 -0.2698  0.1999  0.2294
    5FIC    C31 8383   2.511   4.352   2.232 -0.2768  0.2209  0.2350
    1BTD     S2 8384   3.099   3.887   3.663  0.0703 -0.1460  0.2410
    1BTD     N1 8385   3.090   3.707   3.665  0.4820 -0.1723 -0.0127
    1BTD     N2 8386   3.030   3.903   3.498 -0.3235 -0.0470  0.4131
    1BTD     N3 8387   2.873   3.611   3.165 -0.3828  0.1073  0.3055
    1BTD     N4 8388   2.947   3.370   3.371  0.6098 -0.0470 -0.2190
    1BTD     C5 8389   3.015   3.534   3.509  0.5367 -0.1049 -0.1141
    1BTD     C6 8390   3.039   3.670   3.548  0.3134 -0.1091  0.0411
    1BTD     C7 8391   3.005   3.780   3.455 -0.1374 -0.0390  0.2795
    1BTD     C8 8392   2.949   3.747   3.326 -0.3425  0.0318  0.3506
    1BTD    C15 8393   2.927   3.613   3.292 -0.1112  0.0331  0.1927
    1BTD    C16 8394   2.960   3.507   3.382  0.3232 -0.0345 -0.0369
    1BTD    C43 8395   2.846   3.302   3.292  0.2126  0.5225  0.3218
    1BTD    C44 8396   2.695   3.311   3.323  0.3873 -0.0478 -0.1008
    1BTD    C45 8397   2.619   3.241   3.209 -0.0646 -0.1787 -0.0692
    1BTD    C46 8398   2.470   3.269   3.178 -0.3920 -0.1557 -0.2773
    1BTD    C47 8399   2.642   3.289   3.463  0.1823  0.2294 -0.4136
    1BTD    C48 8400   2.632   3.155   3.517  0.1862  0.6172  0.4680
    1BTD    C49 8401   2.556   3.139   3.640 -0.3660  0.0249 -0.5429
    1BTD    C50 8402   2.495   3.005   3.645  0.4933  0.0937  0.4612
    1BTD    C75 8403   2.873   3.510   3.059  0.6309  0.4034 -0.0806
    1BTD    C76 8404   2.964   3.516   2.944 -1.0182  0.1703 -0.0090
    1BTD    C77 8405   2.943   3.400   2.849 -0.1883  0.4919 -0.4782
    1BTD    C78 8406   3.009   3.400   2.711 -0.0529  0.4150 -0.4765
    1BTD    C79 8407   3.116   3.563   2.977  0.3118  0.2230 -0.1299
    1BTD    C80 8408   3.198   3.628   2.863  0.8862 -0.3733  0.2745
    1BTD    C81 8409   3.148   3.754   2.795  0.2669  0.0451  0.2065
    1BTD    C82 8410   3.213   3.786   2.662  0.2265 -0.2708 -0.8875
    2TTP     S1 8411   3.059   3.351   3.742  0.1724 -0.0503 -0.0178
    2TTP     S5 8412   2.966   3.013   3.492 -0.4239  0.1045 -0.0063
    2TTP     C1 8413   2.996   2.954   3.661 -0.1633  0.0161 -0.0826
    2TTP     C2 8414   3.026   3.054   3.748  0.0362 -0.0369 -0.0907
    2TTP     C3 8415   3.027   3.182   3.685 -0.0096 -0.0097 -0.0368
    2TTP     C4 8416   3.029   3.410   3.573 -0.0883  0.0381  0.0585
    2TTP    C17 8417   2.999   3.310   3.486 -0.2878  0.0910  0.0667
    2TTP    C18 8418   2.998   3.182   3.549 -0.2419  0.0638  0.0128
    2TTP    C32 8419   3.043   3.043   3.901 -0.1318  0.2596  0.0527
    2TTP    C33 8420   3.187   3.057   3.959  0.9601 -0.1048 -0.0977
    2TTP    C34 8421   3.298   2.966   3.909 -0.0554  0.5978 -0.2738
    2TTP    C35 8422   3.278   2.808   3.924  0.1944 -0.5544  0.3729
    2TTP    C36 8423   3.241   2.750   4.061  0.7174  0.1936  0.1955
    2TTP    C37 8424   3.304   2.629   4.113 -0.2038  0.2042  0.2718
    2TTP    C38 8425   3.244   2.583   4.248  0.8990 -0.1753 -0.6777
    2TTP    C39 8426   3.309   2.463   4.311 -0.3588  0.0303 -0.2478
    2TTP    C40 8427   3.239   2.435   4.452 -0.5528  0.9201  0.1131
    2TTP    C41 8428   3.319   2.333   4.537 -0.3841  0.3058 -0.1559
    2TTP    C42 8429   3.254   2.293   4.660  0.0064  0.1019  0.0256
    3TTP     S1 8430   2.851   3.998   3.190  0.0742 -0.0721 -0.1029
    3TTP     S5 8431   2.653   3.751   2.899 -0.4235 -0.0868  0.2465
    3TTP     C1 8432   2.599   3.924   2.875 -0.2740 -0.0506  0.1699
    3TTP     C2 8433   2.657   4.010   2.964 -0.1115 -0.0439  0.0574
    3TTP     C3 8434   2.746   3.943   3.053 -0.0992 -0.0672  0.0278
    3TTP     C4 8435   2.905   3.825   3.213 -0.0753 -0.1083 -0.0262
    3TTP    C17 8436   2.847   3.739   3.125 -0.2377 -0.1151  0.0863
    3TTP    C18 8437   2.758   3.806   3.035 -0.2500 -0.0918  0.1159
    3TTP    C32 8438   2.653   4.163   2.977  0.5442  0.4165 -0.4202
    3TTP    C33 8439   2.770   4.243   2.929 -0.5959 -0.3097  0.3770
    3TTP    C34 8440   2.740   4.390   2.928  0.0451  0.2834 -0.0536
    3TTP    C35 8441   2.830   4.460   2.839 -0.6460  0.2442  0.1793
    3TTP    C36 8442   2.816   4.610   2.840  0.2814  0.1114 -0.0237
    3TTP    C37 8443   2.832   4.681   2.972 -0.5608 -0.4501 -0.3800
    3TTP    C38 8444   2.974   4.697   3.039 -0.9861  0.1445  0.2977
    3TTP    C39 8445   2.968   4.750   3.186  0.8176  0.4218 -0.1505
    3TTP    C40 8446   2.894   4.662   3.292 -0.5350  0.2266  0.8807
    3TTP    C41 8447   2.956   4.523   3.307 -0.1490 -0.0925 -0.1598
    3TTP    C42 8448   3.095   4.528   3.385  1.3297 -0.1949 -0.0058
    4FIC     F1 8449   2.979   2.227   3.284  0.3113 -0.0758  0.2171
    4FIC     F2 8450   2.867   2.122   3.508 -0.1144  0.0231  0.0528
    4FIC     O1 8451   3.063   2.738   3.441  0.2817 -0.0808  0.2494
    4FIC     N5 8452   2.765   2.335   3.943 -0.7476  0.1616 -0.1606
    4FIC     N6 8453   2.853   2.756   4.021 -0.6848  0.1378 -0.1023
    4FIC    C19 8454   2.985   2.819   3.712 -0.1355  0.0117  0.1038
    4FIC    C20 8455   2.969   2.695   3.663 -0.1114  0.0092  0.1021
    4FIC    C21 8456   3.011   2.661   3.523  0.1084 -0.0399  0.1795
    4FIC    C22 8457   2.979   2.518   3.503  0.0766 -0.0293  0.1559
    4FIC    C23 8458   3.000   2.442   3.389  0.2335 -0.0631  0.2068
    4FIC    C24 8459   2.961   2.309   3.393  0.1646 -0.0444  0.1704
    4FIC    C25 8460   2.903   2.255   3.509 -0.0548  0.0066  0.0857
    4FIC    C26 8461   2.882   2.331   3.624 -0.2123  0.0405  0.0346
    4FIC    C27 8462   2.921   2.466   3.621 -0.1456  0.0222  0.0703
    4FIC    C28 8463   2.912   2.572   3.724 -0.2699  0.0479  0.0339
    4FIC    C29 8464   2.861   2.559   3.851 -0.4897  0.0980 -0.0476
    4FIC    C30 8465   2.809   2.436   3.901 -0.6306  0.1329 -0.1094
    4FIC    C31 8466   2.857   2.667   3.944 -0.5957  0.1197 -0.0772
    5FIC     F1 8467   2.028   3.610   2.374 -0.0105  0.1092  0.3585
    5FIC     F2 8468   1.986   3.860   2.274  0.1375  0.0557  0.1613
    5FIC     O1 8469   2.409   3.710   2.745  0.0654  0.1726  0.2633
    5FIC     N5 8470   2.199   4.290   2.395  0.4044  0.0240 -0.1898
    5FIC     N6 8471   2.505   4.318   2.705  0.4339  0.0843 -0.2244
    5FIC    C19 8472   2.505   3.984   2.781  0.2338  0.1439  0.0412
    5FIC    C20 8473   2.411   3.949   2.692  0.2089  0.1301  0.0728
    5FIC    C21 8474   2.367   3.806   2.679  0.1214  0.1463  0.1885
    5FIC    C22 8475   2.264   3.803   2.573  0.1153  0.1249  0.1949
    5FIC    C23 8476   2.193   3.693   2.526  0.0462  0.1298  0.2857
    5FIC    C24 8477   2.101   3.715   2.425  0.0554  0.1061  0.2721
    5FIC    C25 8478   2.079   3.843   2.374  0.1317  0.0785  0.1704
    5FIC    C26 8479   2.149   3.954   2.421  0.2010  0.0735  0.0795
    5FIC    C27 8480   2.244   3.934   2.523  0.1928  0.0973  0.0918
    5FIC    C28 8481   2.333   4.029   2.593  0.2534  0.0994  0.0126
    5FIC    C29 8482   2.342   4.164   2.572  0.3350  0.0771 -0.0955
    5FIC    C30 8483   2.263   4.233   2.475  0.3728  0.0480 -0.1469
    5FIC    C31 8484   2.432   4.248   2.645  0.3889  0.0811 -0.1658
    1BTD     S2 8485   1.758   9.415   2.240  0.0260  0.1734  0.2783
    1BTD     N1 8486   1.783   9.593   2.242  0.1437  0.1569  0.2478
    1BTD     N2 8487   1.820   9.391   2.407 -0.1952  0.1891  0.3635
    1BTD     N3 8488   1.992   9.661   2.750 -0.4334  0.1912  0.4820
    1BTD     N4 8489   1.947   9.911   2.546 -0.0158  0.1516  0.3393
    1BTD     C5 8490   1.869   9.756   2.403  0.0554  0.1545  0.2973
    1BTD     C6 8491   1.834   9.624   2.360  0.0186  0.1638  0.3000
    1BTD     C7 8492   1.854   9.510   2.453 -0.1711  0.1819  0.3647
    1BTD     C8 8493   1.909   9.535   2.584 -0.3145  0.1898  0.4237
    1BTD    C15 8494   1.942   9.667   2.621 -0.2720  0.1804  0.4186
    1BTD    C16 8495   1.922   9.776   2.532 -0.0893  0.1631  0.3563
    1BTD    C43 8496   2.025   9.983   2.646 -0.0841  0.1098  0.3604
    1BTD    C44 8497   2.170  10.019   2.612  0.1716 -0.3250  0.7345
    1BTD    C45 8498   2.252   9.905   2.551 -0.6131 -0.7546  0.3636
    1BTD    C46 8499   2.390   9.935   2.487  0.8905 -0.0094 -0.3484
    1BTD    C47 8500   2.237  10.089   2.730  0.0454 -0.0831 -0.4704
    1BTD    C48 8501   2.248  10.013   2.867  0.5278 -0.5858 -0.2031
    1BTD    C49 8502   2.331  10.087   2.967 -0.2070  0.6140  0.1720
    1BTD    C50 8503   2.347  10.001   3.090 -0.6335 -0.6798  0.5284
    1BTD    C75 8504   2.000   9.764   2.854 -0.2059  0.6643 -0.3364
    1BTD    C76 8505   1.868   9.781   2.933  0.2868  0.0711 -0.0094
    1BTD    C77 8506   1.868   9.903   3.030  0.5710 -0.6908  0.0690
    1BTD    C78 8507   1.946   9.910   3.159 -0.3160 -0.5751 -0.5372
    1BTD    C79 8508   1.800   9.651   2.991  0.7713  0.1406  0.8933
    1BTD    C80 8509   1.659   9.664   3.049  0.9622 -0.2109 -0.1212
    1BTD    C81 8510   1.616   9.532   3.113 -0.2027  0.1353  0.0173
    1BTD    C82 8511   1.477   9.542   3.176  0.3440  0.0658  0.4115
    2TTP     S1 8512   1.796   9.956   2.188 -0.1300 -0.0471 -0.0227
    2TTP     S5 8513   1.959  10.270   2.432  0.0319 -0.0334 -0.1478
    2TTP     C1 8514   1.901  10.343   2.276 -0.0673 -0.0428 -0.1152
    2TTP     C2 8515   1.847  10.250   2.191 -0.1231 -0.0472 -0.0746
    2TTP     C3 8516   1.850  10.118   2.247 -0.0896 -0.0439 -0.0679
    2TTP     C4 8517   1.854   9.884   2.344 -0.0308 -0.0377 -0.0554
    2TTP    C17 8518   1.908   9.976   2.429  0.0250 -0.0333 -0.0960
    2TTP    C18 8519   1.905  10.108   2.373 -0.0085 -0.0365 -0.1027
    2TTP    C32 8520   1.802  10.279   2.042 -0.4437  0.0796 -1.1156
    2TTP    C33 8521   1.665  10.230   1.997  0.5206  0.0396  0.1913
    2TTP    C34 8522   1.539  10.270   2.058  0.2661 -0.1702 -0.4537
    2TTP    C35 8523   1.505  10.416   2.030  0.0500 -0.2189  0.4425
    2TTP    C36 8524   1.363  10.440   1.966  0.0752 -0.9251  0.1100
    2TTP    C37 8525   1.242  10.449   2.058  0.2631  0.2727 -0.4307
    2TTP    C38 8526   1.263  10.560   2.161 -0.6308 -0.3048  0.1990
    2TTP    C39 8527   1.153  10.585   2.260 -0.7405 -0.8659  0.0839
    2TTP    C40 8528   1.184  10.714   2.327 -0.1056 -0.5736 -0.1446
    2TTP    C41 8529   1.084  10.738   2.442  0.2846 -0.4599  0.0504
    2TTP    C42 8530   0.948  10.802   2.401  0.5668  0.9372  0.2969
    3TTP     S1 8531   1.987   9.274   2.705 -0.1978 -0.3016  0.1536
    3TTP     S5 8532   2.208   9.487   3.006 -0.1051 -0.2027  0.0160
    3TTP     C1 8533   2.246   9.309   3.020 -0.2847 -0.2266  0.2169
    3TTP     C2 8534   2.180   9.233   2.928 -0.3238 -0.2584  0.2713
    3TTP     C3 8535   2.097   9.312   2.843 -0.2135 -0.2656  0.1562
    3TTP     C4 8536   1.948   9.451   2.691 -0.0183 -0.2775 -0.0474
    3TTP    C17 8537   2.014   9.527   2.783  0.0210 -0.2459 -0.1017
    3TTP    C18 8538   2.098   9.448   2.868 -0.0894 -0.2389  0.0134
    3TTP    C32 8539   2.180   9.085   2.913 -0.0412 -0.3392 -0.3480
    3TTP    C33 8540   2.068   9.017   2.997  0.0255 -0.0738  0.4752
    3TTP    C34 8541   2.062   8.864   3.020  0.0843 -0.4354  0.4407
    3TTP    C35 8542   2.085   8.778   2.899  0.4958 -0.3873  0.1065
    3TTP    C36 8543   2.017   8.648   2.916 -0.1483  0.3481  0.1916
    3TTP    C37 8544   2.039   8.578   2.786  0.0842 -0.1984  0.2934
    3TTP    C38 8545   1.980   8.435   2.795  0.1828  0.1152 -0.4569
    3TTP    C39 8546   1.994   8.368   2.663  0.0987  0.0769 -0.3622
    3TTP    C40 8547   1.925   8.232   2.660 -0.1344  0.3408 -0.5096
    3TTP    C41 8548   1.966   8.145   2.542 -0.0502 -0.9058 -0.2936
    3TTP    C42 8549   1.936   8.193   2.403  0.5956 -0.2598 -0.2899
    4FIC     F1 8550   2.073  11.032   2.683 -0.0846  0.0448  0.0439
    4FIC     F2 8551   2.026  11.172   2.455 -0.0823  0.0072  0.0210
    4FIC     O1 8552   1.975  10.526   2.518  0.0994 -0.0017  0.0750
    4FIC     N5 8553   1.888  11.011   2.007  0.0520 -0.0794  0.0103
    4FIC     N6 8554   1.820  10.588   1.924  0.1953 -0.1080  0.0392
    4FIC    C19 8555   1.894  10.480   2.240  0.1668 -0.0535  0.0643
    4FIC    C20 8556   1.921  10.602   2.291  0.1205 -0.0405  0.0573
    4FIC    C21 8557   1.962  10.618   2.434  0.0879 -0.0138  0.0635
    4FIC    C22 8558   1.983  10.762   2.456  0.0404 -0.0052  0.0533
    4FIC    C23 8559   2.022  10.825   2.574 -0.0013  0.0184  0.0545
    4FIC    C24 8560   2.035  10.963   2.571 -0.0421  0.0219  0.0434
    4FIC    C25 8561   2.011  11.035   2.452 -0.0408  0.0028  0.0316
    4FIC    C26 8562   1.972  10.972   2.335  0.0007 -0.0207  0.0304
    4FIC    C27 8563   1.958  10.832   2.336  0.0423 -0.0250  0.0415
    4FIC    C28 8564   1.919  10.737   2.230  0.0916 -0.0474  0.0435
    4FIC    C29 8565   1.887  10.768   2.100  0.1073 -0.0701  0.0342
    4FIC    C30 8566   1.887  10.902   2.049  0.0768 -0.0753  0.0210
    4FIC    C31 8567   1.850  10.669   2.004  0.1556 -0.0908  0.0370
    5FIC     F1 8568   2.752   9.596   3.604  0.2191  0.1063 -0.2402
    5FIC     F2 8569   2.835   9.341   3.649  0.1125  0.0875 -0.1519
    5FIC     O1 8570   2.389   9.518   3.210 -0.1345  0.0689  0.0919
    5FIC     N5 8571   2.696   8.918   3.432 -0.2926  0.0336  0.2116
    5FIC     N6 8572   2.395   8.909   3.115 -0.5475  0.0081  0.4532
    5FIC    C19 8573   2.339   9.247   3.113 -0.3620  0.0375  0.2940
    5FIC    C20 8574   2.427   9.276   3.210 -0.2688  0.0477  0.2071
    5FIC    C21 8575   2.447   9.418   3.255 -0.1548  0.0639  0.1059
    5FIC    C22 8576   2.549   9.415   3.361 -0.0728  0.0715  0.0280
    5FIC    C23 8577   2.600   9.523   3.433  0.0435  0.0865 -0.0772
    5FIC    C24 8578   2.697   9.495   3.529  0.1037  0.0917 -0.1358
    5FIC    C25 8579   2.739   9.363   3.552  0.0487  0.0818 -0.0901
    5FIC    C26 8580   2.688   9.255   3.481 -0.0674  0.0668  0.0147
    5FIC    C27 8581   2.591   9.282   3.383 -0.1298  0.0613  0.0753
    5FIC    C28 8582   2.518   9.191   3.291 -0.2524  0.0467  0.1871
    5FIC    C29 8583   2.531   9.055   3.283 -0.3349  0.0334  0.2586
    5FIC    C30 8584   2.622   8.980   3.365 -0.3114  0.0339  0.2325
    5FIC    C31 8585   2.456   8.975   3.191 -0.4514  0.0198  0.3653
    1BTD     S2 8586   3.400   9.459   0.711 -0.0039 -0.1006 -0.0769
    1BTD     N1 8587   3.395   9.638   0.702 -0.1166 -0.0975  0.0571
    1BTD     N2 8588   3.334   9.434   0.545  0.1195 -0.0176 -0.1385
    1BTD     N3 8589   3.191   9.709   0.193  0.1671  0.1574 -0.0220
    1BTD     N4 8590   3.266   9.960   0.386 -0.1239  0.0587  0.2191
    1BTD     C5 8591   3.327   9.803   0.535 -0.1170 -0.0148  0.1388
    1BTD     C6 8592   3.347   9.669   0.583 -0.0595 -0.0379  0.0495
    1BTD     C7 8593   3.313   9.555   0.495  0.0727  0.0069 -0.0600
    1BTD     C8 8594   3.260   9.581   0.364  0.1408  0.0725 -0.0748
    1BTD    C15 8595   3.242   9.714   0.321  0.0808  0.0927  0.0151
    1BTD    C16 8596   3.275   9.824   0.406 -0.0466  0.0501  0.1206
    1BTD    C43 8597   3.181  10.034   0.288  0.5709 -0.7566 -0.6924
    1BTD    C44 8598   3.029  10.025   0.310 -0.2672  0.0503  0.2184
    1BTD    C45 8599   2.965  10.080   0.180 -0.3059  0.1511  0.2444
    1BTD    C46 8600   2.823  10.031   0.162  0.0075  0.3621  0.1617
    1BTD    C47 8601   2.958  10.056   0.451 -0.6338 -0.4268  0.6264
    1BTD    C48 8602   2.949  10.211   0.477 -0.3092  0.3120 -0.7116
    1BTD    C49 8603   2.898  10.241   0.622 -0.7840  0.0802  0.0277
    1BTD    C50 8604   2.923  10.385   0.657  0.1791 -0.8484 -0.3210
    1BTD    C75 8605   3.208   9.805   0.086 -0.4500  0.6211  0.2775
    1BTD    C76 8606   3.337   9.815   0.008  0.1553  0.4769  0.3182
    1BTD    C77 8607   3.327   9.930  -0.096  0.8346  0.2323  0.4157
    1BTD    C78 8608   3.233   9.923  -0.218  0.4667  0.2863  0.0281
    1BTD    C79 8609   3.392   9.681  -0.052  0.0578  0.3948 -0.0248
    1BTD    C80 8610   3.541   9.688  -0.077  0.3534 -0.8044  0.2112
    1BTD    C81 8611   3.605   9.570  -0.143 -0.3232  0.0367 -0.4198
    1BTD    C82 8612   3.597   9.570  -0.295 -0.0637  0.8796  0.0740
    2TTP     S1 8613   3.402  10.008   0.747  0.2812  0.0671  0.1577
    2TTP     S5 8614   3.258  10.321   0.491  0.0142 -0.1009  0.1019
    2TTP     C1 8615   3.307  10.394   0.650 -0.0153 -0.0260  0.0767
    2TTP     C2 8616   3.355  10.302   0.739  0.0653  0.0303  0.0924
    2TTP     C3 8617   3.354  10.170   0.684  0.1535  0.0165  0.1250
    2TTP     C4 8618   3.353   9.934   0.588  0.3108 -0.0076  0.1829
    2TTP    C17 8619   3.306  10.027   0.499  0.2301 -0.0640  0.1672
    2TTP    C18 8620   3.307  10.159   0.554  0.1420 -0.0498  0.1346
    2TTP    C32 8621   3.409  10.331   0.884 -0.1942  0.3752  0.4053
    2TTP    C33 8622   3.556  10.367   0.889 -0.3528 -0.7200 -0.4845
    2TTP    C34 8623   3.606  10.383   1.034  0.2307 -0.2900 -0.5429
    2TTP    C35 8624   3.545  10.502   1.110  0.2360  0.2269 -0.3589
    2TTP    C36 8625   3.630  10.536   1.236  0.1858  0.4090  0.5667
    2TTP    C37 8626   3.560  10.626   1.338  0.2282 -0.5183  0.0005
    2TTP    C38 8627   3.654  10.668   1.451 -0.0164 -0.6431 -0.1682
    2TTP    C39 8628   3.592  10.762   1.560 -0.6008  0.2410  0.3120
    2TTP    C40 8629   3.529  10.899   1.534  0.0483  0.4407 -0.4233
    2TTP    C41 8630   3.622  11.008   1.503  0.3151 -0.0434  0.1702
    2TTP    C42 8631   3.719  11.057   1.611 -0.0702 -0.0680 -0.4597
    3TTP     S1 8632   3.189   9.321   0.243 -0.1060  0.0961  0.0803
    3TTP     S5 8633   2.977   9.525  -0.071 -0.1108  0.0372  0.0454
    3TTP     C1 8634   2.946   9.346  -0.086  0.0848  0.0120 -0.0675
    3TTP     C2 8635   3.009   9.273   0.010  0.0978  0.0286 -0.0635
    3TTP     C3 8636   3.085   9.355   0.099 -0.0463  0.0622  0.0291
    3TTP     C4 8637   3.220   9.500   0.259 -0.3016  0.1209  0.1932
    3TTP    C17 8638   3.156   9.573   0.163 -0.3146  0.1044  0.1891
    3TTP    C18 8639   3.081   9.491   0.073 -0.1705  0.0710  0.0966
    3TTP    C32 8640   3.013   9.123   0.029 -0.3279 -0.1202 -0.3788
    3TTP    C33 8641   3.094   9.043  -0.066 -0.0989  0.1040  0.9325
    3TTP    C34 8642   3.133   8.905  -0.021 -0.7248  0.1813  0.0711
    3TTP    C35 8643   3.202   8.823  -0.130  0.0247  0.1281 -0.3896
    3TTP    C36 8644   3.234   8.684  -0.084  0.0098  0.3316  0.4181
    3TTP    C37 8645   3.125   8.595  -0.023 -0.0241  1.0873 -0.1312
    3TTP    C38 8646   3.004   8.560  -0.115  0.2711 -0.5843  0.5762
    3TTP    C39 8647   2.889   8.478  -0.048 -0.1516 -0.2011 -0.7528
    3TTP    C40 8648   2.823   8.523   0.085 -0.4612 -0.1748  0.0977
    3TTP    C41 8649   2.761   8.657   0.076  0.3707  0.1085 -0.1709
    3TTP    C42 8650   2.727   8.698   0.217 -0.3581 -0.1658 -0.3111
    4FIC     F1 8651   3.300  11.081   0.205  0.0695 -0.0138 -0.0450
    4FIC     F2 8652   3.225  11.217   0.428  0.0795 -0.0129 -0.0419
    4FIC     O1 8653   3.352  10.580   0.401 -0.0064 -0.0298 -0.0651
    4FIC     N5 8654   3.154  11.054   0.890  0.0398 -0.0231 -0.0517
    4FIC     N6 8655   3.210  10.635   0.999 -0.0216 -0.0355 -0.0680
    4FIC    C19 8656   3.299  10.531   0.685 -0.0238 -0.0345 -0.0692
    4FIC    C20 8657   3.289  10.652   0.627 -0.0051 -0.0308 -0.0643
    4FIC    C21 8658   3.318  10.669   0.480  0.0027 -0.0284 -0.0624
    4FIC    C22 8659   3.298  10.812   0.450  0.0234 -0.0243 -0.0569
    4FIC    C23 8660   3.312  10.875   0.327  0.0368 -0.0210 -0.0536
    4FIC    C24 8661   3.287  11.012   0.323  0.0555 -0.0170 -0.0485
    4FIC    C25 8662   3.249  11.081   0.438  0.0607 -0.0168 -0.0469
    4FIC    C26 8663   3.234  11.018   0.561  0.0474 -0.0198 -0.0503
    4FIC    C27 8664   3.259  10.880   0.567  0.0283 -0.0238 -0.0554
    4FIC    C28 8665   3.252  10.785   0.681  0.0110 -0.0274 -0.0598
    4FIC    C29 8666   3.218  10.814   0.811  0.0101 -0.0286 -0.0599
    4FIC    C30 8667   3.183  10.946   0.854  0.0265 -0.0253 -0.0554
    4FIC    C31 8668   3.214  10.715   0.913 -0.0073 -0.0324 -0.0643
    5FIC     F1 8669   2.406   9.615  -0.646  0.2813  0.1943  0.0455
    5FIC     F2 8670   2.351   9.356  -0.710 -0.0915  0.2358  0.1948
    5FIC     O1 8671   2.774   9.547  -0.254  0.3411 -0.1054 -0.0616
    5FIC     N5 8672   2.533   8.936  -0.522 -0.5849  0.0818  0.3331
    5FIC     N6 8673   2.831   8.935  -0.203 -0.4631 -0.1609  0.2193
    5FIC    C19 8674   2.851   9.276  -0.176  0.0060 -0.1720  0.0431
    5FIC    C20 8675   2.761   9.303  -0.272  0.0057 -0.0982  0.0641
    5FIC    C21 8676   2.726   9.445  -0.307  0.1836 -0.0682  0.0070
    5FIC    C22 8677   2.626   9.439  -0.414  0.1335  0.0136  0.0486
    5FIC    C23 8678   2.564   9.545  -0.479  0.2519  0.0653  0.0198
    5FIC    C24 8679   2.472   9.514  -0.578  0.1723  0.1397  0.0702
    5FIC    C25 8680   2.443   9.381  -0.611 -0.0197  0.1613  0.1471
    5FIC    C26 8681   2.505   9.274  -0.547 -0.1387  0.1094  0.1764
    5FIC    C27 8682   2.598   9.304  -0.446 -0.0607  0.0339  0.1261
    5FIC    C28 8683   2.680   9.215  -0.360 -0.1470 -0.0339  0.1386
    5FIC    C29 8684   2.681   9.077  -0.361 -0.3327 -0.0365  0.2065
    5FIC    C30 8685   2.600   9.000  -0.450 -0.4708  0.0286  0.2759
    5FIC    C31 8686   2.764   9.000  -0.274 -0.4033 -0.1047  0.2133
    1BTD     S2 8687   4.214   1.198   1.681 -0.0899  0.1525  0.0875
    1BTD     N1 8688   4.207   1.018   1.673  0.2232  0.1461 -0.0639
    1BTD     N2 8689   4.152   1.222   1.514 -0.3698  0.1934  0.1952
    1BTD     N3 8690   4.015   0.947   1.159 -0.3749  0.2651  0.1417
    1BTD     N4 8691   4.082   0.696   1.355  0.3560  0.2069 -0.1776
    1BTD     C5 8692   4.141   0.853   1.505  0.2837  0.1786 -0.1194
    1BTD     C6 8693   4.162   0.987   1.553  0.1090  0.1734 -0.0281
    1BTD     C7 8694   4.131   1.101   1.464 -0.2230  0.1998  0.1169
    1BTD     C8 8695   4.081   1.075   1.331 -0.3637  0.2301  0.1634
    1BTD    C15 8696   4.063   0.942   1.288 -0.1836  0.2341  0.0704
    1BTD    C16 8697   4.092   0.833   1.374  0.1361  0.2086 -0.0694
    1BTD    C43 8698   4.008   0.611   1.261 -0.3399 -0.6740  0.2491
    1BTD    C44 8699   3.861   0.580   1.294  0.6398 -0.4569 -0.1029
    1BTD    C45 8700   3.761   0.702   1.330  0.3205  1.0519 -0.1688
    1BTD    C46 8701   3.617   0.688   1.382  0.2361  0.7440 -0.3413
    1BTD    C47 8702   3.791   0.473   1.216  0.0039 -0.5760  0.2628
    1BTD    C48 8703   3.850   0.338   1.210  0.7115 -0.2196  0.3286
    1BTD    C49 8704   3.786   0.259   1.102  0.5399 -0.0096  0.4680
    1BTD    C50 8705   3.822   0.113   1.097  0.4408  0.4096 -0.6578
    1BTD    C75 8706   4.052   0.850   1.051  0.2036  0.3143  0.0328
    1BTD    C76 8707   3.996   0.844   0.910 -0.1446 -0.2008 -0.1641
    1BTD    C77 8708   3.857   0.781   0.922 -0.2205  0.1503  0.3000
    1BTD    C78 8709   3.776   0.770   0.793  0.2982  0.1553  0.5640
    1BTD    C79 8710   4.088   0.744   0.839  0.2318 -0.6781  0.7008
    1BTD    C80 8711   4.230   0.797   0.812 -0.1812  0.2774 -0.0691
    1BTD    C81 8712   4.318   0.711   0.715  0.2791 -0.2290  0.1442
    1BTD    C82 8713   4.438   0.789   0.661  0.1530  0.6018 -0.3586
    2TTP     S1 8714   4.184   0.661   1.736  0.4673 -0.0871 -0.1162
    2TTP     S5 8715   4.072   0.335   1.478 -0.1978  0.0297  0.0206
    2TTP     C1 8716   4.102   0.269   1.645 -0.1009  0.0047 -0.0064
    2TTP     C2 8717   4.138   0.366   1.735  0.1103 -0.0328 -0.0502
    2TTP     C3 8718   4.144   0.495   1.674  0.2030 -0.0432 -0.0641
    2TTP     C4 8719   4.154   0.726   1.568  0.3703 -0.0621 -0.0893
    2TTP    C17 8720   4.118   0.629   1.479  0.1592 -0.0246 -0.0455
    2TTP    C18 8721   4.113   0.500   1.540  0.0665 -0.0142 -0.0316
    2TTP    C32 8722   4.158   0.354   1.891  0.4598  0.3224 -0.1382
    2TTP    C33 8723   4.292   0.409   1.955  0.0434  0.0229  0.1586
    2TTP    C34 8724   4.421   0.391   1.872  0.0728  0.3269  0.0106
    2TTP    C35 8725   4.502   0.258   1.886  0.8955  0.1673 -0.1852
    2TTP    C36 8726   4.629   0.257   1.801  0.0772  0.1975  0.3656
    2TTP    C37 8727   4.667   0.120   1.742  0.3496 -0.4460 -0.5551
    2TTP    C38 8728   4.770   0.148   1.632 -0.1784 -0.1683 -0.4169
    2TTP    C39 8729   4.811   0.027   1.544 -0.4521  0.3402 -0.4832
    2TTP    C40 8730   4.846  -0.109   1.612 -0.5589  0.8416 -0.3260
    2TTP    C41 8731   4.890  -0.204   1.493 -0.0679  0.3919 -0.5037
    2TTP    C42 8732   4.930  -0.349   1.513 -0.1006  0.5947  0.0088
    3TTP     S1 8733   4.014   1.337   1.198 -0.1211  0.3351 -0.3105
    3TTP     S5 8734   3.803   1.120   0.892 -0.0523 -0.3112  0.0973
    3TTP     C1 8735   3.767   1.297   0.873 -0.1846 -0.3677 -0.1792
    3TTP     C2 8736   3.830   1.374   0.966 -0.2137 -0.1714 -0.3215
    3TTP     C3 8737   3.909   1.297   1.056 -0.1324  0.0306 -0.2172
    3TTP     C4 8738   4.050   1.160   1.218  0.0114  0.3915 -0.0340
    3TTP    C17 8739   3.987   1.082   1.125  0.0404  0.1953  0.1082
    3TTP    C18 8740   3.908   1.160   1.034 -0.0409 -0.0068  0.0040
    3TTP    C32 8741   3.842   1.522   0.976  0.1897 -0.0334  0.8951
    3TTP    C33 8742   3.966   1.576   0.905 -0.5200  0.8550  0.5563
    3TTP    C34 8743   4.003   1.724   0.922 -0.4950 -0.2906  0.2596
    3TTP    C35 8744   3.901   1.835   0.894  0.1325 -0.2347  0.1627
    3TTP    C36 8745   3.936   1.979   0.933 -0.4279 -0.8870  0.2247
    3TTP    C37 8746   3.993   1.998   1.076 -0.5155 -1.2215  0.0289
    3TTP    C38 8747   3.915   1.968   1.207 -0.1949  0.2315  0.0004
    3TTP    C39 8748   3.769   2.023   1.213  0.4955  0.4401  0.0359
    3TTP    C40 8749   3.684   1.941   1.308  0.0026 -0.0947  0.2777
    3TTP    C41 8750   3.537   1.963   1.278 -0.2610  0.3263  0.7173
    3TTP    C42 8751   3.447   1.872   1.372 -0.2015  0.0193  0.0922
    4FIC     F1 8752   3.881  -0.428   1.275 -0.1758  0.0577  0.1785
    4FIC     F2 8753   3.808  -0.524   1.520 -0.1913  0.1733  0.2195
    4FIC     O1 8754   4.071   0.060   1.410  0.0758  0.0110 -0.0070
    4FIC     N5 8755   3.840  -0.314   1.966 -0.0340  0.3064  0.1461
    4FIC     N6 8756   4.003   0.087   2.022  0.1656  0.2466 -0.0072
    4FIC    C19 8757   4.070   0.142   1.691  0.1504  0.1049 -0.0338
    4FIC    C20 8758   4.025   0.023   1.648  0.0877  0.1123  0.0113
    4FIC    C21 8759   4.029  -0.012   1.502  0.0527  0.0620  0.0222
    4FIC    C22 8760   3.973  -0.148   1.489 -0.0141  0.0846  0.0742
    4FIC    C23 8761   3.956  -0.223   1.373 -0.0647  0.0541  0.1010
    4FIC    C24 8762   3.900  -0.349   1.386 -0.1238  0.0852  0.1498
    4FIC    C25 8763   3.863  -0.398   1.512 -0.1315  0.1444  0.1709
    4FIC    C26 8764   3.880  -0.324   1.628 -0.0814  0.1755  0.1443
    4FIC    C27 8765   3.935  -0.196   1.617 -0.0212  0.1447  0.0949
    4FIC    C28 8766   3.966  -0.093   1.719  0.0410  0.1643  0.0570
    4FIC    C29 8767   3.944  -0.103   1.855  0.0532  0.2196  0.0632
    4FIC    C30 8768   3.887  -0.219   1.916  0.0052  0.2670  0.1087
    4FIC    C31 8769   3.977   0.001   1.946  0.1151  0.2341  0.0245
    5FIC     F1 8770   3.206   1.008   0.338 -0.2968  0.0029  0.3440
    5FIC     F2 8771   3.130   1.265   0.290 -0.3217 -0.0109  0.3098
    5FIC     O1 8772   3.606   1.085   0.694  0.0030  0.1148 -0.0163
    5FIC     N5 8773   3.306   1.689   0.474 -0.1438  0.0490  0.0038
    5FIC     N6 8774   3.634   1.697   0.762  0.0952  0.1391 -0.2708
    5FIC    C19 8775   3.676   1.357   0.774  0.0856  0.1413 -0.1770
    5FIC    C20 8776   3.578   1.328   0.687  0.0111  0.1137 -0.0850
    5FIC    C21 8777   3.548   1.185   0.650 -0.0273  0.1016 -0.0063
    5FIC    C22 8778   3.437   1.189   0.553 -0.1075  0.0713  0.0841
    5FIC    C23 8779   3.375   1.081   0.491 -0.1653  0.0513  0.1763
    5FIC    C24 8780   3.272   1.110   0.403 -0.2369  0.0238  0.2509
    5FIC    C25 8781   3.233   1.242   0.378 -0.2497  0.0167  0.2331
    5FIC    C26 8782   3.294   1.350   0.440 -0.1922  0.0366  0.1412
    5FIC    C27 8783   3.399   1.323   0.530 -0.1194  0.0645  0.0648
    5FIC    C28 8784   3.484   1.414   0.611 -0.0469  0.0903 -0.0398
    5FIC    C29 8785   3.477   1.551   0.614 -0.0358  0.0921 -0.0859
    5FIC    C30 8786   3.383   1.626   0.537 -0.0953  0.0684 -0.0364
    5FIC    C31 8787   3.564   1.631   0.696  0.0362  0.1180 -0.1874
    1BTD     S2 8788   2.550   1.218   3.192 -0.2288  0.1815 -0.0834
    1BTD     N1 8789   2.559   1.038   3.190 -0.3067  0.1778 -0.0878
    1BTD     N2 8790   2.613   1.233   3.360 -0.0625  0.1589 -0.1427
    1BTD     N3 8791   2.756   0.940   3.698  0.1356  0.1063 -0.2718
    1BTD     N4 8792   2.689   0.700   3.488 -0.1652  0.1295 -0.2041
    1BTD     C5 8793   2.628   0.864   3.348 -0.2291  0.1523 -0.1494
    1BTD     C6 8794   2.605   1.001   3.308 -0.2097  0.1608 -0.1311
    1BTD     C7 8795   2.636   1.110   3.404 -0.0731  0.1502 -0.1618
    1BTD     C8 8796   2.687   1.077   3.534  0.0374  0.1317 -0.2093
    1BTD    C15 8797   2.707   0.942   3.569  0.0135  0.1239 -0.2257
    1BTD    C16 8798   2.678   0.837   3.477 -0.1181  0.1341 -0.1961
    1BTD    C43 8799   2.760   0.610   3.586  0.7537 -0.6127  0.0987
    1BTD    C44 8800   2.916   0.618   3.577  0.2644  0.1573  0.2599
    1BTD    C45 8801   2.985   0.568   3.708 -0.0058  0.6111 -0.2179
    1BTD    C46 8802   3.138   0.595   3.730  0.2501  0.4302  0.4014
    1BTD    C47 8803   2.980   0.593   3.434  0.2687 -0.4499 -0.7327
    1BTD    C48 8804   2.983   0.459   3.368  0.1473  0.4755  0.1036
    1BTD    C49 8805   3.006   0.464   3.218 -0.4175 -0.8344  0.1517
    1BTD    C50 8806   3.004   0.327   3.171 -0.5105  0.5433  0.9975
    1BTD    C75 8807   2.746   0.835   3.803  0.2010  0.6416  0.0950
    1BTD    C76 8808   2.616   0.774   3.856  0.1780 -0.3260 -0.4844
    1BTD    C77 8809   2.669   0.666   3.953 -0.3773 -0.6609  0.1111
    1BTD    C78 8810   2.573   0.583   4.043  0.0355  0.0615  0.8322
    1BTD    C79 8811   2.518   0.877   3.916 -0.6273 -0.2299 -0.5981
    1BTD    C80 8812   2.555   0.971   4.029  0.5246  0.0737 -0.0112
    1BTD    C81 8813   2.435   1.062   4.068 -0.0684 -0.5679 -0.2446
    1BTD    C82 8814   2.334   1.006   4.166 -0.4228  0.9665 -0.0068
    2TTP     S1 8815   2.530   0.667   3.135  0.0684  0.3587  0.3184
    2TTP     S5 8816   2.658   0.340   3.384  0.1568  0.2130  0.0827
    2TTP     C1 8817   2.591   0.272   3.230  0.3408  0.3132 -0.0422
    2TTP     C2 8818   2.547   0.369   3.144  0.3243  0.3641  0.0233
    2TTP     C3 8819   2.566   0.500   3.197  0.1658  0.3258  0.1744
    2TTP     C4 8820   2.598   0.735   3.290 -0.1157  0.2585  0.4433
    2TTP    C17 8821   2.641   0.638   3.376 -0.0992  0.2076  0.3777
    2TTP    C18 8822   2.623   0.507   3.323  0.0594  0.2459  0.2268
    2TTP    C32 8823   2.505   0.349   2.996  0.8314  0.1821 -0.2412
    2TTP    C33 8824   2.353   0.379   2.972 -0.8776  0.2162 -0.5912
    2TTP    C34 8825   2.252   0.284   3.036 -0.1982 -0.2700 -0.3551
    2TTP    C35 8826   2.271   0.135   3.002  0.1660  0.5521  0.2119
    2TTP    C36 8827   2.250   0.086   2.859  0.6246 -0.0475 -0.2063
    2TTP    C37 8828   2.276  -0.067   2.835  0.0664 -0.3385 -0.7126
    2TTP    C38 8829   2.295  -0.092   2.688  0.1435 -0.4887 -0.0134
    2TTP    C39 8830   2.298  -0.233   2.639  0.1423 -0.2756  0.4881
    2TTP    C40 8831   2.330  -0.245   2.485  0.3815 -0.3183 -0.1322
    2TTP    C41 8832   2.329  -0.384   2.418 -0.2198  0.1997  0.6551
    2TTP    C42 8833   2.409  -0.381   2.285 -0.1797  0.3328  0.2085
    3TTP     S1 8834   2.799   1.324   3.659 -0.2658  0.0408 -0.0017
    3TTP     S5 8835   2.983   1.081   3.963  0.0503  0.0257 -0.2040
    3TTP     C1 8836   3.042   1.252   3.982 -0.0832  0.0642 -0.1333
    3TTP     C2 8837   2.989   1.337   3.889 -0.1888  0.0711 -0.0666
    3TTP     C3 8838   2.899   1.271   3.800 -0.1680  0.0463 -0.0690
    3TTP     C4 8839   2.740   1.153   3.640 -0.1322  0.0024 -0.0724
    3TTP    C17 8840   2.793   1.068   3.733 -0.0267 -0.0046 -0.1390
    3TTP    C18 8841   2.883   1.135   3.822 -0.0476  0.0202 -0.1367
    3TTP    C32 8842   3.032   1.485   3.873  0.1722  0.0456 -0.1195
    3TTP    C33 8843   2.933   1.601   3.869  0.1986  0.1224 -0.0861
    3TTP    C34 8844   2.823   1.631   3.979 -0.4615 -0.0783 -0.3553
    3TTP    C35 8845   2.716   1.725   3.940  0.3725 -0.6882 -0.4456
    3TTP    C36 8846   2.761   1.872   3.901  0.2661  0.5236  0.2354
    3TTP    C37 8847   2.671   1.958   3.820  0.2937 -0.4977  0.2848
    3TTP    C38 8848   2.633   1.906   3.682 -0.5629  0.1423  0.3363
    3TTP    C39 8849   2.527   1.987   3.600  0.2639 -0.1575 -0.7050
    3TTP    C40 8850   2.466   1.901   3.485  0.4502 -0.1351 -0.2413
    3TTP    C41 8851   2.363   1.971   3.391  0.3940  0.4285  0.0015
    3TTP    C42 8852   2.401   2.084   3.302  0.1281 -0.0442 -0.3146
    4FIC     F1 8853   2.533  -0.380   3.721 -0.0760  0.0577 -0.0437
    4FIC     F2 8854   2.586  -0.540   3.506  0.4546  0.0272  0.1068
    4FIC     O1 8855   2.531   0.108   3.488 -0.3924 -0.0514 -0.2724
    4FIC     N5 8856   2.661  -0.420   3.032  0.9919 -0.0942  0.1600
    4FIC     N6 8857   2.649  -0.006   2.893  0.6377 -0.1733 -0.0489
    4FIC    C19 8858   2.581   0.130   3.200  0.0021 -0.1192 -0.2099
    4FIC    C20 8859   2.580   0.013   3.267  0.0610 -0.0906 -0.1583
    4FIC    C21 8860   2.553   0.010   3.415 -0.1528 -0.0565 -0.1952
    4FIC    C22 8861   2.558  -0.131   3.456 -0.0214 -0.0312 -0.1218
    4FIC    C23 8862   2.540  -0.184   3.583 -0.1384  0.0038 -0.1242
    4FIC    C24 8863   2.550  -0.322   3.597  0.0266  0.0229 -0.0461
    4FIC    C25 8864   2.577  -0.403   3.487  0.3000  0.0073  0.0311
    4FIC    C26 8865   2.595  -0.352   3.359  0.4179 -0.0277  0.0339
    4FIC    C27 8866   2.586  -0.212   3.343  0.2541 -0.0474 -0.0443
    4FIC    C28 8867   2.600  -0.127   3.223  0.3156 -0.0846 -0.0635
    4FIC    C29 8868   2.627  -0.169   3.095  0.5617 -0.1087 -0.0049
    4FIC    C30 8869   2.645  -0.307   3.061  0.7973 -0.1006  0.0857
    4FIC    C31 8870   2.639  -0.079   2.985  0.6020 -0.1440 -0.0294
    5FIC     F1 8871   3.585   0.879   4.478  0.0097  0.0568  0.0264
    5FIC     F2 8872   3.649   1.123   4.581  0.0165  0.0558  0.0246
    5FIC     O1 8873   3.210   1.017   4.113 -0.0499  0.0552  0.0868
    5FIC     N5 8874   3.472   1.571   4.469 -0.0158  0.0532  0.0649
    5FIC     N6 8875   3.166   1.630   4.163 -0.0637  0.0522  0.1125
    5FIC    C19 8876   3.137   1.299   4.082 -0.0643  0.0536  0.1065
    5FIC    C20 8877   3.229   1.254   4.169 -0.0497  0.0542  0.0914
    5FIC    C21 8878   3.261   1.108   4.179 -0.0430  0.0549  0.0820
    5FIC    C22 8879   3.365   1.095   4.284 -0.0270  0.0553  0.0661
    5FIC    C23 8880   3.426   0.978   4.329 -0.0163  0.0559  0.0534
    5FIC    C24 8881   3.521   0.990   4.429 -0.0017  0.0561  0.0395
    5FIC    C25 8882   3.553   1.116   4.482  0.0019  0.0556  0.0386
    5FIC    C26 8883   3.493   1.233   4.438 -0.0088  0.0549  0.0513
    5FIC    C27 8884   3.396   1.222   4.336 -0.0236  0.0547  0.0654
    5FIC    C28 8885   3.314   1.326   4.268 -0.0374  0.0540  0.0809
    5FIC    C29 8886   3.317   1.461   4.292 -0.0385  0.0533  0.0847
    5FIC    C30 8887   3.402   1.521   4.390 -0.0260  0.0532  0.0738
    5FIC    C31 8888   3.234   1.553   4.221 -0.0524  0.0527  0.1000
    1BTD     S2 8889   4.335   6.772   0.668  0.1746 -0.1049 -0.0995
    1BTD     N1 8890   4.332   6.951   0.657  0.0495 -0.1070 -0.0949
    1BTD     N2 8891   4.271   6.746   0.502  0.2214 -0.1457 -0.1113
    1BTD     N3 8892   4.133   7.017   0.144  0.0905 -0.2327 -0.1270
    1BTD     N4 8893   4.208   7.270   0.335 -0.1211 -0.1850 -0.1068
    1BTD     C5 8894   4.266   7.115   0.487 -0.0371 -0.1483 -0.1013
    1BTD     C6 8895   4.285   6.981   0.536  0.0490 -0.1364 -0.1020
    1BTD     C7 8896   4.251   6.866   0.450  0.1451 -0.1582 -0.1112
    1BTD     C8 8897   4.200   6.891   0.317  0.1504 -0.1905 -0.1192
    1BTD    C15 8898   4.183   7.023   0.273  0.0643 -0.2009 -0.1182
    1BTD    C16 8899   4.216   7.134   0.357 -0.0283 -0.1800 -0.1094
    1BTD    C43 8900   4.137   7.344   0.234  0.2832  0.0840  0.4470
    1BTD    C44 8901   3.997   7.401   0.270  0.6344 -0.3860 -0.6961
    1BTD    C45 8902   3.886   7.305   0.322  0.3374 -0.0917  0.0316
    1BTD    C46 8903   3.814   7.221   0.210 -0.4054 -1.0117 -0.1271
    1BTD    C47 8904   3.945   7.499   0.165  0.1543  0.0005 -0.8750
    1BTD    C48 8905   3.853   7.611   0.226 -0.1872 -0.4385 -0.3921
    1BTD    C49 8906   3.767   7.693   0.131  0.4474 -0.6380  1.4361
    1BTD    C50 8907   3.658   7.782   0.208  0.0054  0.4287  0.5555
    1BTD    C75 8908   4.132   7.112   0.038  0.3447 -0.1461  0.1420
    1BTD    C76 8909   4.213   7.106  -0.095 -0.2352  0.4850  0.1363
    1BTD    C77 8910   4.179   7.223  -0.195 -0.0432  0.3511 -0.4840
    1BTD    C78 8911   4.034   7.275  -0.214 -0.5164 -0.0262  0.3558
    1BTD    C79 8912   4.361   7.092  -0.068  0.3763  0.1589  0.3016
    1BTD    C80 8913   4.461   7.065  -0.180  0.5708 -0.1649 -0.3537
    1BTD    C81 8914   4.440   6.934  -0.255 -0.1975  0.0543 -0.3751
    1BTD    C82 8915   4.541   6.927  -0.366 -0.1793  0.5872 -0.2787
    2TTP     S1 8916   4.295   7.318   0.717 -0.0559  0.2132  0.2480
    2TTP     S5 8917   4.202   7.634   0.441  0.1551  0.0870  0.0320
    2TTP     C1 8918   4.226   7.707   0.606  0.2828  0.1941 -0.0334
    2TTP     C2 8919   4.256   7.613   0.701  0.2252  0.2393  0.0294
    2TTP     C3 8920   4.261   7.481   0.647  0.0781  0.1912  0.1315
    2TTP     C4 8921   4.271   7.245   0.552 -0.1835  0.1062  0.3134
    2TTP    C17 8922   4.241   7.339   0.457 -0.1260  0.0609  0.2506
    2TTP    C18 8923   4.236   7.471   0.511  0.0211  0.1091  0.1485
    2TTP    C32 8924   4.287   7.643   0.851  0.1029 -0.3402  0.1329
    2TTP    C33 8925   4.432   7.614   0.901  0.3044 -0.2467 -0.5611
    2TTP    C34 8926   4.545   7.691   0.841 -0.0699  0.2044  0.4683
    2TTP    C35 8927   4.546   7.841   0.895  0.6080 -0.0102 -0.5020
    2TTP    C36 8928   4.676   7.914   0.865 -0.1888  0.0963  0.1706
    2TTP    C37 8929   4.721   8.006   0.978 -0.1225  0.6202 -0.1731
    2TTP    C38 8930   4.846   8.082   0.939  0.0814 -0.0433 -0.0969
    2TTP    C39 8931   4.899   8.190   1.036 -0.2216  0.3932  0.4944
    2TTP    C40 8932   5.046   8.223   1.044 -0.3659  0.1220  0.1982
    2TTP    C41 8933   5.088   8.318   0.931 -0.3799 -0.9112  0.0012
    2TTP    C42 8934   5.241   8.350   0.930  0.4411  0.1966 -0.6478
    3TTP     S1 8935   4.137   6.627   0.181 -0.0092  0.0269  0.0415
    3TTP     S5 8936   3.923   6.845  -0.122  0.0499  0.0385  0.0081
    3TTP     C1 8937   3.890   6.667  -0.144 -0.0278  0.0464  0.0579
    3TTP     C2 8938   3.955   6.589  -0.052 -0.0505  0.0433  0.0712
    3TTP     C3 8939   4.032   6.668   0.040 -0.0075  0.0345  0.0424
    3TTP     C4 8940   4.169   6.805   0.203  0.0684  0.0190 -0.0083
    3TTP    C17 8941   4.105   6.883   0.111  0.0911  0.0222 -0.0216
    3TTP    C18 8942   4.028   6.805   0.019  0.0482  0.0309  0.0072
    3TTP    C32 8943   3.954   6.439  -0.043 -0.9633 -0.0834 -0.3939
    3TTP    C33 8944   4.089   6.372  -0.084 -0.1876  0.0179 -0.0471
    3TTP    C34 8945   4.085   6.219  -0.067  0.1663 -0.4944  0.0126
    3TTP    C35 8946   4.056   6.146  -0.198  0.0481  0.4129  0.1316
    3TTP    C36 8947   4.031   5.998  -0.180  0.3163  0.0455  0.1465
    3TTP    C37 8948   3.962   5.925  -0.293  0.3044 -0.4742  0.3718
    3TTP    C38 8949   3.927   5.779  -0.263 -0.2088 -0.0682 -0.5767
    3TTP    C39 8950   3.857   5.709  -0.371  0.0278 -1.4748  0.0164
    3TTP    C40 8951   3.818   5.563  -0.350 -0.2228 -0.1587  0.0543
    3TTP    C41 8952   3.939   5.465  -0.331 -0.2050  0.5247  0.4031
    3TTP    C42 8953   3.896   5.322  -0.307  0.9822  0.7975 -0.3673
    4FIC     F1 8954   4.146   8.403   0.180 -0.2702  0.0017  0.0630
    4FIC     F2 8955   4.072   8.527   0.410  0.0105  0.0496  0.1292
    4FIC     O1 8956   4.245   7.902   0.361 -0.2369 -0.0108  0.0113
    4FIC     N5 8957   4.035   8.349   0.870  0.4379  0.1099  0.1874
    4FIC     N6 8958   4.127   7.933   0.965  0.4073  0.0908  0.1337
    4FIC    C19 8959   4.209   7.843   0.645  0.0431  0.0309  0.0562
    4FIC    C20 8960   4.187   7.964   0.591  0.0238  0.0319  0.0666
    4FIC    C21 8961   4.208   7.987   0.444 -0.1235  0.0099  0.0420
    4FIC    C22 8962   4.175   8.128   0.418 -0.1062  0.0176  0.0616
    4FIC    C23 8963   4.180   8.196   0.296 -0.2128  0.0031  0.0497
    4FIC    C24 8964   4.144   8.330   0.297 -0.1703  0.0147  0.0730
    4FIC    C25 8965   4.106   8.394   0.415 -0.0256  0.0392  0.1071
    4FIC    C26 8966   4.101   8.327   0.537  0.0812  0.0536  0.1191
    4FIC    C27 8967   4.137   8.191   0.539  0.0405  0.0427  0.0959
    4FIC    C28 8968   4.142   8.093   0.650  0.1260  0.0527  0.1003
    4FIC    C29 8969   4.112   8.117   0.782  0.2722  0.0761  0.1300
    4FIC    C30 8970   4.070   8.244   0.830  0.3628  0.0949  0.1615
    4FIC    C31 8971   4.121   8.015   0.882  0.3457  0.0839  0.1319
    5FIC     F1 8972   3.363   6.948  -0.716  0.3415 -0.1287 -0.1017
    5FIC     F2 8973   3.273   6.693  -0.748 -0.1664  0.0142  0.1783
    5FIC     O1 8974   3.746   6.875  -0.341  0.3544 -0.5131 -0.1882
    5FIC     N5 8975   3.416   6.275  -0.525 -0.8876 -0.0545  0.5190
    5FIC     N6 8976   3.734   6.270  -0.225 -0.7751 -0.3835  0.3951
    5FIC    C19 8977   3.796   6.606  -0.237 -0.1264 -0.5131  0.0485
    5FIC    C20 8978   3.703   6.634  -0.331 -0.1097 -0.4219  0.0594
    5FIC    C21 8979   3.683   6.775  -0.379  0.1444 -0.4286 -0.0672
    5FIC    C22 8980   3.576   6.770  -0.479  0.0939 -0.3157 -0.0187
    5FIC    C23 8981   3.522   6.877  -0.552  0.2705 -0.2805 -0.0984
    5FIC    C24 8982   3.420   6.848  -0.641  0.1774 -0.1690 -0.0293
    5FIC    C25 8983   3.374   6.716  -0.657 -0.0843 -0.0956  0.1149
    5FIC    C26 8984   3.427   6.610  -0.585 -0.2615 -0.1299  0.1950
    5FIC    C27 8985   3.530   6.637  -0.494 -0.1709 -0.2426  0.1269
    5FIC    C28 8986   3.607   6.548  -0.403 -0.3066 -0.3051  0.1807
    5FIC    C29 8987   3.591   6.412  -0.390 -0.5651 -0.2626  0.3169
    5FIC    C30 8988   3.495   6.337  -0.464 -0.7415 -0.1482  0.4275
    5FIC    C31 8989   3.670   6.335  -0.299 -0.6791 -0.3295  0.3591
    1BTD     S2 8990   2.685   6.831   2.128  0.1789  0.0390 -0.0796
    1BTD     N1 8991   2.694   7.010   2.141  0.0204  0.0371  0.0606
    1BTD     N2 8992   2.757   6.801   2.289  0.3214 -0.0259 -0.1554
    1BTD     N3 8993   2.922   7.062   2.643  0.3254 -0.1615 -0.0570
    1BTD     N4 8994   2.843   7.320   2.460 -0.0454 -0.0839  0.2092
    1BTD     C5 8995   2.773   7.169   2.310 -0.0095 -0.0269  0.1350
    1BTD     C6 8996   2.748   7.037   2.259  0.0788 -0.0093  0.0443
    1BTD     C7 8997   2.783   6.920   2.342  0.2474 -0.0446 -0.0765
    1BTD     C8 8998   2.842   6.940   2.472  0.3191 -0.0958 -0.1009
    1BTD    C15 8999   2.865   7.072   2.517  0.2280 -0.1112 -0.0094
    1BTD    C16 9000   2.831   7.185   2.437  0.0658 -0.0773  0.1070
    1BTD    C43 9001   2.935   7.381   2.558 -0.0975 -0.2007 -0.0949
    1BTD    C44 9002   3.085   7.381   2.510 -0.2146 -0.0163 -0.8612
    1BTD    C45 9003   3.201   7.331   2.604  0.0275  0.1307  0.4827
    1BTD    C46 9004   3.248   7.414   2.720  0.1065 -0.0194 -0.1697
    1BTD    C47 9005   3.108   7.509   2.428 -1.1760 -0.5028 -0.9265
    1BTD    C48 9006   3.216   7.507   2.320 -0.1638 -0.1530  0.1857
    1BTD    C49 9007   3.222   7.642   2.251 -0.0787  0.2419  0.0583
    1BTD    C50 9008   3.336   7.645   2.154  1.0796  0.1822  0.2793
    1BTD    C75 9009   2.920   7.153   2.764  0.7741 -0.4812  0.8730
    1BTD    C76 9010   2.835   7.126   2.882  0.8070  0.2219 -0.3786
    1BTD    C77 9011   2.863   7.209   3.006  0.0377 -0.3998  0.0538
    1BTD    C78 9012   3.004   7.210   3.077  0.3392 -0.7465 -0.4954
    1BTD    C79 9013   2.686   7.117   2.840 -0.5152  0.6103  0.6500
    1BTD    C80 9014   2.582   7.057   2.934  0.3371  0.1921  0.2702
    1BTD    C81 9015   2.617   6.932   3.022 -0.4148  0.3778 -0.0882
    1BTD    C82 9016   2.519   6.909   3.134 -0.1200  0.3364 -0.4238
    2TTP     S1 9017   2.662   7.381   2.123 -0.3120 -0.1312  0.3483
    2TTP     S5 9018   2.791   7.685   2.398 -0.0693  0.0213  0.0667
    2TTP     C1 9019   2.709   7.765   2.257 -0.3367 -0.0663  0.1716
    2TTP     C2 9020   2.664   7.676   2.164 -0.4274 -0.1186  0.2648
    2TTP     C3 9021   2.693   7.541   2.200 -0.2890 -0.0914  0.2567
    2TTP     C4 9022   2.744   7.300   2.264 -0.0445 -0.0435  0.2434
    2TTP    C17 9023   2.789   7.389   2.357  0.0461  0.0087  0.1502
    2TTP    C18 9024   2.760   7.524   2.320 -0.0923 -0.0186  0.1584
    2TTP    C32 9025   2.585   7.713   2.030 -0.2547  0.4421  0.0464
    2TTP    C33 9026   2.443   7.660   2.031  0.3951 -0.8310 -0.1646
    2TTP    C34 9027   2.362   7.696   1.910 -0.5032 -0.1315  0.5822
    2TTP    C35 9028   2.430   7.666   1.771 -0.2882  0.2048 -0.1936
    2TTP    C36 9029   2.498   7.530   1.748 -0.4327  0.2508 -0.2901
    2TTP    C37 9030   2.578   7.535   1.615  0.2822 -0.3551 -0.2814
    2TTP    C38 9031   2.679   7.412   1.605 -0.2314 -0.3326  0.3314
    2TTP    C39 9032   2.757   7.422   1.476  0.1808  0.0465 -0.2375
    2TTP    C40 9033   2.849   7.303   1.442 -0.0283  0.1383  0.0605
    2TTP    C41 9034   2.980   7.297   1.525  0.3017  0.0181  0.0527
    2TTP    C42 9035   3.063   7.169   1.504  0.3220 -0.1982 -0.0331
    3TTP     S1 9036   2.924   6.672   2.598 -0.4352 -0.0412  0.3551
    3TTP     S5 9037   3.124   6.887   2.912  0.4332  0.0166 -0.2303
    3TTP     C1 9038   3.162   6.710   2.929  0.3445  0.0000 -0.2037
    3TTP     C2 9039   3.103   6.633   2.833  0.0712 -0.0188 -0.0213
    3TTP     C3 9040   3.025   6.711   2.742 -0.0781 -0.0210  0.1039
    3TTP     C4 9041   2.886   6.849   2.580 -0.3465 -0.0247  0.3285
    3TTP    C17 9042   2.946   6.926   2.676 -0.0731 -0.0060  0.1462
    3TTP    C18 9043   3.023   6.847   2.767  0.0762 -0.0037  0.0209
    3TTP    C32 9044   3.108   6.480   2.810  0.3240 -0.7887 -0.2844
    3TTP    C33 9045   3.005   6.402   2.899 -0.3100  0.4709  0.1885
    3TTP    C34 9046   2.990   6.250   2.865  0.1582 -0.5586 -0.2954
    3TTP    C35 9047   2.913   6.178   2.974  0.2528  0.4542  0.2559
    3TTP    C36 9048   2.959   6.031   2.976  0.1265  0.0405  0.9503
    3TTP    C37 9049   2.884   5.937   2.871 -0.4556  0.8063 -0.3828
    3TTP    C38 9050   2.940   5.791   2.877 -0.1525 -0.0632  0.1251
    3TTP    C39 9051   2.867   5.692   2.797 -0.0923 -0.2513  0.1137
    3TTP    C40 9052   2.910   5.550   2.814  0.3133  0.1969  0.2513
    3TTP    C41 9053   2.884   5.481   2.944  0.1412  0.7779 -0.6206
    3TTP    C42 9054   2.912   5.331   2.914  0.3535 -0.1147  0.1305
    4FIC     F1 9055   2.757   8.430   2.738  0.1926 -0.1714  0.1497
    4FIC     F2 9056   2.725   8.584   2.515 -0.2063 -0.0627  0.2800
    4FIC     O1 9057   2.726   7.934   2.525  0.5103 -0.0693 -0.1362
    4FIC     N5 9058   2.658   8.450   2.044 -0.5532  0.1671  0.2635
    4FIC     N6 9059   2.640   8.031   1.922 -0.2246  0.2251  0.0138
    4FIC    C19 9060   2.685   7.904   2.237  0.2421  0.0710 -0.1134
    4FIC    C20 9061   2.694   8.023   2.299  0.1777  0.0412 -0.0465
    4FIC    C21 9062   2.715   8.030   2.448  0.3249 -0.0312 -0.0634
    4FIC    C22 9063   2.720   8.173   2.482  0.2054 -0.0477  0.0229
    4FIC    C23 9064   2.738   8.230   2.608  0.2756 -0.1090  0.0405
    4FIC    C24 9065   2.739   8.368   2.617  0.1336 -0.1125  0.1276
    4FIC    C25 9066   2.723   8.447   2.502 -0.0718 -0.0565  0.1947
    4FIC    C26 9067   2.705   8.391   2.376 -0.1429  0.0052  0.1775
    4FIC    C27 9068   2.703   8.251   2.365 -0.0014  0.0098  0.0896
    4FIC    C28 9069   2.687   8.162   2.248 -0.0266  0.0663  0.0497
    4FIC    C29 9070   2.668   8.201   2.118 -0.2052  0.1302  0.0936
    4FIC    C30 9071   2.663   8.338   2.077 -0.3960  0.1502  0.1869
    4FIC    C31 9072   2.653   8.107   2.011 -0.2148  0.1819  0.0495
    5FIC     F1 9073   3.701   7.027   3.464 -0.1768  0.0300  0.2581
    5FIC     F2 9074   3.750   6.775   3.554  0.0469  0.0120  0.0859
    5FIC     O1 9075   3.332   6.928   3.080 -0.0418 -0.0415  0.1466
    5FIC     N5 9076   3.559   6.342   3.409  0.4650 -0.0648 -0.2409
    5FIC     N6 9077   3.261   6.316   3.091  0.5254 -0.1169 -0.2933
    5FIC    C19 9078   3.249   6.652   3.029  0.2200 -0.0840 -0.0573
    5FIC    C20 9079   3.340   6.687   3.123  0.1773 -0.0653 -0.0225
    5FIC    C21 9080   3.377   6.831   3.143  0.0414 -0.0440  0.0832
    5FIC    C22 9081   3.478   6.834   3.251  0.0270 -0.0273  0.0963
    5FIC    C23 9082   3.542   6.945   3.304 -0.0821 -0.0050  0.1817
    5FIC    C24 9083   3.633   6.922   3.406 -0.0726  0.0078  0.1762
    5FIC    C25 9084   3.659   6.792   3.453  0.0427 -0.0015  0.0875
    5FIC    C26 9085   3.595   6.681   3.399  0.1521 -0.0236  0.0017
    5FIC    C27 9086   3.502   6.702   3.296  0.1443 -0.0367  0.0060
    5FIC    C28 9087   3.418   6.607   3.219  0.2413 -0.0607 -0.0705
    5FIC    C29 9088   3.414   6.470   3.235  0.3663 -0.0755 -0.1673
    5FIC    C30 9089   3.494   6.400   3.331  0.4201 -0.0696 -0.2074
    5FIC    C31 9090   3.330   6.386   3.156  0.4530 -0.0983 -0.2360
    1BTD     S2 9091   1.645   3.849   3.219 -0.1868 -0.1275  0.1327
    1BTD     N1 9092   1.648   3.670   3.230  0.0669 -0.1306  0.0097
    1BTD     N2 9093   1.720   3.875   3.380 -0.3656 -0.1289  0.2173
    1BTD     N3 9094   1.881   3.604   3.728 -0.2720 -0.1374  0.1675
    1BTD     N4 9095   1.792   3.351   3.543  0.2610 -0.1395 -0.0883
    1BTD     C5 9096   1.724   3.507   3.396  0.1618 -0.1352 -0.0383
    1BTD     C6 9097   1.703   3.640   3.347  0.0083 -0.1324  0.0365
    1BTD     C7 9098   1.743   3.755   3.431 -0.2338 -0.1315  0.1528
    1BTD     C8 9099   1.803   3.731   3.560 -0.3103 -0.1334  0.1882
    1BTD    C15 9100   1.822   3.598   3.603 -0.1539 -0.1361  0.1119
    1BTD    C16 9101   1.783   3.487   3.522  0.0793 -0.1370 -0.0000
    1BTD    C43 9102   1.878   3.275   3.639  0.3605 -0.2257 -0.1340
    1BTD    C44 9103   2.023   3.230   3.608  0.0026 -0.7513  0.1128
    1BTD    C45 9104   2.100   3.352   3.561  0.0317  0.5231 -0.3030
    1BTD    C46 9105   2.238   3.316   3.493  0.0925 -0.1196 -0.7538
    1BTD    C47 9106   2.092   3.151   3.722 -0.4199  0.3955 -0.6848
    1BTD    C48 9107   2.131   3.203   3.866  0.4325  0.1909 -0.0097
    1BTD    C49 9108   2.250   3.293   3.860  0.3610  0.1189 -0.5684
    1BTD    C50 9109   2.284   3.368   3.992  0.2377  0.0524  0.3339
    1BTD    C75 9110   1.897   3.510   3.843  0.1438 -0.0625  0.4579
    1BTD    C76 9111   1.773   3.464   3.923  0.2263 -0.1284 -0.4945
    1BTD    C77 9112   1.808   3.351   4.020 -0.9335 -0.5687  0.6485
    1BTD    C78 9113   1.887   3.391   4.146  0.3508  0.3892 -0.5874
    1BTD    C79 9114   1.678   3.571   3.980  0.1266 -0.5324  0.2599
    1BTD    C80 9115   1.549   3.534   4.045  0.3585 -0.2720  0.2766
    1BTD    C81 9116   1.463   3.633   4.134  0.1884 -0.1757  0.4912
    1BTD    C82 9117   1.415   3.749   4.049 -0.1502 -0.1324  0.5858
    2TTP     S1 9118   1.664   3.302   3.185 -0.1362 -0.2486 -0.1055
    2TTP     S5 9119   1.794   2.989   3.449 -0.3738 -0.1056  0.1814
    2TTP     C1 9120   1.755   2.916   3.287 -0.3263 -0.2086  0.2162
    2TTP     C2 9121   1.713   3.008   3.196 -0.2501 -0.2587  0.1297
    2TTP     C3 9122   1.709   3.140   3.251 -0.2266 -0.2178  0.0328
    2TTP     C4 9123   1.703   3.375   3.347 -0.1838 -0.1456 -0.1404
    2TTP    C17 9124   1.745   3.283   3.438 -0.2600 -0.0954 -0.0539
    2TTP    C18 9125   1.749   3.151   3.383 -0.2835 -0.1364  0.0432
    2TTP    C32 9126   1.687   2.991   3.043 -0.4035 -0.2938 -0.1633
    2TTP    C33 9127   1.544   3.003   2.992  0.4515  0.4212  0.4471
    2TTP    C34 9128   1.440   2.920   3.067 -0.6114  0.3709  0.1162
    2TTP    C35 9129   1.304   2.940   3.023  0.7433 -0.1689  0.3997
    2TTP    C36 9130   1.189   2.880   3.108  0.0357 -0.2409 -0.4697
    2TTP    C37 9131   1.189   2.730   3.125 -0.4840 -0.9969 -0.1335
    2TTP    C38 9132   1.115   2.701   3.255 -0.2410 -0.2485  0.1191
    2TTP    C39 9133   1.093   2.551   3.278  0.2492 -0.3613  0.2594
    2TTP    C40 9134   1.045   2.525   3.418  0.5218  0.2289 -0.1865
    2TTP    C41 9135   1.061   2.381   3.479 -0.1027 -0.4889  0.3682
    2TTP    C42 9136   1.017   2.260   3.398 -0.2929 -0.2021  0.4338
    3TTP     S1 9137   1.891   3.991   3.683 -0.0159  0.2213 -0.1084
    3TTP     S5 9138   2.074   3.775   4.007 -0.2173  0.2039 -0.0064
    3TTP     C1 9139   2.109   3.952   4.029 -0.1022  0.1873 -0.0578
    3TTP     C2 9140   2.055   4.030   3.930 -0.0333  0.1918 -0.0924
    3TTP     C3 9141   1.983   3.952   3.834 -0.0688  0.2084 -0.0795
    3TTP     C4 9142   1.856   3.814   3.662 -0.1310  0.2379 -0.0570
    3TTP    C17 9143   1.911   3.737   3.761 -0.2000  0.2334 -0.0225
    3TTP    C18 9144   1.982   3.815   3.857 -0.1644  0.2168 -0.0353
    3TTP    C32 9145   2.071   4.176   3.905  0.0636 -0.1378 -0.4636
    3TTP    C33 9146   1.949   4.263   3.932 -0.1362 -0.1150  0.5196
    3TTP    C34 9147   1.971   4.398   3.873 -0.0897  1.0880  0.7696
    3TTP    C35 9148   1.881   4.517   3.904 -0.2726 -0.0757  0.0744
    3TTP    C36 9149   1.905   4.637   3.807 -0.0029  0.4845  0.2009
    3TTP    C37 9150   1.857   4.616   3.661  0.2944 -0.7479  0.1852
    3TTP    C38 9151   1.707   4.630   3.630 -0.6608  0.6119 -1.0823
    3TTP    C39 9152   1.667   4.610   3.484  0.3907  0.0605 -0.5388
    3TTP    C40 9153   1.516   4.625   3.474 -0.4533 -0.3452  0.7155
    3TTP    C41 9154   1.458   4.589   3.340  0.5226  0.2306  0.1570
    3TTP    C42 9155   1.307   4.571   3.321 -0.7540  0.0695  0.1877
    4FIC     F1 9156   2.087   2.240   3.616 -0.0075  0.2574  0.0594
    4FIC     F2 9157   2.023   2.103   3.389 -0.5363 -0.0542  0.3914
    4FIC     O1 9158   1.899   2.733   3.495  0.5902  0.3361 -0.5629
    4FIC     N5 9159   1.798   2.259   2.977 -0.8703 -0.4463  0.4254
    4FIC     N6 9160   1.664   2.672   2.929 -0.2967 -0.3220 -0.1279
    4FIC    C19 9161   1.772   2.778   3.236  0.2974  0.0661 -0.4667
    4FIC    C20 9162   1.821   2.659   3.275  0.1677  0.0586 -0.3230
    4FIC    C21 9163   1.886   2.644   3.410  0.3326  0.2025 -0.3846
    4FIC    C22 9164   1.928   2.503   3.420  0.1284  0.1531 -0.1922
    4FIC    C23 9165   1.993   2.442   3.527  0.1822  0.2457 -0.1710
    4FIC    C24 9166   2.024   2.307   3.514 -0.0456  0.1728  0.0273
    4FIC    C25 9167   1.991   2.237   3.397 -0.3178  0.0122  0.1981
    4FIC    C26 9168   1.926   2.298   3.290 -0.3729 -0.0809  0.1780
    4FIC    C27 9169   1.894   2.434   3.302 -0.1451 -0.0092 -0.0214
    4FIC    C28 9170   1.827   2.527   3.208 -0.1317 -0.0737 -0.0951
    4FIC    C29 9171   1.780   2.497   3.082 -0.3544 -0.2267  0.0252
    4FIC    C30 9172   1.790   2.366   3.025 -0.6373 -0.3468  0.2449
    4FIC    C31 9173   1.716   2.593   2.999 -0.3214 -0.2782 -0.0597
    5FIC     F1 9174   2.656   3.688   4.585  0.1933 -0.0507 -0.7030
    5FIC     F2 9175   2.724   3.948   4.631 -0.1993 -0.0576 -0.0651
    5FIC     O1 9176   2.268   3.749   4.212  0.2638  0.2642 -0.7254
    5FIC     N5 9177   2.545   4.364   4.432 -0.7135  0.1569  0.8360
    5FIC     N6 9178   2.229   4.360   4.132 -0.5793  0.4045  0.6899
    5FIC    C19 9179   2.195   4.019   4.124 -0.0863  0.3696 -0.1239
    5FIC    C20 9180   2.290   3.993   4.216 -0.0887  0.2906 -0.1432
    5FIC    C21 9181   2.322   3.852   4.256  0.0974  0.2404 -0.4612
    5FIC    C22 9182   2.429   3.860   4.357  0.0427  0.1580 -0.3963
    5FIC    C23 9183   2.492   3.755   4.424  0.1657  0.0903 -0.6166
    5FIC    C24 9184   2.590   3.788   4.515  0.0802  0.0185 -0.4983
    5FIC    C25 9185   2.625   3.921   4.539 -0.1221  0.0152 -0.1696
    5FIC    C26 9186   2.564   4.027   4.473 -0.2457  0.0824  0.0515
    5FIC    C27 9187   2.463   3.996   4.380 -0.1618  0.1556 -0.0636
    5FIC    C28 9188   2.379   4.083   4.294 -0.2506  0.2370  0.1050
    5FIC    C29 9189   2.383   4.220   4.288 -0.4456  0.2583  0.4291
    5FIC    C30 9190   2.472   4.299   4.368 -0.5922  0.2025  0.6517
    5FIC    C31 9191   2.298   4.296   4.202 -0.5180  0.3386  0.5707
    1BTD     S2 9192   3.314   3.896   1.679  0.1033 -0.0408 -0.2554
    1BTD     N1 9193   3.305   3.717   1.684 -0.1526 -0.0260 -0.1483
    1BTD     N2 9194   3.244   3.910   1.514  0.3451 -0.0512 -0.3601
    1BTD     N3 9195   3.084   3.615   1.186  0.3759 -0.0455 -0.3803
    1BTD     N4 9196   3.159   3.376   1.395 -0.2374 -0.0142 -0.1193
    1BTD     C5 9197   3.228   3.542   1.530 -0.1894 -0.0202 -0.1363
    1BTD     C6 9198   3.253   3.678   1.568 -0.0499 -0.0293 -0.1938
    1BTD     C7 9199   3.219   3.787   1.473  0.2287 -0.0435 -0.3124
    1BTD     C8 9200   3.161   3.753   1.346  0.3538 -0.0479 -0.3675
    1BTD    C15 9201   3.139   3.618   1.313  0.2094 -0.0386 -0.3079
    1BTD    C16 9202   3.172   3.514   1.404 -0.0590 -0.0251 -0.1937
    1BTD    C43 9203   3.065   3.296   1.308  0.1971 -0.5979  0.2718
    1BTD    C44 9204   2.917   3.309   1.357  0.1160  0.4541 -0.2566
    1BTD    C45 9205   2.802   3.261   1.264 -0.1251 -1.1977  0.1094
    1BTD    C46 9206   2.800   3.304   1.113  0.5840  0.0660 -0.0095
    1BTD    C47 9207   2.884   3.265   1.501  0.0387 -0.1440 -0.2692
    1BTD    C48 9208   2.861   3.120   1.547  0.0468  0.8443 -0.0065
    1BTD    C49 9209   2.829   3.113   1.696 -0.7484  0.3492  0.2163
    1BTD    C50 9210   2.777   2.976   1.725 -0.3633 -0.3371 -0.4932
    1BTD    C75 9211   3.088   3.510   1.085 -0.6520  0.2687  0.7497
    1BTD    C76 9212   3.212   3.492   0.991  0.1359 -0.1794 -0.0056
    1BTD    C77 9213   3.196   3.362   0.912 -0.4398  0.5530  0.1400
    1BTD    C78 9214   3.109   3.355   0.784  0.0330 -0.3323  0.1441
    1BTD    C79 9215   3.264   3.610   0.920 -0.2458 -0.3085  0.2773
    1BTD    C80 9216   3.396   3.601   0.839 -0.3990 -0.0614  0.2328
    1BTD    C81 9217   3.435   3.731   0.765 -1.0899 -0.5137  0.1165
    1BTD    C82 9218   3.554   3.702   0.672 -0.0944  0.4403 -0.8055
    2TTP     S1 9219   3.304   3.350   1.762  0.2476 -0.0499 -0.1481
    2TTP     S5 9220   3.178   3.020   1.516 -0.0010 -0.1501  0.1112
    2TTP     C1 9221   3.228   2.955   1.678  0.1404 -0.0818  0.0951
    2TTP     C2 9222   3.270   3.053   1.764  0.2255 -0.0468  0.0141
    2TTP     C3 9223   3.264   3.183   1.704  0.1821 -0.0727 -0.0382
    2TTP     C4 9224   3.254   3.415   1.600  0.1062 -0.1182 -0.1321
    2TTP    C17 9225   3.212   3.317   1.514  0.0211 -0.1532 -0.0510
    2TTP    C18 9226   3.218   3.187   1.574  0.0645 -0.1273  0.0013
    2TTP    C32 9227   3.318   3.030   1.908 -0.1099  0.0316  0.0197
    2TTP    C33 9228   3.469   3.030   1.920 -0.1865  0.2746 -0.4429
    2TTP    C34 9229   3.554   2.894   1.922  0.2174 -0.4211  0.2823
    2TTP    C35 9230   3.495   2.775   2.003  0.9320 -0.0708 -0.3096
    2TTP    C36 9231   3.572   2.638   1.995  0.0822 -0.6712  0.2355
    2TTP    C37 9232   3.524   2.525   2.089 -0.4446 -0.4676  0.3299
    2TTP    C38 9233   3.558   2.555   2.234  0.6425 -0.0189  0.8234
    2TTP    C39 9234   3.510   2.439   2.327  0.2752 -0.5871  0.1281
    2TTP    C40 9235   3.546   2.455   2.475  0.1974  0.2584  0.0124
    2TTP    C41 9236   3.467   2.359   2.564 -0.4691  0.5702 -0.2831
    2TTP    C42 9237   3.509   2.364   2.710 -0.1610 -0.1080 -0.1154
    3TTP     S1 9238   3.075   4.000   1.206  0.0053 -0.1705  0.2612
    3TTP     S5 9239   2.854   3.760   0.925 -0.0488 -0.0054  0.1622
    3TTP     C1 9240   2.805   3.934   0.904  0.1191  0.0369  0.1134
    3TTP     C2 9241   2.870   4.018   0.990  0.1457 -0.0117  0.1411
    3TTP     C3 9242   2.961   3.948   1.075  0.0345 -0.0839  0.2019
    3TTP     C4 9243   3.124   3.826   1.227 -0.1625 -0.2128  0.3101
    3TTP    C17 9244   3.059   3.742   1.141 -0.1892 -0.1643  0.2824
    3TTP    C18 9245   2.968   3.811   1.056 -0.0780 -0.0920  0.2216
    3TTP    C32 9246   2.861   4.172   1.016  0.1443 -0.1477 -0.5778
    3TTP    C33 9247   2.976   4.253   0.960 -0.1746  0.0149 -0.3497
    3TTP    C34 9248   2.960   4.406   0.954  0.5185  0.4708  0.6565
    3TTP    C35 9249   3.065   4.462   0.858  0.2560  0.2577  0.3611
    3TTP    C36 9250   3.064   4.617   0.857  0.1841  0.1660 -0.0679
    3TTP    C37 9251   3.064   4.700   0.983  0.4452  0.8706  0.0100
    3TTP    C38 9252   3.168   4.651   1.091  0.1967 -0.1656 -0.0162
    3TTP    C39 9253   3.152   4.712   1.228 -0.1513  0.4069 -0.9624
    3TTP    C40 9254   3.269   4.683   1.327  0.4177 -0.0184 -0.1803
    3TTP    C41 9255   3.258   4.731   1.473 -0.2481  0.4098  0.6432
    3TTP    C42 9256   3.362   4.664   1.554 -0.2367  0.0515 -0.0103
    4FIC     F1 9257   3.201   2.249   1.256  0.3528 -0.2952 -0.0523
    4FIC     F2 9258   3.148   2.118   1.489 -0.5766 -0.0426 -0.1151
    4FIC     O1 9259   3.256   2.757   1.434  0.7226 -0.2673 -0.2435
    4FIC     N5 9260   3.111   2.293   1.950 -1.6493  0.3405 -0.3418
    4FIC     N6 9261   3.164   2.716   2.042 -1.1730  0.3116 -0.4785
    4FIC    C19 9262   3.225   2.813   1.719 -0.0341 -0.0159 -0.3715
    4FIC    C20 9263   3.213   2.690   1.666 -0.0908 -0.0328 -0.3209
    4FIC    C21 9264   3.231   2.669   1.518  0.3152 -0.1651 -0.2566
    4FIC    C22 9265   3.211   2.525   1.493  0.1331 -0.1490 -0.2128
    4FIC    C23 9266   3.218   2.458   1.371  0.3790 -0.2444 -0.1480
    4FIC    C24 9267   3.196   2.321   1.373  0.1313 -0.2059 -0.1164
    4FIC    C25 9268   3.169   2.254   1.493 -0.3476 -0.0756 -0.1489
    4FIC    C26 9269   3.162   2.320   1.615 -0.5952  0.0201 -0.2134
    4FIC    C27 9270   3.184   2.459   1.615 -0.3503 -0.0170 -0.2463
    4FIC    C28 9271   3.184   2.558   1.726 -0.5069  0.0595 -0.3141
    4FIC    C29 9272   3.161   2.531   1.859 -0.9524  0.1909 -0.3613
    4FIC    C30 9273   3.133   2.400   1.909 -1.3340  0.2726 -0.3504
    4FIC    C31 9274   3.163   2.633   1.959 -1.0713  0.2565 -0.4255
    5FIC     F1 9275   2.234   3.601   0.423 -0.0156  0.1302 -0.1979
    5FIC     F2 9276   2.188   3.848   0.318  0.1937  0.1425 -0.2617
    5FIC     O1 9277   2.619   3.714   0.787 -0.2449 -0.0274  0.0950
    5FIC     N5 9278   2.396   4.283   0.427  0.3312  0.0476 -0.1446
    5FIC     N6 9279   2.706   4.322   0.732  0.1098 -0.0781  0.0971
    5FIC    C19 9280   2.712   3.990   0.816 -0.1264 -0.0718  0.1381
    5FIC    C20 9281   2.617   3.952   0.728 -0.0769 -0.0327  0.0669
    5FIC    C21 9282   2.574   3.808   0.719 -0.1434 -0.0119  0.0492
    5FIC    C22 9283   2.470   3.801   0.615 -0.0645  0.0302 -0.0328
    5FIC    C23 9284   2.401   3.689   0.571 -0.0874  0.0609 -0.0754
    5FIC    C24 9285   2.306   3.708   0.471  0.0011  0.0984 -0.1523
    5FIC    C25 9286   2.283   3.835   0.417  0.1089  0.1046 -0.1851
    5FIC    C26 9287   2.352   3.947   0.461  0.1323  0.0741 -0.1428
    5FIC    C27 9288   2.447   3.931   0.562  0.0437  0.0359 -0.0649
    5FIC    C28 9289   2.537   4.028   0.629  0.0405 -0.0024 -0.0049
    5FIC    C29 9290   2.544   4.163   0.604  0.1292 -0.0088 -0.0142
    5FIC    C30 9291   2.462   4.229   0.507  0.2400  0.0223 -0.0859
    5FIC    C31 9292   2.633   4.250   0.675  0.1180 -0.0467  0.0471
    1BTD     S2 9293   2.021   9.400   0.269 -0.1951 -0.1265  0.2366
    1BTD     N1 9294   2.032   9.579   0.279 -0.1531 -0.1318  0.2778
    1BTD     N2 9295   2.091   9.371   0.432  0.0617 -0.1903  0.1165
    1BTD     N3 9296   2.254   9.635   0.784  0.6605 -0.3295 -0.0540
    1BTD     N4 9297   2.182   9.892   0.596  0.3959 -0.2575  0.1448
    1BTD     C5 9298   2.111   9.739   0.447  0.1367 -0.1986  0.2059
    1BTD     C6 9299   2.085   9.606   0.398  0.0401 -0.1788  0.2037
    1BTD     C7 9300   2.118   9.490   0.483  0.1603 -0.2112  0.1134
    1BTD     C8 9301   2.175   9.512   0.613  0.3711 -0.2623  0.0299
    1BTD    C15 9302   2.199   9.644   0.657  0.4593 -0.2802  0.0354
    1BTD    C16 9303   2.168   9.756   0.575  0.3434 -0.2489  0.1224
    1BTD    C43 9304   2.261   9.977   0.689  0.3749  0.8904  0.2625
    1BTD    C44 9305   2.409  10.009   0.658  0.0208 -0.4726  0.4546
    1BTD    C45 9306   2.494   9.886   0.624 -0.3202 -0.2680 -0.0960
    1BTD    C46 9307   2.636   9.904   0.576 -0.2352  0.4436 -0.1558
    1BTD    C47 9308   2.462  10.108   0.769 -0.0764 -0.2921 -0.1400
    1BTD    C48 9309   2.535  10.048   0.897  0.5179  0.5312  0.4168
    1BTD    C49 9310   2.570  10.162   0.980 -0.3479 -0.4902  0.0852
    1BTD    C50 9311   2.672  10.123   1.088 -0.1097  0.0105 -0.0316
    1BTD    C75 9312   2.262   9.733   0.886 -0.5373 -0.0049 -0.4516
    1BTD    C76 9313   2.128   9.766   0.967  0.8905 -0.0062  0.6649
    1BTD    C77 9314   2.152   9.883   1.061 -0.7090 -0.1070 -0.2401
    1BTD    C78 9315   2.264   9.869   1.169  0.3723  0.3110  0.0810
    1BTD    C79 9316   2.040   9.647   1.021 -0.2804  0.1140  0.3376
    1BTD    C80 9317   1.897   9.691   1.054 -0.0017  0.1894 -0.4332
    1BTD    C81 9318   1.797   9.576   1.095  0.5920  0.6865 -0.0297
    1BTD    C82 9319   1.828   9.498   1.232  0.0382 -0.5431  0.4212
    2TTP     S1 9320   2.053   9.947   0.233  0.4069 -0.0489  0.1872
    2TTP     S5 9321   2.195  10.255   0.497 -0.2159  0.3915  0.0136
    2TTP     C1 9322   2.157  10.330   0.336 -0.1151  0.1750 -0.1125
    2TTP     C2 9323   2.110  10.239   0.245  0.0831  0.0262 -0.0663
    2TTP     C3 9324   2.104  10.107   0.300  0.1627  0.0780  0.0703
    2TTP     C4 9325   2.092   9.872   0.395  0.3061  0.1676  0.3132
    2TTP    C17 9326   2.138   9.963   0.486  0.1079  0.3165  0.2670
    2TTP    C18 9327   2.145  10.095   0.431  0.0284  0.2649  0.1304
    2TTP    C32 9328   2.075  10.267   0.094 -0.9130  0.0998 -0.0346
    2TTP    C33 9329   1.929  10.256   0.060  0.3207 -0.1354 -0.0905
    2TTP    C34 9330   1.844  10.376   0.106  0.2400  0.3779  0.1711
    2TTP    C35 9331   1.692  10.345   0.116 -0.1328  0.2752 -0.3165
    2TTP    C36 9332   1.613  10.472   0.152 -0.5120  0.1823 -0.4060
    2TTP    C37 9333   1.461  10.449   0.168 -0.3702  0.0714 -0.2390
    2TTP    C38 9334   1.379  10.577   0.214 -0.7753  0.5678  0.2449
    2TTP    C39 9335   1.417  10.637   0.343  0.1728 -0.3692  0.3932
    2TTP    C40 9336   1.319  10.747   0.391  1.3749 -0.2875  0.2067
    2TTP    C41 9337   1.358  10.802   0.526 -0.0215  0.4834 -0.5174
    2TTP    C42 9338   1.254  10.896   0.584 -0.1553  0.3948 -0.0960
    3TTP     S1 9339   2.255   9.247   0.733  0.2381  0.0860 -0.1678
    3TTP     S5 9340   2.456   9.454   1.052 -0.0767  0.2472 -0.0731
    3TTP     C1 9341   2.489   9.276   1.069  0.1462  0.2836 -0.1206
    3TTP     C2 9342   2.429   9.202   0.972  0.2566  0.2356 -0.1526
    3TTP     C3 9343   2.354   9.283   0.880  0.1690  0.1693 -0.1408
    3TTP     C4 9344   2.222   9.425   0.716  0.0151  0.0498 -0.1203
    3TTP    C17 9345   2.282   9.500   0.814 -0.0952  0.0978 -0.0883
    3TTP    C18 9346   2.356   9.419   0.905 -0.0077  0.1643 -0.1000
    3TTP    C32 9347   2.437   9.050   0.947 -0.1392 -0.5747  0.6621
    3TTP    C33 9348   2.309   8.972   0.984  0.2676 -0.1299  0.2085
    3TTP    C34 9349   2.349   8.826   0.966 -0.8556 -0.3382 -0.1830
    3TTP    C35 9350   2.281   8.713   1.045  0.5847 -0.0643 -0.5957
    3TTP    C36 9351   2.362   8.574   1.045  0.4373  0.4891 -0.3422
    3TTP    C37 9352   2.293   8.474   1.136  0.6264 -0.1066  0.1044
    3TTP    C38 9353   2.337   8.330   1.134  0.3005 -0.2428 -0.0334
    3TTP    C39 9354   2.309   8.253   1.005  0.4327 -0.3656  0.3491
    3TTP    C40 9355   2.381   8.120   0.988 -0.3610 -0.5453 -0.2799
    3TTP    C41 9356   2.354   8.062   0.852  0.1992 -0.6002  0.8741
    3TTP    C42 9357   2.402   7.921   0.840  0.2499 -0.5681 -0.1874
    4FIC     F1 9358   2.244  10.989   0.813  0.2515 -0.0796  0.1508
    4FIC     F2 9359   2.306  11.135   0.591 -0.4153  0.1884  0.1349
    4FIC     O1 9360   2.142  10.506   0.592  0.5998 -0.0811 -0.0089
    4FIC     N5 9361   2.323  10.999   0.116 -1.1256  0.5722 -0.0018
    4FIC     N6 9362   2.230  10.592  -0.012 -0.7191  0.5171 -0.1235
    4FIC    C19 9363   2.165  10.473   0.302  0.0865  0.1742 -0.0809
    4FIC    C20 9364   2.188  10.589   0.366  0.0249  0.1643 -0.0401
    4FIC    C21 9365   2.174  10.598   0.516  0.3019  0.0293 -0.0048
    4FIC    C22 9366   2.206  10.737   0.553  0.1497  0.0544  0.0352
    4FIC    C23 9367   2.207  10.793   0.680  0.3077 -0.0398  0.0764
    4FIC    C24 9368   2.241  10.927   0.690  0.1114  0.0081  0.1093
    4FIC    C25 9369   2.273  11.002   0.576 -0.2321  0.1462  0.1010
    4FIC    C26 9370   2.273  10.947   0.448 -0.3914  0.2408  0.0600
    4FIC    C27 9371   2.238  10.811   0.436 -0.1967  0.1943  0.0263
    4FIC    C28 9372   2.228  10.723   0.317 -0.2871  0.2670 -0.0203
    4FIC    C29 9373   2.252  10.759   0.187 -0.6000  0.4036 -0.0411
    4FIC    C30 9374   2.291  10.891   0.148 -0.8880  0.4959 -0.0195
    4FIC    C31 9375   2.240  10.667   0.078 -0.6638  0.4654 -0.0863
    5FIC     F1 9376   3.029   9.517   1.642  0.1413  0.2618 -0.1388
    5FIC     F2 9377   3.089   9.256   1.688  0.0672  0.2751  0.0358
    5FIC     O1 9378   2.647   9.469   1.261  0.0178  0.1087  0.0036
    5FIC     N5 9379   2.904   8.846   1.481 -0.1274  0.1845  0.3884
    5FIC     N6 9380   2.594   8.861   1.174 -0.2090  0.0618  0.4645
    5FIC    C19 9381   2.570   9.203   1.169 -0.0969  0.0666  0.2211
    5FIC    C20 9382   2.663   9.225   1.263 -0.0630  0.1044  0.1785
    5FIC    C21 9383   2.698   9.365   1.305 -0.0045  0.1242  0.0660
    5FIC    C22 9384   2.802   9.353   1.408  0.0206  0.1652  0.0452
    5FIC    C23 9385   2.866   9.456   1.477  0.0744  0.1948 -0.0481
    5FIC    C24 9386   2.962   9.421   1.571  0.0888  0.2313 -0.0490
    5FIC    C25 9387   2.993   9.286   1.594  0.0506  0.2381  0.0411
    5FIC    C26 9388   2.930   9.183   1.526 -0.0030  0.2091  0.1345
    5FIC    C27 9389   2.832   9.217   1.431 -0.0185  0.1714  0.1369
    5FIC    C28 9390   2.748   9.133   1.342 -0.0714  0.1345  0.2223
    5FIC    C29 9391   2.749   8.995   1.335 -0.1190  0.1290  0.3228
    5FIC    C30 9392   2.834   8.914   1.416 -0.1235  0.1595  0.3585
    5FIC    C31 9393   2.664   8.922   1.247 -0.1683  0.0923  0.4002
    1BTD     S2 9394   3.201   9.423   2.670 -0.1887 -0.1914  0.0495
    1BTD     N1 9395   3.190   9.602   2.661 -0.2533 -0.1857  0.2270
    1BTD     N2 9396   3.136   9.396   2.505 -0.0541 -0.0465 -0.0281
    1BTD     N3 9397   2.983   9.664   2.151  0.1036  0.2594  0.1345
    1BTD     N4 9398   3.049   9.918   2.343 -0.1419  0.0877  0.4489
    1BTD     C5 9399   3.115   9.764   2.492 -0.1921 -0.0410  0.3391
    1BTD     C6 9400   3.141   9.631   2.541 -0.1753 -0.0815  0.2197
    1BTD     C7 9401   3.110   9.515   2.454 -0.0637 -0.0033  0.0769
    1BTD     C8 9402   3.057   9.539   2.322  0.0252  0.1113  0.0606
    1BTD    C15 9403   3.034   9.671   2.279  0.0049  0.1471  0.1805
    1BTD    C16 9404   3.063   9.782   2.363 -0.1026  0.0718  0.3180
    1BTD    C43 9405   2.965   9.992   2.247 -0.3177  0.1988  0.2202
    1BTD    C44 9406   2.816   9.987   2.265  0.4449  0.3473  0.1112
    1BTD    C45 9407   2.743  10.070   2.154 -0.0484 -0.2842 -0.4250
    1BTD    C46 9408   2.594  10.035   2.138  0.2689  0.3793 -0.2359
    1BTD    C47 9409   2.769  10.001   2.411 -0.0507 -0.2600  0.2120
    1BTD    C48 9410   2.770  10.135   2.488  0.2841  0.5157 -0.1487
    1BTD    C49 9411   2.743  10.124   2.643  0.0252 -0.0211  1.0003
    1BTD    C50 9412   2.778  10.262   2.706 -0.0694  0.0635 -0.4659
    1BTD    C75 9413   2.973   9.754   2.034  0.3147 -0.6824  0.5708
    1BTD    C76 9414   3.068   9.735   1.912 -0.0269  0.1871  0.3322
    1BTD    C77 9415   3.035   9.807   1.779 -0.1482  0.2343 -0.1406
    1BTD    C78 9416   3.056   9.959   1.786  0.0449 -0.2056  0.1010
    1BTD    C79 9417   3.217   9.733   1.948  0.4511  0.2328 -0.2414
    1BTD    C80 9418   3.306   9.676   1.845 -0.5322  0.2958  0.0798
    1BTD    C81 9419   3.280   9.527   1.831 -0.2331 -0.0027 -0.4319
    1BTD    C82 9420   3.366   9.447   1.730 -0.2244  0.0231  0.0897
    2TTP     S1 9421   3.171   9.969   2.706 -0.0609 -0.1694 -0.0662
    2TTP     S5 9422   3.095  10.279   2.417  0.1839  0.1302  0.1894
    2TTP     C1 9423   3.126  10.356   2.578  0.5369 -0.0129  0.1927
    2TTP     C2 9424   3.151  10.265   2.677  0.4820 -0.1140  0.1140
    2TTP     C3 9425   3.147  10.131   2.629  0.1594 -0.0818  0.0482
    2TTP     C4 9426   3.140   9.891   2.544 -0.4137 -0.0265 -0.0696
    2TTP    C17 9427   3.115   9.982   2.445 -0.3590  0.0748  0.0091
    2TTP    C18 9428   3.119  10.117   2.494 -0.0363  0.0427  0.0749
    2TTP    C32 9429   3.177  10.286   2.826 -0.5609 -0.3803  0.0374
    2TTP    C33 9430   3.315  10.246   2.875 -0.6519 -0.3464 -0.1275
    2TTP    C34 9431   3.358  10.267   3.015  0.0629  0.1068 -0.0714
    2TTP    C35 9432   3.326  10.397   3.087  0.7014 -0.0220 -0.3153
    2TTP    C36 9433   3.363  10.527   3.026  0.5241 -0.2068  0.1279
    2TTP    C37 9434   3.330  10.650   3.110  0.1080  0.0860 -0.0141
    2TTP    C38 9435   3.395  10.674   3.251  0.2941 -0.0960  0.2536
    2TTP    C39 9436   3.356  10.813   3.305  0.1905  0.1311 -0.0745
    2TTP    C40 9437   3.426  10.826   3.445 -0.0786  0.5779  0.4291
    2TTP    C41 9438   3.415  10.947   3.521 -0.4345 -0.5180 -0.0436
    2TTP    C42 9439   3.280  10.953   3.595  0.0698 -0.0959 -0.2673
    3TTP     S1 9440   2.989   9.274   2.190 -0.0249 -0.2044  0.2094
    3TTP     S5 9441   2.751   9.494   1.908 -0.0709  0.0315  0.4318
    3TTP     C1 9442   2.717   9.317   1.887 -0.0984  0.0513  0.3111
    3TTP     C2 9443   2.789   9.238   1.973 -0.0858 -0.0205  0.2353
    3TTP     C3 9444   2.873   9.315   2.059 -0.0540 -0.0937  0.2698
    3TTP     C4 9445   3.023   9.451   2.212  0.0027 -0.2244  0.3302
    3TTP    C17 9446   2.952   9.530   2.126 -0.0099 -0.1524  0.4060
    3TTP    C18 9447   2.867   9.453   2.040 -0.0418 -0.0794  0.3714
    3TTP    C32 9448   2.796   9.085   1.984  0.1829  0.6279  0.0950
    3TTP    C33 9449   2.914   9.024   1.911 -0.3418 -0.7302 -0.5104
    3TTP    C34 9450   2.914   8.874   1.946  0.2819 -0.0991 -0.3410
    3TTP    C35 9451   2.977   8.792   1.830 -0.1330 -0.0072  0.2648
    3TTP    C36 9452   2.948   8.642   1.827  0.5846  0.5946 -0.2062
    3TTP    C37 9453   3.027   8.561   1.930 -0.5164 -0.2638  0.0339
    3TTP    C38 9454   2.983   8.420   1.964 -0.1734 -0.1384  0.3286
    3TTP    C39 9455   3.086   8.340   2.040 -0.8796  0.3139  0.2608
    3TTP    C40 9456   3.047   8.196   2.073  0.3950  0.2100  0.5827
    3TTP    C41 9457   3.158   8.121   2.140  0.4588  0.1678  0.4260
    3TTP    C42 9458   3.116   7.985   2.192  0.6601  0.4046 -0.1701
    4FIC     F1 9459   3.143  11.069   2.166 -0.0666  0.0954  0.0638
    4FIC     F2 9460   3.062  11.193   2.394 -0.1948  0.1154  0.0075
    4FIC     O1 9461   3.179  10.556   2.337 -0.0839  0.1223  0.1495
    4FIC     N5 9462   2.971  11.007   2.843 -0.3915  0.1640 -0.0123
    4FIC     N6 9463   3.015  10.582   2.931 -0.3791  0.1807  0.0660
    4FIC    C19 9464   3.114  10.493   2.615 -0.2125  0.1510  0.1262
    4FIC    C20 9465   3.108  10.617   2.563 -0.2033  0.1435  0.1069
    4FIC    C21 9466   3.143  10.642   2.419 -0.1355  0.1290  0.1206
    4FIC    C22 9467   3.126  10.786   2.396 -0.1429  0.1237  0.0930
    4FIC    C23 9468   3.147  10.856   2.277 -0.0938  0.1106  0.0939
    4FIC    C24 9469   3.124  10.993   2.280 -0.1127  0.1081  0.0648
    4FIC    C25 9470   3.082  11.057   2.397 -0.1788  0.1183  0.0357
    4FIC    C26 9471   3.062  10.988   2.516 -0.2280  0.1316  0.0347
    4FIC    C27 9472   3.084  10.849   2.516 -0.2099  0.1345  0.0641
    4FIC    C28 9473   3.071  10.748   2.623 -0.2495  0.1471  0.0713
    4FIC    C29 9474   3.033  10.771   2.753 -0.3164  0.1595  0.0494
    4FIC    C30 9475   2.999  10.901   2.802 -0.3575  0.1616  0.0155
    4FIC    C31 9476   3.023  10.667   2.850 -0.3506  0.1712  0.0587
    5FIC     F1 9477   2.205   9.592   1.303  0.0017  0.0043 -0.0925
    5FIC     F2 9478   2.167   9.334   1.224  0.5551  0.0575 -0.5473
    5FIC     O1 9479   2.548   9.522   1.717 -0.6620 -0.0613  0.4495
    5FIC     N5 9480   2.355   8.914   1.405  0.8778  0.0863 -0.8148
    5FIC     N6 9481   2.631   8.911   1.744  0.2477  0.0241 -0.2996
    5FIC    C19 9482   2.632   9.251   1.788 -0.3690 -0.0343  0.2075
    5FIC    C20 9483   2.548   9.279   1.687 -0.2236 -0.0198  0.0889
    5FIC    C21 9484   2.509   9.421   1.657 -0.3898 -0.0350  0.2261
    5FIC    C22 9485   2.416   9.415   1.542 -0.1662 -0.0131  0.0432
    5FIC    C23 9486   2.354   9.521   1.478 -0.2140 -0.0172  0.0832
    5FIC    C24 9487   2.270   9.491   1.371  0.0328  0.0070 -0.1189
    5FIC    C25 9488   2.251   9.358   1.331  0.3178  0.0342 -0.3530
    5FIC    C26 9489   2.313   9.252   1.394  0.3671  0.0381 -0.3943
    5FIC    C27 9490   2.398   9.280   1.502  0.1199  0.0141 -0.1920
    5FIC    C28 9491   2.478   9.191   1.590  0.0960  0.0110 -0.1732
    5FIC    C29 9492   2.485   9.054   1.582  0.3260  0.0327 -0.3624
    5FIC    C30 9493   2.414   8.978   1.485  0.6287  0.0622 -0.6106
    5FIC    C31 9494   2.565   8.976   1.672  0.2816  0.0279 -0.3268
    1BTD     S2 9495   3.972   1.128   3.602 -0.1626 -0.3471  0.2813
    1BTD     N1 9496   3.946   0.950   3.597 -0.1406 -0.3458  0.0930
    1BTD     N2 9497   3.904   1.157   3.438 -0.1087 -0.1895  0.2863
    1BTD     N3 9498   3.719   0.894   3.095  0.0412  0.1338 -0.0437
    1BTD     N4 9499   3.771   0.639   3.292  0.0018 -0.0588 -0.2818
    1BTD     C5 9500   3.854   0.791   3.435 -0.0658 -0.1936 -0.0998
    1BTD     C6 9501   3.891   0.922   3.480 -0.0964 -0.2338  0.0460
    1BTD     C7 9502   3.867   1.038   3.390 -0.0786 -0.1463  0.1541
    1BTD     C8 9503   3.808   1.016   3.261 -0.0309 -0.0230  0.1112
    1BTD    C15 9504   3.774   0.886   3.222 -0.0022  0.0122 -0.0328
    1BTD    C16 9505   3.796   0.774   3.308 -0.0194 -0.0721 -0.1371
    1BTD    C43 9506   3.688   0.561   3.196  0.4261  0.2375 -0.2944
    1BTD    C44 9507   3.547   0.539   3.238  0.7649  0.8051 -0.3686
    1BTD    C45 9508   3.463   0.665   3.277 -0.6863  0.1820 -0.0759
    1BTD    C46 9509   3.329   0.634   3.338  0.4718 -0.4417 -0.4447
    1BTD    C47 9510   3.475   0.433   3.147 -0.0382 -0.1369 -0.4776
    1BTD    C48 9511   3.454   0.479   3.002 -0.0322  0.1161  0.4820
    1BTD    C49 9512   3.367   0.381   2.921 -0.3791 -0.1798  0.0479
    1BTD    C50 9513   3.331   0.455   2.786 -0.2374  0.0309 -0.3620
    1BTD    C75 9514   3.704   0.788   2.992 -0.1583  0.2681 -0.4001
    1BTD    C76 9515   3.821   0.742   2.900  0.2804  1.2768  0.1293
    1BTD    C77 9516   3.772   0.627   2.811  0.5235  0.1469  0.3769
    1BTD    C78 9517   3.664   0.655   2.711 -0.2899 -0.4139  0.5296
    1BTD    C79 9518   3.895   0.855   2.824  0.1932  0.5979 -0.6331
    1BTD    C80 9519   4.037   0.816   2.769  0.5312  0.0498  0.0649
    1BTD    C81 9520   4.118   0.927   2.708  0.0646  0.2425 -0.0041
    1BTD    C82 9521   4.227   0.881   2.618  0.0323 -0.3590  0.2023
    2TTP     S1 9522   3.933   0.589   3.643 -0.0601  0.0159  0.0438
    2TTP     S5 9523   3.782   0.278   3.387  0.0714 -0.0313  0.0232
    2TTP     C1 9524   3.852   0.201   3.536 -0.0347 -0.0017  0.0883
    2TTP     C2 9525   3.903   0.292   3.624 -0.0816  0.0146  0.0985
    2TTP     C3 9526   3.888   0.426   3.577 -0.0355  0.0044  0.0553
    2TTP     C4 9527   3.863   0.665   3.493  0.0460 -0.0137 -0.0213
    2TTP    C17 9528   3.813   0.574   3.406  0.0929 -0.0300 -0.0316
    2TTP    C18 9529   3.827   0.440   3.453  0.0467 -0.0197  0.0117
    2TTP    C32 9530   3.955   0.264   3.764 -0.2763  0.4017 -0.4402
    2TTP    C33 9531   4.095   0.224   3.792 -0.4209  0.3275  0.5641
    2TTP    C34 9532   4.203   0.288   3.714 -0.3394  0.4291  0.0204
    2TTP    C35 9533   4.343   0.232   3.720 -0.2833  0.1658 -0.3466
    2TTP    C36 9534   4.377   0.104   3.645  0.6441 -0.0883  0.1078
    2TTP    C37 9535   4.524   0.072   3.646  0.5437 -0.1996 -0.2473
    2TTP    C38 9536   4.578  -0.051   3.567  0.4898 -0.2237  0.3204
    2TTP    C39 9537   4.532  -0.059   3.418 -0.4595 -0.3148 -0.0654
    2TTP    C40 9538   4.592  -0.169   3.329  0.3546  0.0282 -0.0238
    2TTP    C41 9539   4.536  -0.305   3.360 -0.2236 -0.0971 -0.0857
    2TTP    C42 9540   4.574  -0.422   3.270 -0.2795  0.0186 -0.1077
    3TTP     S1 9541   3.743   1.287   3.132 -0.0504 -0.2326 -0.0963
    3TTP     S5 9542   3.533   1.083   2.817 -0.2688  0.1152 -0.1775
    3TTP     C1 9543   3.520   1.262   2.789 -0.1936  0.1440 -0.0314
    3TTP     C2 9544   3.584   1.336   2.885 -0.1217  0.0383  0.0022
    3TTP     C3 9545   3.646   1.253   2.984 -0.1234 -0.0693 -0.0861
    3TTP     C4 9546   3.757   1.108   3.160 -0.1255 -0.2614 -0.2424
    3TTP    C17 9547   3.693   1.034   3.064 -0.1975 -0.1556 -0.2760
    3TTP    C18 9548   3.631   1.117   2.966 -0.1957 -0.0481 -0.1877
    3TTP    C32 9549   3.605   1.490   2.901  0.3426  0.1765  0.4822
    3TTP    C33 9550   3.727   1.558   2.837  0.0134  0.4211 -0.2710
    3TTP    C34 9551   3.738   1.703   2.819  0.2470  0.3378  0.3033
    3TTP    C35 9552   3.736   1.782   2.943  0.5835 -0.1363 -0.5309
    3TTP    C36 9553   3.714   1.926   2.918 -0.5320 -0.3120 -0.1037
    3TTP    C37 9554   3.718   2.036   3.033  0.5198  0.8909  0.5593
    3TTP    C38 9555   3.636   2.011   3.162  0.2434  0.3924  0.1714
    3TTP    C39 9556   3.487   1.990   3.133 -0.0270  0.5391 -0.4210
    3TTP    C40 9557   3.415   1.939   3.259  0.4542  0.2881  0.3353
    3TTP    C41 9558   3.261   1.934   3.234 -0.3474  0.1214  0.2115
    3TTP    C42 9559   3.190   1.886   3.363  1.3762  0.1439  0.1983
    4FIC     F1 9560   3.669  -0.487   3.120  0.4259  0.0007  0.0217
    4FIC     F2 9561   3.721  -0.628   3.347  0.1266  0.0775  0.1383
    4FIC     O1 9562   3.775   0.017   3.288  0.0412  0.0764  0.0403
    4FIC     N5 9563   3.870  -0.473   3.792 -0.5780  0.2415  0.3191
    4FIC     N6 9564   3.942  -0.051   3.877 -0.8182  0.2854  0.3102
    4FIC    C19 9565   3.862   0.061   3.564 -0.3815  0.1766  0.1583
    4FIC    C20 9566   3.833  -0.061   3.513 -0.2730  0.1547  0.1490
    4FIC    C21 9567   3.789  -0.075   3.370 -0.0564  0.1028  0.0870
    4FIC    C22 9568   3.767  -0.219   3.347  0.0157  0.0906  0.0930
    4FIC    C23 9569   3.725  -0.281   3.230  0.2071  0.0465  0.0477
    4FIC    C24 9570   3.710  -0.419   3.233  0.2401  0.0431  0.0642
    4FIC    C25 9571   3.737  -0.492   3.350  0.0857  0.0830  0.1243
    4FIC    C26 9572   3.778  -0.430   3.467 -0.1056  0.1266  0.1698
    4FIC    C27 9573   3.794  -0.291   3.466 -0.1419  0.1307  0.1539
    4FIC    C28 9574   3.836  -0.196   3.573 -0.3254  0.1719  0.1907
    4FIC    C29 9575   3.870  -0.229   3.702 -0.5089  0.2170  0.2517
    4FIC    C30 9576   3.870  -0.363   3.751 -0.5462  0.2303  0.2886
    4FIC    C31 9577   3.910  -0.131   3.798 -0.6780  0.2542  0.2835
    5FIC     F1 9578   2.993   1.056   2.191  0.1333  0.0388 -0.1794
    5FIC     F2 9579   2.931   1.319   2.163  0.1748  0.0552 -0.1177
    5FIC     O1 9580   3.361   1.078   2.588  0.0358 -0.1259 -0.0794
    5FIC     N5 9581   3.104   1.714   2.406  0.1650 -0.0386  0.0424
    5FIC     N6 9582   3.403   1.679   2.722  0.0804 -0.1705  0.1081
    5FIC    C19 9583   3.432   1.338   2.702  0.0408 -0.1686  0.0151
    5FIC    C20 9584   3.342   1.322   2.604  0.0637 -0.1279 -0.0125
    5FIC    C21 9585   3.310   1.185   2.550  0.0594 -0.1081 -0.0606
    5FIC    C22 9586   3.209   1.204   2.445  0.0885 -0.0638 -0.0809
    5FIC    C23 9587   3.149   1.106   2.366  0.0955 -0.0330 -0.1249
    5FIC    C24 9588   3.056   1.147   2.272  0.1248  0.0068 -0.1363
    5FIC    C25 9589   3.024   1.283   2.258  0.1461  0.0151 -0.1045
    5FIC    C26 9590   3.084   1.382   2.336  0.1392 -0.0154 -0.0605
    5FIC    C27 9591   3.178   1.341   2.432  0.1098 -0.0559 -0.0482
    5FIC    C28 9592   3.259   1.420   2.529  0.0954 -0.0949 -0.0049
    5FIC    C29 9593   3.256   1.556   2.546  0.1088 -0.0996  0.0346
    5FIC    C30 9594   3.172   1.643   2.469  0.1397 -0.0660  0.0388
    5FIC    C31 9595   3.337   1.623   2.643  0.0931 -0.1386  0.0748
    1BTD     S2 9596   2.759   1.166   1.207  0.0957  0.2080  0.1853
    1BTD     N1 9597   2.771   0.986   1.207  0.4982  0.2315  0.0144
    1BTD     N2 9598   2.825   1.185   1.374 -0.3937  0.1721  0.3845
    1BTD     N3 9599   2.978   0.899   1.713 -0.6642  0.1416  0.4818
    1BTD     N4 9600   2.912   0.655   1.508  0.4349  0.2148  0.0257
    1BTD     C5 9601   2.845   0.816   1.367  0.4519  0.2219  0.0258
    1BTD     C6 9602   2.820   0.952   1.325  0.2595  0.2125  0.1096
    1BTD     C7 9603   2.850   1.063   1.418 -0.2398  0.1792  0.3168
    1BTD     C8 9604   2.904   1.033   1.548 -0.5217  0.1571  0.4298
    1BTD    C15 9605   2.927   0.899   1.585 -0.3183  0.1674  0.3416
    1BTD    C16 9606   2.898   0.792   1.495  0.1627  0.1994  0.1419
    1BTD    C43 9607   2.988   0.578   1.606  0.7425 -0.0415  0.2547
    1BTD    C44 9608   3.142   0.588   1.584 -0.4352 -0.1288  0.2063
    1BTD    C45 9609   3.221   0.546   1.712 -0.2526 -0.1271  0.6996
    1BTD    C46 9610   3.371   0.571   1.728  0.1153 -0.5398 -0.0782
    1BTD    C47 9611   3.201   0.542   1.453 -0.0972  0.7812  1.0642
    1BTD    C48 9612   3.222   0.399   1.431 -0.3998  0.7346 -0.3880
    1BTD    C49 9613   3.278   0.369   1.294 -0.1404 -0.6586  0.2043
    1BTD    C50 9614   3.212   0.233   1.263  0.0318  0.4639  0.1844
    1BTD    C75 9615   2.968   0.800   1.822 -0.5037 -0.0509 -0.0553
    1BTD    C76 9616   2.847   0.805   1.914  0.2146 -0.3587  0.4645
    1BTD    C77 9617   2.857   0.690   2.021 -0.0717 -0.7282 -0.2818
    1BTD    C78 9618   2.975   0.707   2.128  0.3162 -0.0094  0.0137
    1BTD    C79 9619   2.789   0.943   1.965 -0.1406 -0.4452 -0.9399
    1BTD    C80 9620   2.673   0.936   2.064 -0.4708 -0.1806  0.3054
    1BTD    C81 9621   2.645   1.074   2.112  0.0523 -0.7500 -0.3887
    1BTD    C82 9622   2.555   1.075   2.235 -0.0100 -0.1079 -0.4062
    2TTP     S1 9623   2.783   0.614   1.141  0.0794 -0.0464 -0.2613
    2TTP     S5 9624   2.881   0.296   1.412  0.2255  0.1859 -0.0404
    2TTP     C1 9625   2.841   0.224   1.250 -0.0195  0.0358  0.0860
    2TTP     C2 9626   2.808   0.318   1.157 -0.0790 -0.0447  0.0253
    2TTP     C3 9627   2.814   0.450   1.210  0.0668  0.0091 -0.1233
    2TTP     C4 9628   2.824   0.687   1.303  0.3244  0.1036 -0.3877
    2TTP    C17 9629   2.856   0.593   1.396  0.3839  0.1842 -0.3269
    2TTP    C18 9630   2.850   0.460   1.343  0.2382  0.1304 -0.1784
    2TTP    C32 9631   2.774   0.293   1.010  0.3099 -0.4454 -0.2405
    2TTP    C33 9632   2.637   0.342   0.971  0.2554  0.0629  0.1079
    2TTP    C34 9633   2.512   0.274   1.041 -0.1781  0.1947  0.3083
    2TTP    C35 9634   2.497   0.120   1.058 -0.8640  0.6309  0.3159
    2TTP    C36 9635   2.496   0.045   0.917 -0.4303 -0.2821 -0.1382
    2TTP    C37 9636   2.464  -0.101   0.926  0.4343  0.2219 -0.2511
    2TTP    C38 9637   2.434  -0.169   0.792  0.2449  0.4121  0.2356
    2TTP    C39 9638   2.547  -0.188   0.692  0.2938  0.3791  0.8842
    2TTP    C40 9639   2.498  -0.253   0.558 -0.1504 -0.5094 -0.7869
    2TTP    C41 9640   2.606  -0.269   0.452  0.0242 -0.0998  0.0736
    2TTP    C42 9641   2.558  -0.320   0.318  0.0604 -0.6690 -0.3337
    3TTP     S1 9642   2.994   1.285   1.678 -0.1577 -0.3640 -0.1002
    3TTP     S5 9643   3.223   1.053   1.959 -0.0051 -0.2184 -0.1042
    3TTP     C1 9644   3.268   1.228   1.978 -0.0089 -0.2062 -0.2064
    3TTP     C2 9645   3.200   1.310   1.892 -0.0561 -0.2505 -0.2111
    3TTP     C3 9646   3.110   1.238   1.809 -0.0913 -0.2956 -0.1343
    3TTP     C4 9647   2.949   1.110   1.659 -0.1540 -0.3762  0.0020
    3TTP    C17 9648   3.017   1.028   1.745 -0.1067 -0.3320  0.0068
    3TTP    C18 9649   3.107   1.101   1.828 -0.0716 -0.2868 -0.0701
    3TTP    C32 9650   3.211   1.468   1.877  0.0342  0.2614 -0.0480
    3TTP    C33 9651   3.105   1.546   1.947 -0.1808 -0.1502 -0.1799
    3TTP    C34 9652   3.097   1.691   1.928 -0.0468  0.4590  0.7805
    3TTP    C35 9653   2.993   1.761   2.008  0.3209 -0.7050 -0.0570
    3TTP    C36 9654   3.008   1.921   1.982  0.5034  0.2439 -0.1605
    3TTP    C37 9655   2.984   1.969   1.837 -0.1500 -0.3160  0.1586
    3TTP    C38 9656   2.841   1.957   1.792  0.0889 -0.3432  0.2116
    3TTP    C39 9657   2.826   1.978   1.640 -0.3381  0.7501 -0.6186
    3TTP    C40 9658   2.685   1.962   1.587 -0.6215 -0.0572  1.1294
    3TTP    C41 9659   2.695   1.974   1.433 -0.0719  0.4895  0.1576
    3TTP    C42 9660   2.572   1.917   1.373  0.8476 -0.4771  0.6834
    4FIC     F1 9661   2.877  -0.475   1.685 -0.2280 -0.2263  0.1123
    4FIC     F2 9662   2.941  -0.606   1.455 -0.1448 -0.2406  0.1439
    4FIC     O1 9663   2.809   0.029   1.500  0.0658 -0.1936  0.0927
    4FIC     N5 9664   2.985  -0.435   0.993  0.1845 -0.2379  0.1753
    4FIC     N6 9665   2.919  -0.015   0.894  0.3974 -0.2097  0.1536
    4FIC    C19 9666   2.846   0.083   1.214  0.2498 -0.1958  0.1158
    4FIC    C20 9667   2.861  -0.039   1.270  0.1726 -0.2034  0.1195
    4FIC    C21 9668   2.840  -0.059   1.417  0.0805 -0.2017  0.1070
    4FIC    C22 9669   2.864  -0.202   1.444  0.0120 -0.2115  0.1150
    4FIC    C23 9670   2.856  -0.267   1.567 -0.0829 -0.2136  0.1082
    4FIC    C24 9671   2.883  -0.404   1.567 -0.1339 -0.2234  0.1183
    4FIC    C25 9672   2.916  -0.471   1.449 -0.0908 -0.2309  0.1345
    4FIC    C26 9673   2.923  -0.406   1.327  0.0038 -0.2289  0.1414
    4FIC    C27 9674   2.897  -0.268   1.324  0.0566 -0.2189  0.1314
    4FIC    C28 9675   2.896  -0.171   1.212  0.1570 -0.2141  0.1349
    4FIC    C29 9676   2.924  -0.198   1.080  0.2229 -0.2191  0.1494
    4FIC    C30 9677   2.957  -0.328   1.033  0.2016 -0.2296  0.1636
    4FIC    C31 9678   2.921  -0.097   0.979  0.3186 -0.2139  0.1516
    5FIC     F1 9679   3.776   0.900   2.537  0.1516  0.1979  0.0085
    5FIC     F2 9680   3.832   1.152   2.624 -0.2722  0.2935  0.0108
    5FIC     O1 9681   3.434   1.006   2.131  0.2546 -0.3584 -0.2244
    5FIC     N5 9682   3.670   1.589   2.459 -0.8079  0.0344 -0.1519
    5FIC     N6 9683   3.391   1.621   2.124 -0.6420 -0.4195 -0.3343
    5FIC    C19 9684   3.366   1.284   2.069 -0.1136 -0.4647 -0.3050
    5FIC    C20 9685   3.450   1.248   2.168 -0.1230 -0.3285 -0.2465
    5FIC    C21 9686   3.480   1.102   2.194  0.0733 -0.2819 -0.2078
    5FIC    C22 9687   3.574   1.098   2.307  0.0073 -0.1286 -0.1472
    5FIC    C23 9688   3.630   0.986   2.367  0.1340 -0.0386 -0.0961
    5FIC    C24 9689   3.717   1.007   2.473  0.0357  0.1029 -0.0436
    5FIC    C25 9690   3.746   1.137   2.518 -0.1826  0.1519 -0.0425
    5FIC    C26 9691   3.690   1.250   2.459 -0.3100  0.0627 -0.0933
    5FIC    C27 9692   3.602   1.230   2.351 -0.2134 -0.0809 -0.1469
    5FIC    C28 9693   3.527   1.327   2.267 -0.3021 -0.2018 -0.2078
    5FIC    C29 9694   3.529   1.464   2.279 -0.5104 -0.1971 -0.2252
    5FIC    C30 9695   3.606   1.532   2.378 -0.6733 -0.0699 -0.1848
    5FIC    C31 9696   3.453   1.550   2.193 -0.5816 -0.3195 -0.2851
    1BTD     S2 9697   5.664   1.423   2.645 -0.1865 -0.1738  0.0019
    1BTD     N1 9698   5.642   1.601   2.641 -0.2061 -0.1749  0.0488
    1BTD     N2 9699   5.618   1.398   2.473 -0.0571 -0.1194 -0.0402
    1BTD     N3 9700   5.487   1.670   2.114  0.1706 -0.0105 -0.0417
    1BTD     N4 9701   5.516   1.920   2.320 -0.0131 -0.0790  0.0679
    1BTD     C5 9702   5.576   1.765   2.471 -0.1034 -0.1241  0.0575
    1BTD     C6 9703   5.604   1.631   2.517 -0.1200 -0.1367  0.0315
    1BTD     C7 9704   5.591   1.518   2.423 -0.0366 -0.1056 -0.0184
    1BTD     C8 9705   5.550   1.543   2.288  0.0597 -0.0634 -0.0396
    1BTD    C15 9706   5.524   1.675   2.247  0.0725 -0.0524 -0.0128
    1BTD    C16 9707   5.536   1.785   2.337 -0.0081 -0.0824  0.0352
    1BTD    C43 9708   5.453   2.002   2.210 -0.7049 -0.1426 -0.0293
    1BTD    C44 9709   5.303   2.041   2.229  0.1644 -0.0168  0.7064
    1BTD    C45 9710   5.221   1.917   2.244 -0.2852 -0.4625  0.2961
    1BTD    C46 9711   5.067   1.925   2.280 -0.7929 -0.2041 -0.1547
    1BTD    C47 9712   5.245   2.134   2.124  0.8245 -0.8095 -0.0930
    1BTD    C48 9713   5.315   2.268   2.114  0.0833  0.0292  0.1974
    1BTD    C49 9714   5.213   2.380   2.072 -0.3324 -0.6513  0.7516
    1BTD    C50 9715   5.284   2.521   2.063 -0.2240  0.3324  0.3203
    1BTD    C75 9716   5.544   1.753   2.003  0.1930  0.3894  0.1367
    1BTD    C76 9717   5.487   1.776   1.865 -1.0217  0.1312  0.1133
    1BTD    C77 9718   5.361   1.855   1.866 -0.1421  0.8276  0.2190
    1BTD    C78 9719   5.290   1.867   1.731 -0.0219  0.6649 -0.4096
    1BTD    C79 9720   5.595   1.831   1.763  0.7131 -0.8231  0.1291
    1BTD    C80 9721   5.732   1.768   1.747 -0.2837 -0.2564 -0.4435
    1BTD    C81 9722   5.730   1.621   1.710 -0.4072 -0.4501 -0.0646
    1BTD    C82 9723   5.871   1.545   1.688  0.2829  0.1685  0.2949
    2TTP     S1 9724   5.605   1.962   2.700  0.1439  0.1223  0.0342
    2TTP     S5 9725   5.458   2.273   2.442 -0.1746  0.0505  0.1287
    2TTP     C1 9726   5.482   2.342   2.609 -0.3334  0.0015  0.1719
    2TTP     C2 9727   5.528   2.250   2.698 -0.2443  0.0207  0.1452
    2TTP     C3 9728   5.547   2.122   2.639 -0.0477  0.0749  0.0897
    2TTP     C4 9729   5.582   1.893   2.534  0.3024  0.1714 -0.0090
    2TTP    C17 9730   5.535   1.985   2.444  0.2134  0.1521  0.0176
    2TTP    C18 9731   5.516   2.113   2.504  0.0167  0.0978  0.0731
    2TTP    C32 9732   5.561   2.280   2.844 -0.4001 -0.5552  0.7407
    2TTP    C33 9733   5.706   2.258   2.881 -0.3429 -0.7122 -0.7909
    2TTP    C34 9734   5.813   2.347   2.829 -0.3033 -0.2041  0.3435
    2TTP    C35 9735   5.951   2.302   2.883  0.7772 -0.4023  0.0986
    2TTP    C36 9736   6.070   2.399   2.867 -0.3403 -0.1680  0.2159
    2TTP    C37 9737   6.113   2.442   2.730  0.5666 -0.3459  0.4228
    2TTP    C38 9738   6.248   2.507   2.719 -0.1598 -0.1852 -0.0206
    2TTP    C39 9739   6.294   2.568   2.578  0.4973 -0.2163 -0.5788
    2TTP    C40 9740   6.428   2.653   2.574  0.6094  0.3041  0.3031
    2TTP    C41 9741   6.475   2.688   2.431 -0.1300 -0.3625 -0.2938
    2TTP    C42 9742   6.578   2.808   2.426  0.0489  0.6115 -0.1559
    3TTP     S1 9743   5.487   1.282   2.164 -0.0090  0.3710  0.2367
    3TTP     S5 9744   5.291   1.493   1.845 -0.2298 -0.0505  0.0920
    3TTP     C1 9745   5.256   1.315   1.826  0.1067 -0.1191  0.1071
    3TTP     C2 9746   5.315   1.240   1.924  0.1947  0.0070  0.1527
    3TTP     C3 9747   5.389   1.319   2.016 -0.0005  0.1624  0.1774
    3TTP     C4 9748   5.522   1.459   2.182 -0.3455  0.4396  0.2217
    3TTP    C17 9749   5.463   1.535   2.084 -0.4335  0.3135  0.1761
    3TTP    C18 9750   5.389   1.455   1.992 -0.2383  0.1581  0.1514
    3TTP    C32 9751   5.320   1.081   1.938 -0.5304 -0.0848  0.8438
    3TTP    C33 9752   5.445   1.012   1.889 -0.0902  0.4028  0.7728
    3TTP    C34 9753   5.446   0.860   1.887 -0.5394  0.3841  0.2985
    3TTP    C35 9754   5.429   0.782   2.010  0.3411  0.0807  0.0912
    3TTP    C36 9755   5.466   0.633   1.987  0.1133 -0.4090  0.2866
    3TTP    C37 9756   5.427   0.538   2.098 -0.0247 -0.5312 -0.0626
    3TTP    C38 9757   5.473   0.394   2.072  0.0701  0.1463  0.6201
    3TTP    C39 9758   5.378   0.311   1.984  0.1771  0.5602 -1.1637
    3TTP    C40 9759   5.408   0.153   1.991  0.6764  0.2188 -0.7002
    3TTP    C41 9760   5.316   0.074   1.902 -0.0941  1.0112 -0.1480
    3TTP    C42 9761   5.335  -0.083   1.918 -0.4179 -0.2731  0.3345
    4FIC     F1 9762   5.438   3.051   2.193  0.1121 -0.0322 -0.0977
    4FIC     F2 9763   5.385   3.178   2.428 -0.1224 -0.0978 -0.1147
    4FIC     O1 9764   5.502   2.541   2.364  0.2524 -0.0274 -0.1350
    4FIC     N5 9765   5.354   2.998   2.887 -0.3595 -0.1884 -0.1659
    4FIC     N6 9766   5.415   2.574   2.974 -0.2027 -0.1713 -0.1917
    4FIC    C19 9767   5.474   2.482   2.650  0.0782 -0.0881 -0.1647
    4FIC    C20 9768   5.460   2.605   2.597  0.0521 -0.0869 -0.1546
    4FIC    C21 9769   5.476   2.628   2.450  0.1465 -0.0546 -0.1395
    4FIC    C22 9770   5.454   2.772   2.427  0.0883 -0.0620 -0.1314
    4FIC    C23 9771   5.459   2.840   2.306  0.1398 -0.0399 -0.1171
    4FIC    C24 9772   5.435   2.977   2.309  0.0669 -0.0527 -0.1117
    4FIC    C25 9773   5.408   3.042   2.430 -0.0539 -0.0864 -0.1205
    4FIC    C26 9774   5.403   2.975   2.551 -0.1060 -0.1085 -0.1349
    4FIC    C27 9775   5.427   2.836   2.550 -0.0334 -0.0961 -0.1405
    4FIC    C28 9776   5.429   2.736   2.660 -0.0606 -0.1127 -0.1550
    4FIC    C29 9777   5.407   2.761   2.793 -0.1692 -0.1457 -0.1668
    4FIC    C30 9778   5.378   2.891   2.844 -0.2735 -0.1691 -0.1662
    4FIC    C31 9779   5.411   2.658   2.892 -0.1869 -0.1596 -0.1804
    5FIC     F1 9780   4.728   1.577   1.248  0.1341 -0.0326  0.1407
    5FIC     F2 9781   4.663   1.317   1.199  0.0794 -0.0105  0.0949
    5FIC     O1 9782   5.092   1.520   1.644  0.0721 -0.1755  0.1768
    5FIC     N5 9783   4.830   0.903   1.412 -0.0434 -0.0805  0.0548
    5FIC     N6 9784   5.127   0.910   1.732 -0.0807 -0.1966  0.0922
    5FIC    C19 9785   5.159   1.251   1.739 -0.0020 -0.2051  0.1459
    5FIC    C20 9786   5.070   1.275   1.641  0.0156 -0.1700  0.1386
    5FIC    C21 9787   5.041   1.416   1.598  0.0539 -0.1568  0.1555
    5FIC    C22 9788   4.940   1.407   1.490  0.0650 -0.1177  0.1419
    5FIC    C23 9789   4.882   1.512   1.419  0.0981 -0.0937  0.1500
    5FIC    C24 9790   4.789   1.479   1.322  0.1022 -0.0577  0.1338
    5FIC    C25 9791   4.756   1.345   1.297  0.0740 -0.0464  0.1102
    5FIC    C26 9792   4.814   1.240   1.367  0.0409 -0.0702  0.1020
    5FIC    C27 9793   4.908   1.271   1.467  0.0361 -0.1067  0.1181
    5FIC    C28 9794   4.987   1.185   1.558  0.0048 -0.1384  0.1152
    5FIC    C29 9795   4.982   1.048   1.565 -0.0281 -0.1385  0.0946
    5FIC    C30 9796   4.898   0.968   1.481 -0.0364 -0.1066  0.0728
    5FIC    C31 9797   5.062   0.973   1.656 -0.0569 -0.1705  0.0935
    1BTD     S2 9798   4.467   1.431   0.182 -0.2467 -0.0723  0.1315
    1BTD     N1 9799   4.482   1.609   0.197 -0.0952 -0.0796  0.0755
    1BTD     N2 9800   4.531   1.397   0.347 -0.2115 -0.0772  0.1170
    1BTD     N3 9801   4.686   1.651   0.710  0.1343 -0.1005 -0.0139
    1BTD     N4 9802   4.626   1.913   0.525  0.2775 -0.1034 -0.0650
    1BTD     C5 9803   4.558   1.764   0.371  0.0978 -0.0920  0.0028
    1BTD     C6 9804   4.531   1.633   0.318 -0.0294 -0.0850  0.0501
    1BTD     C7 9805   4.558   1.515   0.402 -0.0945 -0.0837  0.0734
    1BTD     C8 9806   4.611   1.533   0.535 -0.0292 -0.0894  0.0480
    1BTD    C15 9807   4.636   1.663   0.582  0.0953 -0.0961  0.0017
    1BTD    C16 9808   4.610   1.777   0.501  0.1580 -0.0974 -0.0206
    1BTD    C43 9809   4.728   1.982   0.609 -0.6709 -0.1402  0.4867
    1BTD    C44 9810   4.885   2.005   0.574  0.5872  0.0423  0.6874
    1BTD    C45 9811   4.979   2.039   0.688  0.5034  0.2306 -0.3408
    1BTD    C46 9812   4.988   1.949   0.810  0.3629 -0.0823 -0.5465
    1BTD    C47 9813   4.919   2.083   0.442 -0.1161 -0.8314  0.2099
    1BTD    C48 9814   4.929   2.237   0.442  0.4474 -0.1679  1.7836
    1BTD    C49 9815   4.983   2.285   0.308 -0.1421  0.3592 -0.0342
    1BTD    C50 9816   4.988   2.435   0.285  0.1199 -0.7037 -0.0389
    1BTD    C75 9817   4.693   1.757   0.820 -1.1117 -1.3074  0.4225
    1BTD    C76 9818   4.564   1.785   0.897 -0.2151 -0.5137  0.6305
    1BTD    C77 9819   4.584   1.902   0.999  0.4174 -0.1334  0.6593
    1BTD    C78 9820   4.680   1.896   1.111 -0.0127  0.4555  0.2366
    1BTD    C79 9821   4.512   1.663   0.967 -0.3254  0.0962 -0.2992
    1BTD    C80 9822   4.377   1.677   1.030 -0.1972 -0.4345  0.2710
    1BTD    C81 9823   4.338   1.560   1.109 -0.0164  0.0396 -0.3258
    1BTD    C82 9824   4.415   1.543   1.243  0.1025 -0.0071  0.0382
    2TTP     S1 9825   4.463   1.978   0.172  0.3430  0.1345 -0.1497
    2TTP     S5 9826   4.557   2.283   0.460  0.0221  0.2258 -0.1416
    2TTP     C1 9827   4.477   2.361   0.317  0.0725  0.1649 -0.2030
    2TTP     C2 9828   4.444   2.272   0.219  0.1746  0.1330 -0.2091
    2TTP     C3 9829   4.480   2.138   0.254  0.2167  0.1557 -0.1655
    2TTP     C4 9830   4.543   1.899   0.315  0.2927  0.1955 -0.0883
    2TTP    C17 9831   4.576   1.989   0.413  0.1906  0.2273 -0.0822
    2TTP    C18 9832   4.541   2.122   0.378  0.1484  0.2046 -0.1258
    2TTP    C32 9833   4.375   2.286   0.085 -0.3394  0.1196 -0.0936
    2TTP    C33 9834   4.252   2.374   0.077  0.4119  0.0841  0.6256
    2TTP    C34 9835   4.185   2.363  -0.058  0.1034  0.1569 -0.5311
    2TTP    C35 9836   4.272   2.417  -0.167  0.4363 -0.0790  0.2085
    2TTP    C36 9837   4.185   2.467  -0.280 -0.0345 -0.0048  0.0673
    2TTP    C37 9838   4.253   2.458  -0.416  0.0566  0.5900  0.0641
    2TTP    C38 9839   4.215   2.558  -0.530  0.4771 -0.3288  0.0983
    2TTP    C39 9840   4.227   2.710  -0.495  0.4795 -0.0509  0.1016
    2TTP    C40 9841   4.192   2.817  -0.601 -0.6502  0.3682 -0.6938
    2TTP    C41 9842   4.219   2.960  -0.561 -0.3765  0.3355 -0.0578
    2TTP    C42 9843   4.167   3.048  -0.669 -0.1319 -0.6671  0.3220
    3TTP     S1 9844   4.728   1.269   0.644 -0.1053 -0.1065  0.0318
    3TTP     S5 9845   4.899   1.484   0.975 -0.0739  0.0150 -0.0631
    3TTP     C1 9846   4.954   1.311   0.984 -0.2493 -0.0330  0.1189
    3TTP     C2 9847   4.905   1.234   0.882 -0.2694 -0.0733  0.1590
    3TTP     C3 9848   4.821   1.310   0.793 -0.1469 -0.0678  0.0473
    3TTP     C4 9849   4.673   1.442   0.635  0.0702 -0.0585 -0.1502
    3TTP    C17 9850   4.722   1.519   0.737  0.0903 -0.0182 -0.1903
    3TTP    C18 9851   4.806   1.444   0.826 -0.0322 -0.0237 -0.0786
    3TTP    C32 9852   4.927   1.085   0.852 -0.0248  0.0759 -0.5509
    3TTP    C33 9853   4.811   0.989   0.808  0.0160 -0.0827 -0.1746
    3TTP    C34 9854   4.695   0.976   0.900  0.0748  0.5793 -0.1664
    3TTP    C35 9855   4.734   0.892   1.019 -0.5209  0.4771 -0.5447
    3TTP    C36 9856   4.788   0.754   1.002  1.1482  0.2885 -0.0351
    3TTP    C37 9857   4.687   0.647   0.945  0.1310  0.4286  0.0731
    3TTP    C38 9858   4.744   0.506   0.934 -0.2883  0.4268 -0.3911
    3TTP    C39 9859   4.641   0.402   0.895  0.9585  0.0373  0.8032
    3TTP    C40 9860   4.688   0.267   0.841 -0.0107  0.1600 -0.0077
    3TTP    C41 9861   4.593   0.143   0.834 -0.7463 -0.7827  0.4065
    3TTP    C42 9862   4.567   0.102   0.689 -0.1591 -0.0754 -0.1599
    4FIC     F1 9863   4.443   2.985   0.846 -0.2940  0.0455 -0.0276
    4FIC     F2 9864   4.417   3.156   0.635  0.0796  0.0772 -0.0491
    4FIC     O1 9865   4.466   2.509   0.589 -0.4356  0.0354 -0.0216
    4FIC     N5 9866   4.397   3.061   0.150  0.5156  0.1153 -0.0758
    4FIC     N6 9867   4.420   2.655  -0.008  0.3296  0.1010 -0.0668
    4FIC    C19 9868   4.450   2.502   0.297 -0.1290  0.0620 -0.0400
    4FIC    C20 9869   4.445   2.616   0.370 -0.1079  0.0633 -0.0407
    4FIC    C21 9870   4.454   2.611   0.520 -0.2722  0.0491 -0.0309
    4FIC    C22 9871   4.446   2.750   0.567 -0.2009  0.0547 -0.0344
    4FIC    C23 9872   4.450   2.796   0.698 -0.3012  0.0458 -0.0282
    4FIC    C24 9873   4.440   2.933   0.718 -0.2033  0.0537 -0.0333
    4FIC    C25 9874   4.427   3.021   0.610 -0.0108  0.0699 -0.0444
    4FIC    C26 9875   4.423   2.976   0.478  0.0902  0.0789 -0.0507
    4FIC    C27 9876   4.432   2.837   0.456 -0.0066  0.0710 -0.0456
    4FIC    C28 9877   4.431   2.758   0.331  0.0582  0.0771 -0.0499
    4FIC    C29 9878   4.420   2.807   0.203  0.2377  0.0924 -0.0604
    4FIC    C30 9879   4.407   2.947   0.174  0.3899  0.1049 -0.0688
    4FIC    C31 9880   4.420   2.723   0.088  0.2873  0.0970 -0.0639
    5FIC     F1 9881   5.450   1.611   1.569  0.1477 -0.0158 -0.1645
    5FIC     F2 9882   5.509   1.355   1.642 -0.2385 -0.0257  0.1167
    5FIC     O1 9883   5.111   1.524   1.156  0.2508  0.0420 -0.2612
    5FIC     N5 9884   5.351   0.926   1.452 -0.7201  0.0012  0.4520
    5FIC     N6 9885   5.075   0.910   1.114 -0.5616  0.0483  0.3197
    5FIC    C19 9886   5.047   1.249   1.078 -0.0814  0.0530 -0.0270
    5FIC    C20 9887   5.130   1.281   1.180 -0.0921  0.0389 -0.0136
    5FIC    C21 9888   5.158   1.425   1.213  0.0851  0.0340 -0.1390
    5FIC    C22 9889   5.252   1.424   1.327  0.0223  0.0181 -0.0878
    5FIC    C23 9890   5.306   1.533   1.393  0.1358  0.0088 -0.1656
    5FIC    C24 9891   5.393   1.507   1.499  0.0441 -0.0059 -0.0940
    5FIC    C25 9892   5.423   1.375   1.536 -0.1548 -0.0110  0.0509
    5FIC    C26 9893   5.368   1.265   1.471 -0.2689 -0.0018  0.1291
    5FIC    C27 9894   5.281   1.290   1.364 -0.1787  0.0132  0.0585
    5FIC    C28 9895   5.207   1.197   1.274 -0.2570  0.0257  0.1099
    5FIC    C29 9896   5.210   1.060   1.279 -0.4461  0.0252  0.2459
    5FIC    C30 9897   5.288   0.987   1.374 -0.5962  0.0120  0.3587
    5FIC    C31 9898   5.136   0.978   1.188 -0.5085  0.0379  0.2857
    1BTD     S2 9899   3.525   9.189   1.178  0.1401  0.0091  0.0643
    1BTD     N1 9900   3.532   9.011   1.197 -0.6043 -0.0067  0.2542
    1BTD     N2 9901   3.570   9.225   1.349  0.8131  0.0224 -0.1083
    1BTD     N3 9902   3.673   8.973   1.731  0.8404  0.0200 -0.1172
    1BTD     N4 9903   3.627   8.710   1.545 -0.9062 -0.0153  0.3294
    1BTD     C5 9904   3.582   8.857   1.381 -0.7408 -0.0110  0.2881
    1BTD     C6 9905   3.566   8.988   1.323 -0.3272 -0.0017  0.1828
    1BTD     C7 9906   3.587   9.107   1.408  0.4662  0.0145 -0.0201
    1BTD     C8 9907   3.623   9.090   1.546  0.8062  0.0205 -0.1076
    1BTD    C15 9908   3.638   8.960   1.598  0.3797  0.0112  0.0010
    1BTD    C16 9909   3.618   8.845   1.517 -0.3848 -0.0042  0.1965
    1BTD    C43 9910   3.683   8.634   1.659 -0.3579  0.1265 -0.1167
    1BTD    C44 9911   3.833   8.582   1.654  0.5923  0.3170  0.0711
    1BTD    C45 9912   3.943   8.663   1.587 -0.2897 -0.2536 -0.3309
    1BTD    C46 9913   3.999   8.788   1.654  0.2514 -0.1527  0.7562
    1BTD    C47 9914   3.860   8.516   1.794 -0.2870 -0.4172  0.0135
    1BTD    C48 9915   4.000   8.462   1.820 -0.6468  0.1060 -0.6282
    1BTD    C49 9916   4.050   8.337   1.749 -0.1877 -0.2856 -0.0941
    1BTD    C50 9917   4.009   8.198   1.804  0.3620 -0.0533 -0.3259
    1BTD    C75 9918   3.607   8.890   1.832  0.1242  0.3046 -0.0086
    1BTD    C76 9919   3.653   8.875   1.981  0.4911 -0.3642 -0.4909
    1BTD    C77 9920   3.792   8.815   1.987  0.0011 -0.3671 -0.5314
    1BTD    C78 9921   3.858   8.793   2.125 -0.7298  0.1225 -0.6363
    1BTD    C79 9922   3.533   8.805   2.050 -0.1071  0.0102 -0.4061
    1BTD    C80 9923   3.390   8.851   2.059  0.2203 -0.3205 -0.1684
    1BTD    C81 9924   3.386   8.995   2.119  0.2293 -0.0160 -0.0486
    1BTD    C82 9925   3.248   9.029   2.178 -0.3096  0.3841 -0.2583
    2TTP     S1 9926   3.557   8.639   1.163  0.2872 -0.0750 -0.2124
    2TTP     S5 9927   3.684   8.348   1.452 -0.2414  0.0627  0.1611
    2TTP     C1 9928   3.670   8.266   1.290  0.0136 -0.0240  0.1808
    2TTP     C2 9929   3.630   8.351   1.191  0.1919 -0.0720  0.0667
    2TTP     C3 9930   3.609   8.484   1.240  0.1335 -0.0410 -0.0405
    2TTP     C4 9931   3.572   8.721   1.324  0.0323  0.0119 -0.2322
    2TTP    C17 9932   3.612   8.636   1.423 -0.1460  0.0599 -0.1180
    2TTP    C18 9933   3.633   8.503   1.375 -0.0877  0.0296 -0.0108
    2TTP    C32 9934   3.607   8.324   1.043  0.5621 -0.3014 -0.4436
    2TTP    C33 9935   3.457   8.314   1.010  0.2588 -0.5066 -0.2164
    2TTP    C34 9936   3.435   8.313   0.864  0.0773  0.2787  0.1821
    2TTP    C35 9937   3.289   8.295   0.812  0.3755  0.1084  0.0864
    2TTP    C36 9938   3.210   8.172   0.866  0.4275 -0.1726  0.6479
    2TTP    C37 9939   3.260   8.028   0.876 -0.1138 -0.4389  0.4020
    2TTP    C38 9940   3.164   7.923   0.940  0.0151 -0.7007  0.5370
    2TTP    C39 9941   3.141   7.954   1.093  0.3283 -0.0600  0.3464
    2TTP    C40 9942   3.070   7.855   1.183 -0.1967 -0.5147 -0.3377
    2TTP    C41 9943   3.120   7.708   1.194 -0.0234  0.4739 -0.2346
    2TTP    C42 9944   3.039   7.631   1.298  0.3425 -0.2837  0.2604
    3TTP     S1 9945   3.688   9.358   1.669 -0.0841 -0.0704  0.0931
    3TTP     S5 9946   3.890   9.150   1.987  0.1876 -0.2337 -0.1863
    3TTP     C1 9947   3.934   9.326   1.996 -0.0575 -0.1834  0.0618
    3TTP     C2 9948   3.875   9.401   1.898 -0.1559 -0.1299  0.1627
    3TTP     C3 9949   3.792   9.322   1.813 -0.0411 -0.1271  0.0477
    3TTP     C4 9950   3.644   9.182   1.660  0.1609 -0.1209 -0.1550
    3TTP    C17 9951   3.703   9.107   1.758  0.2594 -0.1742 -0.2559
    3TTP    C18 9952   3.786   9.186   1.843  0.1447 -0.1771 -0.1409
    3TTP    C32 9953   3.880   9.551   1.864 -0.3394  0.1976 -0.2549
    3TTP    C33 9954   3.774   9.634   1.939  0.3027 -0.3437 -0.1338
    3TTP    C34 9955   3.769   9.784   1.908  0.1059 -0.3250 -0.2073
    3TTP    C35 9956   3.769   9.859   1.771 -0.4266  1.2309 -0.5461
    3TTP    C36 9957   3.655   9.813   1.687  0.0120  0.2955  0.7804
    3TTP    C37 9958   3.658   9.890   1.555 -0.5464 -0.1390 -0.5144
    3TTP    C38 9959   3.531   9.879   1.481 -0.2312 -0.0293 -0.2718
    3TTP    C39 9960   3.516   9.958   1.357  0.3161 -0.1338 -0.3081
    3TTP    C40 9961   3.377   9.939   1.292  0.3507  0.0443  0.5296
    3TTP    C41 9962   3.350  10.042   1.177 -0.4494  0.7228 -0.1962
    3TTP    C42 9963   3.214  10.027   1.105 -0.0878  0.3602 -0.8181
    4FIC     F1 9964   3.842   7.590   1.727 -0.2285 -0.1085 -0.1916
    4FIC     F2 9965   3.895   7.461   1.493 -0.0566  0.0091 -0.2188
    4FIC     O1 9966   3.703   8.080   1.543 -0.2471 -0.0627 -0.0552
    4FIC     N5 9967   3.871   7.624   1.026  0.1773  0.2112 -0.1605
    4FIC     N6 9968   3.752   8.033   0.930  0.1281  0.2236 -0.0484
    4FIC    C19 9969   3.704   8.130   1.255 -0.0895  0.0664 -0.0326
    4FIC    C20 9970   3.737   8.012   1.310 -0.0914  0.0501 -0.0659
    4FIC    C21 9971   3.734   7.994   1.459 -0.1750 -0.0169 -0.0755
    4FIC    C22 9972   3.775   7.855   1.485 -0.1543 -0.0180 -0.1134
    4FIC    C23 9973   3.788   7.792   1.608 -0.2108 -0.0701 -0.1342
    4FIC    C24 9974   3.828   7.659   1.608 -0.1762 -0.0594 -0.1695
    4FIC    C25 9975   3.855   7.592   1.488 -0.0876  0.0013 -0.1834
    4FIC    C26 9976   3.843   7.655   1.364 -0.0308  0.0532 -0.1629
    4FIC    C27 9977   3.802   7.789   1.363 -0.0647  0.0435 -0.1270
    4FIC    C28 9978   3.779   7.883   1.250 -0.0226  0.0879 -0.0984
    4FIC    C29 9979   3.795   7.856   1.116  0.0638  0.1515 -0.1014
    4FIC    C30 9980   3.837   7.728   1.067  0.1259  0.1841 -0.1339
    4FIC    C31 9981   3.771   7.953   1.014  0.0987  0.1906 -0.0722
    5FIC     F1 9982   4.458   9.049   2.562 -0.0755  0.0887  0.2683
    5FIC     F2 9983   4.544   9.304   2.600  0.3920 -0.0060 -0.1363
    5FIC     O1 9984   4.083   9.123   2.179 -0.3011  0.2315  0.5159
    5FIC     N5 9985   4.401   9.724   2.382  0.9031 -0.0410 -0.5412
    5FIC     N6 9986   4.091   9.731   2.074  0.6325  0.0899 -0.2662
    5FIC    C19 9987   4.032   9.394   2.079  0.0653  0.1913  0.2174
    5FIC    C20 9988   4.123   9.365   2.174  0.1038  0.1590  0.1709
    5FIC    C21 9989   4.143   9.224   2.220 -0.0937  0.1826  0.3328
    5FIC    C22 9990   4.249   9.228   2.323  0.0083  0.1369  0.2310
    5FIC    C23 9991   4.302   9.121   2.395 -0.1066  0.1388  0.3188
    5FIC    C24 9992   4.401   9.150   2.487  0.0269  0.0899  0.1915
    5FIC    C25 9993   4.445   9.281   2.507  0.2677  0.0410 -0.0168
    5FIC    C26 9994   4.393   9.388   2.436  0.3835  0.0391 -0.1054
    5FIC    C27 9995   4.292   9.361   2.341  0.2513  0.0880  0.0210
    5FIC    C28 9996   4.217   9.451   2.250  0.3195  0.0997 -0.0242
    5FIC    C29 9997   4.231   9.587   2.239  0.5404  0.0625 -0.2112
    5FIC    C30 9998   4.324   9.662   2.318  0.7392  0.0057 -0.3920
    5FIC    C31 9999   4.154   9.666   2.149  0.5898  0.0775 -0.2403
    1BTD     S210000   4.742   9.212   3.565  0.0915 -0.0199  0.1853
    1BTD     N110001   4.725   9.033   3.565  0.1769 -0.0284  0.1469
    1BTD     N210002   4.670   9.233   3.402 -0.0838 -0.0026  0.2651
    1BTD     N310003   4.490   8.953   3.070 -0.2866  0.0162  0.3583
    1BTD     N410004   4.558   8.706   3.272  0.0349 -0.0153  0.2128
    1BTD     C510005   4.637   8.865   3.410  0.0988 -0.0210  0.1831
    1BTD     C610006   4.669   9.000   3.450  0.0758 -0.0186  0.1932
    1BTD     C710007   4.638   9.112   3.358 -0.0702 -0.0041  0.2593
    1BTD     C810008   4.577   9.084   3.231 -0.1856  0.0069  0.3121
    1BTD    C1510009   4.547   8.951   3.196 -0.1581  0.0043  0.2999
    1BTD    C1610010   4.577   8.843   3.284 -0.0175 -0.0097  0.2361
    1BTD    C4310011   4.470   8.638   3.177  0.2509  0.0841 -0.3963
    1BTD    C4410012   4.317   8.640   3.195  0.5438 -0.0486 -0.3692
    1BTD    C4510013   4.265   8.577   3.066  0.1457 -0.0251 -0.2821
    1BTD    C4610014   4.119   8.563   3.039  0.2502  0.5090  0.3234
    1BTD    C4710015   4.258   8.590   3.328 -0.4358  0.7762  0.3283
    1BTD    C4810016   4.267   8.443   3.367  0.4231 -0.2313  0.8199
    1BTD    C4910017   4.201   8.418   3.504  0.7377  0.7006  0.2595
    1BTD    C5010018   4.206   8.271   3.545 -0.1806  0.8456  0.3210
    1BTD    C7510019   4.506   8.853   2.958  0.4627  0.2499 -0.1652
    1BTD    C7610020   4.607   8.884   2.849  0.3069  0.2367  0.0732
    1BTD    C7710021   4.608   8.789   2.724 -0.2697 -0.2681  0.0615
    1BTD    C7810022   4.630   8.644   2.765  0.4590  0.0572 -0.2625
    1BTD    C7910023   4.742   8.936   2.905  0.0331 -0.5437  0.1058
    1BTD    C8010024   4.854   8.984   2.809  0.0335  0.3067 -0.0261
    1BTD    C8110025   4.824   9.117   2.730  0.6179 -0.0833 -0.2251
    1BTD    C8210026   4.786   9.239   2.815 -0.0063  0.1071 -1.2842
    2TTP     S110027   4.712   8.670   3.629  0.1565  0.1917  0.1720
    2TTP     S510028   4.571   8.341   3.391  0.0778  0.2592  0.1258
    2TTP     C110029   4.623   8.277   3.553  0.1695  0.2076  0.0763
    2TTP     C210030   4.670   8.375   3.636  0.1993  0.1843  0.0876
    2TTP     C310031   4.666   8.504   3.575  0.1508  0.2053  0.1359
    2TTP     C410032   4.659   8.734   3.467  0.0648  0.2434  0.2216
    2TTP    C1710033   4.613   8.636   3.384  0.0351  0.2670  0.2103
    2TTP    C1810034   4.617   8.507   3.445  0.0836  0.2456  0.1621
    2TTP    C3210035   4.711   8.360   3.781  0.3073  0.2640 -0.1463
    2TTP    C3310036   4.860   8.364   3.795 -0.5106 -0.0104  0.5427
    2TTP    C3410037   4.930   8.341   3.933  0.2825  0.5340  0.2130
    2TTP    C3510038   4.905   8.210   4.009  0.1269 -0.0443 -0.1161
    2TTP    C3610039   4.978   8.082   3.959 -0.6547 -0.0184  0.3023
    2TTP    C3710040   4.951   7.957   4.048 -0.5341  0.2465 -0.0713
    2TTP    C3810041   4.821   7.879   4.024 -0.5166  0.4706  0.7412
    2TTP    C3910042   4.813   7.771   4.121 -0.3574 -0.3793 -0.1337
    2TTP    C4010043   4.673   7.744   4.191  0.2330 -0.3918  0.1195
    2TTP    C4110044   4.599   7.864   4.253 -0.1336  0.1305  0.4510
    2TTP    C4210045   4.481   7.820   4.329  0.3535 -0.0305  0.0031
    3TTP     S110046   4.491   9.338   3.099 -0.3523  0.0156 -0.2470
    3TTP     S510047   4.275   9.114   2.802  0.0629 -0.1092 -0.4558
    3TTP     C110048   4.232   9.290   2.784 -0.2788 -0.1727 -0.2788
    3TTP     C210049   4.296   9.369   2.875 -0.4271 -0.1380 -0.2038
    3TTP     C310050   4.381   9.294   2.962 -0.2764 -0.0601 -0.2836
    3TTP     C410051   4.534   9.162   3.117 -0.0106  0.0792 -0.4241
    3TTP    C1710052   4.470   9.083   3.026  0.1375  0.0443 -0.4990
    3TTP    C1810053   4.384   9.158   2.939 -0.0132 -0.0339 -0.4193
    3TTP    C3210054   4.290   9.517   2.884 -0.7674  0.9008 -0.5752
    3TTP    C3310055   4.421   9.591   2.847 -1.0067 -0.7924  0.3737
    3TTP    C3410056   4.421   9.746   2.847 -0.0713  0.0794 -0.1360
    3TTP    C3510057   4.551   9.798   2.794  0.3041  0.2464 -0.1472
    3TTP    C3610058   4.541   9.942   2.750  0.2810  0.2386 -0.5071
    3TTP    C3710059   4.565  10.044   2.862 -0.4396 -0.4739  0.0342
    3TTP    C3810060   4.551  10.187   2.802  0.0475  0.1938 -0.4763
    3TTP    C3910061   4.552  10.298   2.908  0.1614  0.0493 -0.1617
    3TTP    C4010062   4.496  10.429   2.852 -0.0124 -0.8043 -0.1359
    3TTP    C4110063   4.528  10.554   2.936 -0.4454  0.1876 -0.0798
    3TTP    C4210064   4.462  10.683   2.888 -0.4656  0.8364  0.8285
    4FIC     F110065   4.657   7.548   3.171 -0.5968  0.2127 -0.0835
    4FIC     F210066   4.570   7.432   3.401  0.2201  0.1293  0.1903
    4FIC     O110067   4.689   8.067   3.323 -0.5600  0.2339 -0.1639
    4FIC     N510068   4.467   7.635   3.841  1.4210  0.0246  0.5264
    4FIC     N610069   4.509   8.064   3.913  1.2850  0.0579  0.4084
    4FIC    C1910070   4.617   8.140   3.597  0.2335  0.1615  0.0690
    4FIC    C2010071   4.612   8.014   3.550  0.1924  0.1595  0.0785
    4FIC    C2110072   4.651   7.984   3.407 -0.2260  0.1979 -0.0459
    4FIC    C2210073   4.634   7.839   3.389 -0.1600  0.1848  0.0004
    4FIC    C2310074   4.658   7.764   3.274 -0.4568  0.2096 -0.0784
    4FIC    C2410075   4.635   7.628   3.281 -0.3198  0.1900 -0.0118
    4FIC    C2510076   4.590   7.568   3.400  0.1012  0.1471  0.1293
    4FIC    C2610077   4.567   7.642   3.515  0.3990  0.1224  0.2085
    4FIC    C2710078   4.589   7.780   3.510  0.2663  0.1414  0.1429
    4FIC    C2810079   4.573   7.886   3.613  0.4996  0.1242  0.1965
    4FIC    C2910080   4.531   7.868   3.743  0.9199  0.0834  0.3299
    4FIC    C3010081   4.496   7.740   3.796  1.1940  0.0513  0.4375
    4FIC    C3110082   4.519   7.976   3.836  1.1183  0.0695  0.3724
    5FIC     F110083   3.651   8.959   2.309 -0.5856  0.1059  0.6379
    5FIC     F210084   3.613   9.204   2.196  0.1855 -0.1259 -0.1478
    5FIC     O110085   4.039   9.073   2.669 -0.5426  0.1335  0.5829
    5FIC     N510086   3.833   9.636   2.290  1.3249 -0.4385 -1.3169
    5FIC     N610087   4.144   9.676   2.595  1.2031 -0.3700 -1.2016
    5FIC    C1910088   4.139   9.347   2.689  0.2095 -0.0775 -0.1875
    5FIC    C2010089   4.043   9.309   2.603  0.1686 -0.0753 -0.1429
    5FIC    C2110090   3.997   9.166   2.599 -0.2280  0.0365  0.2630
    5FIC    C2210091   3.893   9.159   2.495 -0.1677  0.0076  0.2044
    5FIC    C2310092   3.820   9.047   2.454 -0.4497  0.0832  0.4943
    5FIC    C2410093   3.727   9.065   2.353 -0.3223  0.0356  0.3671
    5FIC    C2510094   3.707   9.191   2.295  0.0751 -0.0832 -0.0379
    5FIC    C2610095   3.779   9.303   2.335  0.3580 -0.1590 -0.3287
    5FIC    C2710096   3.874   9.287   2.437  0.2348 -0.1128 -0.2057
    5FIC    C2810097   3.966   9.384   2.501  0.4570 -0.1688 -0.4352
    5FIC    C2910098   3.977   9.518   2.472  0.8546 -0.2847 -0.8411
    5FIC    C3010099   3.898   9.583   2.372  1.1117 -0.3688 -1.1013
    5FIC    C3110100   4.069   9.604   2.540  1.0440 -0.3309 -1.0371
    1BTD     S210101   3.304   4.104   2.261  0.0720  0.2588 -0.1513
    1BTD     N110102   3.329   4.282   2.266 -0.2423  0.2952  0.2489
    1BTD     N210103   3.385   4.074   2.419  0.4125  0.0066 -0.3713
    1BTD     N310104   3.594   4.333   2.749  0.5390 -0.4420 -0.0968
    1BTD     N410105   3.526   4.590   2.560 -0.2679 -0.0863  0.6675
    1BTD     C510106   3.432   4.440   2.422 -0.2459  0.0917  0.4582
    1BTD     C610107   3.393   4.308   2.379 -0.0854  0.1260  0.2005
    1BTD     C710108   3.424   4.192   2.464  0.2812 -0.0355 -0.1467
    1BTD     C810109   3.493   4.212   2.589  0.4688 -0.2233 -0.2188
    1BTD    C1510110   3.530   4.343   2.627  0.3011 -0.2504  0.0416
    1BTD    C1610111   3.500   4.455   2.544 -0.0522 -0.0945  0.3760
    1BTD    C4310112   3.608   4.663   2.653 -0.3630 -0.1181 -0.4392
    1BTD    C4410113   3.760   4.685   2.616  1.1163  0.3696  0.1277
    1BTD    C4510114   3.827   4.557   2.559 -0.0593 -0.1172 -0.3354
    1BTD    C4610115   3.950   4.578   2.477 -0.4142 -0.1743  0.2234
    1BTD    C4710116   3.850   4.779   2.704  0.4772 -0.0255  0.1312
    1BTD    C4810117   3.779   4.907   2.736  0.5511 -0.1972 -0.1797
    1BTD    C4910118   3.852   5.007   2.821 -0.8673  0.2665 -0.1905
    1BTD    C5010119   3.766   5.124   2.854  0.1009  0.9834  0.3421
    1BTD    C7510120   3.658   4.423   2.844  0.4193  0.1091  0.1782
    1BTD    C7610121   3.602   4.464   2.983  0.5746  0.0789 -0.2723
    1BTD    C7710122   3.681   4.572   3.064  0.5514  0.0315 -0.5902
    1BTD    C7810123   3.824   4.544   3.100  0.0367  0.2495 -0.3384
    1BTD    C7910124   3.453   4.519   2.990  0.0027 -0.0698  0.4062
    1BTD    C8010125   3.347   4.417   2.938  0.4618  0.9559 -0.4843
    1BTD    C8110126   3.318   4.286   3.025 -0.0626 -0.5530  0.4666
    1BTD    C8210127   3.276   4.297   3.165 -0.3562 -0.4504 -0.0420
    2TTP     S110128   3.342   4.651   2.219  0.0361 -0.3914  0.1230
    2TTP     S510129   3.528   4.951   2.464  0.0416 -0.3468  0.0643
    2TTP     C110130   3.457   5.032   2.318 -0.0513 -0.3594  0.1020
    2TTP     C210131   3.396   4.944   2.233 -0.0585 -0.3740  0.1225
    2TTP     C310132   3.402   4.810   2.281  0.0092 -0.3755  0.1089
    2TTP     C410133   3.413   4.570   2.366  0.1290 -0.3786  0.0852
    2TTP    C1710134   3.475   4.658   2.450  0.1362 -0.3642  0.0648
    2TTP    C1810135   3.468   4.792   2.402  0.0685 -0.3626  0.0783
    2TTP    C3210136   3.328   4.976   2.102  0.2772 -0.2437  0.1067
    2TTP    C3310137   3.177   4.969   2.081  0.3058 -0.0385  0.0782
    2TTP    C3410138   3.122   5.074   1.984  0.0059 -0.1866  0.4175
    2TTP    C3510139   2.967   5.076   1.980  0.4706  0.3726  0.3121
    2TTP    C3610140   2.918   5.204   1.918  0.2529  0.2659  0.5674
    2TTP    C3710141   2.766   5.219   1.951 -0.2586 -0.1282  0.4339
    2TTP    C3810142   2.719   5.233   2.096  0.0107  0.0539 -0.5548
    2TTP    C3910143   2.776   5.354   2.172  0.0121  0.4084  0.1791
    2TTP    C4010144   2.701   5.360   2.310  0.0985 -0.1696  1.0877
    2TTP    C4110145   2.763   5.466   2.392 -0.5523 -0.9208 -0.1007
    2TTP    C4210146   2.687   5.499   2.524 -0.0516  0.0092 -0.2156
    3TTP     S110147   3.556   3.951   2.727 -0.1795  0.1602 -0.3194
    3TTP     S510148   3.800   4.160   3.014 -0.1239 -0.3208 -0.0134
    3TTP     C110149   3.818   3.981   3.042 -0.0681 -0.3718 -0.3593
    3TTP     C210150   3.743   3.906   2.955 -0.0820 -0.2261 -0.4742
    3TTP     C310151   3.670   3.987   2.863 -0.1371 -0.0692 -0.2931
    3TTP     C410152   3.539   4.130   2.699 -0.2353  0.2111  0.0266
    3TTP    C1710153   3.613   4.205   2.786 -0.2214  0.0656  0.1416
    3TTP    C1810154   3.686   4.124   2.878 -0.1662 -0.0914 -0.0395
    3TTP    C3210155   3.724   3.753   2.946  0.3083  0.2285 -0.5142
    3TTP    C3310156   3.589   3.706   3.001 -0.3663  0.2075  0.2116
    3TTP    C3410157   3.548   3.566   2.977  0.7908 -0.6901  0.2406
    3TTP    C3510158   3.525   3.521   2.834  0.5380  0.3713 -0.3769
    3TTP    C3610159   3.505   3.367   2.829 -0.7175  0.1928  0.1654
    3TTP    C3710160   3.488   3.299   2.696  0.1611  0.9368 -0.7341
    3TTP    C3810161   3.371   3.343   2.608 -0.3020  0.3125 -0.1946
    3TTP    C3910162   3.366   3.257   2.485 -0.1505 -0.9252  0.3191
    3TTP    C4010163   3.275   3.307   2.374  0.0425 -0.1972 -0.1585
    3TTP    C4110164   3.288   3.246   2.234 -0.2707  0.3866 -0.7942
    3TTP    C4210165   3.188   3.289   2.136  0.2770  0.1983  0.0678
    4FIC     F110166   3.674   5.721   2.717 -0.0063  0.2072 -0.1658
    4FIC     F210167   3.627   5.861   2.488  0.0431  0.1142 -0.2326
    4FIC     O110168   3.551   5.219   2.557 -0.0547  0.1545  0.0361
    4FIC     N510169   3.472   5.704   2.045  0.0795 -0.0569 -0.1848
    4FIC     N610170   3.386   5.283   1.966  0.0317 -0.0792 -0.0136
    4FIC    C1910171   3.463   5.174   2.282 -0.0247  0.0471  0.0439
    4FIC    C2010172   3.496   5.295   2.331 -0.0145  0.0640 -0.0042
    4FIC    C2110173   3.540   5.310   2.473 -0.0311  0.1197 -0.0050
    4FIC    C2210174   3.568   5.453   2.494 -0.0139  0.1248 -0.0636
    4FIC    C2310175   3.611   5.516   2.610 -0.0206  0.1694 -0.0849
    4FIC    C2410176   3.631   5.653   2.605 -0.0010  0.1646 -0.1419
    4FIC    C2510177   3.606   5.725   2.487  0.0244  0.1167 -0.1763
    4FIC    C2610178   3.563   5.663   2.371  0.0312  0.0721 -0.1553
    4FIC    C2710179   3.543   5.524   2.374  0.0116  0.0762 -0.0976
    4FIC    C2810180   3.497   5.430   2.269  0.0123  0.0368 -0.0626
    4FIC    C2910181   3.464   5.461   2.139  0.0336 -0.0148 -0.0806
    4FIC    C3010182   3.468   5.594   2.088  0.0588 -0.0378 -0.1379
    4FIC    C3110183   3.421   5.363   2.045  0.0324 -0.0499 -0.0436
    5FIC     F110184   4.354   4.200   3.628  0.2519 -0.0933 -0.2137
    5FIC     F210185   4.392   3.936   3.682  0.1469 -0.0858 -0.1014
    5FIC     O110186   3.997   4.171   3.222  0.1929 -0.1230 -0.1598
    5FIC     N510187   4.194   3.536   3.470 -0.0460 -0.0961  0.0983
    5FIC     N610188   3.907   3.566   3.141 -0.0709 -0.1208  0.1177
    5FIC    C1910189   3.907   3.908   3.129  0.0717 -0.1263 -0.0335
    5FIC    C2010190   3.996   3.926   3.229  0.0906 -0.1191 -0.0514
    5FIC    C2110191   4.037   4.064   3.271  0.1537 -0.1179 -0.1172
    5FIC    C2210192   4.133   4.047   3.382  0.1591 -0.1094 -0.1208
    5FIC    C2310193   4.199   4.147   3.453  0.2095 -0.1056 -0.1724
    5FIC    C2410194   4.286   4.107   3.553  0.2040 -0.0976 -0.1644
    5FIC    C2510195   4.305   3.971   3.581  0.1498 -0.0937 -0.1066
    5FIC    C2610196   4.240   3.871   3.510  0.0997 -0.0976 -0.0549
    5FIC    C2710197   4.152   3.909   3.408  0.1042 -0.1057 -0.0620
    5FIC    C2810198   4.068   3.829   3.315  0.0600 -0.1114 -0.0171
    5FIC    C2910199   4.060   3.692   3.311  0.0017 -0.1100  0.0445
    5FIC    C3010200   4.133   3.607   3.398 -0.0244 -0.1023  0.0739
    5FIC    C3110201   3.976   3.623   3.218 -0.0380 -0.1159  0.0845
    1BTD     S210202   5.025   4.114   0.774 -0.1067  0.0060  0.0588
    1BTD     N110203   5.041   4.291   0.752  0.1059 -0.0442 -0.2147
    1BTD     N210204   4.953   4.086   0.611 -0.2946 -0.1383  0.1652
    1BTD     N310205   4.836   4.351   0.241 -0.2935 -0.5224 -0.1118
    1BTD     N410206   4.944   4.604   0.416  0.1998 -0.4067 -0.5799
    1BTD     C510207   4.989   4.452   0.575  0.1489 -0.2350 -0.3997
    1BTD     C610208   4.994   4.320   0.632  0.0298 -0.1597 -0.2127
    1BTD     C710209   4.945   4.205   0.552 -0.1943 -0.2124 -0.0000
    1BTD     C810210   4.893   4.227   0.420 -0.2880 -0.3375  0.0150
    1BTD    C1510211   4.890   4.358   0.368 -0.1653 -0.4074 -0.1725
    1BTD    C1610212   4.937   4.469   0.445  0.0506 -0.3568 -0.3773
    1BTD    C4310213   4.853   4.682   0.325  0.0923 -0.0443 -0.2801
    1BTD    C4410214   4.723   4.748   0.372  0.5903 -0.6999 -0.5737
    1BTD    C4510215   4.660   4.856   0.284 -0.1062 -0.2126 -0.0822
    1BTD    C4610216   4.601   4.819   0.150 -0.3139 -0.1227  0.3013
    1BTD    C4710217   4.634   4.665   0.472 -0.3288  0.2791  0.5537
    1BTD    C4810218   4.526   4.726   0.558 -0.3747 -0.0182  0.3686
    1BTD    C4910219   4.566   4.839   0.651  0.1023  0.7388 -0.2509
    1BTD    C5010220   4.453   4.887   0.745  0.0519  0.2669 -0.4556
    1BTD    C7510221   4.851   4.446   0.123 -0.0947  0.3842 -0.4226
    1BTD    C7610222   4.981   4.434   0.044  0.2719 -0.5773  0.4481
    1BTD    C7710223   5.003   4.554  -0.048  0.1104  0.0969 -0.1453
    1BTD    C7810224   4.912   4.562  -0.166 -0.3124  0.4930 -0.2609
    1BTD    C7910225   5.004   4.291  -0.017  0.0732 -0.1045 -0.4997
    1BTD    C8010226   5.145   4.268  -0.078  0.4960 -0.1538  0.3877
    1BTD    C8110227   5.132   4.154  -0.183  0.3128  0.6100 -0.6079
    1BTD    C8210228   5.240   4.164  -0.292 -0.7337  0.0058  0.3939
    2TTP     S110229   5.079   4.658   0.778 -0.1838  0.1570  0.1200
    2TTP     S510230   4.968   4.972   0.506 -0.0939  0.0293 -0.0646
    2TTP     C110231   5.021   5.047   0.663 -0.3510  0.0948 -0.0073
    2TTP     C210232   5.059   4.955   0.756 -0.3940  0.1379  0.0531
    2TTP     C310233   5.047   4.821   0.707 -0.2253  0.1211  0.0563
    2TTP     C410234   5.026   4.583   0.621  0.0732  0.0917  0.0626
    2TTP    C1710235   4.988   4.675   0.528  0.1162  0.0483  0.0023
    2TTP    C1810236   5.000   4.809   0.577 -0.0526  0.0653 -0.0009
    2TTP    C3210237   5.104   4.989   0.894 -0.2220  0.3942  0.3933
    2TTP    C3310238   5.244   4.937   0.936 -0.4245 -0.1511  0.1848
    2TTP    C3410239   5.282   4.996   1.072 -0.3662 -0.0710  0.7457
    2TTP    C3510240   5.207   4.946   1.190  0.2388  0.1492  0.0254
    2TTP    C3610241   5.234   5.020   1.317 -0.6629  0.5849 -0.6889
    2TTP    C3710242   5.202   5.172   1.326  0.0174 -0.0367  0.0914
    2TTP    C3810243   5.225   5.217   1.469 -0.5034  0.6134 -0.0210
    2TTP    C3910244   5.179   5.352   1.506 -0.2343  0.1615  0.1608
    2TTP    C4010245   5.246   5.395   1.636  0.3829 -0.4456 -0.2221
    2TTP    C4110246   5.209   5.531   1.702  0.0154 -0.2266 -0.2322
    2TTP    C4210247   5.242   5.670   1.627  0.8879  0.1706 -0.4072
    3TTP     S110248   4.769   3.974   0.313  0.2395 -0.1152 -0.1809
    3TTP     S510249   4.598   4.204  -0.008 -0.2059 -0.1644  0.0193
    3TTP     C110250   4.534   4.034  -0.018 -0.1793 -0.1793  0.1038
    3TTP     C210251   4.583   3.953   0.081 -0.0404 -0.1649  0.0470
    3TTP     C310252   4.673   4.022   0.167  0.0504 -0.1417 -0.0653
    3TTP     C410253   4.833   4.144   0.322  0.2133 -0.1005 -0.2654
    3TTP    C1710254   4.784   4.225   0.224  0.0742 -0.1146 -0.2085
    3TTP    C1810255   4.694   4.156   0.137 -0.0166 -0.1379 -0.0962
    3TTP    C3210256   4.544   3.807   0.101  0.1152 -0.5321 -0.0517
    3TTP    C3310257   4.641   3.692   0.094 -0.1932  0.0320  0.6739
    3TTP    C3410258   4.733   3.687  -0.035  0.4553  0.0340 -0.0052
    3TTP    C3510259   4.804   3.552  -0.062  0.0125 -0.0111 -0.4124
    3TTP    C3610260   4.720   3.433  -0.104 -0.1309 -0.0008 -0.8805
    3TTP    C3710261   4.784   3.294  -0.086  0.0547 -0.0922 -0.1726
    3TTP    C3810262   4.836   3.266   0.055  0.0900 -0.0986  0.1359
    3TTP    C3910263   4.912   3.134   0.074  0.2819 -0.2488  0.3775
    3TTP    C4010264   4.816   3.016   0.081 -0.8555  0.3740 -0.3560
    3TTP    C4110265   4.874   2.873   0.084 -0.3451  0.0102 -0.1001
    3TTP    C4210266   4.784   2.763   0.136  0.5545  0.0637  0.5453
    4FIC     F110267   4.950   5.730   0.215 -0.0513  0.0968 -0.0159
    4FIC     F210268   4.940   5.874   0.446  0.5375  0.2136 -0.0622
    4FIC     O110269   5.016   5.229   0.408 -0.2480  0.1107  0.0884
    4FIC     N510270   4.975   5.723   0.916  1.2436  0.3914 -0.0544
    4FIC     N610271   5.028   5.302   1.020  0.9714  0.3787  0.0364
    4FIC    C1910272   5.031   5.188   0.698  0.2449  0.2272  0.0812
    4FIC    C2010273   5.014   5.308   0.640  0.2712  0.2192  0.0568
    4FIC    C2110274   5.008   5.321   0.490  0.0077  0.1578  0.0624
    4FIC    C2210275   4.990   5.465   0.461  0.1132  0.1650  0.0310
    4FIC    C2310276   4.978   5.526   0.337 -0.0508  0.1208  0.0241
    4FIC    C2410277   4.962   5.663   0.335  0.0978  0.1384 -0.0075
    4FIC    C2510278   4.957   5.737   0.454  0.4010  0.1986 -0.0312
    4FIC    C2610279   4.968   5.677   0.578  0.5662  0.2432 -0.0246
    4FIC    C2710280   4.985   5.538   0.583  0.4196  0.2259  0.0073
    4FIC    C2810281   5.000   5.445   0.697  0.5288  0.2618  0.0222
    4FIC    C2910282   5.001   5.478   0.831  0.8138  0.3225  0.0068
    4FIC    C3010283   4.986   5.613   0.877  1.0492  0.3604 -0.0268
    4FIC    C3110284   5.016   5.381   0.934  0.8988  0.3531  0.0232
    5FIC     F110285   4.028   4.371  -0.579  0.3791  0.0087 -0.1476
    5FIC     F210286   3.969   4.120  -0.666 -0.2061 -0.0553  0.4178
    5FIC     O110287   4.375   4.261  -0.179  0.3712  0.1184 -0.1108
    5FIC     N510288   4.131   3.681  -0.506 -1.0533 -0.0691  1.2569
    5FIC     N610289   4.415   3.646  -0.175 -0.9416  0.0296  1.1718
    5FIC    C1910290   4.442   3.983  -0.119 -0.1909  0.0962  0.4425
    5FIC    C2010291   4.357   4.020  -0.217 -0.1660  0.0712  0.4112
    5FIC    C2110292   4.327   4.165  -0.241  0.1307  0.0846  0.1196
    5FIC    C2210293   4.232   4.170  -0.353  0.0785  0.0502  0.1624
    5FIC    C2310294   4.175   4.283  -0.412  0.2871  0.0484 -0.0455
    5FIC    C2410295   4.087   4.263  -0.517  0.1849  0.0125  0.0466
    5FIC    C2510296   4.057   4.134  -0.562 -0.1168 -0.0203  0.3381
    5FIC    C2610297   4.113   4.021  -0.504 -0.3260 -0.0187  0.5466
    5FIC    C2710298   4.202   4.039  -0.397 -0.2268  0.0174  0.4575
    5FIC    C2810299   4.278   3.941  -0.315 -0.3892  0.0288  0.6219
    5FIC    C2910300   4.275   3.804  -0.328 -0.6887  0.0049  0.9139
    5FIC    C3010301   4.196   3.737  -0.425 -0.8882 -0.0358  1.1014
    5FIC    C3110302   4.352   3.718  -0.244 -0.8262  0.0185  1.0540
    1BTD     S210303   5.790   6.427   1.680 -0.0691  0.2795  0.1565
    1BTD     N110304   5.772   6.248   1.675  0.2067  0.2532  0.0852
    1BTD     N210305   5.739   6.452   1.510 -0.2700  0.2843  0.2170
    1BTD     N310306   5.603   6.181   1.152 -0.1816  0.2472  0.2116
    1BTD     N410307   5.644   5.929   1.355  0.4059  0.2091  0.0493
    1BTD     C510308   5.705   6.085   1.505  0.3035  0.2307  0.0684
    1BTD     C610309   5.731   6.218   1.552  0.1385  0.2499  0.1090
    1BTD     C710310   5.712   6.332   1.460 -0.1285  0.2671  0.1827
    1BTD     C810311   5.668   6.307   1.325 -0.2167  0.2645  0.2122
    1BTD    C1510312   5.643   6.175   1.284 -0.0482  0.2454  0.1705
    1BTD    C1610313   5.661   6.065   1.373  0.2090  0.2288  0.0995
    1BTD    C4310314   5.567   5.849   1.259 -0.0806 -0.1035 -0.2496
    1BTD    C4410315   5.409   5.837   1.270 -0.2578 -0.1044 -0.0081
    1BTD    C4510316   5.335   5.971   1.293 -0.0924 -0.5089  0.8376
    1BTD    C4610317   5.196   5.967   1.353 -0.2753  0.2085 -0.2622
    1BTD    C4710318   5.348   5.743   1.158 -0.6412  0.7054  0.8716
    1BTD    C4810319   5.410   5.601   1.144 -0.9130 -0.3796  0.0303
    1BTD    C4910320   5.347   5.510   1.046 -0.9771  0.9014  1.0885
    1BTD    C5010321   5.423   5.386   0.991  0.2226 -0.3982 -0.0900
    1BTD    C7510322   5.657   6.081   1.051 -0.4653 -0.6499  0.1739
    1BTD    C7610323   5.608   6.081   0.904  0.0934  0.6190 -0.2508
    1BTD    C7710324   5.472   6.010   0.902  0.0909 -0.4405 -0.4086
    1BTD    C7810325   5.395   6.020   0.777 -0.1321 -0.8397 -0.1776
    1BTD    C7910326   5.713   6.035   0.794  0.5688  0.2434  0.0292
    1BTD    C8010327   5.845   6.104   0.791  0.1401  0.6911  0.1072
    1BTD    C8110328   5.841   6.258   0.752  0.2800  0.7618  0.1285
    1BTD    C8210329   5.976   6.331   0.773 -0.1381 -0.7230  0.7468
    2TTP     S110330   5.756   5.881   1.731  0.0378  0.1478 -0.0406
    2TTP     S510331   5.603   5.575   1.471  0.0993  0.0396  0.0510
    2TTP     C110332   5.648   5.499   1.630  0.2198  0.0762  0.0344
    2TTP     C210333   5.698   5.589   1.720  0.2080  0.1119  0.0052
    2TTP     C310334   5.702   5.721   1.666  0.1032  0.1115 -0.0052
    2TTP     C410335   5.711   5.957   1.572 -0.0827  0.1110 -0.0241
    2TTP    C1710336   5.661   5.867   1.482 -0.0709  0.0753  0.0051
    2TTP    C1810337   5.657   5.735   1.536  0.0339  0.0759  0.0156
    2TTP    C3210338   5.743   5.567   1.866  0.5112 -0.0930  0.2083
    2TTP    C3310339   5.882   5.504   1.887  0.0622  0.1764  0.7931
    2TTP    C3410340   6.007   5.591   1.853 -0.5372  0.5125 -0.3473
    2TTP    C3510341   6.140   5.517   1.879  0.0284  0.5274  0.1429
    2TTP    C3610342   6.164   5.384   1.798 -0.0542  0.3237 -0.0068
    2TTP    C3710343   6.309   5.327   1.814  0.1196  0.2290 -0.2420
    2TTP    C3810344   6.347   5.243   1.700 -0.4849 -0.1292  0.0213
    2TTP    C3910345   6.496   5.213   1.675 -0.1546 -0.3023 -0.6476
    2TTP    C4010346   6.508   5.141   1.545 -0.1619  0.1630  0.0127
    2TTP    C4110347   6.660   5.099   1.523  0.2678  0.5549 -0.3824
    2TTP    C4210348   6.691   5.058   1.379 -0.0554  0.5183 -0.1892
    3TTP     S110349   5.601   6.570   1.196 -0.2962  0.1296  0.3273
    3TTP     S510350   5.383   6.355   0.893  0.1436  0.0671  0.0539
    3TTP     C110351   5.348   6.533   0.874 -0.0055  0.0436  0.1079
    3TTP     C210352   5.413   6.610   0.967 -0.1501  0.0615  0.1955
    3TTP     C310353   5.493   6.531   1.056 -0.1484  0.0944  0.2232
    3TTP     C410354   5.636   6.392   1.214 -0.1471  0.1531  0.2734
    3TTP    C1710355   5.570   6.316   1.122 -0.0025  0.1353  0.1858
    3TTP    C1810356   5.491   6.394   1.033 -0.0042  0.1023  0.1581
    3TTP    C3210357   5.411   6.764   0.974  0.2344  0.2638 -0.2790
    3TTP    C3310358   5.543   6.833   0.956 -0.4848 -0.2815 -0.1390
    3TTP    C3410359   5.510   6.980   0.971  0.4318  0.5142 -0.6967
    3TTP    C3510360   5.623   7.067   0.932  0.1047  0.8512 -0.4382
    3TTP    C3610361   5.649   7.190   1.026  0.5830  0.2388  0.1471
    3TTP    C3710362   5.556   7.311   1.014 -0.2545 -0.4613 -0.2698
    3TTP    C3810363   5.563   7.389   0.888 -0.0695 -0.2331 -0.5032
    3TTP    C3910364   5.438   7.471   0.854 -0.1507 -0.0726 -0.3262
    3TTP    C4010365   5.467   7.563   0.734 -0.7458  0.0241  0.0871
    3TTP    C4110366   5.353   7.635   0.673  0.2388  0.3466  0.0596
    3TTP    C4210367   5.412   7.734   0.575  0.1192 -0.5363 -0.5212
    4FIC     F110368   5.537   4.807   1.201  0.0079 -0.0494 -0.0725
    4FIC     F210369   5.482   4.679   1.435 -0.0525 -0.0801 -0.1034
    4FIC     O110370   5.647   5.306   1.381  0.0774 -0.1022  0.0317
    4FIC     N510371   5.481   4.850   1.899 -0.0893 -0.1620 -0.0733
    4FIC     N610372   5.578   5.266   1.993 -0.0228 -0.1969  0.0143
    4FIC    C1910373   5.633   5.361   1.668  0.0448 -0.1504  0.0393
    4FIC    C2010374   5.608   5.240   1.614  0.0294 -0.1359  0.0143
    4FIC    C2110375   5.617   5.220   1.465  0.0480 -0.1113  0.0120
    4FIC    C2210376   5.583   5.079   1.440  0.0244 -0.1005 -0.0179
    4FIC    C2310377   5.578   5.013   1.318  0.0302 -0.0780 -0.0302
    4FIC    C2410378   5.544   4.879   1.319  0.0039 -0.0716 -0.0590
    4FIC    C2510379   5.516   4.813   1.439 -0.0273 -0.0873 -0.0748
    4FIC    C2610380   5.521   4.878   1.562 -0.0330 -0.1098 -0.0627
    4FIC    C2710381   5.555   5.014   1.563 -0.0067 -0.1167 -0.0335
    4FIC    C2810382   5.569   5.110   1.674 -0.0048 -0.1391 -0.0144
    4FIC    C2910383   5.550   5.085   1.808 -0.0300 -0.1589 -0.0219
    4FIC    C3010384   5.512   4.956   1.858 -0.0627 -0.1605 -0.0502
    4FIC    C3110385   5.565   5.184   1.909 -0.0259 -0.1798 -0.0019
    5FIC     F110386   4.823   6.258   0.309  0.2246  0.0595 -0.1806
    5FIC     F210387   4.764   6.516   0.247 -0.2716  0.0663  0.2939
    5FIC     O110388   5.186   6.328   0.705  0.4815  0.0261 -0.4096
    5FIC     N510389   4.939   6.937   0.439 -0.8018  0.0521  0.8129
    5FIC     N610390   5.235   6.940   0.761 -0.5012  0.0247  0.5384
    5FIC    C1910391   5.259   6.599   0.786  0.0987  0.0206 -0.0376
    5FIC    C2010392   5.170   6.572   0.689  0.0534  0.0287  0.0015
    5FIC    C2110393   5.137   6.429   0.653  0.2600  0.0311 -0.1989
    5FIC    C2210394   5.038   6.435   0.544  0.1473  0.0405 -0.0955
    5FIC    C2310395   4.978   6.328   0.478  0.2655  0.0453 -0.2121
    5FIC    C2410396   4.886   6.359   0.379  0.1197  0.0540 -0.0766
    5FIC    C2510397   4.856   6.492   0.347 -0.1358  0.0576  0.1678
    5FIC    C2610398   4.916   6.599   0.412 -0.2549  0.0526  0.2853
    5FIC    C2710399   5.009   6.570   0.513 -0.1104  0.0439  0.1512
    5FIC    C2810400   5.089   6.659   0.601 -0.1785  0.0367  0.2205
    5FIC    C2910401   5.088   6.797   0.600 -0.4115  0.0376  0.4447
    5FIC    C3010402   5.006   6.874   0.511 -0.6253  0.0455  0.6464
    5FIC    C3110403   5.168   6.875   0.688 -0.4593  0.0305  0.4950
    1BTD     S210404   4.175   6.488   3.144 -0.0798  0.1021 -0.0223
    1BTD     N110405   4.195   6.310   3.157 -0.2404  0.0818 -0.0523
    1BTD     N210406   4.226   6.521   3.313  0.0229  0.0346 -0.0398
    1BTD     N310407   4.364   6.266   3.682 -0.0577 -0.1395 -0.1297
    1BTD     N410408   4.326   6.006   3.490 -0.3821 -0.0812 -0.1451
    1BTD     C510409   4.264   6.154   3.333 -0.3104 -0.0041 -0.1005
    1BTD     C610410   4.236   6.285   3.281 -0.2108  0.0286 -0.0728
    1BTD     C710411   4.253   6.404   3.368 -0.0634  0.0020 -0.0657
    1BTD     C810412   4.298   6.385   3.504 -0.0231 -0.0556 -0.0870
    1BTD    C1510413   4.324   6.255   3.551 -0.1245 -0.0858 -0.1138
    1BTD    C1610414   4.307   6.141   3.466 -0.2664 -0.0603 -0.1206
    1BTD    C4310415   4.400   5.936   3.601 -0.3513  0.3671 -0.3330
    1BTD    C4410416   4.554   5.936   3.584  0.0811  0.0524 -0.3548
    1BTD    C4510417   4.607   5.875   3.710 -0.4449  0.6004  0.3353
    1BTD    C4610418   4.752   5.900   3.738 -0.5826  0.3276 -0.2757
    1BTD    C4710419   4.613   5.883   3.454 -0.2911  0.0020  0.0332
    1BTD    C4810420   4.616   5.738   3.403 -0.4877  0.6697 -0.8042
    1BTD    C4910421   4.685   5.723   3.269 -0.3385 -0.0130  0.0340
    1BTD    C5010422   4.673   5.592   3.185  0.0673  0.0468  0.5942
    1BTD    C7510423   4.375   6.169   3.795 -0.3507  0.3324  0.0230
    1BTD    C7610424   4.251   6.136   3.869  0.2312  0.8546 -0.3514
    1BTD    C7710425   4.248   5.995   3.938 -0.1079  0.2988 -0.4167
    1BTD    C7810426   4.348   5.974   4.051  0.2423 -0.2772 -0.1040
    1BTD    C7910427   4.170   6.248   3.931 -0.7076 -0.4043  0.6502
    1BTD    C8010428   4.042   6.218   4.010 -0.5956  0.4372  0.0019
    1BTD    C8110429   3.967   6.337   4.057 -0.1785 -0.7842  0.4967
    1BTD    C8210430   3.862   6.306   4.169  0.1383  0.1233  0.1221
    2TTP     S110431   4.205   5.951   3.124 -0.1325 -0.0834  0.2265
    2TTP     S510432   4.298   5.639   3.405  0.1545 -0.1445  0.0656
    2TTP     C110433   4.250   5.562   3.248  0.1367 -0.1082  0.0532
    2TTP     C210434   4.219   5.654   3.151  0.0471 -0.0871  0.1021
    2TTP     C310435   4.231   5.788   3.199 -0.0108 -0.0989  0.1512
    2TTP     C410436   4.253   6.028   3.282 -0.1149 -0.1198  0.2389
    2TTP    C1710437   4.284   5.936   3.378 -0.0253 -0.1407  0.1898
    2TTP    C1810438   4.272   5.802   3.331  0.0327 -0.1290  0.1408
    2TTP    C3210439   4.175   5.631   3.006  0.3622 -0.2613 -0.2840
    2TTP    C3310440   4.027   5.607   2.981  0.2382 -0.0680  0.1032
    2TTP    C3410441   3.984   5.600   2.836  0.3345  0.9630 -0.0299
    2TTP    C3510442   3.988   5.464   2.766 -0.5125  0.1553  0.3511
    2TTP    C3610443   3.962   5.476   2.618  0.3338 -0.5322 -0.5067
    2TTP    C3710444   3.950   5.341   2.544  0.4984 -0.0816 -0.2344
    2TTP    C3810445   3.964   5.372   2.397 -0.3599  0.1396 -0.0732
    2TTP    C3910446   3.922   5.252   2.321  0.3773 -0.0471  0.1073
    2TTP    C4010447   3.909   5.267   2.169  0.3428 -0.1191  0.1395
    2TTP    C4110448   3.826   5.391   2.123 -0.0095  0.7617  0.5137
    2TTP    C4210449   3.836   5.417   1.974 -0.6914 -0.4060 -0.5668
    3TTP     S110450   4.373   6.653   3.622 -0.2795  0.3191  0.0731
    3TTP     S510451   4.580   6.442   3.934  0.0937  0.2273 -0.2351
    3TTP     C110452   4.616   6.619   3.951  0.3167  0.1955 -0.3778
    3TTP     C210453   4.554   6.695   3.855  0.2145  0.2221 -0.2910
    3TTP     C310454   4.476   6.616   3.766 -0.0435  0.2683 -0.1087
    3TTP     C410455   4.336   6.475   3.606 -0.5026  0.3508  0.2159
    3TTP    C1710456   4.398   6.400   3.701 -0.4004  0.3243  0.1291
    3TTP    C1810457   4.476   6.479   3.791 -0.1423  0.2781 -0.0533
    3TTP    C3210458   4.568   6.848   3.839 -0.0915  0.2849  0.1845
    3TTP    C3310459   4.456   6.921   3.909 -0.2205  0.4475 -0.3576
    3TTP    C3410460   4.438   7.074   3.886 -0.1688 -0.5673  0.0649
    3TTP    C3510461   4.463   7.128   3.747 -0.4098 -0.0486 -0.8084
    3TTP    C3610462   4.444   7.275   3.745 -0.0800 -0.9702  0.7711
    3TTP    C3710463   4.309   7.328   3.699 -0.2015 -0.2893 -0.1524
    3TTP    C3810464   4.266   7.302   3.557 -0.6506  0.7313 -0.0751
    3TTP    C3910465   4.126   7.351   3.536  0.0204  0.0489 -0.0629
    3TTP    C4010466   4.086   7.324   3.390  0.3029 -0.3747  0.3752
    3TTP    C4110467   3.957   7.374   3.345  0.3041 -0.2736  0.1889
    3TTP    C4210468   3.936   7.354   3.192  0.1554 -0.1188 -0.5969
    4FIC     F110469   4.316   4.872   3.690  0.2588 -0.1750  0.1144
    4FIC     F210470   4.360   4.735   3.459 -0.1500 -0.1884  0.0413
    4FIC     O110471   4.244   5.374   3.499  0.4354 -0.0933  0.2617
    4FIC     N510472   4.373   4.896   2.991 -0.6117 -0.1491  0.0411
    4FIC     N610473   4.308   5.316   2.889 -0.3911 -0.0825  0.1709
    4FIC    C1910474   4.261   5.421   3.211  0.1076 -0.0771  0.2440
    4FIC    C2010475   4.277   5.300   3.268  0.0792 -0.0969  0.2099
    4FIC    C2110476   4.267   5.284   3.417  0.2553 -0.1043  0.2217
    4FIC    C2210477   4.290   5.141   3.445  0.1715 -0.1268  0.1767
    4FIC    C2310478   4.290   5.078   3.569  0.2766 -0.1403  0.1697
    4FIC    C2410479   4.314   4.941   3.570  0.1645 -0.1608  0.1238
    4FIC    C2510480   4.337   4.871   3.451 -0.0461 -0.1675  0.0862
    4FIC    C2610481   4.337   4.933   3.327 -0.1518 -0.1543  0.0928
    4FIC    C2710482   4.313   5.072   3.324 -0.0409 -0.1333  0.1392
    4FIC    C2810483   4.306   5.167   3.210 -0.1061 -0.1154  0.1581
    4FIC    C2910484   4.323   5.137   3.077 -0.3009 -0.1155  0.1324
    4FIC    C3010485   4.351   5.005   3.030 -0.4710 -0.1341  0.0823
    4FIC    C3110486   4.315   5.235   2.974 -0.3494 -0.0975  0.1537
    5FIC     F110487   5.156   6.310   4.488  0.0026  0.3438  0.2034
    5FIC     F210488   5.218   6.564   4.563 -0.0311  0.4334 -0.0699
    5FIC     O110489   4.788   6.403   4.102  0.1243 -0.1153 -0.0244
    5FIC     N510490   5.044   6.996   4.395  0.0067  0.2353 -0.6254
    5FIC     N610491   4.744   7.017   4.078  0.1086 -0.1414 -0.7483
    5FIC    C1910492   4.716   6.679   4.036  0.1350 -0.1925 -0.3665
    5FIC    C2010493   4.807   6.645   4.130  0.1059 -0.0806 -0.2985
    5FIC    C2110494   4.838   6.501   4.158  0.1022 -0.0476 -0.1217
    5FIC    C2210495   4.940   6.501   4.265  0.0675  0.0800 -0.0879
    5FIC    C2310496   5.000   6.390   4.325  0.0525  0.1502  0.0593
    5FIC    C2410497   5.093   6.414   4.425  0.0192  0.2691  0.0618
    5FIC    C2510498   5.124   6.546   4.463  0.0018  0.3149 -0.0792
    5FIC    C2610499   5.065   6.656   4.404  0.0166  0.2452 -0.2265
    5FIC    C2710500   4.970   6.634   4.303  0.0503  0.1249 -0.2314
    5FIC    C2810501   4.890   6.728   4.222  0.0732  0.0281 -0.3664
    5FIC    C2910502   4.892   6.865   4.229  0.0654  0.0376 -0.5242
    5FIC    C3010503   4.975   6.937   4.321  0.0333  0.1464 -0.5793
    5FIC    C3110504   4.810   6.948   4.146  0.0890 -0.0609 -0.6466
    1BTD     S210505   5.879   1.329   0.645  0.2807  0.0206 -0.2383
    1BTD     N110506   5.863   1.508   0.649  0.2042  0.0117 -0.1058
    1BTD     N210507   5.812   1.312   0.479  0.1451  0.1017 -0.1920
    1BTD     N310508   5.647   1.601   0.147 -0.2685  0.2508  0.1413
    1BTD     N410509   5.711   1.842   0.356 -0.1956  0.1398  0.2476
    1BTD     C510510   5.783   1.680   0.493 -0.0052  0.0799  0.0774
    1BTD     C610511   5.812   1.544   0.532  0.0879  0.0667 -0.0375
    1BTD     C710512   5.783   1.434   0.437  0.0547  0.1171 -0.0858
    1BTD     C810513   5.727   1.466   0.308 -0.0700  0.1782 -0.0167
    1BTD    C1510514   5.700   1.600   0.275 -0.1582  0.1890  0.0953
    1BTD    C1610515   5.728   1.706   0.366 -0.1264  0.1404  0.1419
    1BTD    C4310516   5.644   1.931   0.263 -0.1126  0.0100  0.3389
    1BTD    C4410517   5.494   1.963   0.282  0.5295 -0.6445  0.1789
    1BTD    C4510518   5.411   1.854   0.331 -0.3019  0.3373  0.5519
    1BTD    C4610519   5.268   1.875   0.369 -0.5550  0.0553 -0.6712
    1BTD    C4710520   5.431   2.039   0.164  0.2212  0.0163  0.0662
    1BTD    C4810521   5.466   2.178   0.128 -0.0866  0.0083  0.2347
    1BTD    C4910522   5.446   2.284   0.231  0.3382 -0.2595 -0.4483
    1BTD    C5010523   5.451   2.419   0.167 -0.5705 -0.3127 -0.0553
    1BTD    C7510524   5.645   1.714   0.047  0.0649  0.3127 -0.0624
    1BTD    C7610525   5.764   1.735  -0.055  0.1229  0.3761  0.2314
    1BTD    C7710526   5.745   1.821  -0.180  0.3050  0.2280  0.4659
    1BTD    C7810527   5.702   1.963  -0.157 -0.1311  0.0179 -0.2581
    1BTD    C7910528   5.899   1.730   0.016 -0.3297  0.5971  0.2223
    1BTD    C8010529   6.029   1.714  -0.068 -0.4296  0.1907 -0.0492
    1BTD    C8110530   6.031   1.575  -0.134 -0.9364 -0.4396 -0.6698
    1BTD    C8210531   6.144   1.557  -0.240 -0.7167  0.0668 -0.8603
    2TTP     S110532   5.832   1.875   0.725  0.3448  0.2426  0.0889
    2TTP     S510533   5.710   2.201   0.472 -0.0557 -0.0885 -0.1479
    2TTP     C110534   5.751   2.267   0.637  0.2640  0.1358 -0.3154
    2TTP     C210535   5.791   2.170   0.724  0.4063  0.2513 -0.2521
    2TTP     C310536   5.790   2.040   0.665  0.2683  0.1667 -0.0691
    2TTP     C410537   5.791   1.809   0.561  0.0252  0.0183  0.2564
    2TTP    C1710538   5.751   1.905   0.473 -0.1172 -0.0972  0.1931
    2TTP    C1810539   5.751   2.035   0.532  0.0207 -0.0126  0.0101
    2TTP    C3210540   5.841   2.182   0.866 -1.2671  0.1891 -0.1378
    2TTP    C3310541   5.991   2.198   0.904  0.2820  0.8115  0.1724
    2TTP    C3410542   6.071   2.311   0.840 -0.1161 -0.1874  0.1180
    2TTP    C3510543   6.198   2.341   0.914  0.1170  0.3449 -0.6251
    2TTP    C3610544   6.288   2.436   0.848 -0.3816 -1.1899  0.1390
    2TTP    C3710545   6.418   2.453   0.924 -0.5897 -0.2346  0.5790
    2TTP    C3810546   6.504   2.570   0.879  0.4541 -0.0978 -0.1791
    2TTP    C3910547   6.554   2.575   0.733 -1.3044 -0.8437 -0.2999
    2TTP    C4010548   6.661   2.685   0.697  0.4424 -0.4046  0.4793
    2TTP    C4110549   6.608   2.830   0.693  0.0493  0.2300 -0.1316
    2TTP    C4210550   6.718   2.923   0.654  0.1602 -0.8281 -0.0890
    3TTP     S110551   5.681   1.210   0.161  0.2450  0.1987 -0.0213
    3TTP     S510552   5.454   1.424  -0.135 -0.2648 -0.0062  0.2171
    3TTP     C110553   5.441   1.245  -0.170  0.1000 -0.0059  0.0612
    3TTP     C210554   5.510   1.169  -0.080  0.2787  0.0574 -0.0216
    3TTP     C310555   5.576   1.248   0.019  0.1343  0.1079  0.0350
    3TTP     C410556   5.694   1.388   0.195 -0.1199  0.1984  0.1346
    3TTP    C1710557   5.625   1.464   0.106 -0.2987  0.1351  0.2174
    3TTP    C1810558   5.559   1.385   0.007 -0.1541  0.0845  0.1607
    3TTP    C3210559   5.532   1.018  -0.083 -0.4371 -0.0882  0.3971
    3TTP    C3310560   5.652   0.977  -0.171 -0.3322  0.2908  0.0554
    3TTP    C3410561   5.650   0.829  -0.180  0.1223  0.1074  0.9376
    3TTP    C3510562   5.711   0.741  -0.068 -0.6354 -0.0857  0.2678
    3TTP    C3610563   5.628   0.712   0.052 -0.1239  0.2663 -0.1182
    3TTP    C3710564   5.698   0.627   0.160 -0.0456  0.2731  0.8950
    3TTP    C3810565   5.715   0.476   0.134 -0.2897  0.4128 -0.7535
    3TTP    C3910566   5.790   0.411   0.248  0.1052  0.0699  0.4692
    3TTP    C4010567   5.773   0.261   0.244 -0.4074  0.1490  0.3168
    3TTP    C4110568   5.840   0.183   0.358 -0.1825 -0.0656 -0.7657
    3TTP    C4210569   5.866   0.034   0.321  0.5916 -0.8253  0.0967
    4FIC     F110570   5.630   2.972   0.232 -0.0904  0.0402  0.1307
    4FIC     F210571   5.674   3.108   0.464  0.2824  0.0127  0.0784
    4FIC     O110572   5.689   2.461   0.400 -0.2472  0.0001  0.0643
    4FIC     N510573   5.778   2.939   0.917  0.7064 -0.0557 -0.0443
    4FIC     N610574   5.816   2.512   1.001  0.5088 -0.0814 -0.0856
    4FIC    C1910575   5.752   2.409   0.681  0.0532 -0.0405 -0.0093
    4FIC    C2010576   5.735   2.532   0.629  0.0781 -0.0294  0.0094
    4FIC    C2110577   5.703   2.551   0.484 -0.0833 -0.0086  0.0472
    4FIC    C2210578   5.692   2.696   0.462 -0.0080 -0.0007  0.0596
    4FIC    C2310579   5.663   2.762   0.343 -0.1048  0.0179  0.0929
    4FIC    C2410580   5.658   2.901   0.346 -0.0034  0.0220  0.0984
    4FIC    C2510581   5.680   2.970   0.466  0.1885  0.0078  0.0714
    4FIC    C2610582   5.709   2.905   0.585  0.2860 -0.0108  0.0381
    4FIC    C2710583   5.715   2.765   0.583  0.1858 -0.0153  0.0320
    4FIC    C2810584   5.742   2.667   0.691  0.2464 -0.0334  0.0001
    4FIC    C2910585   5.769   2.696   0.823  0.4244 -0.0507 -0.0319
    4FIC    C3010586   5.774   2.829   0.874  0.5790 -0.0534 -0.0386
    4FIC    C3110587   5.795   2.594   0.920  0.4698 -0.0675 -0.0613
    5FIC     F110588   4.901   1.547  -0.717  0.1875 -0.0631 -0.0250
    5FIC     F210589   4.832   1.292  -0.780 -0.0814 -0.0564  0.2347
    5FIC     O110590   5.276   1.461  -0.336  0.2178 -0.0733 -0.0573
    5FIC     N510591   5.001   0.863  -0.600 -0.4468 -0.0542  0.5850
    5FIC     N610592   5.308   0.847  -0.290 -0.3687 -0.0636  0.5074
    5FIC    C1910593   5.343   1.186  -0.261 -0.0283 -0.0707  0.1793
    5FIC    C2010594   5.252   1.218  -0.355 -0.0254 -0.0683  0.1773
    5FIC    C2110595   5.223   1.361  -0.388  0.1051 -0.0700  0.0518
    5FIC    C2210596   5.119   1.360  -0.492  0.0722 -0.0666  0.0842
    5FIC    C2310597   5.060   1.470  -0.555  0.1605 -0.0667 -0.0003
    5FIC    C2410598   4.963   1.444  -0.651  0.1061 -0.0633  0.0530
    5FIC    C2510599   4.928   1.312  -0.684 -0.0328 -0.0598  0.1868
    5FIC    C2610600   4.987   1.202  -0.622 -0.1214 -0.0597  0.2717
    5FIC    C2710601   5.084   1.227  -0.524 -0.0679 -0.0632  0.2196
    5FIC    C2810602   5.165   1.134  -0.441 -0.1335 -0.0641  0.2821
    5FIC    C2910603   5.159   0.996  -0.443 -0.2685 -0.0615  0.4122
    5FIC    C3010604   5.072   0.923  -0.529 -0.3660 -0.0575  0.5068
    5FIC    C3110605   5.241   0.915  -0.359 -0.3228 -0.0627  0.4638
    1BTD     S210606   4.244   1.441   2.142  0.0144  0.0883 -0.3698
    1BTD     N110607   4.249   1.620   2.155  0.1665  0.0848 -0.3819
    1BTD     N210608   4.307   1.412   2.307 -0.1799  0.0454 -0.3026
    1BTD     N310609   4.446   1.676   2.670 -0.3012 -0.0485 -0.1875
    1BTD     N410610   4.375   1.933   2.482  0.1256  0.0002 -0.2851
    1BTD     C510611   4.316   1.780   2.328  0.1398  0.0401 -0.3302
    1BTD     C610612   4.296   1.648   2.276  0.0697  0.0535 -0.3375
    1BTD     C710613   4.328   1.531   2.361 -0.1243  0.0314 -0.2931
    1BTD     C810614   4.379   1.553   2.494 -0.2382 -0.0031 -0.2436
    1BTD    C1510615   4.397   1.684   2.541 -0.1633 -0.0150 -0.2382
    1BTD    C1610616   4.366   1.797   2.459  0.0234  0.0062 -0.2811
    1BTD    C4310617   4.455   2.009   2.588  0.9478  0.5355 -0.4566
    1BTD    C4410618   4.603   1.988   2.587 -0.1464 -0.7106  0.0132
    1BTD    C4510619   4.676   2.034   2.711  0.7334  0.3215  0.4028
    1BTD    C4610620   4.829   2.007   2.713 -0.3817 -0.1679  0.0239
    1BTD    C4710621   4.660   2.021   2.447  0.3939  0.0341 -0.6498
    1BTD    C4810622   4.667   2.169   2.407 -0.3290  0.9380  0.4594
    1BTD    C4910623   4.727   2.184   2.262  0.0822 -0.6871 -0.0796
    1BTD    C5010624   4.739   2.334   2.230  0.2959 -0.1225 -0.3013
    1BTD    C7510625   4.401   1.767   2.777 -0.3634 -0.6130  0.1661
    1BTD    C7610626   4.265   1.769   2.850  0.4794  0.2417  0.4100
    1BTD    C7710627   4.244   1.891   2.945 -0.4177 -0.1493  0.4169
    1BTD    C7810628   4.360   1.902   3.052  0.8805 -0.2322 -0.2268
    1BTD    C7910629   4.245   1.630   2.929  0.4587 -0.9592  0.4635
    1BTD    C8010630   4.117   1.579   2.995  0.3996 -0.3121 -0.2395
    1BTD    C8110631   4.162   1.554   3.138 -0.1689  0.3532  0.3624
    1BTD    C8210632   4.050   1.511   3.229  0.4705 -0.6593 -0.1811
    2TTP     S110633   4.245   1.993   2.123  0.1265  0.0268  0.0312
    2TTP     S510634   4.327   2.300   2.413 -0.2663  0.0704  0.0964
    2TTP     C110635   4.276   2.380   2.257 -0.0489  0.0471  0.0138
    2TTP     C210636   4.248   2.290   2.159  0.0854  0.0323 -0.0114
    2TTP     C310637   4.266   2.155   2.203  0.0211  0.0387  0.0340
    2TTP     C410638   4.296   1.914   2.279 -0.0910  0.0501  0.1140
    2TTP    C1710639   4.324   2.004   2.378 -0.2251  0.0649  0.1390
    2TTP    C1810640   4.307   2.139   2.334 -0.1611  0.0584  0.0937
    2TTP    C3210641   4.206   2.317   2.012 -0.3156 -0.1432 -0.1338
    2TTP    C3310642   4.059   2.304   1.974 -0.5182 -0.5830 -0.0543
    2TTP    C3410643   4.003   2.405   1.871  0.1026  0.5194 -0.0235
    2TTP    C3510644   4.014   2.547   1.916 -0.1249  0.2374 -0.2607
    2TTP    C3610645   3.966   2.648   1.818  0.0450 -0.2875  0.6372
    2TTP    C3710646   3.995   2.628   1.667  0.0008 -0.2099 -0.0625
    2TTP    C3810647   3.942   2.740   1.575  0.5679 -0.2815  0.3033
    2TTP    C3910648   4.026   2.743   1.447  0.3651 -0.0579  0.7146
    2TTP    C4010649   3.994   2.839   1.327  0.3879  0.0164 -0.3155
    2TTP    C4110650   4.020   2.985   1.360 -0.4903 -0.2494  0.1600
    2TTP    C4210651   3.992   3.081   1.246  0.1653  0.3467  0.1492
    3TTP     S110652   4.465   1.291   2.614  0.0651  0.2032  0.0732
    3TTP     S510653   4.676   1.514   2.916  0.2167 -0.3149  0.3529
    3TTP     C110654   4.724   1.339   2.929  0.1107 -0.3620  0.1240
    3TTP     C210655   4.662   1.260   2.836  0.0575 -0.2048  0.0243
    3TTP     C310656   4.574   1.335   2.752  0.0987 -0.0415  0.1248
    3TTP     C410657   4.417   1.466   2.601  0.1712  0.2503  0.3020
    3TTP    C1710658   4.479   1.545   2.693  0.2243  0.0931  0.4018
    3TTP    C1810659   4.567   1.471   2.778  0.1831 -0.0703  0.3011
    3TTP    C3210660   4.663   1.112   2.833  0.5559  0.1795  0.7210
    3TTP    C3310661   4.529   1.039   2.857 -0.3652  0.2576 -0.7528
    3TTP    C3410662   4.540   0.890   2.879  0.2298  0.4943  0.6729
    3TTP    C3510663   4.410   0.827   2.937  0.4051 -0.4772 -0.2066
    3TTP    C3610664   4.431   0.699   3.018 -0.1090 -0.3793  0.1963
    3TTP    C3710665   4.480   0.572   2.935  0.0949  0.2084 -0.0819
    3TTP    C3810666   4.378   0.504   2.850  0.0602  0.0373 -0.3180
    3TTP    C3910667   4.428   0.379   2.774  0.0618 -0.0533  0.2859
    3TTP    C4010668   4.335   0.324   2.663 -0.5510 -0.5935  0.7155
    3TTP    C4110669   4.317   0.428   2.550 -0.0409 -0.0240 -0.0782
    3TTP    C4210670   4.218   0.374   2.447  0.1177  0.4135 -0.0628
    4FIC     F110671   4.233   3.026   2.759 -0.4359  0.0166 -0.2580
    4FIC     F210672   4.295   3.186   2.548  0.4634 -0.0963 -0.0872
    4FIC     O110673   4.214   2.542   2.519 -0.7509  0.0635 -0.3280
    4FIC     N510674   4.371   3.070   2.073  1.5320 -0.2249  0.1084
    4FIC     N610675   4.343   2.659   1.928  1.1046 -0.1654  0.0192
    4FIC    C1910676   4.266   2.522   2.232 -0.0036 -0.0275 -0.1898
    4FIC    C2010677   4.269   2.638   2.301  0.0407 -0.0349 -0.1788
    4FIC    C2110678   4.241   2.640   2.448 -0.3597  0.0139 -0.2530
    4FIC    C2210679   4.251   2.780   2.491 -0.1944 -0.0086 -0.2190
    4FIC    C2310680   4.234   2.832   2.619 -0.4420  0.0207 -0.2637
    4FIC    C2410681   4.249   2.969   2.635 -0.2117 -0.0098 -0.2177
    4FIC    C2510682   4.281   3.051   2.526  0.2515 -0.0680 -0.1297
    4FIC    C2610683   4.299   3.000   2.398  0.5007 -0.0975 -0.0848
    4FIC    C2710684   4.284   2.862   2.380  0.2735 -0.0673 -0.1302
    4FIC    C2810685   4.296   2.777   2.258  0.4362 -0.0858 -0.1020
    4FIC    C2910686   4.326   2.821   2.131  0.8708 -0.1397 -0.0203
    4FIC    C3010687   4.350   2.958   2.100  1.2329 -0.1864  0.0502
    4FIC    C3110688   4.335   2.732   2.020  0.9968 -0.1535  0.0010
    5FIC     F110689   5.261   1.655   3.466 -0.1155 -0.0432  0.0718
    5FIC     F210690   5.322   1.402   3.545  0.1442 -0.0534 -0.1632
    5FIC     O110691   4.892   1.557   3.082 -0.1848 -0.0554  0.1412
    5FIC     N510692   5.148   0.968   3.383  0.4685 -0.0770 -0.4514
    5FIC     N610693   4.848   0.942   3.067  0.3620 -0.0845 -0.3499
    5FIC    C1910694   4.820   1.280   3.020  0.0389 -0.0697 -0.0586
    5FIC    C2010695   4.910   1.315   3.114  0.0461 -0.0661 -0.0669
    5FIC    C2110696   4.942   1.460   3.140 -0.0732 -0.0589  0.0398
    5FIC    C2210697   5.043   1.461   3.247 -0.0311 -0.0566  0.0000
    5FIC    C2310698   5.104   1.573   3.305 -0.1075 -0.0503  0.0676
    5FIC    C2410699   5.197   1.550   3.405 -0.0459 -0.0493  0.0103
    5FIC    C2510700   5.229   1.419   3.445  0.0879 -0.0546 -0.1107
    5FIC    C2610701   5.169   1.308   3.388  0.1647 -0.0610 -0.1787
    5FIC    C2710702   5.074   1.329   3.286  0.1041 -0.0620 -0.1222
    5FIC    C2810703   4.993   1.234   3.206  0.1569 -0.0681 -0.1682
    5FIC    C2910704   4.996   1.097   3.215  0.2841 -0.0744 -0.2828
    5FIC    C3010705   5.079   1.026   3.307  0.3852 -0.0758 -0.3752
    5FIC    C3110706   4.914   1.013   3.134  0.3263 -0.0799 -0.3190
    1BTD     S210707   3.295   9.219   3.174  0.3205  0.2795 -0.1180
    1BTD     N110708   3.316   9.041   3.181  0.5845  0.3066 -0.2106
    1BTD     N210709   3.354   9.247   3.342 -0.2272  0.2298  0.0878
    1BTD     N310710   3.513   8.981   3.695 -0.8661  0.1786  0.3405
    1BTD     N410711   3.467   8.727   3.496  0.1339  0.2732 -0.0272
    1BTD     C510712   3.395   8.880   3.348  0.3372  0.2880 -0.1104
    1BTD     C610713   3.364   9.012   3.301  0.2673  0.2789 -0.0895
    1BTD     C710714   3.385   9.128   3.391 -0.1869  0.2358  0.0775
    1BTD     C810715   3.437   9.105   3.524 -0.5487  0.2041  0.2153
    1BTD    C1510716   3.466   8.974   3.565 -0.4647  0.2146  0.1890
    1BTD    C1610717   3.446   8.863   3.478 -0.0269  0.2559  0.0279
    1BTD    C4310718   3.558   8.658   3.587  0.2045 -0.0095 -0.8508
    1BTD    C4410719   3.706   8.625   3.548 -0.0837 -0.3629 -0.0444
    1BTD    C4510720   3.768   8.743   3.493 -0.3598 -0.0979  0.6324
    1BTD    C4610721   3.892   8.720   3.413  0.1371  0.1176 -0.1875
    1BTD    C4710722   3.780   8.552   3.661 -0.2789 -0.8865 -0.1764
    1BTD    C4810723   3.800   8.628   3.794 -0.0257 -0.4593  0.5898
    1BTD    C4910724   3.889   8.553   3.889 -0.3794  0.6745  0.5660
    1BTD    C5010725   3.944   8.624   4.009  0.2778 -0.6235  0.4979
    1BTD    C7510726   3.505   8.883   3.800 -0.2247  0.2097  0.3628
    1BTD    C7610727   3.367   8.851   3.864 -0.2731 -0.5869  0.4410
    1BTD    C7710728   3.351   8.717   3.938  0.4178 -0.0329  0.6803
    1BTD    C7810729   3.452   8.680   4.047 -0.0645  0.2234  0.0237
    1BTD    C7910730   3.295   8.971   3.936 -0.4117  0.5199 -0.1339
    1BTD    C8010731   3.156   8.959   3.991  0.5644  0.3885 -0.2209
    1BTD    C8110732   3.087   9.086   4.027  0.2018 -0.0275  0.3409
    1BTD    C8210733   2.982   9.073   4.133  0.6929 -0.3453 -0.0975
    2TTP     S110734   3.372   8.674   3.124  0.0395  0.0820  0.0936
    2TTP     S510735   3.495   8.363   3.395 -0.3033 -0.1836 -0.0548
    2TTP     C110736   3.469   8.290   3.230 -0.1656 -0.0359 -0.1427
    2TTP     C210737   3.430   8.381   3.137 -0.0516  0.0553 -0.1019
    2TTP     C310738   3.419   8.513   3.192 -0.0690  0.0110  0.0000
    2TTP     C410739   3.398   8.747   3.288 -0.0984 -0.0656  0.1814
    2TTP    C1710740   3.437   8.655   3.382 -0.2122 -0.1566  0.1408
    2TTP    C1810741   3.448   8.524   3.327 -0.1950 -0.1128  0.0387
    2TTP    C3210742   3.394   8.347   2.994 -0.2965 -0.2572  0.5533
    2TTP    C3310743   3.245   8.363   2.952 -0.1762  0.2436  0.3799
    2TTP    C3410744   3.147   8.282   3.041  0.7251  0.2082 -0.0187
    2TTP    C3510745   2.991   8.292   3.009 -0.1805  0.2479 -0.1427
    2TTP    C3610746   2.920   8.173   3.070 -0.3121  0.4581 -0.5246
    2TTP    C3710747   2.779   8.140   3.024 -0.2836 -0.7358 -0.1179
    2TTP    C3810748   2.692   8.047   3.105 -0.7575 -0.0521 -0.2058
    2TTP    C3910749   2.720   7.901   3.106 -0.3616 -0.0011 -0.4210
    2TTP    C4010750   2.651   7.845   3.231 -0.0200 -0.0029 -0.5699
    2TTP    C4110751   2.688   7.697   3.258  0.2143 -0.6415  0.6660
    2TTP    C4210752   2.640   7.646   3.391  0.3070  0.1130 -0.0716
    3TTP     S110753   3.500   9.369   3.660  0.0087 -0.0885  0.0705
    3TTP     S510754   3.718   9.153   3.961 -0.3705 -0.2177  0.2537
    3TTP     C110755   3.748   9.331   3.984 -0.1644 -0.2437  0.1856
    3TTP     C210756   3.683   9.408   3.892 -0.0352 -0.2053  0.1250
    3TTP     C310757   3.606   9.329   3.801 -0.0941 -0.1540  0.1302
    3TTP     C410758   3.469   9.191   3.637 -0.1973 -0.0625  0.1386
    3TTP    C1710759   3.535   9.114   3.729 -0.3265 -0.1009  0.1992
    3TTP    C1810760   3.612   9.192   3.820 -0.2675 -0.1523  0.1940
    3TTP    C3210761   3.665   9.556   3.876  0.1483  0.4618 -0.1982
    3TTP    C3310762   3.548   9.617   3.950  0.8035 -0.2426 -0.0896
    3TTP    C3410763   3.495   9.751   3.914  0.0985 -0.0887  0.2823
    3TTP    C3510764   3.575   9.858   3.981  0.0969  0.8407  0.2061
    3TTP    C3610765   3.516   9.988   3.930  0.1676  0.0993  0.1006
    3TTP    C3710766   3.584  10.112   3.987  0.1461 -0.0277 -0.0596
    3TTP    C3810767   3.533  10.243   3.945 -0.1331 -0.4796  0.3446
    3TTP    C3910768   3.522  10.275   3.794  0.0973 -0.2009  0.0612
    3TTP    C4010769   3.455  10.416   3.760 -0.2732 -0.2806 -0.4063
    3TTP    C4110770   3.450  10.457   3.611 -0.6143  0.4890  0.5005
    3TTP    C4210771   3.395  10.356   3.509  0.4620 -0.1335  0.2216
    4FIC     F110772   3.544   7.568   3.614 -0.4996 -0.1496 -0.2388
    4FIC     F210773   3.652   7.464   3.387  0.0007 -0.1135 -0.0192
    4FIC     O110774   3.436   8.074   3.454 -0.0274 -0.0856 -0.3576
    4FIC     N510775   3.731   7.676   2.947  1.0566 -0.0155  0.2120
    4FIC     N610776   3.625   8.092   2.868  1.3247  0.0274  0.0749
    4FIC    C1910777   3.501   8.155   3.181  0.6184 -0.0280 -0.1900
    4FIC    C2010778   3.524   8.031   3.230  0.4799 -0.0453 -0.1686
    4FIC    C2110779   3.488   7.998   3.372  0.1470 -0.0749 -0.2592
    4FIC    C2210780   3.526   7.857   3.392  0.0708 -0.0881 -0.2080
    4FIC    C2310781   3.511   7.781   3.508 -0.2110 -0.1152 -0.2592
    4FIC    C2410782   3.555   7.649   3.503 -0.2278 -0.1231 -0.1936
    4FIC    C2510783   3.611   7.596   3.386  0.0302 -0.1045 -0.0804
    4FIC    C2610784   3.625   7.671   3.270  0.3121 -0.0774 -0.0288
    4FIC    C2710785   3.582   7.804   3.273  0.3337 -0.0688 -0.0939
    4FIC    C2810786   3.583   7.910   3.169  0.5953 -0.0418 -0.0653
    4FIC    C2910787   3.630   7.897   3.040  0.8885 -0.0182  0.0376
    4FIC    C3010788   3.685   7.775   2.989  0.9798 -0.0170  0.1331
    4FIC    C3110789   3.627   8.004   2.946  1.1267  0.0067  0.0576
    5FIC     F110790   4.297   9.087   4.551 -0.0364  0.1204  0.1961
    5FIC     F210791   4.343   9.348   4.611  0.1165  0.1948 -0.2406
    5FIC     O110792   3.927   9.135   4.158 -0.1326 -0.3252  0.2312
    5FIC     N510793   4.145   9.758   4.417  0.2675 -0.0155 -0.8435
    5FIC     N610794   3.847   9.743   4.098  0.1615 -0.3788 -0.7280
    5FIC    C1910795   3.840   9.401   4.076 -0.0207 -0.4123 -0.1736
    5FIC    C2010796   3.931   9.379   4.172 -0.0025 -0.3033 -0.1653
    5FIC    C2110797   3.971   9.239   4.209 -0.0631 -0.2649  0.0491
    5FIC    C2210798   4.071   9.251   4.317 -0.0241 -0.1423 -0.0006
    5FIC    C2310799   4.137   9.148   4.383 -0.0567 -0.0691  0.1459
    5FIC    C2410800   4.228   9.183   4.482 -0.0080  0.0437  0.0605
    5FIC    C2510801   4.251   9.318   4.512  0.0707  0.0817 -0.1645
    5FIC    C2610802   4.186   9.422   4.446  0.1035  0.0098 -0.3116
    5FIC    C2710803   4.093   9.387   4.346  0.0553 -0.1049 -0.2282
    5FIC    C2810804   4.008   9.472   4.259  0.0716 -0.2024 -0.3384
    5FIC    C2910805   4.002   9.609   4.258  0.1421 -0.1996 -0.5588
    5FIC    C3010806   4.081   9.691   4.345  0.2108 -0.0987 -0.7145
    5FIC    C3110807   3.917   9.682   4.170  0.1523 -0.2983 -0.6506
    1BTD     S210808   4.888   9.146   1.671  0.0280  0.0849  0.0261
    1BTD     N110809   4.864   8.968   1.675  0.1734  0.0639 -0.0145
    1BTD     N210810   4.836   9.163   1.499 -0.0646  0.0932  0.0547
    1BTD     N310811   4.688   8.877   1.158  0.0097  0.0725  0.0398
    1BTD     N410812   4.722   8.636   1.375  0.3030  0.0370 -0.0454
    1BTD     C510813   4.790   8.797   1.516  0.2376  0.0503 -0.0296
    1BTD     C610814   4.821   8.932   1.555  0.1470  0.0644 -0.0050
    1BTD     C710815   4.805   9.042   1.457  0.0137  0.0811  0.0336
    1BTD     C810816   4.759   9.011   1.324 -0.0222  0.0823  0.0459
    1BTD    C1510817   4.730   8.877   1.290  0.0697  0.0680  0.0209
    1BTD    C1610818   4.745   8.772   1.385  0.1979  0.0522 -0.0165
    1BTD    C4310819   4.646   8.559   1.274 -0.3071  0.2593  0.4628
    1BTD    C4410820   4.504   8.508   1.290 -0.6939  0.0528 -0.5679
    1BTD    C4510821   4.444   8.437   1.168 -0.4272 -0.0875  0.1765
    1BTD    C4610822   4.531   8.314   1.116  0.6253  0.1630  0.4398
    1BTD    C4710823   4.412   8.615   1.348  0.2957 -0.3548  0.4894
    1BTD    C4810824   4.303   8.574   1.438  0.1782  0.5771 -0.3454
    1BTD    C4910825   4.352   8.525   1.578  0.0472 -0.7877 -0.3290
    1BTD    C5010826   4.423   8.615   1.678  0.2373  0.2438  0.1763
    1BTD    C7510827   4.723   8.773   1.061 -0.0554  0.1280  0.5142
    1BTD    C7610828   4.661   8.753   0.919 -0.9161  0.1293  0.8356
    1BTD    C7710829   4.755   8.673   0.830 -0.8455 -0.0353  0.4923
    1BTD    C7810830   4.901   8.727   0.810  0.2605 -0.3296 -0.3261
    1BTD    C7910831   4.519   8.704   0.913  0.0070 -0.0419 -0.4925
    1BTD    C8010832   4.441   8.708   0.783  0.2438  0.4512  0.8260
    1BTD    C8110833   4.299   8.638   0.780 -0.7545  0.6085 -0.1228
    1BTD    C8210834   4.225   8.668   0.657  0.0170 -0.1166 -0.1410
    2TTP     S110835   4.820   8.604   1.753  0.2000  0.0989  0.1131
    2TTP     S510836   4.711   8.284   1.488  0.1310  0.3557 -0.1696
    2TTP     C110837   4.746   8.214   1.652  0.4198  0.1660 -0.3097
    2TTP     C210838   4.781   8.308   1.744  0.4581  0.0756 -0.2308
    2TTP     C310839   4.783   8.440   1.688  0.2609  0.1528 -0.0566
    2TTP     C410840   4.785   8.674   1.589 -0.0887  0.2887  0.2532
    2TTP    C1710841   4.749   8.579   1.497 -0.1270  0.3792  0.1742
    2TTP    C1810842   4.748   8.448   1.554  0.0702  0.3018  0.0001
    2TTP    C3210843   4.799   8.275   1.896  0.5720 -0.5395 -0.1314
    2TTP    C3310844   4.786   8.394   2.004  0.0053  0.4686  0.0393
    2TTP    C3410845   4.829   8.333   2.143  0.4970 -0.4671 -0.2162
    2TTP    C3510846   4.811   8.428   2.264 -0.0300 -0.4833  0.5517
    2TTP    C3610847   4.910   8.539   2.285 -0.4563  0.4828  0.9691
    2TTP    C3710848   4.873   8.632   2.400 -0.0460 -0.1839 -0.3741
    2TTP    C3810849   4.764   8.730   2.357  0.1916 -0.4830  0.5775
    2TTP    C3910850   4.793   8.875   2.397 -0.1508 -0.5599 -0.1032
    2TTP    C4010851   4.720   8.984   2.311 -0.0129 -0.0890 -0.0898
    2TTP    C4110852   4.741   9.130   2.356 -0.0381 -0.2667 -0.8410
    2TTP    C4210853   4.881   9.188   2.338 -0.5968 -0.0593  0.5313
    3TTP     S110854   4.704   9.266   1.192  0.1192  0.1180 -0.0751
    3TTP     S510855   4.486   9.051   0.890 -0.2079  0.1986  0.1035
    3TTP     C110856   4.452   9.229   0.870 -0.1179  0.2156  0.0992
    3TTP     C210857   4.518   9.306   0.963 -0.0112  0.1915  0.0437
    3TTP     C310858   4.597   9.227   1.052  0.0027  0.1590  0.0027
    3TTP     C410859   4.738   9.088   1.211  0.0292  0.1013 -0.0708
    3TTP    C1710860   4.672   9.011   1.119 -0.0773  0.1250 -0.0154
    3TTP    C1810861   4.593   9.090   1.030 -0.0914  0.1576  0.0256
    3TTP    C3210862   4.501   9.457   0.978 -0.4401 -0.4399 -1.8037
    3TTP    C3310863   4.622   9.549   0.961  0.0501 -0.0166  0.3704
    3TTP    C3410864   4.597   9.704   0.972  0.0287  0.6196  0.0465
    3TTP    C3510865   4.536   9.759   1.102  0.4078  0.6175 -0.3092
    3TTP    C3610866   4.453   9.883   1.093  0.8254 -0.0102 -0.3218
    3TTP    C3710867   4.339   9.880   0.985  0.5025 -0.4639  0.5595
    3TTP    C3810868   4.206   9.817   1.027  0.5169 -0.6896 -0.4369
    3TTP    C3910869   4.111   9.905   1.112  0.0159 -0.2014  0.1652
    3TTP    C4010870   4.143   9.908   1.257  0.5940 -0.0930  0.3823
    3TTP    C4110871   4.029   9.969   1.335  0.4614 -0.4703  0.1719
    3TTP    C4210872   4.058   9.981   1.480  1.3350 -0.0072 -0.2376
    4FIC     F110873   4.885   7.517   1.235 -0.3747 -0.0437 -0.1857
    4FIC     F210874   4.805   7.376   1.453 -0.1329 -0.0573 -0.1054
    4FIC     O110875   4.832   8.024   1.417 -0.2285 -0.0534 -0.1154
    4FIC     N510876   4.653   7.534   1.897  0.3189 -0.0840  0.0603
    4FIC     N610877   4.627   7.959   1.995  0.3842 -0.0890  0.0990
    4FIC    C1910878   4.737   8.069   1.690  0.0543 -0.0700 -0.0136
    4FIC    C2010879   4.753   7.947   1.636  0.0081 -0.0672 -0.0345
    4FIC    C2110880   4.803   7.932   1.494 -0.1389 -0.0585 -0.0870
    4FIC    C2210881   4.809   7.787   1.467 -0.1544 -0.0573 -0.0978
    4FIC    C2310882   4.849   7.725   1.350 -0.2722 -0.0503 -0.1419
    4FIC    C2410883   4.847   7.586   1.348 -0.2621 -0.0505 -0.1433
    4FIC    C2510884   4.805   7.513   1.461 -0.1372 -0.0575 -0.1019
    4FIC    C2610885   4.765   7.575   1.578 -0.0193 -0.0645 -0.0578
    4FIC    C2710886   4.767   7.716   1.582 -0.0277 -0.0645 -0.0556
    4FIC    C2810887   4.731   7.811   1.690  0.0771 -0.0707 -0.0151
    4FIC    C2910888   4.686   7.779   1.816  0.2122 -0.0784  0.0316
    4FIC    C3010889   4.668   7.644   1.860  0.2704 -0.0817  0.0472
    4FIC    C3110890   4.654   7.878   1.914  0.3061 -0.0842  0.0685
    5FIC     F110891   3.929   8.945   0.300  0.0803  0.2167 -0.1983
    5FIC     F210892   3.856   9.202   0.247 -0.2311  0.2019  0.1480
    5FIC     O110893   4.294   9.021   0.693  0.0393  0.1347 -0.1442
    5FIC     N510894   4.012   9.625   0.451 -0.7081  0.1223  0.6844
    5FIC     N610895   4.312   9.633   0.768 -0.6773  0.0610  0.6569
    5FIC    C1910896   4.354   9.293   0.782 -0.2729  0.0914  0.2058
    5FIC    C2010897   4.265   9.264   0.685 -0.2503  0.1125  0.1787
    5FIC    C2110898   4.240   9.122   0.645 -0.0862  0.1340 -0.0053
    5FIC    C2210899   4.138   9.126   0.538 -0.1044  0.1540  0.0128
    5FIC    C2310900   4.082   9.018   0.469  0.0148  0.1771 -0.1216
    5FIC    C2410901   3.988   9.047   0.372 -0.0315  0.1930 -0.0722
    5FIC    C2510902   3.951   9.179   0.345 -0.1919  0.1856  0.1063
    5FIC    C2610903   4.006   9.287   0.413 -0.3115  0.1621  0.2410
    5FIC    C2710904   4.102   9.260   0.512 -0.2670  0.1459  0.1937
    5FIC    C2810905   4.178   9.350   0.601 -0.3631  0.1202  0.3027
    5FIC    C2910906   4.170   9.488   0.605 -0.5255  0.1063  0.4839
    5FIC    C3010907   4.083   9.563   0.520 -0.6254  0.1147  0.5935
    5FIC    C3110908   4.248   9.567   0.695 -0.6082  0.0815  0.5780
    1BTD     S210909   3.598   4.187   0.252  0.0161  0.0129 -0.1972
    1BTD     N110910   3.608   4.366   0.267 -0.4462  0.0247  0.0085
    1BTD     N210911   3.647   4.155   0.422  0.2968 -0.0638 -0.2923
    1BTD     N310912   3.767   4.414   0.796  0.0345 -0.1981 -0.1148
    1BTD     N410913   3.718   4.673   0.605 -0.8812 -0.0890  0.2559
    1BTD     C510914   3.666   4.523   0.446 -0.6622 -0.0361  0.1332
    1BTD     C610915   3.646   4.391   0.392 -0.3713 -0.0263 -0.0037
    1BTD     C710916   3.668   4.273   0.479  0.0446 -0.0758 -0.1721
    1BTD     C810917   3.709   4.293   0.615  0.1488 -0.1327 -0.1952
    1BTD    C1510918   3.728   4.424   0.663 -0.1459 -0.1400 -0.0575
    1BTD    C1610919   3.707   4.538   0.580 -0.5467 -0.0925  0.1048
    1BTD    C4310920   3.795   4.740   0.710  0.3488 -0.2349  0.1003
    1BTD    C4410921   3.944   4.777   0.693 -0.2840  0.3898  0.3106
    1BTD    C4510922   4.023   4.657   0.650  0.3958  0.1352 -0.2170
    1BTD    C4610923   4.174   4.668   0.631 -0.7129 -0.5306 -0.3792
    1BTD    C4710924   4.017   4.863   0.803  1.0786 -0.0618  0.0380
    1BTD    C4810925   3.935   4.981   0.858  0.5395 -0.8324 -0.0228
    1BTD    C4910926   4.019   5.088   0.930  0.3632 -0.9538  0.1735
    1BTD    C5010927   3.931   5.205   0.979 -0.2239 -0.4465  0.2522
    1BTD    C7510928   3.714   4.492   0.906  0.4109  0.3928 -0.4857
    1BTD    C7610929   3.758   4.488   1.057 -0.2527 -0.2467 -0.1291
    1BTD    C7710930   3.897   4.554   1.069 -0.2580 -0.0196 -0.0753
    1BTD    C7810931   3.961   4.555   1.206 -0.5863 -0.3408  0.6223
    1BTD    C7910932   3.648   4.536   1.154 -0.1936 -0.1747  0.6548
    1BTD    C8010933   3.524   4.451   1.155  1.2113 -0.7642 -0.0347
    1BTD    C8110934   3.520   4.313   1.214  0.8100 -0.6205  0.1137
    1BTD    C8210935   3.391   4.235   1.196 -0.4628 -0.6234  0.3639
    2TTP     S110936   3.630   4.736   0.228 -0.4295 -0.0589  0.0019
    2TTP     S510937   3.728   5.038   0.519  0.5472 -0.1785 -0.1964
    2TTP     C110938   3.695   5.119   0.360  0.0333 -0.1148 -0.0632
    2TTP     C210939   3.663   5.031   0.260 -0.2984 -0.0740  0.0059
    2TTP     C310940   3.663   4.896   0.307 -0.1589 -0.0917 -0.0439
    2TTP     C410941   3.662   4.655   0.387  0.0845 -0.1225 -0.1313
    2TTP    C1710942   3.694   4.743   0.487  0.4163 -0.1633 -0.2004
    2TTP    C1810943   3.694   4.878   0.440  0.2767 -0.1458 -0.1507
    2TTP    C3210944   3.630   5.066   0.115 -0.3360 -0.5458 -0.3181
    2TTP    C3310945   3.483   5.093   0.089  0.3016 -0.1842  0.6204
    2TTP    C3410946   3.383   4.987   0.112  0.0777 -0.1752 -0.2616
    2TTP    C3510947   3.241   5.017   0.083  0.5398 -0.3660  0.2579
    2TTP    C3610948   3.165   5.140   0.141  0.2914 -0.1018  0.3274
    2TTP    C3710949   3.014   5.126   0.138 -0.0366 -1.0431  0.6743
    2TTP    C3810950   2.926   5.238   0.198 -0.4635 -0.3455  0.1375
    2TTP    C3910951   2.950   5.258   0.350  0.0734 -0.0588  0.1510
    2TTP    C4010952   2.893   5.387   0.401  0.2239 -0.2069 -0.7685
    2TTP    C4110953   2.952   5.427   0.533 -0.2477 -0.9988  0.4476
    2TTP    C4210954   2.871   5.545   0.577  0.5391 -0.2496  0.0286
    3TTP     S110955   3.755   4.025   0.740 -0.0831  0.0718  0.1238
    3TTP     S510956   3.973   4.218   1.056  0.3642 -0.2630  0.0215
    3TTP     C110957   4.000   4.039   1.069  0.1237 -0.3022 -0.0138
    3TTP     C210958   3.934   3.968   0.972 -0.0286 -0.2010  0.0157
    3TTP     C310959   3.860   4.054   0.884  0.0392 -0.0890  0.0673
    3TTP     C410960   3.728   4.204   0.728  0.1573  0.1109  0.1592
    3TTP    C1710961   3.794   4.275   0.825  0.3095  0.0099  0.1297
    3TTP    C1810962   3.868   4.189   0.912  0.2419 -0.1020  0.0781
    3TTP    C3210963   3.928   3.818   0.954  0.3465 -0.0584  0.2258
    3TTP    C3310964   3.803   3.750   1.024  0.0449 -0.5983 -0.3578
    3TTP    C3410965   3.800   3.600   1.022  0.5475  0.0776 -0.0009
    3TTP    C3510966   3.818   3.521   0.890  0.0543 -0.3080  0.0753
    3TTP    C3610967   3.964   3.494   0.867 -0.0286 -0.0812  0.3354
    3TTP    C3710968   4.002   3.424   0.732  0.0327 -0.4833 -0.5545
    3TTP    C3810969   4.160   3.415   0.703  0.3141  0.5397 -0.1216
    3TTP    C3910970   4.201   3.404   0.556 -0.0862  0.6242  0.0150
    3TTP    C4010971   4.346   3.398   0.509 -0.0274 -0.3704 -0.3434
    3TTP    C4110972   4.371   3.437   0.367  0.2725  0.6076 -0.2268
    3TTP    C4210973   4.512   3.400   0.325  0.3635 -0.2104 -0.1620
    4FIC     F110974   3.730   5.805   0.815  0.0979 -0.1566  0.0953
    4FIC     F210975   3.705   5.952   0.587 -0.3170 -0.0818  0.1870
    4FIC     O110976   3.729   5.302   0.614  0.3180 -0.0726 -0.1174
    4FIC     N510977   3.669   5.804   0.116 -0.7567  0.0857  0.1673
    4FIC     N610978   3.673   5.381   0.005 -0.5011  0.1364 -0.0173
    4FIC    C1910979   3.705   5.263   0.325 -0.0003  0.0288 -0.1053
    4FIC    C2010980   3.706   5.384   0.385 -0.0395  0.0049 -0.0553
    4FIC    C2110981   3.719   5.396   0.534  0.1324 -0.0472 -0.0654
    4FIC    C2210982   3.717   5.540   0.565  0.0369 -0.0622 -0.0017
    4FIC    C2310983   3.726   5.601   0.690  0.1345 -0.1074  0.0132
    4FIC    C2410984   3.721   5.739   0.694  0.0114 -0.1130  0.0771
    4FIC    C2510985   3.709   5.814   0.577 -0.2022 -0.0742  0.1243
    4FIC    C2610986   3.700   5.755   0.451 -0.3006 -0.0292  0.1098
    4FIC    C2710987   3.704   5.615   0.445 -0.1788 -0.0229  0.0454
    4FIC    C2810988   3.697   5.522   0.330 -0.2342  0.0198  0.0142
    4FIC    C2910989   3.684   5.557   0.197 -0.4287  0.0647  0.0442
    4FIC    C3010990   3.676   5.692   0.153 -0.6084  0.0761  0.1118
    4FIC    C3110991   3.678   5.460   0.092 -0.4675  0.1040  0.0102
    5FIC     F110992   4.524   4.291   1.651 -0.1458 -0.1181  0.0394
    5FIC     F210993   4.597   4.032   1.690  0.1206 -0.0938 -0.2850
    5FIC     O110994   4.154   4.236   1.260 -0.4753 -0.0588  0.3422
    5FIC     N510995   4.437   3.620   1.468  0.2691 -0.0167 -0.5357
    5FIC     N610996   4.133   3.628   1.154 -0.0421  0.0248 -0.2337
    5FIC    C1910997   4.091   3.968   1.158 -0.3377 -0.0144  0.1398
    5FIC    C2010998   4.182   3.992   1.255 -0.2651 -0.0303  0.0763
    5FIC    C2110999   4.208   4.133   1.302 -0.3436 -0.0526  0.1884
    5FIC    C2211000   4.311   4.123   1.407 -0.2334 -0.0658  0.0796
    5FIC    C2311001   4.368   4.227   1.480 -0.2542 -0.0876  0.1269
    5FIC    C2411002   4.464   4.193   1.575 -0.1330 -0.0965  0.0015
    5FIC    C2511003   4.501   4.060   1.595  0.0043 -0.0842 -0.1656
    5FIC    C2611004   4.445   3.956   1.522  0.0259 -0.0623 -0.2135
    5FIC    C2711005   4.348   3.988   1.426 -0.0955 -0.0530 -0.0884
    5FIC    C2811006   4.270   3.902   1.334 -0.1097 -0.0306 -0.0971
    5FIC    C2911007   4.277   3.765   1.323  0.0004 -0.0135 -0.2388
    5FIC    C3011008   4.365   3.686   1.403  0.1478 -0.0153 -0.4016
    5FIC    C3111009   4.198   3.691   1.230 -0.0235  0.0075 -0.2352
    1BTD     S211010   4.761   4.053   2.744  0.0321  0.0961 -0.1622
    1BTD     N111011   4.761   4.233   2.738 -0.0112  0.0992 -0.0720
    1BTD     N211012   4.704   4.033   2.575  0.2215  0.1646 -0.2347
    1BTD     N311013   4.588   4.316   2.219  0.5286  0.3098 -0.2199
    1BTD     N411014   4.659   4.562   2.421  0.2418  0.2294 -0.0194
    1BTD     C511015   4.707   4.402   2.570  0.1242  0.1681 -0.0469
    1BTD     C611016   4.721   4.267   2.617  0.1110  0.1485 -0.0992
    1BTD     C711017   4.689   4.155   2.525  0.2414  0.1854 -0.1904
    1BTD     C811018   4.644   4.184   2.392  0.3781  0.2395 -0.2246
    1BTD    C1511019   4.632   4.318   2.350  0.3861  0.2568 -0.1710
    1BTD    C1611020   4.663   4.425   2.438  0.2604  0.2216 -0.0832
    1BTD    C4311021   4.580   4.646   2.326 -0.1125 -0.3550  0.5248
    1BTD    C4411022   4.430   4.630   2.322 -0.0501  0.1729 -0.5890
    1BTD    C4511023   4.372   4.686   2.189 -0.4336  0.1000 -0.2357
    1BTD    C4611024   4.236   4.629   2.138  0.4136 -0.8957  0.4856
    1BTD    C4711025   4.374   4.685   2.458 -0.1136  0.2196  0.1359
    1BTD    C4811026   4.356   4.836   2.483  0.7900 -0.3855  0.2783
    1BTD    C4911027   4.250   4.860   2.588  0.1889 -0.7915  0.4089
    1BTD    C5011028   4.232   5.004   2.622 -0.6784 -0.1790  0.6217
    1BTD    C7511029   4.598   4.417   2.118  0.9351 -0.6290  0.2475
    1BTD    C7611030   4.722   4.436   2.027  0.4460  0.0905  0.3452
    1BTD    C7711031   4.727   4.566   1.950 -0.0895  0.6109  0.3146
    1BTD    C7811032   4.637   4.577   1.830  0.6844 -0.0075 -1.2600
    1BTD    C7911033   4.774   4.311   1.953  0.7113 -0.0139  0.3149
    1BTD    C8011034   4.914   4.325   1.895 -0.3594  0.0254  0.1217
    1BTD    C8111035   4.953   4.217   1.796 -0.1356  0.1241  0.3463
    1BTD    C8211036   4.881   4.218   1.666  0.4198  0.4790 -0.3810
    2TTP     S111037   4.786   4.608   2.788  0.1648 -0.1764 -0.1003
    2TTP     S511038   4.713   4.923   2.505  0.0001  0.1208  0.2720
    2TTP     C111039   4.767   4.998   2.662 -0.0159 -0.0376  0.3528
    2TTP     C211040   4.793   4.905   2.759  0.0340 -0.1388  0.2427
    2TTP     C311041   4.771   4.771   2.712  0.0868 -0.0949  0.0904
    2TTP     C411042   4.732   4.533   2.631  0.1810 -0.0179 -0.1811
    2TTP    C1711043   4.706   4.627   2.534  0.1310  0.0830 -0.0710
    2TTP    C1811044   4.728   4.760   2.581  0.0782  0.0391  0.0813
    2TTP    C3211045   4.825   4.928   2.904 -0.0159 -0.0848 -0.2065
    2TTP    C3311046   4.963   4.895   2.965 -0.0341  1.3727  1.1316
    2TTP    C3411047   5.092   4.941   2.911  0.0337 -0.7774 -0.1147
    2TTP    C3511048   5.111   5.087   2.868 -0.0792 -0.2311 -0.1679
    2TTP    C3611049   5.061   5.210   2.944 -0.3006  0.6638 -0.2761
    2TTP    C3711050   5.067   5.211   3.091  0.6603 -0.6810 -0.3939
    2TTP    C3811051   5.035   5.347   3.140  0.6289 -0.2866 -0.3421
    2TTP    C3911052   5.057   5.354   3.296  0.0322  0.2409  0.4014
    2TTP    C4011053   5.017   5.481   3.358  1.0087 -0.1667  0.0574
    2TTP    C4111054   5.023   5.487   3.511  0.3476  0.0519  0.1849
    2TTP    C4211055   4.965   5.619   3.569  0.3201  0.2994  0.8875
    3TTP     S111056   4.540   3.926   2.264 -0.2819  0.2546  0.1777
    3TTP     S511057   4.399   4.167   1.936 -0.0004  0.1042 -0.0549
    3TTP     C111058   4.336   3.997   1.915 -0.2268  0.1640  0.1270
    3TTP     C211059   4.376   3.913   2.015 -0.3270  0.2139  0.2095
    3TTP     C311060   4.457   3.979   2.112 -0.2288  0.2068  0.1321
    3TTP     C411061   4.602   4.096   2.285 -0.0556  0.1948 -0.0042
    3TTP    C1711062   4.563   4.180   2.185  0.0447  0.1447 -0.0867
    3TTP    C1811063   4.481   4.114   2.088 -0.0538  0.1519 -0.0092
    3TTP    C3211064   4.358   3.764   2.031  0.5119  0.4499 -0.1945
    3TTP    C3311065   4.466   3.673   1.953 -0.3116 -0.3662  0.5558
    3TTP    C3411066   4.490   3.533   2.010 -0.4952  0.2338 -0.5163
    3TTP    C3511067   4.380   3.426   2.025  0.3771 -0.6485 -0.3742
    3TTP    C3611068   4.268   3.451   2.123 -0.1747 -0.1232 -0.1795
    3TTP    C3711069   4.181   3.327   2.137  0.2417 -0.1246 -0.0146
    3TTP    C3811070   4.059   3.326   2.235 -0.3923 -0.0569 -0.0630
    3TTP    C3911071   4.093   3.378   2.373 -0.1267 -0.4307  0.1929
    3TTP    C4011072   3.987   3.325   2.463  0.6910 -0.5725 -0.5589
    3TTP    C4111073   4.007   3.367   2.610  0.1303 -0.5036 -0.1794
    3TTP    C4211074   3.906   3.296   2.710 -0.3247 -0.5028  0.1773
    4FIC     F111075   4.866   5.655   2.186  0.3335  0.2009  0.0370
    4FIC     F211076   4.794   5.814   2.395 -0.2840  0.0701 -0.0740
    4FIC     O111077   4.843   5.166   2.417  0.4315  0.1218 -0.1203
    4FIC     N511078   4.673   5.694   2.860 -1.1017 -0.1744 -0.3456
    4FIC     N611079   4.670   5.280   2.998 -0.9006 -0.2098 -0.4461
    4FIC    C1911080   4.766   5.144   2.699 -0.1234 -0.0312 -0.2821
    4FIC    C2011081   4.775   5.261   2.633 -0.1241 -0.0062 -0.2383
    4FIC    C2111082   4.815   5.264   2.488  0.1708  0.0733 -0.1554
    4FIC    C2211083   4.814   5.406   2.447  0.0882  0.0817 -0.1249
    4FIC    C2311084   4.845   5.459   2.322  0.2844  0.1456 -0.0507
    4FIC    C2411085   4.837   5.596   2.308  0.1527  0.1400 -0.0352
    4FIC    C2511086   4.800   5.678   2.415 -0.1653  0.0725 -0.0925
    4FIC    C2611087   4.769   5.626   2.540 -0.3625  0.0086 -0.1667
    4FIC    C2711088   4.776   5.487   2.557 -0.2334  0.0131 -0.1834
    4FIC    C2811089   4.751   5.401   2.675 -0.3766 -0.0437 -0.2554
    4FIC    C2911090   4.712   5.443   2.800 -0.6844 -0.1167 -0.3246
    4FIC    C3011091   4.691   5.581   2.833 -0.9129 -0.1482 -0.3359
    4FIC    C3111092   4.689   5.353   2.908 -0.8016 -0.1675 -0.3911
    5FIC     F111093   3.820   4.365   1.398 -0.2589  0.0079  0.4164
    5FIC     F211094   3.750   4.120   1.304  0.3676  0.0074 -0.0581
    5FIC     O111095   4.180   4.230   1.779 -0.4301  0.1595  0.6325
    5FIC     N511096   3.906   3.670   1.440  1.1463  0.1151 -0.5864
    5FIC     N611097   4.202   3.614   1.756  0.8863  0.2337 -0.3219
    5FIC    C1911098   4.241   3.948   1.824  0.1077  0.2131  0.2558
    5FIC    C2011099   4.153   3.991   1.732  0.1262  0.1749  0.2200
    5FIC    C2111100   4.127   4.138   1.715 -0.1607  0.1493  0.4227
    5FIC    C2211101   4.027   4.150   1.607 -0.0582  0.1099  0.3226
    5FIC    C2311102   3.972   4.267   1.556 -0.2414  0.0763  0.4421
    5FIC    C2411103   3.879   4.254   1.454 -0.0918  0.0422  0.3095
    5FIC    C2511104   3.843   4.127   1.405  0.2309  0.0422  0.0650
    5FIC    C2611105   3.898   4.010   1.456  0.4152  0.0756 -0.0553
    5FIC    C2711106   3.992   4.022   1.559  0.2679  0.1103  0.0758
    5FIC    C2811107   4.068   3.919   1.634  0.3942  0.1503  0.0031
    5FIC    C2911108   4.061   3.783   1.616  0.7007  0.1621 -0.2222
    5FIC    C3011109   3.976   3.721   1.519  0.9447  0.1362 -0.4217
    5FIC    C3111110   4.139   3.691   1.693  0.8010  0.2014 -0.2758
    1BTD     S211111   5.581   6.514   3.663  0.3356 -0.1034 -0.1550
    1BTD     N111112   5.552   6.337   3.660  0.2679 -0.0933 -0.1203
    1BTD     N211113   5.523   6.542   3.495  0.1446 -0.0834 -0.0866
    1BTD     N311114   5.354   6.277   3.146 -0.3667 -0.0247  0.1152
    1BTD     N411115   5.390   6.024   3.349 -0.2149 -0.0371  0.0737
    1BTD     C511116   5.467   6.177   3.495  0.0138 -0.0638 -0.0185
    1BTD     C611117   5.504   6.308   3.539  0.1143 -0.0764 -0.0626
    1BTD     C711118   5.487   6.423   3.447  0.0455 -0.0709 -0.0437
    1BTD     C811119   5.435   6.400   3.315 -0.1205 -0.0530  0.0182
    1BTD    C1511120   5.401   6.270   3.276 -0.2142 -0.0409  0.0598
    1BTD    C1611121   5.417   6.159   3.365 -0.1478 -0.0463  0.0416
    1BTD    C4311122   5.308   5.950   3.250  0.2893  0.4815 -0.0553
    1BTD    C4411123   5.162   5.926   3.291  0.3827 -0.2664  0.3188
    1BTD    C4511124   5.084   6.041   3.355 -0.4962  0.1047 -0.1132
    1BTD    C4611125   4.957   6.014   3.437 -0.0571 -0.0554  0.4197
    1BTD    C4711126   5.086   5.841   3.190 -0.5051  0.5930  0.3676
    1BTD    C4811127   5.037   5.906   3.056 -0.0134  1.3227 -0.0975
    1BTD    C4911128   5.051   5.809   2.932 -0.3859 -0.5339  0.3710
    1BTD    C5011129   4.967   5.861   2.816 -0.0698 -0.2678 -0.3193
    1BTD    C7511130   5.344   6.177   3.043 -0.4536 -0.3594  0.0819
    1BTD    C7611131   5.465   6.134   2.957 -0.3497 -0.0680  0.1126
    1BTD    C7711132   5.428   6.007   2.866 -0.2025  0.0023 -0.7436
    1BTD    C7811133   5.323   6.021   2.755 -0.1520 -0.6081 -0.0197
    1BTD    C7911134   5.527   6.251   2.877  0.0172  0.2894  0.0982
    1BTD    C8011135   5.652   6.225   2.793 -0.1965 -0.0599  0.2123
    1BTD    C8111136   5.739   6.347   2.759 -0.4502 -0.0362  0.1095
    1BTD    C8211137   5.826   6.325   2.629 -0.0384 -0.2736  0.0065
    2TTP     S111138   5.531   5.962   3.703 -0.2269 -0.1831  0.1335
    2TTP     S511139   5.343   5.666   3.454  0.0576 -0.3103  0.0699
    2TTP     C111140   5.401   5.585   3.607  0.2273 -0.3085  0.0074
    2TTP     C211141   5.462   5.672   3.693  0.1494 -0.2693  0.0233
    2TTP     C311142   5.466   5.805   3.641 -0.0470 -0.2388  0.0855
    2TTP     C411143   5.473   6.043   3.551 -0.3965 -0.1848  0.1960
    2TTP    C1711144   5.412   5.956   3.465 -0.3186 -0.2241  0.1801
    2TTP    C1811145   5.408   5.823   3.516 -0.1222 -0.2544  0.1179
    2TTP    C3211146   5.511   5.654   3.840  1.1048  0.0268 -0.1036
    2TTP    C3311147   5.656   5.665   3.869 -0.4919  0.3230 -0.2856
    2TTP    C3411148   5.725   5.540   3.830 -0.1773  0.4274 -0.1056
    2TTP    C3511149   5.877   5.557   3.854  1.1422  0.1329  0.0990
    2TTP    C3611150   5.954   5.470   3.763  0.2189 -0.0469  0.3831
    2TTP    C3711151   6.104   5.471   3.783  0.1012  0.2082 -0.4392
    2TTP    C3811152   6.199   5.406   3.687 -0.2384  0.1455  0.3371
    2TTP    C3911153   6.182   5.257   3.653 -0.1309  0.2454  0.3438
    2TTP    C4011154   6.275   5.235   3.526  0.5391  0.6228 -0.7093
    2TTP    C4111155   6.258   5.102   3.453  0.3570 -0.3367 -0.1435
    2TTP    C4211156   6.336   5.092   3.320  0.2171  0.2461 -0.0033
    3TTP     S111157   5.375   6.664   3.180  0.1964  0.0549 -0.0285
    3TTP     S511158   5.167   6.444   2.875 -0.3940  0.1936  0.2716
    3TTP     C111159   5.138   6.622   2.848 -0.0254  0.2305  0.1070
    3TTP     C211160   5.201   6.700   2.941  0.1787  0.1895  0.0046
    3TTP     C311161   5.274   6.623   3.037  0.0511  0.1280  0.0525
    3TTP     C411162   5.404   6.486   3.207 -0.1720  0.0181  0.1361
    3TTP    C1711163   5.341   6.408   3.114 -0.3762  0.0590  0.2384
    3TTP    C1811164   5.268   6.486   3.019 -0.2488  0.1205  0.1906
    3TTP    C3211165   5.222   6.855   2.944  0.8017  0.3456 -0.4159
    3TTP    C3311166   5.337   6.919   2.865 -0.2373  0.3919 -0.0235
    3TTP    C3411167   5.342   7.064   2.845 -0.3526  0.0255 -0.2593
    3TTP    C3511168   5.448   7.131   2.936 -0.8082 -0.4477  1.2311
    3TTP    C3611169   5.440   7.282   2.932 -0.4612  0.2216  0.0011
    3TTP    C3711170   5.308   7.349   2.975 -0.2319 -0.3815 -0.2092
    3TTP    C3811171   5.273   7.497   2.941 -0.8111 -0.5913 -0.0786
    3TTP    C3911172   5.336   7.618   3.016 -0.2860 -0.5668 -0.0258
    3TTP    C4011173   5.343   7.624   3.165  0.2565 -0.5036 -0.4712
    3TTP    C4111174   5.448   7.723   3.218  0.3941 -0.3326 -0.1403
    3TTP    C4211175   5.452   7.718   3.374  0.0046  0.2854  0.3203
    4FIC     F111176   5.409   4.923   3.129 -0.2649  0.1943  0.1185
    4FIC     F211177   5.406   4.768   3.353  0.2904  0.1371  0.0879
    4FIC     O111178   5.411   5.418   3.347 -0.3557  0.1436  0.2342
    4FIC     N511179   5.404   4.899   3.831  1.0238  0.0191  0.1264
    4FIC     N611180   5.406   5.318   3.956  0.8407 -0.0089  0.2230
    4FIC    C1911181   5.409   5.447   3.638  0.1423  0.0713  0.2462
    4FIC    C2011182   5.409   5.328   3.575  0.1434  0.0861  0.2182
    4FIC    C2111183   5.410   5.322   3.425 -0.1212  0.1235  0.2139
    4FIC    C2211184   5.409   5.179   3.389 -0.0461  0.1315  0.1810
    4FIC    C2311185   5.409   5.123   3.261 -0.2220  0.1630  0.1660
    4FIC    C2411186   5.409   4.984   3.252 -0.1031  0.1640  0.1346
    4FIC    C2511187   5.407   4.905   3.368  0.1831  0.1345  0.1190
    4FIC    C2611188   5.407   4.960   3.496  0.3598  0.1032  0.1338
    4FIC    C2711189   5.408   5.100   3.507  0.2432  0.1014  0.1655
    4FIC    C2811190   5.407   5.189   3.626  0.3710  0.0722  0.1877
    4FIC    C2911191   5.406   5.149   3.757  0.6475  0.0393  0.1813
    4FIC    C3011192   5.405   5.012   3.797  0.8533  0.0283  0.1512
    4FIC    C3111193   5.406   5.242   3.866  0.7522  0.0129  0.2044
    5FIC     F111194   4.641   6.348   2.255  0.0703 -0.0266  0.0444
    5FIC     F211195   4.579   6.607   2.196 -0.0197 -0.0510  0.0345
    5FIC     O111196   4.988   6.417   2.664  0.0641  0.1105  0.0266
    5FIC     N511197   4.736   7.027   2.405 -0.1534  0.0117  0.0077
    5FIC     N611198   5.019   7.029   2.737 -0.1400  0.1239 -0.0041
    5FIC    C1911199   5.052   6.688   2.754 -0.0238  0.1360  0.0110
    5FIC    C2011200   4.967   6.661   2.654 -0.0188  0.1024  0.0157
    5FIC    C2111201   4.939   6.519   2.613  0.0275  0.0913  0.0237
    5FIC    C2211202   4.843   6.525   2.501  0.0210  0.0535  0.0274
    5FIC    C2311203   4.788   6.418   2.431  0.0540  0.0315  0.0349
    5FIC    C2411204   4.700   6.449   2.329  0.0394 -0.0035  0.0371
    5FIC    C2511205   4.667   6.582   2.299 -0.0071 -0.0161  0.0320
    5FIC    C2611206   4.722   6.689   2.369 -0.0403  0.0057  0.0246
    5FIC    C2711207   4.812   6.660   2.472 -0.0261  0.0412  0.0223
    5FIC    C2811208   4.886   6.749   2.565 -0.0523  0.0709  0.0148
    5FIC    C2911209   4.882   6.886   2.568 -0.0987  0.0691  0.0085
    5FIC    C3011210   4.801   6.963   2.478 -0.1285  0.0376  0.0081
    5FIC    C3111211   4.958   6.964   2.661 -0.1212  0.0992  0.0015
    1BTD     S211212   4.388   6.459   1.228 -0.1221 -0.1603 -0.2294
    1BTD     N111213   4.396   6.280   1.239 -0.5648 -0.1644  0.1265
    1BTD     N211214   4.461   6.487   1.390  0.4139 -0.0036 -0.4951
    1BTD     N311215   4.627   6.220   1.739  0.7068  0.3082 -0.3939
    1BTD     N411216   4.547   5.964   1.552 -0.4992  0.1101  0.3719
    1BTD     C511217   4.476   6.118   1.405 -0.5161 -0.0186  0.2454
    1BTD     C611218   4.451   6.251   1.356 -0.3037 -0.0545  0.0337
    1BTD     C711219   4.487   6.367   1.441  0.2440  0.0354 -0.3142
    1BTD     C811220   4.547   6.344   1.570  0.5522  0.1568 -0.4331
    1BTD    C1511221   4.569   6.212   1.613  0.3281  0.1877 -0.2169
    1BTD    C1611222   4.535   6.101   1.532 -0.1999  0.1010  0.1183
    1BTD    C4311223   4.639   5.890   1.642 -0.3519 -0.1078 -0.6020
    1BTD    C4411224   4.792   5.919   1.621 -0.2525  0.4292 -0.6397
    1BTD    C4511225   4.860   5.858   1.745 -0.1284 -0.3207 -0.0918
    1BTD    C4611226   5.006   5.900   1.775 -0.1545 -0.3852  0.4085
    1BTD    C4711227   4.852   5.896   1.478  0.3083  0.1911 -0.0586
    1BTD    C4811228   4.864   5.747   1.432  0.3670  0.4325 -0.3605
    1BTD    C4911229   4.861   5.733   1.289  0.7948  0.0589  0.8697
    1BTD    C5011230   4.880   5.599   1.232  0.0976 -0.0065 -0.6539
    1BTD    C7511231   4.626   6.130   1.854  0.6695  0.3633  0.2119
    1BTD    C7611232   4.541   6.152   1.981  0.1531 -0.5039  0.1017
    1BTD    C7711233   4.550   6.057   2.101  0.5177  0.1564  0.0850
    1BTD    C7811234   4.679   6.018   2.169  0.3044  0.4965  0.3315
    1BTD    C7911235   4.397   6.192   1.948 -0.1793 -0.1144 -0.0738
    1BTD    C8011236   4.307   6.257   2.059 -0.2983 -0.0636  0.0552
    1BTD    C8111237   4.343   6.377   2.138  0.0613 -1.2876  0.2509
    1BTD    C8211238   4.247   6.407   2.251  0.1780  0.4281  0.0128
    2TTP     S111239   4.371   5.915   1.206 -0.3422  0.1620  0.0541
    2TTP     S511240   4.505   5.599   1.464  0.5187  0.0880 -0.4759
    2TTP     C111241   4.429   5.525   1.317  0.1193  0.1304 -0.2941
    2TTP     C211242   4.383   5.618   1.228 -0.1699  0.1558 -0.1197
    2TTP     C311243   4.407   5.752   1.274 -0.0869  0.1427 -0.1234
    2TTP     C411244   4.447   5.989   1.354  0.0572  0.1197 -0.1277
    2TTP    C1711245   4.493   5.896   1.442  0.3462  0.0944 -0.3022
    2TTP    C1811246   4.470   5.763   1.397  0.2632  0.1075 -0.2984
    2TTP    C3211247   4.313   5.602   1.093  0.0464  0.8539 -0.7370
    2TTP    C3311248   4.177   5.675   1.078 -0.4772 -0.7177  0.6135
    2TTP    C3411249   4.092   5.652   0.950  0.3151  0.0308 -0.5257
    2TTP    C3511250   4.170   5.634   0.818 -0.4464  0.5165  0.4968
    2TTP    C3611251   4.086   5.600   0.699  0.7700 -0.2329 -0.1702
    2TTP    C3711252   4.169   5.606   0.567 -0.4133 -0.2214  0.1022
    2TTP    C3811253   4.095   5.554   0.447 -0.1297  0.5799  0.1377
    2TTP    C3911254   4.194   5.563   0.330  0.1439 -0.8152  0.3852
    2TTP    C4011255   4.136   5.562   0.187  0.1623 -0.0357 -0.1475
    2TTP    C4111256   4.045   5.675   0.142  0.2314 -0.0710 -0.3879
    2TTP    C4211257   4.099   5.813   0.122 -0.3441 -0.5198  0.0573
    3TTP     S111258   4.637   6.606   1.694  0.2818  0.0412 -0.0832
    3TTP     S511259   4.837   6.374   1.996  0.3480 -0.0608 -0.2051
    3TTP     C111260   4.886   6.548   2.015  0.1572 -0.0293  0.0007
    3TTP     C211261   4.827   6.630   1.923  0.1256  0.0039  0.0505
    3TTP     C311262   4.741   6.558   1.834  0.2509  0.0060 -0.0722
    3TTP     C411263   4.589   6.432   1.675  0.4725  0.0097 -0.2890
    3TTP    C1711264   4.647   6.350   1.767  0.5043 -0.0236 -0.3388
    3TTP    C1811265   4.733   6.422   1.856  0.3790 -0.0256 -0.2162
    3TTP    C3211266   4.835   6.784   1.900  0.0172 -0.3775 -0.5835
    3TTP    C3311267   4.729   6.873   1.968 -0.3650  0.5205 -0.1824
    3TTP    C3411268   4.751   7.024   1.944  0.6703 -0.7334 -0.2265
    3TTP    C3511269   4.765   7.084   1.802 -0.7425  0.0638  0.1798
    3TTP    C3611270   4.638   7.066   1.721 -0.4223  0.1064 -0.1329
    3TTP    C3711271   4.651   7.151   1.596  0.4951 -0.2842 -0.4792
    3TTP    C3811272   4.508   7.199   1.555 -0.3464  0.5733 -0.0506
    3TTP    C3911273   4.497   7.265   1.417  0.4462 -1.0728 -0.1741
    3TTP    C4011274   4.354   7.295   1.395  0.9426  0.3486 -0.7641
    3TTP    C4111275   4.322   7.352   1.260 -0.3974  0.0574  0.9713
    3TTP    C4211276   4.184   7.415   1.254  0.0451  0.0526  0.7893
    4FIC     F111277   4.496   4.847   1.775  0.1576 -0.0917 -0.1101
    4FIC     F211278   4.428   4.700   1.556  0.0824  0.0068 -0.1524
    4FIC     O111279   4.473   5.349   1.574  0.0050  0.0042  0.1461
    4FIC     N511280   4.312   4.847   1.098 -0.1345  0.2166 -0.0308
    4FIC     N611281   4.307   5.269   0.985 -0.2387  0.2716  0.1779
    4FIC    C1911282   4.398   5.387   1.293 -0.1210  0.1322  0.1966
    4FIC    C2011283   4.407   5.267   1.352 -0.0796  0.1043  0.1338
    4FIC    C2111284   4.446   5.255   1.497 -0.0159  0.0383  0.1115
    4FIC    C2211285   4.446   5.111   1.529  0.0169  0.0224  0.0411
    4FIC    C2311286   4.475   5.051   1.651  0.0774 -0.0336 -0.0010
    4FIC    C2411287   4.468   4.913   1.657  0.0983 -0.0375 -0.0658
    4FIC    C2511288   4.433   4.838   1.545  0.0593  0.0132 -0.0875
    4FIC    C2611289   4.403   4.897   1.422 -0.0012  0.0694 -0.0459
    4FIC    C2711290   4.410   5.037   1.414 -0.0229  0.0741  0.0200
    4FIC    C2811291   4.384   5.129   1.301 -0.0838  0.1265  0.0761
    4FIC    C2911292   4.347   5.094   1.173 -0.1343  0.1844  0.0748
    4FIC    C3011293   4.328   4.959   1.133 -0.1345  0.2019  0.0167
    4FIC    C3111294   4.325   5.191   1.070 -0.1915  0.2321  0.1315
    5FIC     F111295   5.391   6.244   2.590 -0.3084 -0.2738  0.0381
    5FIC     F211296   5.442   6.498   2.672 -0.0732 -0.3310  0.0705
    5FIC     O111297   5.048   6.336   2.181 -0.1460  0.0998 -0.0145
    5FIC     N511298   5.271   6.929   2.499  0.3804 -0.1472  0.0795
    5FIC     N611299   4.993   6.950   2.163  0.4599  0.1562  0.0318
    5FIC    C1911300   4.975   6.611   2.114  0.1363  0.1775 -0.0023
    5FIC    C2011301   5.060   6.578   2.214  0.0862  0.0859  0.0097
    5FIC    C2111302   5.092   6.434   2.242 -0.0600  0.0513  0.0023
    5FIC    C2211303   5.186   6.434   2.356 -0.0803 -0.0511  0.0190
    5FIC    C2311304   5.244   6.324   2.418 -0.1996 -0.1140  0.0193
    5FIC    C2411305   5.330   6.348   2.524 -0.1941 -0.2077  0.0369
    5FIC    C2511306   5.356   6.479   2.566 -0.0731 -0.2370  0.0535
    5FIC    C2611307   5.298   6.590   2.505  0.0464 -0.1748  0.0533
    5FIC    C2711308   5.211   6.567   2.397  0.0428 -0.0795  0.0356
    5FIC    C2811309   5.135   6.661   2.312  0.1501  0.0035  0.0306
    5FIC    C2911310   5.134   6.798   2.321  0.2831  0.0039  0.0429
    5FIC    C3011311   5.209   6.870   2.419  0.3362 -0.0793  0.0629
    5FIC    C3111312   5.057   6.881   2.234  0.3796  0.0876  0.0367
    1BTD     S211313   5.692   6.705   2.628 -0.1056  0.0799 -0.0435
    1BTD     N111314   5.678   6.884   2.623  0.0154  0.0906  0.0134
    1BTD     N211315   5.627   6.681   2.462 -0.1444  0.1746 -0.0423
    1BTD     N311316   5.471   6.956   2.114 -0.0050  0.3868  0.0628
    1BTD     N411317   5.535   7.206   2.313  0.1919  0.2835  0.1314
    1BTD     C511318   5.603   7.049   2.459  0.1051  0.1925  0.0741
    1BTD     C611319   5.629   6.915   2.504  0.0204  0.1606  0.0295
    1BTD     C711320   5.600   6.801   2.414 -0.0690  0.2075 -0.0017
    1BTD     C811321   5.547   6.827   2.283 -0.0693  0.2841  0.0134
    1BTD    C1511322   5.522   6.960   2.243  0.0154  0.3130  0.0574
    1BTD    C1611323   5.550   7.070   2.330  0.1018  0.2678  0.0874
    1BTD    C4311324   5.458   7.288   2.215  0.2726  0.5249  0.3632
    1BTD    C4411325   5.319   7.330   2.271  0.1944  0.1662  0.3456
    1BTD    C4511326   5.242   7.216   2.353 -0.0191  0.2083  0.0392
    1BTD    C4611327   5.117   7.252   2.436 -0.0640 -0.2466  0.7265
    1BTD    C4711328   5.234   7.391   2.158 -0.1842 -1.1034  0.2818
    1BTD    C4811329   5.208   7.317   2.030  0.5641  0.3832  0.1636
    1BTD    C4911330   5.059   7.274   1.997 -0.3862  0.5073 -0.0213
    1BTD    C5011331   4.966   7.393   1.960 -0.5456  0.2232  0.4438
    1BTD    C7511332   5.489   7.058   2.012  0.6296  0.4624  0.1424
    1BTD    C7611333   5.629   7.077   1.949  0.4139  0.3050  0.5587
    1BTD    C7711334   5.651   7.207   1.875  0.3501  0.2394  0.2783
    1BTD    C7811335   5.574   7.243   1.744 -0.2830  0.1372 -0.3697
    1BTD    C7911336   5.680   6.951   1.876  0.0016  0.8288 -0.3321
    1BTD    C8011337   5.825   6.942   1.829 -0.2182  0.4699  0.3236
    1BTD    C8111338   5.847   6.804   1.770  0.0808 -0.1933 -0.4630
    1BTD    C8211339   5.950   6.798   1.664  0.0754 -0.0341  0.3341
    2TTP     S111340   5.682   7.251   2.674 -0.1090 -0.1010 -0.1815
    2TTP     S511341   5.557   7.567   2.411 -0.3294  0.1957  0.2775
    2TTP     C111342   5.612   7.641   2.569 -0.3162  0.0104  0.3598
    2TTP     C211343   5.654   7.547   2.659 -0.2476 -0.0921  0.2229
    2TTP     C311344   5.644   7.414   2.607 -0.2025 -0.0280  0.0480
    2TTP     C411345   5.627   7.177   2.517 -0.1222  0.0842 -0.2639
    2TTP    C1711346   5.585   7.271   2.426 -0.1909  0.1868 -0.1270
    2TTP    C1811347   5.595   7.404   2.478 -0.2358  0.1228  0.0478
    2TTP    C3211348   5.700   7.565   2.807 -0.2396  0.0159 -0.4888
    2TTP    C3311349   5.855   7.582   2.829 -0.5768 -0.5095  0.0413
    2TTP    C3411350   5.932   7.698   2.763  0.3705  0.2201 -0.4360
    2TTP    C3511351   6.065   7.728   2.833 -0.0617 -0.2574 -0.7109
    2TTP    C3611352   6.149   7.850   2.791  0.8690 -0.9890 -0.0022
    2TTP    C3711353   6.206   7.852   2.651 -0.4539 -0.4302 -0.0645
    2TTP    C3811354   6.286   7.981   2.625  0.7098  0.5155 -0.8641
    2TTP    C3911355   6.316   7.992   2.482  0.6227 -0.0198  0.2620
    2TTP    C4011356   6.410   8.104   2.464 -0.2467 -0.2601  0.2488
    2TTP    C4111357   6.444   8.141   2.320 -0.1111  0.2869  0.4071
    2TTP    C4211358   6.543   8.256   2.319 -0.0737 -0.0054 -0.1914
    3TTP     S111359   5.465   6.567   2.141 -0.1706  0.0668 -0.1298
    3TTP     S511360   5.256   6.801   1.848 -0.1761 -0.1117 -0.2688
    3TTP     C111361   5.223   6.625   1.816 -0.1415 -0.1330 -0.1875
    3TTP     C211362   5.285   6.542   1.905 -0.1378 -0.0792 -0.1399
    3TTP     C311363   5.362   6.615   2.001 -0.1621 -0.0190 -0.1657
    3TTP     C411364   5.498   6.743   2.173 -0.2052  0.0882 -0.2109
    3TTP    C1711365   5.435   6.826   2.085 -0.2088  0.0343 -0.2587
    3TTP    C1811366   5.359   6.753   1.988 -0.1845 -0.0259 -0.2328
    3TTP    C3211367   5.288   6.390   1.907 -0.0152 -0.7145  0.4420
    3TTP    C3311368   5.411   6.317   1.865  0.2807 -0.2229  0.6793
    3TTP    C3411369   5.394   6.170   1.867 -0.8098  0.4652 -0.0510
    3TTP    C3511370   5.522   6.090   1.896  0.2511  0.6863 -0.4915
    3TTP    C3611371   5.491   5.938   1.930 -0.0559 -0.1455 -0.3398
    3TTP    C3711372   5.429   5.900   2.067  0.6008 -0.4423  0.3844
    3TTP    C3811373   5.280   5.933   2.090 -0.8229 -0.6702  0.2716
    3TTP    C3911374   5.248   5.918   2.237  0.3871  0.1511  0.4563
    3TTP    C4011375   5.113   5.974   2.281 -0.0324 -0.3983 -0.1016
    3TTP    C4111376   5.096   5.980   2.437  0.5740  0.1331  0.3293
    3TTP    C4211377   4.981   6.076   2.470  0.5210 -0.0299 -0.1801
    4FIC     F111378   5.529   8.333   2.132  0.0031 -0.2906 -0.1718
    4FIC     F211379   5.554   8.475   2.363  0.1755 -0.1504 -0.2763
    4FIC     O111380   5.580   7.827   2.317 -0.2714 -0.1996  0.1553
    4FIC     N511381   5.627   8.318   2.827  0.2277  0.1156 -0.1935
    4FIC     N611382   5.661   7.893   2.924 -0.0216  0.1587  0.0831
    4FIC    C1911383   5.622   7.782   2.603 -0.2043 -0.0334  0.1716
    4FIC    C2011384   5.608   7.904   2.548 -0.1419 -0.0618  0.0933
    4FIC    C2111385   5.587   7.919   2.400 -0.1820 -0.1478  0.0904
    4FIC    C2211386   5.576   8.063   2.373 -0.0949 -0.1588 -0.0042
    4FIC    C2311387   5.555   8.126   2.250 -0.0947 -0.2286 -0.0401
    4FIC    C2411388   5.549   8.265   2.250 -0.0025 -0.2240 -0.1318
    4FIC    C2511389   5.562   8.337   2.369  0.0861 -0.1516 -0.1856
    4FIC    C2611390   5.582   8.276   2.492  0.0865 -0.0818 -0.1503
    4FIC    C2711391   5.589   8.135   2.494 -0.0061 -0.0851 -0.0575
    4FIC    C2811392   5.610   8.040   2.606 -0.0314 -0.0229  0.0004
    4FIC    C2911393   5.627   8.073   2.739  0.0348  0.0560 -0.0271
    4FIC    C3011394   5.627   8.207   2.787  0.1405  0.0885 -0.1185
    4FIC    C3111395   5.646   7.974   2.840  0.0035  0.1121  0.0337
    5FIC     F111396   4.704   6.922   1.255  0.3057 -0.1447 -0.4249
    5FIC     F211397   4.634   6.666   1.194 -0.3393 -0.1373  0.2545
    5FIC     O111398   5.071   6.837   1.644  0.6112 -0.0553 -0.6934
    5FIC     N511399   4.795   6.238   1.383 -1.0486 -0.0632  1.0398
    5FIC     N611400   5.096   6.223   1.699 -0.6800  0.0052  0.6930
    5FIC    C1911401   5.135   6.563   1.723  0.1036 -0.0165 -0.1397
    5FIC    C2011402   5.045   6.594   1.628  0.0520 -0.0392 -0.0987
    5FIC    C2111403   5.018   6.738   1.592  0.3252 -0.0583 -0.3957
    5FIC    C2211404   4.916   6.736   1.486  0.1862 -0.0808 -0.2630
    5FIC    C2311405   4.859   6.845   1.421  0.3459 -0.1034 -0.4432
    5FIC    C2411406   4.764   6.819   1.323  0.1631 -0.1220 -0.2625
    5FIC    C2511407   4.728   6.687   1.292 -0.1691 -0.1181  0.0875
    5FIC    C2611408   4.785   6.577   1.356 -0.3303 -0.0957  0.2688
    5FIC    C2711409   4.881   6.602   1.456 -0.1490 -0.0767  0.0903
    5FIC    C2811410   4.959   6.510   1.542 -0.2449 -0.0509  0.2051
    5FIC    C2911411   4.952   6.372   1.541 -0.5500 -0.0403  0.5309
    5FIC    C3011412   4.865   6.299   1.454 -0.8231 -0.0528  0.8096
    5FIC    C3111413   5.031   6.291   1.628 -0.6198 -0.0154  0.6182
    1BTD     S211414   4.506   6.721   0.225  0.1461 -0.4163  0.0918
    1BTD     N111415   4.526   6.899   0.223  0.1932 -0.4232 -0.0549
    1BTD     N211416   4.565   6.702   0.393 -0.1571 -0.2596  0.2186
    1BTD     N311417   4.723   6.985   0.733 -0.6896  0.0471  0.2121
    1BTD     N411418   4.674   7.229   0.522 -0.2578 -0.1544 -0.1249
    1BTD     C511419   4.604   7.069   0.382 -0.0474 -0.2804 -0.0874
    1BTD     C611420   4.573   6.934   0.341 -0.0089 -0.3140 -0.0044
    1BTD     C711421   4.596   6.823   0.437 -0.2052 -0.2224  0.1487
    1BTD     C811422   4.647   6.853   0.568 -0.4301 -0.1018  0.2111
    1BTD    C1511423   4.676   6.986   0.603 -0.4597 -0.0730  0.1258
    1BTD    C1611424   4.654   7.093   0.511 -0.2707 -0.1613 -0.0217
    1BTD    C4311425   4.713   7.313   0.634  0.2155  0.3328 -0.4046
    1BTD    C4411426   4.844   7.388   0.634 -0.0592  0.2656 -0.1770
    1BTD    C4511427   4.974   7.328   0.579  0.2083  1.3657 -0.4438
    1BTD    C4611428   5.063   7.227   0.661  0.0835  0.0518  0.6612
    1BTD    C4711429   4.861   7.481   0.760 -0.4261 -0.3775  0.3776
    1BTD    C4811430   4.972   7.588   0.768 -0.2482  0.3213  0.2876
    1BTD    C4911431   4.968   7.650   0.907  0.3537 -0.5220  0.4648
    1BTD    C5011432   5.107   7.705   0.951  0.1425  0.3608  0.1175
    1BTD    C7511433   4.731   7.080   0.847  0.1888 -0.4791  0.2285
    1BTD    C7611434   4.646   7.077   0.978  0.0002 -0.0920  1.0148
    1BTD    C7711435   4.683   7.188   1.082  0.3306  0.4371  0.7176
    1BTD    C7811436   4.670   7.335   1.047 -0.2195 -0.7420 -0.1134
    1BTD    C7911437   4.500   7.051   0.933 -0.2105 -0.3337 -0.3031
    1BTD    C8011438   4.391   7.032   1.042  0.4035  0.1144  0.1996
    1BTD    C8111439   4.404   6.909   1.135  0.2491  0.3723  0.8547
    1BTD    C8211440   4.274   6.891   1.212 -0.2212 -0.6818 -0.0725
    2TTP     S111441   4.549   7.260   0.151 -0.0750 -0.0548  0.1850
    2TTP     S511442   4.649   7.586   0.413 -0.0780  0.1770 -0.1016
    2TTP     C111443   4.598   7.654   0.252 -0.1210  0.0367 -0.1478
    2TTP     C211444   4.565   7.558   0.161 -0.1227 -0.0430 -0.0620
    2TTP     C311445   4.577   7.426   0.216 -0.0900  0.0036  0.0433
    2TTP     C411446   4.600   7.192   0.312 -0.0321  0.0854  0.2313
    2TTP    C1711447   4.633   7.289   0.402 -0.0304  0.1653  0.1455
    2TTP    C1811448   4.621   7.420   0.347 -0.0631  0.1185  0.0402
    2TTP    C3211449   4.525   7.584   0.013 -0.1877  0.1111 -0.8453
    2TTP    C3311450   4.379   7.551  -0.024  0.2394  0.4153 -0.5277
    2TTP    C3411451   4.266   7.629   0.045 -0.7406  0.0325 -0.0555
    2TTP    C3511452   4.274   7.782   0.039 -0.5956  0.5773 -0.1779
    2TTP    C3611453   4.206   7.863  -0.071  0.3374 -0.7062  0.4910
    2TTP    C3711454   4.223   8.015  -0.047 -0.1306 -0.3458 -0.3995
    2TTP    C3811455   4.197   8.110  -0.165 -0.1991 -0.3018  0.5180
    2TTP    C3911456   4.276   8.094  -0.297 -0.1449 -0.4841  0.0513
    2TTP    C4011457   4.224   8.179  -0.412  0.3371 -0.5660  0.2658
    2TTP    C4111458   4.334   8.210  -0.515 -0.8809 -0.3547 -0.9508
    2TTP    C4211459   4.274   8.298  -0.631 -0.4396 -0.2237  0.3040
    3TTP     S111460   4.710   6.600   0.710 -0.1961 -0.0750  0.1757
    3TTP     S511461   4.923   6.828   1.006  0.1600  0.1603 -0.2589
    3TTP     C111462   4.959   6.651   1.031  0.1916  0.1806 -0.1635
    3TTP     C211463   4.896   6.571   0.941  0.0833  0.1091 -0.0237
    3TTP     C311464   4.816   6.645   0.849 -0.0283  0.0358  0.0132
    3TTP     C411465   4.674   6.776   0.684 -0.2277 -0.0952  0.0804
    3TTP    C1711466   4.737   6.857   0.774 -0.1195 -0.0238 -0.0594
    3TTP    C1811467   4.817   6.782   0.866 -0.0077  0.0497 -0.0963
    3TTP    C3211468   4.893   6.419   0.931  0.6913 -0.3119 -0.1080
    3TTP    C3311469   4.764   6.349   0.980 -0.1804  0.4174  0.0163
    3TTP    C3411470   4.798   6.198   0.969 -0.1535 -0.4489  0.2047
    3TTP    C3511471   4.683   6.102   0.969 -0.1848 -0.6464  0.5519
    3TTP    C3611472   4.732   5.959   0.971 -0.5248  0.3409  0.5251
    3TTP    C3711473   4.628   5.854   0.941 -0.0751  0.1127  0.3122
    3TTP    C3811474   4.553   5.841   0.806  0.0582 -0.5108 -0.4180
    3TTP    C3911475   4.631   5.834   0.677  0.1647  0.1139 -0.4738
    3TTP    C4011476   4.532   5.834   0.563 -0.5305  0.3104  0.2300
    3TTP    C4111477   4.594   5.782   0.432 -0.5733 -0.2288 -0.1147
    3TTP    C4211478   4.498   5.770   0.312  0.5754  0.5240  0.5997
    4FIC     F111479   4.501   8.337   0.703  0.5481 -0.1655  0.1632
    4FIC     F211480   4.536   8.484   0.477 -0.0044 -0.0823  0.1306
    4FIC     O111481   4.539   7.834   0.505  0.7404 -0.0857 -0.0020
    4FIC     N511482   4.612   8.338   0.011 -0.6618  0.0942 -0.0339
    4FIC     N611483   4.634   7.916  -0.099 -0.4005  0.1395 -0.1565
    4FIC    C1911484   4.585   7.797   0.218  0.2806  0.0218 -0.0918
    4FIC    C2011485   4.574   7.917   0.277  0.2538 -0.0014 -0.0490
    4FIC    C2111486   4.551   7.929   0.425  0.5000 -0.0571 -0.0043
    4FIC    C2211487   4.544   8.073   0.456  0.3989 -0.0699  0.0355
    4FIC    C2311488   4.524   8.132   0.580  0.5513 -0.1168  0.0838
    4FIC    C2411489   4.521   8.271   0.584  0.4101 -0.1200  0.1149
    4FIC    C2511490   4.539   8.347   0.467  0.1256 -0.0768  0.0981
    4FIC    C2611491   4.559   8.288   0.343 -0.0278 -0.0300  0.0500
    4FIC    C2711492   4.562   8.148   0.337  0.1112 -0.0262  0.0179
    4FIC    C2811493   4.581   8.055   0.222  0.0108  0.0176 -0.0347
    4FIC    C2911494   4.602   8.091   0.091 -0.2562  0.0665 -0.0645
    4FIC    C3011495   4.607   8.227   0.047 -0.4783  0.0815 -0.0476
    4FIC    C3111496   4.620   7.994  -0.013 -0.3341  0.1063 -0.1149
    5FIC     F111497   5.502   6.942   1.578  0.3439 -0.1237 -0.1428
    5FIC     F211498   5.557   6.685   1.649 -0.3631 -0.1305  0.3915
    5FIC     O111499   5.128   6.865   1.194  0.6571  0.0855 -0.4917
    5FIC     N511500   5.368   6.261   1.479 -1.1563  0.0085  0.9108
    5FIC     N611501   5.065   6.252   1.165 -0.7690  0.1733  0.5304
    5FIC    C1911502   5.047   6.592   1.126  0.0928  0.1531 -0.1053
    5FIC    C2011503   5.139   6.621   1.220  0.0417  0.1006 -0.0384
    5FIC    C2111504   5.176   6.764   1.249  0.3450  0.0687 -0.2484
    5FIC    C2211505   5.278   6.760   1.355  0.1982  0.0136 -0.1083
    5FIC    C2311506   5.342   6.868   1.416  0.3783 -0.0303 -0.2193
    5FIC    C2411507   5.435   6.840   1.514  0.1825 -0.0785 -0.0464
    5FIC    C2511508   5.463   6.708   1.551 -0.1815 -0.0818  0.2288
    5FIC    C2611509   5.400   6.599   1.491 -0.3629 -0.0380  0.3409
    5FIC    C2711510   5.305   6.626   1.391 -0.1694  0.0110  0.1690
    5FIC    C2811511   5.221   6.535   1.309 -0.2800  0.0643  0.2229
    5FIC    C2911512   5.219   6.398   1.316 -0.6164  0.0774  0.4682
    5FIC    C3011513   5.301   6.323   1.405 -0.9120  0.0393  0.7107
    5FIC    C3111514   5.134   6.318   1.233 -0.6984  0.1301  0.5010
    1BTD     S211515   3.486   3.899   1.251 -0.1429 -0.5390 -0.0451
    1BTD     N111516   3.497   3.719   1.255  0.1742 -0.5182  0.0989
    1BTD     N211517   3.546   3.920   1.419 -0.3962 -0.3080  0.0176
    1BTD     N311518   3.689   3.640   1.768 -0.3403  0.2005  0.4052
    1BTD     N411519   3.628   3.393   1.566  0.3626 -0.0584  0.5054
    1BTD     C511520   3.566   3.552   1.420  0.2641 -0.2751  0.3099
    1BTD     C611521   3.543   3.686   1.375  0.0797 -0.3489  0.1819
    1BTD     C711522   3.570   3.799   1.467 -0.2397 -0.2311  0.1364
    1BTD     C811523   3.620   3.771   1.599 -0.3586 -0.0456  0.2212
    1BTD    C1511524   3.642   3.638   1.638 -0.1697  0.0207  0.3457
    1BTD    C1611525   3.615   3.529   1.550  0.1380 -0.0926  0.3895
    1BTD    C4311526   3.693   3.302   1.662 -0.1998 -0.1666 -0.7803
    1BTD    C4411527   3.833   3.265   1.617 -0.3015 -0.3508 -0.1746
    1BTD    C4511528   3.932   3.389   1.631 -0.2254 -0.5768  0.4457
    1BTD    C4611529   4.054   3.372   1.534  0.3724 -0.4378  0.0598
    1BTD    C4711530   3.895   3.136   1.671 -0.0394  0.6831  0.0185
    1BTD    C4811531   3.918   3.133   1.823 -0.0491  0.0888  0.1584
    1BTD    C4911532   3.977   2.999   1.870  0.6179  0.0890 -0.6335
    1BTD    C5011533   4.006   3.017   2.021 -0.2236 -0.4942 -0.0831
    1BTD    C7511534   3.693   3.538   1.876 -0.0296  0.2922 -0.2892
    1BTD    C7611535   3.562   3.499   1.949  0.5587 -0.3668 -0.5368
    1BTD    C7711536   3.578   3.389   2.052 -0.0910 -0.5434  0.7745
    1BTD    C7811537   3.702   3.384   2.142 -0.0912  0.7189  0.2308
    1BTD    C7911538   3.490   3.625   2.001  0.1879  0.1687  0.5978
    1BTD    C8011539   3.354   3.613   2.063  0.5150  0.5829 -0.2312
    1BTD    C8111540   3.303   3.751   2.101  0.1561 -0.2375 -0.0942
    1BTD    C8211541   3.182   3.740   2.194 -0.0718 -0.2873  0.0874
    2TTP     S111542   3.495   3.351   1.197 -0.0730 -0.0570  0.2612
    2TTP     S511543   3.608   3.035   1.466  0.1293 -0.3514 -0.1658
    2TTP     C111544   3.560   2.961   1.307 -0.3007 -0.2007 -0.1086
    2TTP     C211545   3.522   3.054   1.215 -0.3886 -0.1008  0.0266
    2TTP     C311546   3.530   3.187   1.266 -0.1194 -0.1398  0.0899
    2TTP     C411547   3.543   3.425   1.356  0.3570 -0.2077  0.2040
    2TTP    C1711548   3.581   3.332   1.448  0.4448 -0.3075  0.0688
    2TTP    C1811549   3.573   3.199   1.397  0.1757 -0.2686  0.0055
    2TTP    C3211550   3.491   3.032   1.073 -0.0053 -0.6108 -0.3406
    2TTP    C3311551   3.354   3.067   1.019  0.4478  0.4979 -0.2737
    2TTP    C3411552   3.254   2.957   1.050 -0.6492  0.6616 -0.0549
    2TTP    C3511553   3.109   2.969   1.004  0.0509  0.1800  0.4355
    2TTP    C3611554   3.033   2.843   1.035  0.4157  0.7664 -0.4383
    2TTP    C3711555   3.000   2.845   1.185  0.7712 -0.2094  0.2471
    2TTP    C3811556   2.925   2.720   1.224 -0.2097 -0.1070 -0.5633
    2TTP    C3911557   2.888   2.724   1.370 -0.6626 -0.2901 -0.1844
    2TTP    C4011558   2.856   2.584   1.417  0.4073 -0.0354 -0.1112
    2TTP    C4111559   2.834   2.586   1.563  0.3065 -0.1706  0.0545
    2TTP    C4211560   2.812   2.440   1.616 -0.5726 -0.2908 -0.0559
    3TTP     S111561   3.684   4.029   1.751 -0.0638 -0.0512 -0.0360
    3TTP     S511562   3.891   3.788   2.041  0.1649 -0.0639 -0.2093
    3TTP     C111563   3.919   3.963   2.080  0.0646 -0.0652 -0.1304
    3TTP     C211564   3.857   4.048   1.993 -0.0121 -0.0614 -0.0722
    3TTP     C311565   3.785   3.978   1.892  0.0058 -0.0572 -0.0879
    3TTP     C411566   3.655   3.854   1.711  0.0366 -0.0499 -0.1149
    3TTP    C1711567   3.718   3.769   1.798  0.1132 -0.0538 -0.1731
    3TTP    C1811568   3.790   3.839   1.900  0.0952 -0.0579 -0.1574
    3TTP    C3211569   3.875   4.198   1.972  0.1712  0.4324  0.0071
    3TTP    C3311570   3.750   4.279   1.997  0.4573 -0.1304 -0.3346
    3TTP    C3411571   3.778   4.424   1.972  0.0390  0.2016  0.1578
    3TTP    C3511572   3.657   4.513   1.991 -1.0136 -0.2494  0.0582
    3TTP    C3611573   3.685   4.663   1.984  0.0890  0.0791  0.0983
    3TTP    C3711574   3.723   4.724   2.120 -0.7768  0.6054 -0.3224
    3TTP    C3811575   3.800   4.862   2.119  1.0413 -0.6553 -0.5903
    3TTP    C3911576   3.734   4.980   2.049 -0.2340 -0.0993  0.1623
    3TTP    C4011577   3.729   4.974   1.891 -0.0577 -0.1291  0.1680
    3TTP    C4111578   3.628   5.070   1.825 -0.2622  0.3870 -0.6606
    3TTP    C4211579   3.607   5.019   1.684 -0.2578 -0.3320  0.1174
    4FIC     F111580   3.648   2.273   1.753  0.1956  0.1338  0.1734
    4FIC     F211581   3.609   2.130   1.525 -0.2606 -0.0689  0.3757
    4FIC     O111582   3.609   2.779   1.563  0.0091 -0.0314 -0.2318
    4FIC     N511583   3.526   2.284   1.062 -1.0497 -0.4780  0.3779
    4FIC     N611584   3.503   2.708   0.960 -1.1035 -0.5662  0.0205
    4FIC    C1911585   3.558   2.822   1.278 -0.4932 -0.2837 -0.1823
    4FIC    C2011586   3.569   2.700   1.335 -0.4284 -0.2341 -0.0884
    4FIC    C2111587   3.596   2.686   1.482 -0.1664 -0.1038 -0.1214
    4FIC    C2211588   3.602   2.542   1.510 -0.1602 -0.0797  0.0026
    4FIC    C2311589   3.624   2.480   1.633  0.0424  0.0286  0.0213
    4FIC    C2411590   3.626   2.341   1.635  0.0032  0.0296  0.1479
    4FIC    C2511591   3.606   2.267   1.517 -0.2320 -0.0749  0.2520
    4FIC    C2611592   3.584   2.328   1.395 -0.4351 -0.1833  0.2340
    4FIC    C2711593   3.582   2.469   1.391 -0.3990 -0.1861  0.1065
    4FIC    C2811594   3.561   2.563   1.278 -0.5731 -0.2852  0.0548
    4FIC    C2911595   3.538   2.530   1.147 -0.8211 -0.4019  0.1260
    4FIC    C3011596   3.531   2.395   1.101 -0.9459 -0.4433  0.2643
    4FIC    C3111597   3.519   2.628   1.045 -0.9750 -0.4916  0.0675
    5FIC     F111598   4.421   3.636   2.648 -0.3449  0.0062  0.4883
    5FIC     F211599   4.506   3.887   2.708  0.5172 -0.0971 -0.2647
    5FIC     O111600   4.056   3.741   2.263 -0.5410  0.1538  0.7135
    5FIC     N511601   4.369   4.324   2.519  1.6170 -0.1401 -1.1868
    5FIC     N611602   4.066   4.355   2.206  1.2898 -0.0039 -0.8591
    5FIC    C1911603   4.007   4.018   2.183  0.2130  0.1077  0.0740
    5FIC    C2011604   4.096   3.982   2.278  0.2286  0.0746  0.0468
    5FIC    C2111605   4.115   3.837   2.313 -0.1730  0.1015  0.3884
    5FIC    C2211606   4.218   3.833   2.419 -0.0421  0.0536  0.2601
    5FIC    C2311607   4.269   3.721   2.483 -0.3028  0.0572  0.4760
    5FIC    C2411608   4.366   3.742   2.580 -0.1060  0.0058  0.2919
    5FIC    C2511609   4.410   3.872   2.611  0.3382 -0.0473 -0.0961
    5FIC    C2611610   4.359   3.984   2.547  0.6005 -0.0511 -0.3132
    5FIC    C2711611   4.261   3.965   2.448  0.4069  0.0003 -0.1318
    5FIC    C2811612   4.188   4.061   2.363  0.5908  0.0111 -0.2784
    5FIC    C2911613   4.203   4.198   2.363  1.0158 -0.0298 -0.6452
    5FIC    C3011614   4.294   4.267   2.449  1.3448 -0.0904 -0.9418
    5FIC    C3111615   4.127   4.284   2.276  1.1641 -0.0154 -0.7607
    1BTD     S211616   4.675   3.787   3.634  0.3405  0.0428 -0.1924
    1BTD     N111617   4.670   3.607   3.629  0.3457  0.0426 -0.1927
    1BTD     N211618   4.586   3.808   3.479  0.1832  0.0422 -0.1028
    1BTD     N311619   4.396   3.528   3.154 -0.1274  0.0408  0.0789
    1BTD     N411620   4.499   3.280   3.338  0.0727  0.0414 -0.0319
    1BTD     C511621   4.579   3.439   3.475  0.2007  0.0420 -0.1075
    1BTD     C611622   4.605   3.574   3.517  0.2358  0.0423 -0.1294
    1BTD     C711623   4.559   3.687   3.434  0.1448  0.0420 -0.0790
    1BTD     C811624   4.488   3.659   3.311  0.0235  0.0415 -0.0093
    1BTD    C1511625   4.465   3.525   3.273 -0.0068  0.0413  0.0098
    1BTD    C1611626   4.510   3.417   3.354  0.0810  0.0415 -0.0386
    1BTD    C4311627   4.415   3.200   3.247  0.3707 -0.6185 -0.4038
    1BTD    C4411628   4.261   3.229   3.252  0.2936  0.4547 -0.4435
    1BTD    C4511629   4.197   3.165   3.126 -0.2936 -0.3394  0.0853
    1BTD    C4611630   4.049   3.184   3.079  0.0734 -1.2872 -0.6677
    1BTD    C4711631   4.186   3.200   3.389  0.1915  0.1305 -0.0743
    1BTD    C4811632   4.185   3.057   3.443 -0.1042 -0.0647 -0.1957
    1BTD    C4911633   4.143   3.076   3.587 -0.5199  0.2733 -1.1116
    1BTD    C5011634   4.166   2.947   3.665  0.2023 -0.2435 -0.4990
    1BTD    C7511635   4.397   3.438   3.033  0.4128  0.3431  0.0944
    1BTD    C7611636   4.485   3.453   2.911  0.8097  0.4749  0.1496
    1BTD    C7711637   4.466   3.332   2.816 -1.1362  1.0255 -0.0430
    1BTD    C7811638   4.532   3.190   2.848  0.1454 -0.0146  0.7466
    1BTD    C7911639   4.622   3.489   2.949 -0.2950 -0.1491  0.1722
    1BTD    C8011640   4.736   3.522   2.846 -0.4179 -0.7070  0.1586
    1BTD    C8111641   4.701   3.627   2.744 -0.3502 -0.2962  0.1600
    1BTD    C8211642   4.821   3.644   2.654  0.3548 -0.2160 -0.1858
    2TTP     S111643   4.688   3.234   3.677 -0.0059 -0.0134 -0.1233
    2TTP     S511644   4.571   2.914   3.416  0.0588 -0.2044  0.0812
    2TTP     C111645   4.646   2.842   3.565  0.1793 -0.0905  0.0752
    2TTP     C211646   4.687   2.937   3.655  0.1667 -0.0248  0.0117
    2TTP     C311647   4.660   3.070   3.609  0.0609 -0.0620 -0.0345
    2TTP     C411648   4.613   3.306   3.528 -0.1264 -0.1273 -0.1173
    2TTP    C1711649   4.572   3.211   3.439 -0.1138 -0.1929 -0.0539
    2TTP    C1811650   4.599   3.079   3.485 -0.0082 -0.1557 -0.0076
    2TTP    C3211651   4.752   2.909   3.786 -0.8050 -0.6431  0.2461
    2TTP    C3311652   4.874   2.991   3.824  0.2144  0.3020  0.5752
    2TTP    C3411653   4.863   3.040   3.965  0.5155  0.3157 -0.6051
    2TTP    C3511654   4.861   2.935   4.080 -0.6809 -0.4064 -0.1184
    2TTP    C3611655   4.861   3.009   4.216  0.2525 -0.4629  0.1780
    2TTP    C3711656   4.868   2.913   4.337  0.7948 -0.0728 -0.0599
    2TTP    C3811657   4.876   3.004   4.461 -0.5658 -0.5499  0.0188
    2TTP    C3911658   4.842   2.937   4.597  0.1645  0.4895  0.0662
    2TTP    C4011659   4.923   2.816   4.645  0.5589  0.0144  0.7086
    2TTP    C4111660   4.884   2.762   4.785  0.4959  0.0483 -0.2008
    2TTP    C4211661   4.973   2.642   4.831  0.3538 -0.0198 -0.1175
    3TTP     S111662   4.412   3.921   3.176  0.2119  0.0799 -0.1778
    3TTP     S511663   4.180   3.695   2.893 -0.0247 -0.0772  0.1405
    3TTP     C111664   4.154   3.872   2.861 -0.0184 -0.0945  0.0378
    3TTP     C211665   4.224   3.952   2.947  0.0550 -0.0471 -0.0665
    3TTP     C311666   4.301   3.877   3.040  0.1091  0.0046 -0.0692
    3TTP     C411667   4.439   3.743   3.207  0.2058  0.0971 -0.0752
    3TTP    C1711668   4.369   3.663   3.122  0.1323  0.0496  0.0292
    3TTP    C1811669   4.291   3.739   3.028  0.0782 -0.0021  0.0318
    3TTP    C3211670   4.233   4.107   2.957  0.7185 -0.2608 -0.3746
    3TTP    C3311671   4.365   4.168   2.918 -0.3212  0.1885  0.0158
    3TTP    C3411672   4.384   4.322   2.912 -0.4099  0.3585 -0.4601
    3TTP    C3511673   4.372   4.407   3.043 -0.2373  0.2151  0.5974
    3TTP    C3611674   4.234   4.427   3.107  0.2066  0.0918 -0.3673
    3TTP    C3711675   4.252   4.455   3.251  0.2132  0.6509  0.1310
    3TTP    C3811676   4.118   4.482   3.327 -0.1504  0.4986 -0.4605
    3TTP    C3911677   4.147   4.526   3.469  1.0504 -0.4172 -0.1440
    3TTP    C4011678   4.028   4.526   3.571 -0.3390  0.0772  0.1263
    3TTP    C4111679   4.076   4.611   3.687 -0.1624  0.6975 -0.0613
    3TTP    C4211680   4.001   4.570   3.813  0.4280  0.0208 -0.3395
    4FIC     F111681   4.476   2.122   3.194 -0.4163  0.0894  0.1236
    4FIC     F211682   4.525   1.996   3.430  0.2496 -0.0114 -0.0661
    4FIC     O111683   4.574   2.637   3.329 -0.7124  0.1140  0.2465
    4FIC     N511684   4.667   2.183   3.866  0.9958 -0.1387 -0.2510
    4FIC     N611685   4.734   2.610   3.924  0.6301 -0.0992 -0.1167
    4FIC    C1911686   4.656   2.700   3.603 -0.1814  0.0264  0.1091
    4FIC    C2011687   4.630   2.575   3.560 -0.1328  0.0242  0.0855
    4FIC    C2111688   4.588   2.551   3.417 -0.4184  0.0709  0.1602
    4FIC    C2211689   4.567   2.405   3.404 -0.2798  0.0551  0.1107
    4FIC    C2311690   4.528   2.335   3.291 -0.4491  0.0852  0.1503
    4FIC    C2411691   4.514   2.198   3.302 -0.2645  0.0619  0.0891
    4FIC    C2511692   4.540   2.133   3.424  0.0785  0.0100 -0.0085
    4FIC    C2611693   4.579   2.202   3.538  0.2489 -0.0203 -0.0485
    4FIC    C2711694   4.593   2.342   3.528  0.0664  0.0027  0.0123
    4FIC    C2811695   4.633   2.444   3.628  0.1701 -0.0184 -0.0070
    4FIC    C2911696   4.666   2.420   3.760  0.4870 -0.0679 -0.0941
    4FIC    C3011697   4.666   2.290   3.818  0.7656 -0.1067 -0.1801
    4FIC    C3111698   4.703   2.525   3.849  0.5637 -0.0848 -0.1060
    5FIC     F111699   3.584   3.601   2.334 -0.0015 -0.2257  0.1388
    5FIC     F211700   3.550   3.858   2.250 -0.0970 -0.2801  0.0103
    5FIC     O111701   3.965   3.667   2.712  0.1216  0.0778 -0.0371
    5FIC     N511702   3.775   4.274   2.398 -0.1467 -0.1421 -0.2997
    5FIC     N611703   4.080   4.273   2.711 -0.0312  0.1061 -0.4112
    5FIC    C1911704   4.069   3.935   2.766  0.0739  0.1336 -0.2223
    5FIC    C2011705   3.974   3.909   2.674  0.0467  0.0593 -0.1731
    5FIC    C2111706   3.926   3.768   2.652  0.0740  0.0352 -0.0783
    5FIC    C2211707   3.824   3.775   2.546  0.0332 -0.0487 -0.0445
    5FIC    C2311708   3.751   3.670   2.492  0.0395 -0.0970  0.0400
    5FIC    C2411709   3.659   3.701   2.392 -0.0051 -0.1746  0.0565
    5FIC    C2511710   3.642   3.833   2.349 -0.0542 -0.2025 -0.0097
    5FIC    C2611711   3.715   3.938   2.403 -0.0608 -0.1547 -0.0942
    5FIC    C2711712   3.808   3.909   2.504 -0.0162 -0.0759 -0.1122
    5FIC    C2811713   3.900   3.996   2.581 -0.0098 -0.0106 -0.1939
    5FIC    C2911714   3.913   4.133   2.568 -0.0488 -0.0142 -0.2735
    5FIC    C3011715   3.837   4.210   2.474 -0.1026 -0.0845 -0.2877
    5FIC    C3111716   4.005   4.209   2.646 -0.0387  0.0520 -0.3488
    1BTD     S211717   3.384   9.388   2.203  0.1327 -0.0942  0.1748
    1BTD     N111718   3.408   9.566   2.200  0.0260 -0.0813  0.1194
    1BTD     N211719   3.439   9.370   2.373  0.2390 -0.0217  0.1485
    1BTD     N311720   3.594   9.654   2.714  0.2629  0.1495 -0.0051
    1BTD     N411721   3.555   9.896   2.499  0.0005  0.0761 -0.0408
    1BTD     C511722   3.485   9.736   2.359  0.0159  0.0019  0.0362
    1BTD     C611723   3.453   9.601   2.319  0.0727 -0.0260  0.0860
    1BTD     C711724   3.471   9.491   2.417  0.1918  0.0072  0.1022
    1BTD     C811725   3.519   9.521   2.548  0.2483  0.0670  0.0679
    1BTD    C1511726   3.550   9.654   2.583  0.1893  0.0927  0.0196
    1BTD    C1611727   3.533   9.760   2.489  0.0744  0.0608  0.0039
    1BTD    C4311728   3.649   9.963   2.591  0.0621 -0.6737 -0.2382
    1BTD    C4411729   3.800   9.969   2.554 -0.6190 -0.0456  0.3855
    1BTD    C4511730   3.835  10.030   2.414  0.0401 -0.6158 -0.1488
    1BTD    C4611731   3.971  10.017   2.350 -0.2391  0.0683 -0.6005
    1BTD    C4711732   3.884  10.046   2.658 -0.8626 -0.3516  0.2169
    1BTD    C4811733   3.881   9.997   2.799  0.1811 -0.0385 -0.2935
    1BTD    C4911734   3.986   9.889   2.813  0.2629  0.0047 -0.0406
    1BTD    C5011735   4.030   9.869   2.961  0.6056  0.1362  1.1112
    1BTD    C7511736   3.575   9.763   2.811 -0.6310  0.6415 -0.7055
    1BTD    C7611737   3.447   9.765   2.888  0.1798  0.2115 -0.3898
    1BTD    C7711738   3.441   9.897   2.973  0.1875 -0.0226  0.3716
    1BTD    C7811739   3.525   9.909   3.098 -0.4130  0.7176 -0.4018
    1BTD    C7911740   3.398   9.644   2.962  0.2407 -0.0322 -0.3542
    1BTD    C8011741   3.256   9.650   3.029 -0.2849 -0.0302 -0.0642
    1BTD    C8111742   3.253   9.587   3.171 -0.2949  0.5233 -0.8347
    1BTD    C8211743   3.118   9.565   3.222  0.6272  0.2119 -0.6127
    2TTP     S111744   3.426   9.930   2.130 -0.0575  0.1494 -0.2516
    2TTP     S511745   3.548  10.255   2.384 -0.0773  0.0927 -0.1704
    2TTP     C111746   3.498  10.323   2.223 -0.1863  0.1411 -0.1170
    2TTP     C211747   3.458  10.227   2.135 -0.1866  0.1609 -0.1389
    2TTP     C311748   3.464  10.096   2.192 -0.1008  0.1392 -0.1987
    2TTP     C411749   3.476   9.862   2.291  0.0514  0.1011 -0.3051
    2TTP    C1711750   3.516   9.959   2.379  0.0517  0.0811 -0.2831
    2TTP    C1811751   3.509  10.090   2.322 -0.0342  0.1028 -0.2233
    2TTP    C3211752   3.397  10.252   1.997 -0.5195 -0.0201 -0.0376
    2TTP    C3311753   3.248  10.249   1.970 -0.8232  0.3751  0.1212
    2TTP    C3411754   3.170  10.343   2.060  0.0723 -0.3041 -0.0023
    2TTP    C3511755   3.052  10.405   1.991 -0.1334  0.2084  0.0487
    2TTP    C3611756   2.971  10.510   2.078  0.4083  0.4269  0.3527
    2TTP    C3711757   2.878  10.469   2.187  0.0209  0.7653 -0.5624
    2TTP    C3811758   2.812  10.599   2.238 -0.2975  0.7845  0.7519
    2TTP    C3911759   2.730  10.564   2.359 -0.8889  0.6025  0.5282
    2TTP    C4011760   2.645  10.680   2.406 -0.3226  0.0478 -0.3606
    2TTP    C4111761   2.717  10.795   2.481  0.1039  0.3482  0.0090
    2TTP    C4211762   2.627  10.908   2.530  0.5704  0.3721  0.1470
    3TTP     S111763   3.584   9.265   2.692  0.1333 -0.1572 -0.0440
    3TTP     S511764   3.824   9.492   2.967 -0.3337 -0.2053  0.4047
    3TTP     C111765   3.860   9.316   2.991  0.0633 -0.1794  0.0243
    3TTP     C211766   3.788   9.235   2.908  0.2309 -0.1631 -0.1367
    3TTP     C311767   3.702   9.310   2.822  0.0519 -0.1702  0.0346
    3TTP     C411768   3.548   9.442   2.668 -0.2637 -0.1829  0.3365
    3TTP    C1711769   3.620   9.522   2.751 -0.4313 -0.1996  0.4975
    3TTP    C1811770   3.706   9.448   2.838 -0.2522 -0.1919  0.3262
    3TTP    C3211771   3.801   9.084   2.901 -0.3626 -0.3556 -0.7545
    3TTP    C3311772   3.682   9.018   2.979 -0.3538  0.0965  0.2216
    3TTP    C3411773   3.676   8.860   2.965  0.3116  0.1092 -0.3770
    3TTP    C3511774   3.657   8.792   2.828 -0.0496  0.3214 -0.1570
    3TTP    C3611775   3.638   8.644   2.840 -0.1210 -0.0338 -0.2741
    3TTP    C3711776   3.624   8.580   2.705  0.2610 -0.0596 -0.5934
    3TTP    C3811777   3.510   8.637   2.620 -0.1853  0.2507  0.2119
    3TTP    C3911778   3.516   8.569   2.489 -0.3569  0.2574  0.1239
    3TTP    C4011779   3.419   8.620   2.387  0.5976  0.0968 -0.0006
    3TTP    C4111780   3.270   8.612   2.411  0.0845 -0.2998  0.0319
    3TTP    C4211781   3.167   8.680   2.317 -0.3107 -0.0422  0.7734
    4FIC     F111782   3.547  11.045   2.609 -0.1399 -0.1378  0.1081
    4FIC     F211783   3.598  11.162   2.369  0.2841 -0.1230  0.2041
    4FIC     O111784   3.481  10.529   2.459 -0.1555 -0.0820 -0.0753
    4FIC     N511785   3.625  10.963   1.917  0.8826 -0.0632  0.2113
    4FIC     N611786   3.563  10.536   1.848  0.7849 -0.0226  0.0486
    4FIC    C1911787   3.507  10.458   2.176  0.2440 -0.0488 -0.0487
    4FIC    C2011788   3.521  10.583   2.223  0.2314 -0.0629 -0.0064
    4FIC    C2111789   3.507  10.612   2.370  0.0201 -0.0799 -0.0235
    4FIC    C2211790   3.529  10.757   2.387  0.0635 -0.0927  0.0330
    4FIC    C2311791   3.525  10.830   2.505 -0.0828 -0.1106  0.0399
    4FIC    C2411792   3.549  10.966   2.496 -0.0040 -0.1202  0.0980
    4FIC    C2511793   3.575  11.027   2.372  0.2144 -0.1127  0.1473
    4FIC    C2611794   3.579  10.954   2.254  0.3613 -0.0954  0.1408
    4FIC    C2711795   3.555  10.816   2.261  0.2846 -0.0851  0.0823
    4FIC    C2811796   3.552  10.711   2.155  0.3965 -0.0668  0.0600
    4FIC    C2911797   3.573  10.730   2.021  0.6119 -0.0551  0.0946
    4FIC    C3011798   3.601  10.858   1.964  0.7599 -0.0594  0.1586
    4FIC    C3111799   3.567  10.624   1.926  0.7058 -0.0374  0.0691
    5FIC     F111800   4.403   9.632   3.526  0.3837  0.0792 -0.3856
    5FIC     F211801   4.474   9.378   3.593 -0.1506  0.0658  0.1471
    5FIC     O111802   4.025   9.538   3.150  0.4354  0.0906 -0.4404
    5FIC     N511803   4.307   8.945   3.421 -0.8821  0.0546  0.8740
    5FIC     N611804   3.997   8.923   3.114 -0.7340  0.0660  0.7239
    5FIC    C1911805   3.959   9.261   3.081 -0.0568  0.0820  0.0492
    5FIC    C2011806   4.051   9.295   3.173 -0.0489  0.0799  0.0421
    5FIC    C2111807   4.080   9.439   3.203  0.2120  0.0846 -0.2174
    5FIC    C2211808   4.185   9.440   3.307  0.1489  0.0803 -0.1538
    5FIC    C2311809   4.244   9.551   3.367  0.3263  0.0825 -0.3297
    5FIC    C2411810   4.341   9.527   3.463  0.2198  0.0775 -0.2229
    5FIC    C2511811   4.377   9.396   3.497 -0.0554  0.0707  0.0516
    5FIC    C2611812   4.319   9.285   3.438 -0.2335  0.0684  0.2283
    5FIC    C2711813   4.220   9.307   3.340 -0.1295  0.0732  0.1239
    5FIC    C2811814   4.140   9.213   3.259 -0.2620  0.0727  0.2552
    5FIC    C2911815   4.146   9.075   3.263 -0.5311  0.0668  0.5231
    5FIC    C3011816   4.234   9.004   3.350 -0.7231  0.0601  0.7151
    5FIC    C3111817   4.064   8.992   3.181 -0.6412  0.0665  0.6320
    1BTD     S211818   5.037   9.498   0.717 -0.2342 -0.0286  0.1226
    1BTD     N111819   5.033   9.678   0.708 -0.1259 -0.0257  0.1377
    1BTD     N211820   4.965   9.474   0.554 -0.1926  0.0279  0.0959
    1BTD     N311821   4.813   9.748   0.205  0.0871  0.1497  0.0686
    1BTD     N411822   4.897   9.999   0.394  0.1695  0.0830  0.1201
    1BTD     C511823   4.961   9.843   0.542  0.0274  0.0319  0.1279
    1BTD     C611824   4.981   9.709   0.590 -0.0675  0.0155  0.1228
    1BTD     C711825   4.943   9.594   0.504 -0.1049  0.0455  0.0994
    1BTD     C811826   4.887   9.620   0.374 -0.0454  0.0906  0.0823
    1BTD    C1511827   4.868   9.753   0.331  0.0469  0.1053  0.0880
    1BTD    C1611828   4.905   9.863   0.414  0.0829  0.0766  0.1106
    1BTD    C4311829   4.798  10.067   0.313 -0.1774 -0.7245 -0.2140
    1BTD    C4411830   4.646  10.071   0.338 -0.5660  0.4499 -1.1842
    1BTD    C4511831   4.568  10.119   0.215 -0.5689 -0.1583 -0.4400
    1BTD    C4611832   4.420  10.093   0.212  0.1047  0.1232 -0.1736
    1BTD    C4711833   4.613  10.113   0.486 -0.3812 -0.0722 -0.2182
    1BTD    C4811834   4.599  10.255   0.519 -0.4206  0.0169 -0.6163
    1BTD    C4911835   4.561  10.281   0.666  0.5319  0.1027  0.1007
    1BTD    C5011836   4.557  10.433   0.697 -0.0529  0.3882 -0.5667
    1BTD    C7511837   4.813   9.845   0.091 -0.1991  0.5772 -0.0284
    1BTD    C7611838   4.928   9.855  -0.012  0.3378  0.1908  0.3672
    1BTD    C7711839   4.906   9.969  -0.112  0.0781 -0.3474  0.5056
    1BTD    C7811840   4.798   9.943  -0.217 -0.1325 -0.3638  0.2127
    1BTD    C7911841   4.983   9.729  -0.072 -0.3760 -0.2900  0.0413
    1BTD    C8011842   5.101   9.736  -0.168  0.4615 -0.3153  0.1671
    1BTD    C8111843   5.155   9.606  -0.225 -0.4677  0.2060 -0.3483
    1BTD    C8211844   5.282   9.626  -0.306  0.3741 -0.0779  0.2466
    2TTP     S111845   5.025  10.048   0.758 -0.0310 -0.1261 -0.0518
    2TTP     S511846   4.950  10.361   0.473  0.7123  0.0448 -0.0635
    2TTP     C111847   5.010  10.436   0.627  0.5797 -0.0682  0.0432
    2TTP     C211848   5.036  10.344   0.724  0.3425 -0.1273  0.0532
    2TTP     C311849   5.011  10.210   0.680  0.2567 -0.0861 -0.0232
    2TTP     C411850   4.965   9.972   0.604  0.1016 -0.0129 -0.1585
    2TTP    C1711851   4.939  10.065   0.506  0.3389  0.0462 -0.1684
    2TTP    C1811852   4.965  10.198   0.550  0.4245  0.0048 -0.0921
    2TTP    C3211853   5.090  10.359   0.866  0.5554 -0.6187 -0.0038
    2TTP    C3311854   5.240  10.373   0.870  0.1023  0.1876  0.2237
    2TTP    C3411855   5.304  10.360   1.005 -0.0079  0.5588  0.2887
    2TTP    C3511856   5.245  10.440   1.126 -0.4498 -0.2334  0.2378
    2TTP    C3611857   5.340  10.442   1.248  0.0294 -0.0135 -0.0325
    2TTP    C3711858   5.286  10.511   1.371  0.5695  0.4868 -0.7232
    2TTP    C3811859   5.279  10.659   1.376  0.0704 -0.3797 -0.6884
    2TTP    C3911860   5.235  10.705   1.514  0.6088 -0.0088 -0.6000
    2TTP    C4011861   5.211  10.853   1.537  0.0859  0.4056 -0.0041
    2TTP    C4111862   5.339  10.923   1.550  0.2088 -0.2679 -0.6664
    2TTP    C4211863   5.312  11.067   1.573  0.8018  0.0371 -0.3806
    3TTP     S111864   4.802   9.358   0.250  0.1730  0.1188 -0.0574
    3TTP     S511865   4.618   9.581  -0.068 -0.2276 -0.0174  0.0777
    3TTP     C111866   4.583   9.404  -0.093 -0.1205 -0.0435  0.1078
    3TTP     C211867   4.637   9.325   0.004  0.0095 -0.0026  0.0678
    3TTP     C311868   4.709   9.401   0.101  0.0292  0.0505  0.0120
    3TTP     C411869   4.838   9.534   0.275  0.0659  0.1450 -0.0874
    3TTP    C1711870   4.783   9.614   0.178 -0.0641  0.1042 -0.0474
    3TTP    C1811871   4.711   9.538   0.081 -0.0838  0.0513  0.0083
    3TTP    C3211872   4.645   9.172   0.005  0.0924 -0.1702 -0.2348
    3TTP    C3311873   4.771   9.111  -0.061 -0.5840  0.5152  0.2313
    3TTP    C3411874   4.757   8.965  -0.060 -0.1174  0.5816 -0.0952
    3TTP    C3511875   4.866   8.891  -0.144  0.1746  0.2776 -0.0967
    3TTP    C3611876   4.862   8.738  -0.132  0.2785 -0.3681 -0.3047
    3TTP    C3711877   4.922   8.701  -0.003 -0.2077  0.3119 -0.0613
    3TTP    C3811878   4.884   8.560   0.044  0.4014 -0.2937 -0.3934
    3TTP    C3911879   4.937   8.532   0.181 -0.1405 -0.0625 -0.3789
    3TTP    C4011880   4.915   8.386   0.231 -0.1208 -0.2810 -0.2225
    3TTP    C4111881   4.965   8.353   0.374  0.4110  0.5137  0.3332
    3TTP    C4211882   4.885   8.409   0.486  0.5527 -0.2574 -0.1352
    4FIC     F111883   4.995  11.124   0.168 -0.2166  0.1986  0.0708
    4FIC     F211884   5.044  11.269   0.393 -0.0718  0.1252  0.0868
    4FIC     O111885   4.988  10.622   0.370  0.0567  0.1209 -0.1128
    4FIC     N511886   5.110  11.120   0.860  0.3310 -0.0360 -0.0212
    4FIC     N611887   5.095  10.698   0.972  0.5156 -0.0815 -0.1679
    4FIC    C1911888   5.033  10.582   0.656  0.2922  0.0230 -0.1628
    4FIC    C2011889   5.033  10.703   0.597  0.2177  0.0458 -0.1172
    4FIC    C2111890   5.009  10.715   0.449  0.0981  0.0958 -0.0940
    4FIC    C2211891   5.015  10.859   0.417  0.0407  0.1094 -0.0448
    4FIC    C2311892   4.999  10.920   0.293 -0.0714  0.1526 -0.0096
    4FIC    C2411893   5.009  11.058   0.288 -0.1070  0.1569  0.0344
    4FIC    C2511894   5.035  11.132   0.404 -0.0322  0.1190  0.0425
    4FIC    C2611895   5.051  11.073   0.528  0.0796  0.0758  0.0075
    4FIC    C2711896   5.041  10.933   0.535  0.1171  0.0706 -0.0372
    4FIC    C2811897   5.053  10.840   0.650  0.2290  0.0300 -0.0814
    4FIC    C2911898   5.077  10.874   0.781  0.3247 -0.0138 -0.0878
    4FIC    C3011899   5.095  11.009   0.824  0.3279 -0.0257 -0.0512
    4FIC    C3111900   5.087  10.777   0.886  0.4292 -0.0508 -0.1318
    5FIC     F111901   3.991   9.718  -0.571  0.0623  0.0367  0.0347
    5FIC     F211902   3.951   9.469  -0.675  0.3199  0.0930 -0.2006
    5FIC     O111903   4.390   9.620  -0.219 -0.1450  0.0310  0.2690
    5FIC     N511904   4.180   9.042  -0.573  0.5424  0.1705 -0.3718
    5FIC     N611905   4.500   9.016  -0.277  0.3284  0.1552 -0.1413
    5FIC    C1911906   4.494   9.347  -0.193  0.0275  0.0833  0.1275
    5FIC    C2011907   4.395   9.382  -0.278  0.0694  0.0827  0.0777
    5FIC    C2111908   4.347   9.524  -0.285 -0.0250  0.0551  0.1565
    5FIC    C2211909   4.240   9.526  -0.386  0.0526  0.0613  0.0739
    5FIC    C2311910   4.165   9.636  -0.428  0.0078  0.0427  0.1048
    5FIC    C2411911   4.068   9.614  -0.525  0.1000  0.0541  0.0105
    5FIC    C2511912   4.048   9.486  -0.578  0.2326  0.0828 -0.1106
    5FIC    C2611913   4.123   9.376  -0.537  0.2779  0.1018 -0.1422
    5FIC    C2711914   4.221   9.396  -0.439  0.1862  0.0908 -0.0479
    5FIC    C2811915   4.316   9.302  -0.374  0.2019  0.1051 -0.0504
    5FIC    C2911916   4.327   9.168  -0.399  0.3169  0.1335 -0.1520
    5FIC    C3011917   4.246   9.099  -0.495  0.4406  0.1535 -0.2725
    5FIC    C3111918   4.422   9.085  -0.332  0.3226  0.1452 -0.1456
    1BTD     S211919   5.762   1.161   1.669 -0.0316  0.1713 -0.0620
    1BTD     N111920   5.758   0.981   1.656  0.3301  0.1664 -0.1251
    1BTD     N211921   5.706   1.189   1.500 -0.4147  0.1212  0.0539
    1BTD     N311922   5.586   0.923   1.133 -0.5428  0.0099  0.1762
    1BTD     N411923   5.649   0.667   1.324  0.3750  0.0656 -0.0444
    1BTD     C511924   5.700   0.820   1.480  0.3425  0.1131 -0.0803
    1BTD     C611925   5.717   0.953   1.533  0.1556  0.1294 -0.0598
    1BTD     C711926   5.688   1.070   1.446 -0.2614  0.1042  0.0403
    1BTD     C811927   5.644   1.047   1.311 -0.4705  0.0638  0.1151
    1BTD    C1511928   5.629   0.915   1.264 -0.2756  0.0490  0.0918
    1BTD    C1611929   5.657   0.803   1.348  0.1262  0.0734 -0.0048
    1BTD    C4311930   5.588   0.591   1.211 -0.1090 -0.0671  0.1745
    1BTD    C4411931   5.443   0.537   1.236  0.2025  0.4884 -0.1155
    1BTD    C4511932   5.352   0.661   1.240  0.0597  0.0040  0.0848
    1BTD    C4611933   5.210   0.635   1.282  0.0462 -0.0523 -0.4141
    1BTD    C4711934   5.392   0.421   1.148 -0.3894 -0.8763  0.7022
    1BTD    C4811935   5.471   0.291   1.146  0.0175  0.2987 -0.0161
    1BTD    C4911936   5.432   0.200   1.032  0.4465 -0.4915  0.4819
    1BTD    C5011937   5.480   0.061   1.059  0.2974  0.1745  0.0297
    1BTD    C7511938   5.651   0.839   1.031 -0.1631  0.4596  0.1781
    1BTD    C7611939   5.597   0.818   0.886  0.5402  0.3683 -0.3102
    1BTD    C7711940   5.452   0.754   0.891 -0.0112  0.1001  0.1721
    1BTD    C7811941   5.367   0.750   0.764 -0.3867  0.2997  0.6057
    1BTD    C7911942   5.693   0.750   0.792 -0.1311 -0.1632 -0.7338
    1BTD    C8011943   5.832   0.795   0.782  0.4916  0.2479 -0.4672
    1BTD    C8111944   5.857   0.947   0.772 -0.0919  0.7763 -0.4061
    1BTD    C8211945   6.005   0.970   0.765  0.1942  0.1615  0.4067
    2TTP     S111946   5.772   0.621   1.693  0.0968 -0.1239 -0.0326
    2TTP     S511947   5.683   0.300   1.421  0.2229 -0.1667 -0.0234
    2TTP     C111948   5.730   0.229   1.581  0.3309 -0.1459 -0.0453
    2TTP     C211949   5.760   0.324   1.675  0.2983 -0.1314 -0.0495
    2TTP     C311950   5.748   0.456   1.623  0.1869 -0.1363 -0.0355
    2TTP     C411951   5.726   0.693   1.532 -0.0112 -0.1448 -0.0106
    2TTP    C1711952   5.696   0.598   1.438  0.0216 -0.1592 -0.0065
    2TTP    C1811953   5.708   0.465   1.490  0.1329 -0.1544 -0.0206
    2TTP    C3211954   5.801   0.306   1.822 -0.3306  0.3061  0.1472
    2TTP    C3311955   5.948   0.301   1.851  0.4953  0.7491  0.1312
    2TTP    C3411956   6.012   0.177   1.796 -0.7537  0.0674 -0.3009
    2TTP    C3511957   6.164   0.169   1.806 -0.0849  0.3811 -0.3467
    2TTP    C3611958   6.229   0.047   1.742  0.3584  0.1350 -0.2972
    2TTP    C3711959   6.377   0.034   1.748  0.5665  0.0427  0.1747
    2TTP    C3811960   6.434  -0.063   1.643 -0.0063  0.8859 -0.2859
    2TTP    C3911961   6.581  -0.073   1.628 -0.8966  0.2889 -0.4848
    2TTP    C4011962   6.664   0.058   1.618 -0.2724  0.9435  0.5905
    2TTP    C4111963   6.806   0.020   1.565 -0.1355  0.1955 -0.5852
    2TTP    C4211964   6.885   0.140   1.549 -0.5095  0.1391  0.1605
    3TTP     S111965   5.581   1.311   1.185 -0.2222 -0.2846  0.0075
    3TTP     S511966   5.391   1.102   0.861  0.1407 -0.1765 -0.2758
    3TTP     C111967   5.356   1.279   0.844  0.2804 -0.1545 -0.3384
    3TTP     C211968   5.412   1.354   0.943  0.1765 -0.1865 -0.2545
    3TTP     C311969   5.486   1.274   1.036 -0.0172 -0.2297 -0.1379
    3TTP     C411970   5.616   1.133   1.202 -0.3620 -0.3067  0.0701
    3TTP    C1711971   5.560   1.058   1.103 -0.2583 -0.2747 -0.0137
    3TTP    C1811972   5.487   1.138   1.010 -0.0645 -0.2315 -0.1304
    3TTP    C3211973   5.416   1.507   0.961  0.4976  0.1013  0.4584
    3TTP    C3311974   5.544   1.556   0.879  0.2508  0.0099 -0.1107
    3TTP    C3411975   5.543   1.703   0.842 -0.4702  0.3270 -0.5008
    3TTP    C3511976   5.501   1.810   0.946 -0.5990  0.4155 -0.6463
    3TTP    C3611977   5.495   1.958   0.917  0.2876  0.2306  0.7407
    3TTP    C3711978   5.413   2.003   0.800 -0.2150 -0.2096 -0.0500
    3TTP    C3811979   5.404   2.153   0.808  0.0781 -0.4232  0.0424
    3TTP    C3911980   5.322   2.208   0.690 -0.1946  0.0896  0.6273
    3TTP    C4011981   5.332   2.355   0.683 -0.2557 -0.7113  0.3043
    3TTP    C4111982   5.255   2.403   0.555  0.5348  0.2163 -0.2362
    3TTP    C4211983   5.259   2.553   0.545  0.4222 -0.4635 -0.3027
    4FIC     F111984   5.651  -0.454   1.133 -0.1458 -0.0639 -0.0906
    4FIC     F211985   5.635  -0.596   1.365 -0.1764 -0.1214 -0.1280
    4FIC     O111986   5.718   0.048   1.324 -0.0316 -0.1299  0.0424
    4FIC     N511987   5.660  -0.441   1.835 -0.1392 -0.2506 -0.0871
    4FIC     N611988   5.716  -0.020   1.937 -0.0437 -0.2906  0.0243
    4FIC    C1911989   5.727   0.091   1.614 -0.0204 -0.2081  0.0538
    4FIC    C2011990   5.711  -0.029   1.557 -0.0480 -0.1893  0.0218
    4FIC    C2111991   5.707  -0.044   1.407 -0.0519 -0.1493  0.0181
    4FIC    C2211992   5.688  -0.187   1.379 -0.0843 -0.1373 -0.0199
    4FIC    C2311993   5.679  -0.249   1.255 -0.0989 -0.1023 -0.0362
    4FIC    C2411994   5.661  -0.386   1.253 -0.1299 -0.0975 -0.0727
    4FIC    C2511995   5.653  -0.459   1.373 -0.1458 -0.1275 -0.0919
    4FIC    C2611996   5.662  -0.398   1.497 -0.1314 -0.1621 -0.0758
    4FIC    C2711997   5.680  -0.259   1.501 -0.0999 -0.1674 -0.0389
    4FIC    C2811998   5.694  -0.165   1.615 -0.0781 -0.2005 -0.0140
    4FIC    C2911999   5.691  -0.197   1.748 -0.0848 -0.2351 -0.0226
    4FIC    C3012000   5.674  -0.331   1.795 -0.1147 -0.2434 -0.0581
    4FIC    C3112001   5.705  -0.100   1.851 -0.0621 -0.2654  0.0032
    5FIC     F112002   4.865   0.991   0.249 -0.0223  0.0391 -0.0486
    5FIC     F212003   4.780   1.245   0.204 -0.0169  0.0710  0.1240
    5FIC     O112004   5.218   1.069   0.651 -0.0691 -0.2497  0.0489
    5FIC     N512005   4.910   1.667   0.428 -0.0426 -0.0888  0.4417
    5FIC     N612006   5.203   1.677   0.752 -0.0803 -0.3208  0.4831
    5FIC    C1912007   5.262   1.340   0.752 -0.0807 -0.3217  0.2485
    5FIC    C2012008   5.177   1.310   0.653 -0.0690 -0.2503  0.2172
    5FIC    C2112009   5.160   1.168   0.606 -0.0638 -0.2172  0.1135
    5FIC    C2212010   5.060   1.172   0.498 -0.0510 -0.1393  0.1041
    5FIC    C2312011   5.011   1.064   0.424 -0.0424 -0.0863  0.0215
    5FIC    C2412012   4.917   1.092   0.326 -0.0311 -0.0160  0.0303
    5FIC    C2512013   4.874   1.223   0.303 -0.0283  0.0003  0.1193
    5FIC    C2612014   4.922   1.331   0.376 -0.0370 -0.0522  0.2021
    5FIC    C2712015   5.017   1.305   0.476 -0.0484 -0.1237  0.1946
    5FIC    C2812016   5.087   1.395   0.571 -0.0595 -0.1913  0.2676
    5FIC    C2912017   5.072   1.532   0.580 -0.0604 -0.1979  0.3635
    5FIC    C3012018   4.983   1.606   0.496 -0.0507 -0.1378  0.4062
    5FIC    C3112019   5.144   1.611   0.674 -0.0713 -0.2655  0.4288
    1BTD     S212020   4.101   1.137   3.107 -0.1088 -0.1577 -0.0390
    1BTD     N112021   4.103   0.958   3.114 -0.2712 -0.1578  0.0202
    1BTD     N212022   4.183   1.159   3.266  0.1316 -0.1799 -0.1588
    1BTD     N312023   4.353   0.879   3.602  0.3287 -0.2252 -0.2964
    1BTD     N412024   4.255   0.631   3.415 -0.1677 -0.1980 -0.0757
    1BTD     C512025   4.184   0.790   3.273 -0.2111 -0.1791 -0.0325
    1BTD     C612026   4.162   0.925   3.228 -0.1442 -0.1735 -0.0489
    1BTD     C712027   4.206   1.038   3.313  0.0813 -0.1859 -0.1491
    1BTD     C812028   4.271   1.010   3.439  0.2285 -0.2033 -0.2279
    1BTD    C1512029   4.290   0.876   3.479  0.1559 -0.2081 -0.2085
    1BTD    C1612030   4.247   0.768   3.397 -0.0612 -0.1962 -0.1119
    1BTD    C4312031   4.345   0.549   3.507 -0.4115  0.0283  0.3647
    1BTD    C4412032   4.505   0.553   3.477  0.5173  0.1183  0.7728
    1BTD    C4512033   4.579   0.493   3.591 -0.4001  0.2339 -0.4377
    1BTD    C4612034   4.730   0.515   3.582 -0.1919  0.1657 -0.5836
    1BTD    C4712035   4.551   0.502   3.340  0.1808  0.0609  0.1486
    1BTD    C4812036   4.551   0.357   3.304 -0.0477 -0.2275 -0.4197
    1BTD    C4912037   4.637   0.327   3.181  0.4119 -0.0926 -0.5044
    1BTD    C5012038   4.642   0.176   3.158 -0.8609 -0.5942 -0.1388
    1BTD    C7512039   4.367   0.785   3.714 -0.2099  0.0632  0.2614
    1BTD    C7612040   4.255   0.755   3.817  0.1373  0.2246  0.0981
    1BTD    C7712041   4.293   0.649   3.916 -0.0941  0.2023  0.5185
    1BTD    C7812042   4.420   0.670   3.995  0.4023  0.2973  0.3782
    1BTD    C7912043   4.189   0.887   3.871  0.2573  0.0022  0.1058
    1BTD    C8012044   4.057   0.884   3.946  0.8044  0.3380 -0.0863
    1BTD    C8112045   4.014   1.008   4.019  0.5601 -0.3953 -0.0935
    1BTD    C8212046   3.959   0.994   4.159  0.6494  0.1768  0.0758
    2TTP     S112047   4.099   0.587   3.058  0.1404 -0.0036 -0.3651
    2TTP     S512048   4.210   0.271   3.328 -0.7675  0.1330  0.1740
    2TTP     C112049   4.156   0.197   3.171 -0.3420  0.0490  0.0658
    2TTP     C212050   4.119   0.290   3.078 -0.0366  0.0018 -0.1070
    2TTP     C312051   4.131   0.424   3.128 -0.1277  0.0304 -0.1603
    2TTP     C412052   4.153   0.662   3.215 -0.2850  0.0804 -0.2569
    2TTP    C1712053   4.190   0.568   3.308 -0.5905  0.1276 -0.0841
    2TTP    C1812054   4.178   0.435   3.258 -0.4996  0.0990 -0.0309
    2TTP    C3212055   4.043   0.269   2.944 -1.2104 -0.0917  0.4864
    2TTP    C3312056   3.889   0.280   2.922  0.6925  0.3223 -0.2162
    2TTP    C3412057   3.796   0.217   3.028 -0.4683 -0.2327  1.0516
    2TTP    C3512058   3.662   0.190   2.968 -0.0045  0.4874  0.4632
    2TTP    C3612059   3.649   0.094   2.848 -0.3632 -0.1701 -0.0543
    2TTP    C3712060   3.671  -0.051   2.884 -0.0550  0.4011  0.0974
    2TTP    C3812061   3.674  -0.140   2.754  0.1830  0.2300  0.2403
    2TTP    C3912062   3.780  -0.099   2.642 -0.8697 -0.1542 -0.5864
    2TTP    C4012063   3.801  -0.200   2.534 -0.4849  0.2051 -0.2161
    2TTP    C4112064   3.911  -0.160   2.434  0.2412  0.5868  0.7115
    2TTP    C4212065   3.910  -0.250   2.311  0.1737 -0.0566 -0.3244
    3TTP     S112066   4.360   1.271   3.572 -0.1774 -0.0764  0.3139
    3TTP     S512067   4.593   1.034   3.845  0.0134 -0.2202  0.0274
    3TTP     C112068   4.633   1.209   3.872 -0.0184 -0.2295  0.1381
    3TTP     C212069   4.564   1.293   3.789 -0.0794 -0.1857  0.2332
    3TTP     C312070   4.476   1.221   3.702 -0.1029 -0.1431  0.2219
    3TTP     C412071   4.320   1.096   3.545 -0.1456 -0.0670  0.2032
    3TTP    C1712072   4.389   1.012   3.628 -0.0847 -0.1109  0.1082
    3TTP    C1812073   4.477   1.083   3.716 -0.0610 -0.1535  0.1194
    3TTP    C3212074   4.575   1.449   3.777 -0.2634 -0.3995 -0.4308
    3TTP    C3312075   4.449   1.521   3.831 -0.0399 -0.4474 -0.3130
    3TTP    C3412076   4.454   1.672   3.832 -0.0821 -0.3652 -0.6952
    3TTP    C3512077   4.386   1.732   3.954  0.0102 -0.3718 -0.2310
    3TTP    C3612078   4.365   1.889   3.957 -0.6466  0.5763 -0.2785
    3TTP    C3712079   4.313   1.970   3.840  0.1861  0.1384  0.8281
    3TTP    C3812080   4.311   2.121   3.845  0.1555  0.7453 -0.3051
    3TTP    C3912081   4.252   2.184   3.721 -0.7373 -0.2158  0.4043
    3TTP    C4012082   4.267   2.330   3.735  0.0679  0.3308  0.3313
    3TTP    C4112083   4.206   2.385   3.607  0.3518 -0.6860  0.0972
    3TTP    C4212084   4.222   2.541   3.595  0.1944 -0.6742 -0.2647
    4FIC     F112085   4.195  -0.489   3.623  0.1316 -0.2224 -0.1838
    4FIC     F212086   4.180  -0.634   3.393 -0.0122 -0.0544 -0.2804
    4FIC     O112087   4.169   0.015   3.428  0.3599 -0.0718  0.1734
    4FIC     N512088   4.139  -0.483   2.924 -0.0557  0.2942 -0.1649
    4FIC     N612089   4.122  -0.059   2.818  0.1516  0.3779  0.1338
    4FIC    C1912090   4.145   0.056   3.139  0.3040  0.1419  0.2080
    4FIC    C2012091   4.152  -0.065   3.197  0.2520  0.0975  0.1218
    4FIC    C2112092   4.165  -0.078   3.347  0.2857 -0.0129  0.1097
    4FIC    C2212093   4.170  -0.223   3.376  0.2129 -0.0362  0.0080
    4FIC    C2312094   4.181  -0.284   3.500  0.2128 -0.1290 -0.0373
    4FIC    C2412095   4.184  -0.422   3.503  0.1363 -0.1329 -0.1344
    4FIC    C2512096   4.176  -0.497   3.385  0.0623 -0.0462 -0.1841
    4FIC    C2612097   4.165  -0.437   3.260  0.0619  0.0463 -0.1393
    4FIC    C2712098   4.162  -0.296   3.255  0.1389  0.0517 -0.0409
    4FIC    C2812099   4.151  -0.203   3.141  0.1600  0.1376  0.0270
    4FIC    C2912100   4.141  -0.236   3.008  0.1048  0.2351  0.0060
    4FIC    C3012101   4.140  -0.372   2.962  0.0167  0.2670 -0.0879
    4FIC    C3112102   4.130  -0.139   2.904  0.1309  0.3130  0.0764
    5FIC     F112103   5.143   0.885   4.424 -0.1038 -0.0990  0.0387
    5FIC     F212104   5.180   1.135   4.527  0.3960 -0.0495 -0.2515
    5FIC     O112105   4.805   0.993   4.015 -0.4221  0.0042  0.3278
    5FIC     N512106   4.992   1.569   4.385  0.8879  0.0953 -0.4626
    5FIC     N612107   4.721   1.603   4.044  0.5386  0.1659 -0.1783
    5FIC    C1912108   4.721   1.269   3.968 -0.0577  0.0882  0.1532
    5FIC    C2012109   4.804   1.233   4.067  0.0030  0.0603  0.0918
    5FIC    C2112110   4.843   1.089   4.085 -0.1950  0.0176  0.1890
    5FIC    C2212111   4.934   1.084   4.201 -0.0660 -0.0045  0.0870
    5FIC    C2312112   4.997   0.972   4.255 -0.1719 -0.0450  0.1252
    5FIC    C2412113   5.079   0.992   4.365 -0.0117 -0.0593  0.0090
    5FIC    C2512114   5.097   1.120   4.418  0.2457 -0.0337 -0.1404
    5FIC    C2612115   5.036   1.232   4.364  0.3524  0.0067 -0.1793
    5FIC    C2712116   4.952   1.214   4.253  0.1936  0.0218 -0.0632
    5FIC    C2812117   4.873   1.311   4.173  0.2462  0.0625 -0.0662
    5FIC    C2912118   4.865   1.446   4.193  0.4764  0.0961 -0.1915
    5FIC    C3012119   4.935   1.514   4.298  0.7018  0.0955 -0.3402
    5FIC    C3112120   4.786   1.532   4.111  0.5091  0.1343 -0.1835
    1BTD     S212121   5.918   6.743   0.699  0.1076  0.1838  0.1204
    1BTD     N112122   5.911   6.922   0.688 -0.1070  0.1763  0.1232
    1BTD     N212123   5.848   6.715   0.536  0.2229  0.1032  0.0844
    1BTD     N312124   5.694   6.983   0.183  0.0702 -0.0745  0.0160
    1BTD     N412125   5.771   7.238   0.371 -0.3364  0.0157  0.0638
    1BTD     C512126   5.837   7.084   0.520 -0.2220  0.0913  0.0916
    1BTD     C612127   5.860   6.951   0.570 -0.0830  0.1173  0.0984
    1BTD     C712128   5.825   6.835   0.484  0.1017  0.0763  0.0767
    1BTD     C812129   5.769   6.858   0.354  0.1383  0.0116  0.0492
    1BTD    C1512130   5.748   6.991   0.310 -0.0020 -0.0117  0.0435
    1BTD    C1612131   5.782   7.102   0.392 -0.1798  0.0278  0.0645
    1BTD    C4312132   5.705   7.319   0.264  0.0078  0.0242 -0.1387
    1BTD    C4412133   5.563   7.381   0.293 -0.7482  0.3700  0.7536
    1BTD    C4512134   5.467   7.298   0.373  0.4084  0.4330 -0.8639
    1BTD    C4612135   5.341   7.368   0.432 -0.4791  0.5989  0.7506
    1BTD    C4712136   5.513   7.455   0.168 -0.2666 -0.0178  0.4904
    1BTD    C4812137   5.472   7.376   0.043 -0.2186 -0.5005 -0.3415
    1BTD    C4912138   5.334   7.315   0.046 -0.1432  0.1769 -0.4868
    1BTD    C5012139   5.303   7.257  -0.095 -0.4723  0.5995  0.2207
    1BTD    C7512140   5.686   7.080   0.067  0.0233 -0.4058 -0.4083
    1BTD    C7612141   5.819   7.106  -0.006  0.4155  0.4077 -0.2883
    1BTD    C7712142   5.823   7.245  -0.078 -0.0160  0.3682 -0.1917
    1BTD    C7812143   5.727   7.268  -0.194 -0.2406  0.5971 -0.4998
    1BTD    C7912144   5.874   6.987  -0.084 -0.2563 -0.2141  0.2306
    1BTD    C8012145   6.011   7.015  -0.156  0.4134 -0.2835  0.2933
    1BTD    C8112146   6.055   6.918  -0.255  0.7159 -0.0693  0.4669
    1BTD    C8212147   6.194   6.944  -0.313  0.2815  0.3608 -0.7207
    2TTP     S112148   5.900   7.292   0.732 -0.0717  0.0730  0.3687
    2TTP     S512149   5.764   7.606   0.471  0.3664 -0.1652 -0.1491
    2TTP     C112150   5.818   7.680   0.628  0.0350 -0.0284 -0.0991
    2TTP     C212151   5.863   7.587   0.718 -0.1199  0.0532  0.0638
    2TTP     C312152   5.856   7.454   0.666  0.0176  0.0105  0.1549
    2TTP     C412153   5.846   7.217   0.575  0.2598 -0.0638  0.3186
    2TTP    C1712154   5.801   7.310   0.485  0.4145 -0.1454  0.1558
    2TTP    C1812155   5.807   7.443   0.537  0.2770 -0.1029  0.0647
    2TTP    C3212156   5.915   7.595   0.861 -0.8045  0.3364 -0.0449
    2TTP    C3312157   6.067   7.597   0.873 -0.2916  0.1213  0.0843
    2TTP    C3412158   6.148   7.718   0.825  0.2532  0.2163 -0.1605
    2TTP    C3512159   6.297   7.691   0.850 -0.0649 -0.1899 -0.6501
    2TTP    C3612160   6.392   7.809   0.818  0.0313  0.2267 -0.2702
    2TTP    C3712161   6.401   7.858   0.667 -1.0188 -0.1732 -0.0391
    2TTP    C3812162   6.511   7.965   0.658  0.2550 -0.3399 -0.0271
    2TTP    C3912163   6.554   7.987   0.511  0.1599 -0.1718 -0.0570
    2TTP    C4012164   6.631   8.112   0.483  0.3648 -0.1625  0.1879
    2TTP    C4112165   6.659   8.134   0.333  0.4730  0.6436 -0.4627
    2TTP    C4212166   6.753   8.252   0.323 -0.4103 -0.5504  0.8066
    3TTP     S112167   5.689   6.592   0.213 -0.2815 -0.2593  0.0972
    3TTP     S512168   5.476   6.826  -0.078  0.0694 -0.1577 -0.0796
    3TTP     C112169   5.443   6.650  -0.110  0.0448 -0.1437 -0.1320
    3TTP     C212170   5.507   6.567  -0.022 -0.0648 -0.1743 -0.0805
    3TTP     C312171   5.584   6.640   0.074 -0.1339 -0.2098  0.0022
    3TTP     C412172   5.722   6.768   0.245 -0.2570 -0.2733  0.1496
    3TTP    C1712173   5.658   6.851   0.157 -0.1473 -0.2427  0.0981
    3TTP    C1812174   5.581   6.778   0.061 -0.0787 -0.2072  0.0154
    3TTP    C3212175   5.497   6.415  -0.016  0.0297 -0.7301  0.4184
    3TTP    C3312176   5.624   6.349  -0.076  0.4204 -0.0548 -0.4486
    3TTP    C3412177   5.620   6.196  -0.086  0.9932 -0.2898  0.1456
    3TTP    C3512178   5.613   6.116   0.042 -0.1216  0.0084 -0.2630
    3TTP    C3612179   5.634   5.964   0.002  0.7903 -0.4370 -0.0344
    3TTP    C3712180   5.684   5.892   0.124  0.3809  0.4176  0.0441
    3TTP    C3812181   5.812   5.928   0.199  0.2197  0.1027 -0.5836
    3TTP    C3912182   5.818   5.869   0.341 -0.2489  0.2390  0.5812
    3TTP    C4012183   5.964   5.897   0.398  0.1183  0.0162  0.4587
    3TTP    C4112184   6.000   6.045   0.432 -0.3145  0.1571 -0.4816
    3TTP    C4212185   6.138   6.061   0.490  0.1605  0.1117 -0.3764
    4FIC     F112186   5.615   8.378   0.249 -0.5239 -0.0782  0.2238
    4FIC     F212187   5.605   8.497   0.494  0.1066  0.0982  0.1694
    4FIC     O112188   5.769   7.877   0.386 -0.5209 -0.0786  0.2179
    4FIC     N512189   5.699   8.311   0.943  1.0154  0.3512  0.0869
    4FIC     N612190   5.822   7.896   1.000  0.8904  0.3151  0.0933
    4FIC    C1912191   5.814   7.813   0.668  0.0825  0.0896  0.1638
    4FIC    C2012192   5.776   7.934   0.624  0.0570  0.0829  0.1674
    4FIC    C2112193   5.755   7.959   0.477 -0.2615 -0.0061  0.1959
    4FIC    C2212194   5.714   8.101   0.465 -0.2037  0.0103  0.1924
    4FIC    C2312195   5.683   8.170   0.348 -0.4272 -0.0517  0.2129
    4FIC    C2412196   5.647   8.303   0.361 -0.3159 -0.0201  0.2046
    4FIC    C2512197   5.641   8.364   0.487  0.0091  0.0709  0.1765
    4FIC    C2612198   5.672   8.296   0.604  0.2332  0.1330  0.1559
    4FIC    C2712199   5.709   8.161   0.593  0.1251  0.1025  0.1639
    4FIC    C2812200   5.746   8.061   0.696  0.2984  0.1504  0.1475
    4FIC    C2912201   5.753   8.082   0.831  0.6208  0.2403  0.1192
    4FIC    C3012202   5.723   8.208   0.892  0.8366  0.3011  0.1016
    4FIC    C3112203   5.791   7.979   0.923  0.7672  0.2809  0.1051
    5FIC     F112204   4.921   6.975  -0.663 -0.1854 -0.1181 -0.1169
    5FIC     F212205   4.846   6.723  -0.732 -0.1715 -0.1148 -0.1444
    5FIC     O112206   5.288   6.873  -0.279 -0.1636 -0.1402 -0.1435
    5FIC     N512207   5.000   6.286  -0.556 -0.1360 -0.1260 -0.2028
    5FIC     N612208   5.302   6.257  -0.241 -0.1218 -0.1440 -0.2180
    5FIC    C1912209   5.347   6.595  -0.207 -0.1426 -0.1450 -0.1791
    5FIC    C2012210   5.257   6.631  -0.301 -0.1485 -0.1397 -0.1714
    5FIC    C2112211   5.232   6.776  -0.332 -0.1593 -0.1374 -0.1530
    5FIC    C2212212   5.130   6.779  -0.439 -0.1638 -0.1314 -0.1487
    5FIC    C2312213   5.075   6.891  -0.500 -0.1734 -0.1277 -0.1331
    5FIC    C2412214   4.979   6.869  -0.598 -0.1758 -0.1222 -0.1320
    5FIC    C2512215   4.941   6.739  -0.633 -0.1687 -0.1204 -0.1462
    5FIC    C2612216   4.996   6.626  -0.572 -0.1590 -0.1242 -0.1618
    5FIC    C2712217   5.093   6.647  -0.473 -0.1564 -0.1298 -0.1631
    5FIC    C2812218   5.169   6.551  -0.390 -0.1469 -0.1348 -0.1776
    5FIC    C2912219   5.160   6.413  -0.394 -0.1379 -0.1347 -0.1938
    5FIC    C3012220   5.072   6.344  -0.483 -0.1370 -0.1299 -0.1988
    5FIC    C3112221   5.238   6.328  -0.310 -0.1291 -0.1397 -0.2070
    1BTD     S212222   4.326   6.792   2.129 -0.3258  0.0604 -0.2032
    1BTD     N112223   4.335   6.971   2.136 -0.1779  0.0480 -0.0678
    1BTD     N212224   4.372   6.768   2.301 -0.3670 -0.1068 -0.2149
    1BTD     N312225   4.482   7.043   2.665 -0.1844 -0.4699  0.0056
    1BTD     N412226   4.436   7.294   2.462  0.0486 -0.2791  0.1868
    1BTD     C512227   4.388   7.136   2.309 -0.0623 -0.1251  0.0629
    1BTD     C612228   4.370   7.002   2.260 -0.1675 -0.0738 -0.0398
    1BTD     C712229   4.391   6.888   2.352 -0.2735 -0.1605 -0.1221
    1BTD     C812230   4.429   6.914   2.489 -0.2689 -0.2940 -0.0976
    1BTD    C1512231   4.446   7.047   2.532 -0.1641 -0.3399  0.0040
    1BTD    C1612232   4.425   7.157   2.443 -0.0622 -0.2564  0.0834
    1BTD    C4312233   4.513   7.367   2.560  0.0291 -0.2710 -0.4215
    1BTD    C4412234   4.668   7.381   2.541  0.1978  0.1654 -0.4283
    1BTD    C4512235   4.726   7.445   2.673 -0.0156  0.2569 -0.3686
    1BTD    C4612236   4.869   7.466   2.706  0.5053 -0.5519 -0.5079
    1BTD    C4712237   4.723   7.426   2.405 -0.4308 -0.6305  0.3451
    1BTD    C4812238   4.708   7.580   2.370  0.1245  0.0698  0.7126
    1BTD    C4912239   4.757   7.616   2.224  0.4986 -0.7163 -0.3102
    1BTD    C5012240   4.803   7.765   2.212 -0.4216  0.1867  0.1929
    1BTD    C7512241   4.417   7.129   2.766  0.1758 -0.0823 -1.0507
    1BTD    C7612242   4.463   7.129   2.912 -0.6133 -0.3030 -0.3363
    1BTD    C7712243   4.602   7.202   2.915 -0.0790 -0.4351  0.0204
    1BTD    C7812244   4.670   7.223   3.051 -0.3148 -0.1680 -0.2527
    1BTD    C7912245   4.360   7.181   3.014 -0.6111  0.0053  0.0465
    1BTD    C8012246   4.224   7.130   3.053  0.5836 -0.1337  0.4421
    1BTD    C8112247   4.218   6.986   3.095  0.3299  0.0406  0.0889
    1BTD    C8212248   4.076   6.961   3.150 -0.2688  0.0216 -0.6589
    2TTP     S112249   4.312   7.345   2.093 -0.2604 -0.0038  0.0115
    2TTP     S512250   4.385   7.654   2.383  0.0733  0.0597 -0.1389
    2TTP     C112251   4.334   7.732   2.226 -0.0603  0.0277 -0.1121
    2TTP     C212252   4.309   7.641   2.128 -0.1711  0.0060 -0.0640
    2TTP     C312253   4.328   7.507   2.172 -0.1547  0.0142 -0.0467
    2TTP     C412254   4.363   7.267   2.250 -0.1270  0.0281 -0.0154
    2TTP    C1712255   4.388   7.358   2.348 -0.0160  0.0498 -0.0634
    2TTP    C1812256   4.368   7.492   2.304 -0.0324  0.0417 -0.0808
    2TTP    C3212257   4.254   7.671   1.993 -0.3236 -0.0658 -0.1351
    2TTP    C3312258   4.325   7.624   1.867 -0.5280  0.5897  0.1220
    2TTP    C3412259   4.266   7.665   1.740  0.2734 -0.0649  0.9991
    2TTP    C3512260   4.343   7.618   1.619 -0.1052 -0.3088 -0.0893
    2TTP    C3612261   4.290   7.674   1.491  0.2325  0.4290  0.6334
    2TTP    C3712262   4.307   7.830   1.475 -0.1836  0.1779  0.7432
    2TTP    C3812263   4.198   7.878   1.377 -0.0221 -0.4820 -0.1512
    2TTP    C3912264   4.168   8.021   1.414 -0.2086 -0.4517 -0.8224
    2TTP    C4012265   4.099   8.106   1.313 -0.1480 -0.1420 -0.5967
    2TTP    C4112266   4.113   8.257   1.327 -0.2527 -0.7650  0.0459
    2TTP    C4212267   4.040   8.330   1.217 -0.1599 -0.0295 -0.3472
    3TTP     S112268   4.496   6.651   2.622  0.6391  0.0688 -0.4436
    3TTP     S512269   4.680   6.873   2.941 -0.2137  0.0404  0.0754
    3TTP     C112270   4.719   6.696   2.963  0.3147  0.1125 -0.2366
    3TTP     C212271   4.664   6.617   2.866  0.6093  0.1256 -0.4152
    3TTP     C312272   4.590   6.694   2.771  0.4281  0.0792 -0.3122
    3TTP     C412273   4.457   6.828   2.600  0.1105 -0.0033 -0.1317
    3TTP    C1712274   4.512   6.906   2.697 -0.1840 -0.0162  0.0469
    3TTP    C1812275   4.586   6.830   2.793 -0.0027  0.0302 -0.0561
    3TTP    C3212276   4.682   6.468   2.839  0.0905  0.2687 -0.4211
    3TTP    C3312277   4.573   6.373   2.895 -0.5055  0.4265  0.3170
    3TTP    C3412278   4.604   6.229   2.857 -0.0309  0.4088  0.7244
    3TTP    C3512279   4.536   6.170   2.728 -0.4293  0.0449 -0.0591
    3TTP    C3612280   4.576   6.022   2.710  0.1248  0.7927 -0.7157
    3TTP    C3712281   4.531   5.959   2.579  0.4477  0.0170 -0.0792
    3TTP    C3812282   4.384   5.914   2.568  0.1826 -0.4505 -0.8765
    3TTP    C3912283   4.326   5.866   2.435 -0.1083 -0.5798  0.1070
    3TTP    C4012284   4.178   5.833   2.432 -0.1249  0.0509 -0.3220
    3TTP    C4112285   4.113   5.840   2.297  0.0332 -0.0243  0.3385
    3TTP    C4212286   3.981   5.761   2.289 -0.5596  0.3094 -0.0024
    4FIC     F112287   4.411   8.398   2.700  0.0231 -0.0451 -0.0847
    4FIC     F212288   4.424   8.549   2.473 -0.0765 -0.0801 -0.1135
    4FIC     O112289   4.337   7.904   2.490  0.2340 -0.1186  0.0132
    4FIC     N512290   4.390   8.414   1.999 -0.0695 -0.1829 -0.0851
    4FIC     N612291   4.329   7.998   1.880  0.1154 -0.2335 -0.0029
    4FIC    C1912292   4.323   7.873   2.199  0.2137 -0.1781  0.0204
    4FIC    C2012293   4.341   7.991   2.261  0.1645 -0.1583 -0.0032
    4FIC    C2112294   4.347   8.000   2.411  0.1789 -0.1280 -0.0053
    4FIC    C2212295   4.368   8.142   2.444  0.1149 -0.1121 -0.0334
    4FIC    C2312296   4.380   8.198   2.571  0.1032 -0.0834 -0.0449
    4FIC    C2412297   4.399   8.335   2.578  0.0383 -0.0735 -0.0719
    4FIC    C2512298   4.405   8.413   2.461 -0.0130 -0.0912 -0.0867
    4FIC    C2612299   4.394   8.357   2.334 -0.0017 -0.1199 -0.0753
    4FIC    C2712300   4.374   8.218   2.325  0.0638 -0.1309 -0.0480
    4FIC    C2812301   4.358   8.129   2.208  0.0923 -0.1597 -0.0300
    4FIC    C2912302   4.359   8.167   2.076  0.0579 -0.1838 -0.0370
    4FIC    C3012303   4.376   8.303   2.034 -0.0120 -0.1831 -0.0634
    4FIC    C3112304   4.342   8.074   1.969  0.0898 -0.2110 -0.0182
    5FIC     F112305   5.254   7.022   3.503  0.3368  0.2134 -0.6906
    5FIC     F212306   5.315   6.770   3.586 -0.3411  0.3057  0.1233
    5FIC     O112307   4.879   6.918   3.126  0.2794 -0.0107 -0.5726
    5FIC     N512308   5.136   6.334   3.435 -1.3567  0.2786  1.3775
    5FIC     N612309   4.831   6.304   3.124 -1.2649  0.0846  1.3056
    5FIC    C1912310   4.804   6.641   3.071 -0.3886 -0.0023  0.2468
    5FIC    C2012311   4.896   6.677   3.163 -0.3477  0.0505  0.1854
    5FIC    C2112312   4.929   6.822   3.185  0.0041  0.0422 -0.2455
    5FIC    C2212313   5.032   6.825   3.291 -0.0439  0.1090 -0.2006
    5FIC    C2312314   5.094   6.937   3.346  0.2083  0.1262 -0.5143
    5FIC    C2412315   5.189   6.915   3.445  0.1008  0.1928 -0.3961
    5FIC    C2512316   5.220   6.785   3.487 -0.2487  0.2402  0.0234
    5FIC    C2612317   5.159   6.673   3.433 -0.5016  0.2234  0.3380
    5FIC    C2712318   5.063   6.693   3.332 -0.3977  0.1563  0.2244
    5FIC    C2812319   4.980   6.597   3.255 -0.5982  0.1222  0.4783
    5FIC    C2912320   4.982   6.460   3.267 -0.9493  0.1515  0.9035
    5FIC    C3012321   5.066   6.391   3.360 -1.1719  0.2213  1.1626
    5FIC    C3112322   4.899   6.375   3.189 -1.1208  0.1147  1.1222
    1BTD     S212323   3.266   3.920   3.249 -0.1406  0.0643 -0.0068
    1BTD     N112324   3.280   3.741   3.254 -0.4200  0.0449  0.0743
    1BTD     N212325   3.336   3.945   3.412  0.1894  0.0492 -0.1443
    1BTD     N312326   3.504   3.672   3.756  0.3573 -0.0169 -0.2780
    1BTD     N412327   3.434   3.420   3.561 -0.3937 -0.0222 -0.0088
    1BTD     C512328   3.361   3.576   3.417 -0.3972  0.0100  0.0277
    1BTD     C612329   3.333   3.710   3.372 -0.2612  0.0290 -0.0014
    1BTD     C712330   3.365   3.824   3.460  0.0800  0.0313 -0.1237
    1BTD     C812331   3.423   3.799   3.589  0.2680  0.0145 -0.2109
    1BTD    C1512332   3.448   3.667   3.629  0.1247 -0.0036 -0.1783
    1BTD    C1612333   3.418   3.557   3.544 -0.2041 -0.0060 -0.0605
    1BTD    C4312334   3.513   3.343   3.659  0.1214 -0.6852 -0.4887
    1BTD    C4412335   3.655   3.291   3.615 -0.5946 -1.0303 -0.3984
    1BTD    C4512336   3.744   3.406   3.577  0.4911 -0.3022 -0.1029
    1BTD    C4612337   3.869   3.374   3.498 -0.5672  0.4587  0.2854
    1BTD    C4712338   3.719   3.211   3.734 -0.4686  0.4625  0.0766
    1BTD    C4812339   3.639   3.089   3.783 -0.5050  0.5813  0.5542
    1BTD    C4912340   3.689   2.953   3.720 -0.1910 -0.4853 -0.4220
    1BTD    C5012341   3.615   2.836   3.791 -0.0771 -0.3115 -0.5492
    1BTD    C7512342   3.487   3.574   3.864 -0.1833 -0.3588  0.4304
    1BTD    C7612343   3.357   3.544   3.933  0.1520 -0.3622 -0.1447
    1BTD    C7712344   3.373   3.414   4.015  0.3408 -0.4511  0.6505
    1BTD    C7812345   3.479   3.409   4.127  0.7459  0.0218 -0.1881
    1BTD    C7912346   3.290   3.657   4.009  0.0386  0.2530 -0.3013
    1BTD    C8012347   3.143   3.643   4.061 -0.0112  0.3005  0.1368
    1BTD    C8112348   3.098   3.750   4.164 -0.4158  0.1318  0.0161
    1BTD    C8212349   2.953   3.739   4.217 -0.4071  0.3490 -0.4338
    2TTP     S112350   3.275   3.369   3.212 -0.1017 -0.2383  0.0746
    2TTP     S512351   3.429   3.057   3.465  0.1507  0.0499  0.2779
    2TTP     C112352   3.363   2.981   3.313  0.0619 -0.1173  0.3994
    2TTP     C212353   3.311   3.073   3.226 -0.0213 -0.2161  0.3437
    2TTP     C312354   3.322   3.206   3.276 -0.0179 -0.1635  0.2032
    2TTP     C412355   3.341   3.444   3.364 -0.0129 -0.0713 -0.0468
    2TTP    C1712356   3.392   3.352   3.451  0.0702  0.0276  0.0087
    2TTP    C1812357   3.381   3.219   3.401  0.0669 -0.0251  0.1493
    2TTP    C3212358   3.249   3.045   3.084 -0.0797 -0.1237 -0.4527
    2TTP    C3312359   3.094   3.062   3.056 -0.0133 -0.3654 -0.0910
    2TTP    C3412360   3.000   2.971   3.125  0.1335 -0.8430 -0.0283
    2TTP    C3512361   2.857   2.998   3.087  0.1765  0.5089 -0.0775
    2TTP    C3612362   2.759   2.927   3.182  0.4605 -0.3581  0.2197
    2TTP    C3712363   2.751   2.775   3.196 -0.1450  0.1234  0.5930
    2TTP    C3812364   2.648   2.743   3.301  0.2593  0.0376  0.3784
    2TTP    C3912365   2.655   2.591   3.327  0.3720 -0.7510  0.1304
    2TTP    C4012366   2.555   2.562   3.430  0.1734  0.5131  0.1976
    2TTP    C4112367   2.564   2.416   3.478  0.0953  0.3690 -0.6199
    2TTP    C4212368   2.456   2.387   3.589  0.5084 -0.3069  0.1832
    3TTP     S112369   3.502   4.060   3.730 -0.4106 -0.3537  0.3875
    3TTP     S512370   3.703   3.829   4.032  0.2992 -0.2092  0.0310
    3TTP     C112371   3.739   4.005   4.060 -0.0321 -0.1592  0.1505
    3TTP     C212372   3.679   4.087   3.969 -0.2708 -0.2010  0.2677
    3TTP     C312373   3.603   4.013   3.873 -0.2007 -0.2738  0.2672
    3TTP     C412374   3.466   3.884   3.701 -0.0793 -0.4035  0.2679
    3TTP    C1712375   3.526   3.802   3.793  0.1594 -0.3619  0.1508
    3TTP    C1812376   3.603   3.876   3.889  0.0892 -0.2890  0.1512
    3TTP    C3212377   3.684   4.243   3.952  0.0500 -0.1269 -0.5181
    3TTP    C3312378   3.550   4.318   3.982 -0.2294 -0.2648  0.0977
    3TTP    C3412379   3.558   4.471   3.964 -0.2437 -0.1205 -0.2113
    3TTP    C3512380   3.645   4.552   4.055 -0.1188 -0.2210  0.1667
    3TTP    C3612381   3.620   4.705   4.058 -0.5523 -0.1966 -0.8470
    3TTP    C3712382   3.728   4.777   4.140 -0.0892  0.2035 -0.4610
    3TTP    C3812383   3.684   4.924   4.152  0.3994  0.0875  0.2877
    3TTP    C3912384   3.803   5.011   4.189 -0.1999  0.1310 -0.2720
    3TTP    C4012385   3.771   5.158   4.211 -0.4940  0.3164 -0.4099
    3TTP    C4112386   3.657   5.200   4.302 -0.4977 -0.0009  0.6105
    3TTP    C4212387   3.684   5.165   4.450 -0.1467 -0.6101 -0.0037
    4FIC     F112388   3.398   2.288   3.746 -0.1004 -0.0750 -0.0386
    4FIC     F212389   3.407   2.149   3.512  0.1416  0.0550 -0.1077
    4FIC     O112390   3.364   2.796   3.560 -0.3114  0.0024  0.2100
    4FIC     N512391   3.396   2.309   3.045  0.3393  0.2969 -0.0297
    4FIC     N612392   3.368   2.734   2.946  0.1257  0.3313  0.1785
    4FIC    C1912393   3.361   2.843   3.271 -0.1550  0.1542  0.2323
    4FIC    C2012394   3.369   2.720   3.327 -0.1115  0.1295  0.1725
    4FIC    C2112395   3.370   2.704   3.476 -0.1975  0.0508  0.1650
    4FIC    C2212396   3.380   2.560   3.503 -0.1204  0.0428  0.0941
    4FIC    C2312397   3.384   2.496   3.627 -0.1590 -0.0204  0.0631
    4FIC    C2412398   3.393   2.358   3.627 -0.0688 -0.0147 -0.0048
    4FIC    C2512399   3.398   2.286   3.507  0.0559  0.0523 -0.0403
    4FIC    C2612400   3.394   2.349   3.383  0.0950  0.1155 -0.0097
    4FIC    C2712401   3.384   2.489   3.381  0.0051  0.1107  0.0591
    4FIC    C2812402   3.378   2.585   3.268  0.0155  0.1668  0.1058
    4FIC    C2912403   3.380   2.553   3.134  0.1225  0.2393  0.0903
    4FIC    C3012404   3.389   2.419   3.085  0.2413  0.2707  0.0244
    4FIC    C3112405   3.373   2.653   3.031  0.1236  0.2894  0.1389
    5FIC     F112406   4.241   3.684   4.626 -0.0198  0.1082  0.0228
    5FIC     F212407   4.331   3.935   4.681 -0.0579  0.1321 -0.0240
    5FIC     O112408   3.877   3.788   4.239 -0.0391 -0.0192  0.0069
    5FIC     N512409   4.201   4.369   4.484 -0.1266  0.0758 -0.1028
    5FIC     N612410   3.899   4.400   4.170 -0.1340 -0.0285 -0.1059
    5FIC    C1912411   3.834   4.064   4.154 -0.0826 -0.0414 -0.0436
    5FIC    C2012412   3.922   4.028   4.249 -0.0761 -0.0104 -0.0378
    5FIC    C2112413   3.939   3.884   4.287 -0.0535 -0.0008 -0.0114
    5FIC    C2212414   4.042   3.880   4.393 -0.0520  0.0345 -0.0116
    5FIC    C2312415   4.091   3.768   4.460 -0.0343  0.0543  0.0086
    5FIC    C2412416   4.188   3.790   4.556 -0.0368  0.0871  0.0038
    5FIC    C2512417   4.234   3.919   4.584 -0.0563  0.0993 -0.0204
    5FIC    C2612418   4.186   4.031   4.518 -0.0741  0.0798 -0.0405
    5FIC    C2712419   4.087   4.012   4.420 -0.0721  0.0465 -0.0361
    5FIC    C2812420   4.015   4.108   4.333 -0.0876  0.0193 -0.0531
    5FIC    C2912421   4.032   4.244   4.330 -0.1086  0.0215 -0.0784
    5FIC    C3012422   4.125   4.313   4.415 -0.1185  0.0514 -0.0917
    5FIC    C3112423   3.959   4.329   4.242 -0.1225 -0.0061 -0.0934
    1BTD     S212424   4.860   3.817   1.741 -0.0475 -0.1612  0.0171
    1BTD     N112425   4.840   3.639   1.724  0.1343 -0.1668 -0.1583
    1BTD     N212426   4.812   3.853   1.571 -0.2704 -0.0264  0.1088
    1BTD     N312427   4.675   3.605   1.197 -0.3970  0.2381 -0.0209
    1BTD     N412428   4.710   3.341   1.385  0.1018  0.0651 -0.3500
    1BTD     C512429   4.772   3.487   1.545  0.1115 -0.0437 -0.2544
    1BTD     C612430   4.800   3.617   1.600  0.0250 -0.0728 -0.1403
    1BTD     C712431   4.784   3.736   1.514 -0.2015  0.0058  0.0092
    1BTD     C812432   4.741   3.720   1.378 -0.3304  0.1096  0.0371
    1BTD    C1512433   4.714   3.591   1.328 -0.2391  0.1345 -0.0779
    1BTD    C1612434   4.730   3.476   1.411 -0.0208  0.0589 -0.2220
    1BTD    C4312435   4.636   3.268   1.283  0.3440 -0.3767  0.2806
    1BTD    C4412436   4.483   3.287   1.280 -0.1461  0.4979  0.1629
    1BTD    C4512437   4.424   3.220   1.156  0.4406 -0.1771 -0.2134
    1BTD    C4612438   4.289   3.291   1.116 -0.0853  0.0784 -0.9016
    1BTD    C4712439   4.414   3.260   1.413  0.7070  0.5740 -0.7249
    1BTD    C4812440   4.388   3.113   1.464  0.4231 -0.2519  0.4927
    1BTD    C4912441   4.310   3.119   1.593  0.2054 -0.0418  0.1635
    1BTD    C5012442   4.302   2.987   1.660 -0.1831 -0.0989  0.0561
    1BTD    C7512443   4.678   3.506   1.086 -0.0866 -0.3461  0.5554
    1BTD    C7612444   4.803   3.451   1.019 -0.1367  0.4768 -0.2356
    1BTD    C7712445   4.771   3.336   0.919  0.0548 -0.4440  0.1374
    1BTD    C7812446   4.681   3.366   0.801  0.3050  0.4973  0.1292
    1BTD    C7912447   4.897   3.567   0.962  1.1418  0.3978 -0.0619
    1BTD    C8012448   5.026   3.530   0.886 -0.0783 -0.0488 -0.1724
    1BTD    C8112449   5.089   3.655   0.825 -0.2314 -0.2452  0.3425
    1BTD    C8212450   5.158   3.623   0.696  0.7228  0.1628 -0.0979
    2TTP     S112451   4.847   3.276   1.750  0.1581 -0.1877  0.1804
    2TTP     S512452   4.763   2.969   1.461 -0.0267  0.1453 -0.1226
    2TTP     C112453   4.832   2.891   1.611  0.2012 -0.0141 -0.3091
    2TTP     C212454   4.862   2.981   1.709  0.2717 -0.1263 -0.2265
    2TTP     C312455   4.832   3.115   1.669  0.1483 -0.0905 -0.0130
    2TTP     C412456   4.779   3.354   1.600 -0.0699 -0.0284  0.3668
    2TTP    C1712457   4.749   3.264   1.503 -0.1403  0.0839  0.2842
    2TTP    C1812458   4.779   3.130   1.542 -0.0168  0.0480  0.0707
    2TTP    C3212459   4.905   2.947   1.855 -0.2527  0.0149 -0.6729
    2TTP    C3312460   5.044   3.014   1.894 -0.0838  0.4753  0.1439
    2TTP    C3412461   5.072   3.034   2.043  0.8094 -0.7304 -0.2447
    2TTP    C3512462   5.091   2.904   2.119 -0.5269 -0.4125 -0.7314
    2TTP    C3612463   5.048   2.899   2.268  0.1599 -0.0105  1.2547
    2TTP    C3712464   5.101   2.772   2.334 -0.2436 -0.4527 -1.0403
    2TTP    C3812465   5.047   2.759   2.479 -0.1930  0.1369  0.1324
    2TTP    C3912466   5.078   2.641   2.573  0.2811  0.1887  0.3169
    2TTP    C4012467   5.087   2.504   2.506 -0.1051  0.2780  0.2498
    2TTP    C4112468   5.110   2.398   2.613  0.2971  0.5568  0.3524
    2TTP    C4212469   5.101   2.254   2.546 -0.3299  0.0106  0.4728
    3TTP     S112470   4.663   3.990   1.264 -0.0364 -0.1425 -0.0663
    3TTP     S512471   4.468   3.782   0.942  0.0933  0.2895 -0.4270
    3TTP     C112472   4.417   3.957   0.937  0.1779  0.3186 -0.2763
    3TTP     C212473   4.475   4.031   1.036  0.1428  0.1869 -0.1561
    3TTP     C312474   4.560   3.953   1.119  0.0478  0.0582 -0.1786
    3TTP     C412475   4.713   3.816   1.269 -0.1210 -0.1717 -0.2169
    3TTP    C1712476   4.656   3.741   1.170 -0.0860 -0.0399 -0.3372
    3TTP    C1812477   4.570   3.819   1.086  0.0089  0.0887 -0.3147
    3TTP    C3212478   4.454   4.182   1.071 -0.0711  0.1094 -0.9017
    3TTP    C3312479   4.573   4.268   1.028 -0.5005 -0.2654  0.8868
    3TTP    C3412480   4.564   4.415   1.068 -0.0311  0.0604  0.3674
    3TTP    C3512481   4.689   4.499   1.032  0.2692  0.2859 -0.0968
    3TTP    C3612482   4.683   4.654   1.060  0.2465  0.1106 -0.1596
    3TTP    C3712483   4.819   4.720   1.049 -0.3470  0.5616 -0.3508
    3TTP    C3812484   4.829   4.868   1.088 -0.3253  0.6244  0.3227
    3TTP    C3912485   4.739   4.950   1.000 -0.5754 -0.8718 -0.2851
    3TTP    C4012486   4.759   5.098   1.045  0.3367  0.8929  0.3228
    3TTP    C4112487   4.683   5.189   0.962 -0.0704  0.6427  0.2284
    3TTP    C4212488   4.675   5.333   1.021 -0.4070  0.3725  0.2941
    4FIC     F112489   4.684   2.182   1.217  0.1222 -0.0187  0.0875
    4FIC     F212490   4.737   2.050   1.450 -0.2927 -0.0120  0.1869
    4FIC     O112491   4.773   2.694   1.368  0.2850 -0.0531  0.1088
    4FIC     N512492   4.876   2.225   1.891 -0.7731 -0.0271  0.3452
    4FIC     N612493   4.935   2.652   1.962 -0.5623 -0.0553  0.3419
    4FIC    C1912494   4.855   2.750   1.644 -0.0535 -0.0589  0.2115
    4FIC    C2012495   4.830   2.626   1.597 -0.0783 -0.0506  0.2022
    4FIC    C2112496   4.789   2.606   1.454  0.1035 -0.0480  0.1484
    4FIC    C2212497   4.771   2.460   1.436  0.0226 -0.0386  0.1520
    4FIC    C2312498   4.732   2.393   1.321  0.1329 -0.0332  0.1121
    4FIC    C2412499   4.722   2.255   1.328  0.0226 -0.0243  0.1250
    4FIC    C2512500   4.749   2.187   1.448 -0.1909 -0.0209  0.1763
    4FIC    C2612501   4.787   2.254   1.563 -0.3020 -0.0262  0.2163
    4FIC    C2712502   4.798   2.394   1.558 -0.1932 -0.0352  0.2040
    4FIC    C2812503   4.836   2.493   1.661 -0.2637 -0.0424  0.2368
    4FIC    C2912504   4.870   2.466   1.792 -0.4628 -0.0418  0.2894
    4FIC    C3012505   4.873   2.334   1.846 -0.6328 -0.0337  0.3199
    4FIC    C3112506   4.905   2.569   1.885 -0.5165 -0.0492  0.3180
    5FIC     F112507   3.857   3.673   0.403  0.1302 -0.1254  0.3209
    5FIC     F212508   3.824   3.927   0.311  0.0075 -0.1682  0.2458
    5FIC     O112509   4.224   3.752   0.793  0.2968  0.1268  0.1140
    5FIC     N512510   4.039   4.349   0.457 -0.0499 -0.0498 -0.0096
    5FIC     N612511   4.332   4.359   0.781  0.1050  0.1559 -0.1562
    5FIC    C1912512   4.323   4.023   0.844  0.2389  0.1755 -0.0313
    5FIC    C2012513   4.232   3.993   0.750  0.2018  0.1138  0.0237
    5FIC    C2112514   4.186   3.851   0.729  0.2352  0.0924  0.0969
    5FIC    C2212515   4.088   3.854   0.620  0.1806  0.0229  0.1436
    5FIC    C2312516   4.018   3.747   0.565  0.1868 -0.0181  0.2162
    5FIC    C2412517   3.930   3.775   0.461  0.1277 -0.0821  0.2492
    5FIC    C2512518   3.913   3.906   0.414  0.0646 -0.1041  0.2104
    5FIC    C2612519   3.983   4.013   0.468  0.0580 -0.0633  0.1380
    5FIC    C2712520   4.072   3.987   0.573  0.1172  0.0016  0.1037
    5FIC    C2812521   4.160   4.078   0.651  0.1278  0.0566  0.0284
    5FIC    C2912522   4.173   4.214   0.635  0.0783  0.0547 -0.0264
    5FIC    C3012523   4.099   4.287   0.538  0.0079 -0.0029 -0.0170
    5FIC    C3112524   4.260   4.293   0.715  0.0932  0.1105 -0.0975
    1BTD     S212525   3.573   9.429   0.225 -0.0805 -0.0549  0.0348
    1BTD     N112526   3.592   9.607   0.231  0.3743 -0.0892 -0.2525
    1BTD     N212527   3.636   9.402   0.391 -0.4833  0.0780  0.2115
    1BTD     N312528   3.798   9.669   0.741 -0.4830  0.2859  0.0528
    1BTD     N412529   3.744   9.923   0.544  0.5736  0.0801 -0.5189
    1BTD     C512530   3.672   9.769   0.397  0.4656  0.0019 -0.3847
    1BTD     C612531   3.641   9.636   0.350  0.2108 -0.0043 -0.2044
    1BTD     C712532   3.666   9.521   0.440 -0.2691  0.0892  0.0553
    1BTD     C812533   3.720   9.544   0.571 -0.4703  0.1843  0.1218
    1BTD    C1512534   3.748   9.676   0.612 -0.2080  0.1865 -0.0610
    1BTD    C1612535   3.724   9.787   0.526  0.2545  0.0963 -0.3112
    1BTD    C4312536   3.823  10.001   0.641  0.5531  0.1136 -0.1664
    1BTD    C4412537   3.963  10.047   0.611 -0.7395  0.0492 -0.0666
    1BTD    C4512538   4.059   9.926   0.598  0.0893 -0.5976 -0.9855
    1BTD    C4612539   4.195   9.949   0.544 -0.0390  0.5179  0.5565
    1BTD    C4712540   4.015  10.156   0.710  0.1843  0.8087  0.3744
    1BTD    C4812541   3.940  10.286   0.723  0.1370  0.2582 -0.2549
    1BTD    C4912542   3.980  10.379   0.839  1.0151  0.3001 -0.2828
    1BTD    C5012543   3.890  10.499   0.842 -0.9801 -0.2330 -0.2226
    1BTD    C7512544   3.810   9.771   0.857 -0.2359  1.1174 -0.3285
    1BTD    C7612545   3.695   9.800   0.960  0.6780  0.1003  0.3442
    1BTD    C7712546   3.713   9.903   1.065 -0.5439 -0.5359 -0.2201
    1BTD    C7812547   3.760  10.045   1.025 -0.2102  0.3683 -0.0067
    1BTD    C7912548   3.617   9.677   1.004 -0.2602  0.0136 -0.1633
    1BTD    C8012549   3.482   9.698   1.069  0.4574  0.5396 -0.1135
    1BTD    C8112550   3.388   9.575   1.088 -0.2398 -0.1035  0.0671
    1BTD    C8212551   3.375   9.534   1.234  0.6076 -0.0964  0.0578
    2TTP     S112552   3.610   9.973   0.180  0.1949 -0.1298 -0.0412
    2TTP     S512553   3.703  10.288   0.458 -0.0511 -0.0360 -0.0648
    2TTP     C112554   3.649  10.363   0.301 -0.1136 -0.0896 -0.0691
    2TTP     C212555   3.617  10.270   0.206 -0.0413 -0.1218 -0.0621
    2TTP     C312556   3.634  10.136   0.254  0.0661 -0.1051 -0.0530
    2TTP     C412557   3.664   9.898   0.337  0.2574 -0.0758 -0.0369
    2TTP    C1712558   3.696   9.991   0.432  0.1852 -0.0440 -0.0439
    2TTP    C1812559   3.679  10.124   0.384  0.0778 -0.0606 -0.0530
    2TTP    C3212560   3.565  10.293   0.064 -0.1163  0.0973 -0.3326
    2TTP    C3312561   3.414  10.287   0.039  0.3923 -1.0262  0.0987
    2TTP    C3412562   3.340  10.406   0.099 -0.4432  0.0101  0.2223
    2TTP    C3512563   3.201  10.423   0.053  0.2451 -0.5423  0.2971
    2TTP    C3612564   3.148  10.546   0.129  0.0472  0.2370  0.4288
    2TTP    C3712565   2.997  10.567   0.101  0.0396  0.1551  0.0928
    2TTP    C3812566   2.915  10.657   0.189 -0.9143  0.0575  0.0113
    2TTP    C3912567   2.915  10.633   0.337 -0.5002 -0.4974 -0.6167
    2TTP    C4012568   2.841  10.734   0.435  0.6272  0.5225  0.0719
    2TTP    C4112569   2.701  10.776   0.385 -0.2145  0.9161 -0.2798
    2TTP    C4212570   2.624  10.870   0.471 -0.4974  0.0445  0.2102
    3TTP     S112571   3.802   9.284   0.692  0.0392  0.1348 -0.0183
    3TTP     S512572   3.994   9.498   1.011 -0.5119 -0.0343  0.4289
    3TTP     C112573   4.039   9.323   1.024 -0.5332 -0.0410  0.4137
    3TTP     C212574   3.983   9.246   0.926 -0.3641  0.0112  0.2746
    3TTP     C312575   3.902   9.323   0.837 -0.2118  0.0579  0.1752
    3TTP     C412576   3.757   9.460   0.679  0.0603  0.1414 -0.0031
    3TTP    C1712577   3.813   9.536   0.777 -0.1086  0.0893  0.1359
    3TTP    C1812578   3.895   9.459   0.865 -0.2608  0.0424  0.2354
    3TTP    C3212579   4.002   9.093   0.906  0.1934  0.5126  0.1123
    3TTP    C3312580   3.874   9.000   0.907 -0.5103 -0.7270  0.6339
    3TTP    C3412581   3.904   8.855   0.887  0.4249 -0.1717  0.2898
    3TTP    C3512582   3.777   8.785   0.854 -0.1037 -0.6878 -0.4167
    3TTP    C3612583   3.779   8.633   0.829 -0.3071 -0.5016 -0.5921
    3TTP    C3712584   3.854   8.578   0.702  0.7795  0.5162 -0.7439
    3TTP    C3812585   3.810   8.623   0.561  0.6155 -0.3020 -0.0636
    3TTP    C3912586   3.662   8.601   0.529  0.0919 -0.8773 -0.3122
    3TTP    C4012587   3.620   8.633   0.384  0.2480 -0.2596 -1.1109
    3TTP    C4112588   3.473   8.598   0.358  0.2335  0.3343 -0.3313
    3TTP    C4212589   3.427   8.641   0.221 -0.7585  0.3452 -0.1385
    4FIC     F112590   3.769  11.030   0.758 -0.4346 -0.2663  0.0813
    4FIC     F212591   3.753  11.181   0.532 -0.1374 -0.2148  0.0938
    4FIC     O112592   3.691  10.534   0.555 -0.4196 -0.1955 -0.0975
    4FIC     N512593   3.675  11.044   0.063  0.3007 -0.0908 -0.0157
    4FIC     N612594   3.618  10.626  -0.050  0.2525 -0.0463 -0.1580
    4FIC    C1912595   3.649  10.502   0.268 -0.1303 -0.1215 -0.1491
    4FIC    C2012596   3.669  10.621   0.327 -0.1456 -0.1411 -0.1046
    4FIC    C2112597   3.690  10.629   0.476 -0.2981 -0.1791 -0.0804
    4FIC    C2212598   3.709  10.772   0.507 -0.2746 -0.1924 -0.0328
    4FIC    C2312599   3.731  10.829   0.632 -0.3828 -0.2265  0.0026
    4FIC    C2412600   3.746  10.967   0.638 -0.3335 -0.2331  0.0448
    4FIC    C2512601   3.738  11.044   0.521 -0.1802 -0.2068  0.0512
    4FIC    C2612602   3.715  10.988   0.396 -0.0716 -0.1729  0.0160
    4FIC    C2712603   3.700  10.849   0.389 -0.1195 -0.1657 -0.0270
    4FIC    C2812604   3.675  10.759   0.273 -0.0342 -0.1333 -0.0709
    4FIC    C2912605   3.661  10.797   0.142  0.1190 -0.1013 -0.0787
    4FIC    C3012606   3.669  10.933   0.099  0.2183 -0.0956 -0.0440
    4FIC    C3112607   3.637  10.703   0.037  0.1916 -0.0710 -0.1222
    5FIC     F112608   4.582   9.622   1.563 -0.1308 -0.0982 -0.1235
    5FIC     F212609   4.651   9.366   1.626 -0.1265 -0.0954 -0.1192
    5FIC     O112610   4.206   9.535   1.183 -0.1066 -0.1106 -0.1447
    5FIC     N512611   4.483   8.937   1.445 -0.1029 -0.1004 -0.1279
    5FIC     N612612   4.175   8.921   1.136 -0.0849 -0.1109 -0.1453
    5FIC    C1912613   4.138   9.261   1.108 -0.0938 -0.1125 -0.1480
    5FIC    C2012614   4.230   9.292   1.201 -0.1001 -0.1092 -0.1428
    5FIC    C2112615   4.259   9.436   1.235 -0.1063 -0.1090 -0.1414
    5FIC    C2212616   4.363   9.435   1.339 -0.1123 -0.1051 -0.1356
    5FIC    C2312617   4.422   9.544   1.401 -0.1192 -0.1035 -0.1324
    5FIC    C2412618   4.519   9.518   1.498 -0.1238 -0.1002 -0.1269
    5FIC    C2512619   4.555   9.386   1.530 -0.1216 -0.0987 -0.1246
    5FIC    C2612620   4.496   9.277   1.468 -0.1148 -0.1006 -0.1278
    5FIC    C2712621   4.398   9.301   1.370 -0.1100 -0.1037 -0.1334
    5FIC    C2812622   4.318   9.208   1.287 -0.1023 -0.1063 -0.1377
    5FIC    C2912623   4.323   9.071   1.289 -0.0981 -0.1059 -0.1372
    5FIC    C3012624   4.411   8.998   1.375 -0.1007 -0.1028 -0.1321
    5FIC    C3112625   4.242   8.989   1.205 -0.0910 -0.1087 -0.1417
    1BTD     S212626   4.914   9.534   2.545  0.1781  0.2453 -0.0360
    1BTD     N112627   4.900   9.713   2.544  0.1068  0.2406  0.1252
    1BTD     N212628   4.810   9.510   2.400  0.2348  0.3374 -0.0924
    1BTD     N312629   4.571   9.785   2.104  0.2226  0.5169  0.0836
    1BTD     N412630   4.682  10.035   2.281  0.0646  0.3974  0.3517
    1BTD     C512631   4.785   9.878   2.404  0.0867  0.3238  0.2402
    1BTD     C612632   4.822   9.744   2.441  0.1281  0.3045  0.1284
    1BTD     C712633   4.772   9.631   2.361  0.1998  0.3586  0.0066
    1BTD     C812634   4.687   9.657   2.248  0.2265  0.4299  0.0027
    1BTD    C1512635   4.653   9.789   2.215  0.1841  0.4461  0.1146
    1BTD    C1612636   4.701   9.899   2.293  0.1150  0.3937  0.2318
    1BTD    C4312637   4.569  10.105   2.217  0.3016 -0.6101 -0.3645
    1BTD    C4412638   4.453  10.161   2.306 -0.5850 -0.4616  0.2524
    1BTD    C4512639   4.364  10.237   2.217 -0.0634 -0.1045  0.2581
    1BTD    C4612640   4.277  10.164   2.116  0.1979  0.1696  0.5819
    1BTD    C4712641   4.403  10.061   2.414 -0.1877 -0.4456  0.3647
    1BTD    C4812642   4.292  10.118   2.509  0.4782 -0.5380 -0.3513
    1BTD    C4912643   4.294  10.263   2.571  0.1752  0.5416 -0.1833
    1BTD    C5012644   4.157  10.312   2.616  0.4075 -0.4371  0.5019
    1BTD    C7512645   4.553   9.883   1.991 -0.2400 -0.2592 -0.6450
    1BTD    C7612646   4.646   9.879   1.871  0.5702 -0.4889  1.4031
    1BTD    C7712647   4.602   9.979   1.759  0.1552  0.1056  0.2118
    1BTD    C7812648   4.682   9.999   1.625  0.4696 -0.2016 -0.2511
    1BTD    C7912649   4.797   9.864   1.894  0.6753 -0.1335  0.3930
    1BTD    C8012650   4.868   9.729   1.909 -0.1529 -0.0288  0.2755
    1BTD    C8112651   4.823   9.621   1.814  0.5943  0.4080  0.3343
    1BTD    C8212652   4.902   9.499   1.851  0.5108 -0.2026  0.7116
    2TTP     S112653   4.899  10.079   2.602 -0.2097 -0.0026  0.3410
    2TTP     S512654   4.714  10.395   2.378  0.7383  0.1800 -0.1958
    2TTP     C112655   4.791  10.467   2.526  0.4612  0.1160 -0.0177
    2TTP     C212656   4.853  10.374   2.604  0.1522  0.0558  0.1585
    2TTP     C312657   4.841  10.242   2.550  0.1228  0.0584  0.1592
    2TTP     C412658   4.821  10.007   2.455  0.0674  0.0613  0.1629
    2TTP    C1712659   4.760  10.101   2.376  0.3763  0.1217 -0.0134
    2TTP    C1812660   4.771  10.232   2.431  0.4054  0.1194 -0.0141
    2TTP    C3212661   4.939  10.403   2.734  0.1190  0.4647 -0.0725
    2TTP    C3312662   4.981  10.293   2.835  0.1156  0.7201 -0.1462
    2TTP    C3412663   5.071  10.345   2.946 -0.9551 -0.4848  0.1905
    2TTP    C3512664   4.992  10.413   3.059 -0.6560 -0.2435  0.2821
    2TTP    C3612665   5.087  10.472   3.167  0.1828 -0.8378 -0.1662
    2TTP    C3712666   5.018  10.588   3.242  0.3678 -0.1798  0.1466
    2TTP    C3812667   5.090  10.642   3.363  0.0495  0.0807 -0.6271
    2TTP    C3912668   5.015  10.756   3.430  0.1295  0.5557 -0.1410
    2TTP    C4012669   5.096  10.852   3.518 -0.1701 -0.4080 -0.1954
    2TTP    C4112670   5.016  10.982   3.557 -0.3692  0.2565  0.4709
    2TTP    C4212671   5.114  11.070   3.646  0.5780  0.2059  0.0584
    3TTP     S112672   4.590   9.396   2.126 -0.1748 -0.0743  0.0108
    3TTP     S512673   4.359   9.616   1.838 -0.4507 -0.0587  0.2434
    3TTP     C112674   4.331   9.438   1.811 -0.2450 -0.0650  0.0696
    3TTP     C212675   4.401   9.360   1.899 -0.1476 -0.0701 -0.0123
    3TTP     C312676   4.479   9.437   1.990 -0.2321 -0.0691  0.0590
    3TTP     C412677   4.618   9.574   2.153 -0.3805 -0.0677  0.1845
    3TTP    C1712678   4.548   9.653   2.066 -0.4779 -0.0624  0.2665
    3TTP    C1812679   4.470   9.575   1.974 -0.3935 -0.0632  0.1952
    3TTP    C3212680   4.403   9.208   1.906 -0.0639 -0.1847  0.2678
    3TTP    C3312681   4.533   9.140   1.863  0.3833  0.1782  0.2733
    3TTP    C3412682   4.530   8.989   1.835 -0.3142 -0.1841  0.4846
    3TTP    C3512683   4.487   8.889   1.938 -0.3815  0.2776  0.6044
    3TTP    C3612684   4.341   8.876   1.981  0.4754  0.1075  0.1087
    3TTP    C3712685   4.355   8.795   2.116 -0.5627 -0.7035  0.1849
    3TTP    C3812686   4.228   8.785   2.203  0.4029 -0.2564  0.8420
    3TTP    C3912687   4.256   8.713   2.334 -0.5372 -0.6855 -0.3476
    3TTP    C4012688   4.124   8.711   2.412  0.5547  0.3875  0.7265
    3TTP    C4112689   4.139   8.666   2.557  0.6027  0.7126  0.0248
    3TTP    C4212690   4.216   8.769   2.642  0.2811 -0.3971 -0.2780
    4FIC     F112691   4.599  11.177   2.157 -0.0849  0.0477 -0.0252
    4FIC     F212692   4.638  11.302   2.395  0.3225  0.1221 -0.1292
    4FIC     O112693   4.716  10.665   2.290 -0.2002  0.0322  0.0183
    4FIC     N512694   4.777  11.117   2.833  0.8256  0.2179 -0.2478
    4FIC     N612695   4.860  10.692   2.888  0.6534  0.1910 -0.1928
    4FIC    C1912696   4.794  10.603   2.565  0.1478  0.0980 -0.0656
    4FIC    C2012697   4.763  10.727   2.522  0.1611  0.0989 -0.0724
    4FIC    C2112698   4.724  10.751   2.379 -0.0248  0.0639 -0.0274
    4FIC    C2212699   4.697  10.895   2.366  0.0429  0.0749 -0.0483
    4FIC    C2312700   4.657  10.965   2.253 -0.0753  0.0520 -0.0213
    4FIC    C2412701   4.638  11.102   2.265  0.0230  0.0685 -0.0494
    4FIC    C2512702   4.658  11.166   2.388  0.2328  0.1069 -0.1031
    4FIC    C2612703   4.698  11.097   2.502  0.3515  0.1299 -0.1303
    4FIC    C2712704   4.718  10.959   2.491  0.2549  0.1137 -0.1024
    4FIC    C2812705   4.759  10.858   2.592  0.3357  0.1299 -0.1194
    4FIC    C2912706   4.789  10.881   2.724  0.5347  0.1669 -0.1692
    4FIC    C3012707   4.782  11.011   2.783  0.6940  0.1950 -0.2122
    4FIC    C3112708   4.828  10.777   2.814  0.5989  0.1800 -0.1819
    5FIC     F112709   3.774   9.699   1.263 -0.2127  0.2074  0.3119
    5FIC     F212710   3.727   9.438   1.199  0.3134  0.2518 -0.2763
    5FIC     O112711   4.154   9.642   1.645 -0.3768  0.0985  0.4593
    5FIC     N512712   3.929   9.024   1.379  0.9528  0.2379 -1.0169
    5FIC     N612713   4.235   9.032   1.690  0.7184  0.1440 -0.7831
    5FIC    C1912714   4.244   9.374   1.719  0.0675  0.1021 -0.0502
    5FIC    C2012715   4.150   9.398   1.626  0.0882  0.1278 -0.0643
    5FIC    C2112716   4.109   9.539   1.593 -0.1493  0.1237  0.2073
    5FIC    C2212717   4.006   9.529   1.488 -0.0578  0.1562  0.1145
    5FIC    C2312718   3.939   9.634   1.425 -0.2071  0.1650  0.2895
    5FIC    C2412719   3.845   9.600   1.329 -0.0769  0.1972  0.1521
    5FIC    C2512720   3.821   9.466   1.296  0.1940  0.2201 -0.1510
    5FIC    C2612721   3.888   9.361   1.357  0.3442  0.2115 -0.3269
    5FIC    C2712722   3.983   9.393   1.456  0.2160  0.1793 -0.1917
    5FIC    C2812723   4.070   9.307   1.539  0.3165  0.1626 -0.3137
    5FIC    C2912724   4.076   9.170   1.537  0.5722  0.1767 -0.6025
    5FIC    C3012725   3.995   9.090   1.450  0.7805  0.2103 -0.8293
    5FIC    C3112726   4.164   9.095   1.621  0.6512  0.1588 -0.7001
    1BTD     S212727   5.578   1.202   3.567 -0.0779 -0.1443  0.1653
    1BTD     N112728   5.560   1.023   3.561 -0.1675 -0.1342  0.1290
    1BTD     N212729   5.516   1.228   3.401 -0.0234 -0.0830  0.1549
    1BTD     N312730   5.359   0.959   3.049 -0.0739  0.0599  0.0680
    1BTD     N412731   5.413   0.706   3.247 -0.2515 -0.0032  0.0360
    1BTD     C512732   5.483   0.861   3.395 -0.2091 -0.0651  0.0809
    1BTD     C612733   5.512   0.994   3.441 -0.1528 -0.0882  0.1119
    1BTD     C712734   5.487   1.109   3.351 -0.0721 -0.0595  0.1263
    1BTD     C812735   5.435   1.085   3.219 -0.0519 -0.0092  0.1091
    1BTD    C1512736   5.408   0.953   3.178 -0.1089  0.0119  0.0789
    1BTD    C1612737   5.432   0.842   3.265 -0.1866 -0.0157  0.0649
    1BTD    C4312738   5.337   0.618   3.151 -0.7337  0.0610 -0.6384
    1BTD    C4412739   5.191   0.567   3.169 -0.6127 -0.7537  0.0051
    1BTD    C4512740   5.095   0.673   3.217  0.4077 -0.2992 -0.2397
    1BTD    C4612741   4.969   0.617   3.279  0.7799  0.7498 -0.1490
    1BTD    C4712742   5.140   0.479   3.051 -0.7439  0.0453 -0.1741
    1BTD    C4812743   5.222   0.358   3.014 -0.1021  0.2717 -0.1297
    1BTD    C4912744   5.160   0.223   3.049  0.3994  0.2674 -0.2045
    1BTD    C5012745   5.254   0.115   2.991  0.1294  0.4524  0.4274
    1BTD    C7512746   5.340   0.856   2.950 -0.3039  0.2780 -0.1112
    1BTD    C7612747   5.462   0.806   2.872  0.0282 -0.1437 -0.2534
    1BTD    C7712748   5.427   0.675   2.799  0.6020  1.3511 -0.4329
    1BTD    C7812749   5.340   0.674   2.670 -0.4527 -0.1931 -0.2739
    1BTD    C7912750   5.539   0.912   2.792  0.4877 -0.9301 -0.5749
    1BTD    C8012751   5.684   0.874   2.763  0.1399 -0.4635  0.1768
    1BTD    C8112752   5.723   0.988   2.671 -0.6067 -0.3968  0.1951
    1BTD    C8212753   5.859   0.969   2.601  0.3895 -0.4536  0.0526
    2TTP     S112754   5.557   0.664   3.609 -0.1189  0.1068  0.0566
    2TTP     S512755   5.453   0.339   3.347  0.3808 -0.1726  0.2020
    2TTP     C112756   5.508   0.270   3.506  0.0615 -0.0035  0.3876
    2TTP     C212757   5.543   0.366   3.596 -0.1118  0.0928  0.3538
    2TTP     C312758   5.528   0.498   3.543  0.0015  0.0364  0.1798
    2TTP     C412759   5.502   0.733   3.450  0.2004 -0.0624 -0.1292
    2TTP    C1712760   5.467   0.637   3.360  0.3735 -0.1586 -0.0952
    2TTP    C1812761   5.482   0.505   3.413  0.2604 -0.1022  0.0787
    2TTP    C3212762   5.588   0.346   3.743 -0.2970  0.3032  0.4495
    2TTP    C3312763   5.738   0.332   3.770  0.3612  0.2051  0.1215
    2TTP    C3412764   5.818   0.217   3.704  0.2290  0.1326  0.5160
    2TTP    C3512765   5.967   0.214   3.739  0.4822  0.3137 -0.1290
    2TTP    C3612766   6.043   0.098   3.666 -0.3746 -0.0165 -0.0387
    2TTP    C3712767   6.194   0.097   3.689 -0.2161 -0.1514  0.2543
    2TTP    C3812768   6.282  -0.016   3.632  0.7788 -0.2294 -0.1924
    2TTP    C3912769   6.257  -0.051   3.487  0.4000  0.3708 -0.2249
    2TTP    C4012770   6.356  -0.157   3.431 -0.6309  0.5107  0.1975
    2TTP    C4112771   6.331  -0.290   3.494  0.9162  0.5194  0.4469
    2TTP    C4212772   6.428  -0.393   3.441  0.9138 -0.1873 -0.0247
    3TTP     S112773   5.361   1.350   3.084  0.3630 -0.0712 -0.2193
    3TTP     S512774   5.149   1.122   2.786 -0.4642  0.1302  0.2077
    3TTP     C112775   5.111   1.298   2.763 -0.0789  0.1993  0.0788
    3TTP     C212776   5.174   1.379   2.853  0.1993  0.1411 -0.0607
    3TTP     C312777   5.255   1.304   2.945  0.1180  0.0400 -0.0708
    3TTP     C412778   5.399   1.173   3.108 -0.0223 -0.1402 -0.0905
    3TTP    C1712779   5.336   1.093   3.017 -0.3006 -0.0821  0.0491
    3TTP    C1812780   5.255   1.167   2.926 -0.2192  0.0191  0.0591
    3TTP    C3212781   5.179   1.533   2.859 -0.0111  0.1296  0.1275
    3TTP    C3312782   5.314   1.604   2.837  0.3277  0.7954 -0.4760
    3TTP    C3412783   5.327   1.750   2.875 -0.2349 -0.0792  0.0363
    3TTP    C3512784   5.260   1.817   2.998  0.4302 -0.2774 -0.2935
    3TTP    C3612785   5.108   1.833   2.991  0.0491 -0.0485 -0.2441
    3TTP    C3712786   5.055   1.869   3.130  0.5770  0.2163 -0.1044
    3TTP    C3812787   4.899   1.849   3.126 -0.7676 -0.3017  0.0772
    3TTP    C3912788   4.830   1.910   3.250  0.0769 -0.0793 -0.6060
    3TTP    C4012789   4.858   1.830   3.380  0.2105  0.6666 -0.3440
    3TTP    C4112790   4.831   1.905   3.512  0.4553  0.3924  0.1472
    3TTP    C4212791   4.843   1.815   3.636 -0.1832  0.5547  0.2239
    4FIC     F112792   5.415  -0.432   3.094 -0.0391 -0.0052 -0.0230
    4FIC     F212793   5.449  -0.568   3.327  0.0533  0.0954  0.0221
    4FIC     O112794   5.464   0.079   3.265 -0.2755  0.0804 -0.2114
    4FIC     N512795   5.533  -0.399   3.784  0.0174  0.3014 -0.0474
    4FIC     N612796   5.564   0.028   3.871 -0.1861  0.3483 -0.2036
    4FIC    C1912797   5.514   0.131   3.549 -0.2715  0.2072 -0.2352
    4FIC    C2012798   5.500   0.008   3.496 -0.2155  0.1817 -0.1895
    4FIC    C2112799   5.475  -0.011   3.349 -0.2217  0.1161 -0.1801
    4FIC    C2212800   5.465  -0.156   3.327 -0.1518  0.1032 -0.1271
    4FIC    C2312801   5.442  -0.222   3.206 -0.1318  0.0484 -0.1011
    4FIC    C2412802   5.437  -0.361   3.209 -0.0624  0.0474 -0.0510
    4FIC    C2512803   5.455  -0.431   3.329 -0.0150  0.0990 -0.0278
    4FIC    C2612804   5.478  -0.366   3.450 -0.0347  0.1540 -0.0535
    4FIC    C2712805   5.483  -0.225   3.449 -0.1047  0.1562 -0.1043
    4FIC    C2812806   5.505  -0.127   3.558 -0.1419  0.2062 -0.1419
    4FIC    C2912807   5.527  -0.156   3.691 -0.1136  0.2649 -0.1338
    4FIC    C3012808   5.530  -0.290   3.742 -0.0416  0.2847 -0.0863
    4FIC    C3112809   5.547  -0.055   3.789 -0.1535  0.3102 -0.1723
    5FIC     F112810   4.577   1.003   2.210 -0.2738 -0.0541  0.1751
    5FIC     F212811   4.498   1.258   2.159 -0.0708 -0.0451 -0.1028
    5FIC     O112812   4.957   1.088   2.586 -0.2689  0.0461  0.1479
    5FIC     N512813   4.654   1.686   2.354  0.2241  0.0392 -0.5216
    5FIC     N612814   4.967   1.700   2.658  0.1869  0.1158 -0.4870
    5FIC    C1912815   5.016   1.362   2.671 -0.0734  0.0903 -0.1272
    5FIC    C2012816   4.924   1.331   2.578 -0.0825  0.0648 -0.1095
    5FIC    C2112817   4.899   1.187   2.540 -0.1858  0.0432  0.0354
    5FIC    C2212818   4.793   1.189   2.438 -0.1682  0.0179  0.0167
    5FIC    C2312819   4.737   1.080   2.372 -0.2410 -0.0076  0.1208
    5FIC    C2412820   4.638   1.106   2.278 -0.2060 -0.0284  0.0776
    5FIC    C2512821   4.597   1.238   2.252 -0.1014 -0.0237 -0.0656
    5FIC    C2612822   4.652   1.347   2.318 -0.0285  0.0016 -0.1701
    5FIC    C2712823   4.753   1.322   2.412 -0.0623  0.0230 -0.1284
    5FIC    C2812824   4.832   1.415   2.498 -0.0056  0.0520 -0.2116
    5FIC    C2912825   4.821   1.552   2.502  0.0985  0.0645 -0.3557
    5FIC    C3012826   4.729   1.625   2.420  0.1671  0.0506 -0.4464
    5FIC    C3112827   4.901   1.633   2.588  0.1465  0.0927 -0.4271
    1BTD     S212828   4.378   1.157   1.169  0.2223 -0.1423 -0.1798
    1BTD     N112829   4.395   0.978   1.172  0.4858 -0.1196 -0.2974
    1BTD     N212830   4.431   1.180   1.339 -0.1826 -0.2078 -0.0432
    1BTD     N312831   4.570   0.904   1.692 -0.5323 -0.3003  0.0233
    1BTD     N412832   4.527   0.655   1.486  0.2917 -0.1916 -0.2899
    1BTD     C512833   4.464   0.812   1.339  0.3746 -0.1585 -0.2897
    1BTD     C612834   4.438   0.946   1.294  0.2697 -0.1599 -0.2320
    1BTD     C712835   4.457   1.059   1.387 -0.1047 -0.2093 -0.0897
    1BTD     C812836   4.503   1.033   1.521 -0.3554 -0.2548 -0.0122
    1BTD    C1512837   4.528   0.900   1.561 -0.2406 -0.2516 -0.0729
    1BTD    C1612838   4.509   0.791   1.470  0.1200 -0.2040 -0.2100
    1BTD    C4312839   4.619   0.592   1.582 -0.6001 -0.0486 -0.7200
    1BTD    C4412840   4.776   0.593   1.559  1.0893  0.4045  0.0779
    1BTD    C4512841   4.837   0.525   1.679  0.0614 -0.0563  0.5336
    1BTD    C4612842   4.985   0.573   1.691 -0.0263  0.2973  0.2828
    1BTD    C4712843   4.828   0.558   1.420  0.1444 -0.4250  0.6489
    1BTD    C4812844   4.798   0.412   1.370  0.4513 -0.0366 -0.1068
    1BTD    C4912845   4.907   0.376   1.266  0.3166  0.6622 -0.2344
    1BTD    C5012846   4.913   0.246   1.184 -0.4632 -0.0318 -0.1107
    1BTD    C7512847   4.512   0.808   1.790  0.0617 -0.1932  0.1738
    1BTD    C7612848   4.558   0.790   1.933 -0.7071  0.6843  0.2072
    1BTD    C7712849   4.698   0.720   1.933  0.2050 -0.5327 -0.1759
    1BTD    C7812850   4.771   0.701   2.071 -0.3015 -0.8479  1.3528
    1BTD    C7912851   4.457   0.739   2.030  0.0354  0.2921  0.0992
    1BTD    C8012852   4.318   0.798   2.042 -0.1281 -1.1392  0.7457
    1BTD    C8112853   4.317   0.951   2.077  0.7173  0.4359  0.8477
    1BTD    C8212854   4.175   1.011   2.072 -0.1687 -0.5703  0.1373
    2TTP     S112855   4.378   0.612   1.129 -0.0432  0.0480 -0.0864
    2TTP     S512856   4.460   0.293   1.405 -0.4165  0.0955  0.0809
    2TTP     C112857   4.391   0.221   1.253 -0.5303  0.0992  0.1308
    2TTP     C212858   4.362   0.316   1.159 -0.4216  0.0848  0.0820
    2TTP     C312859   4.393   0.448   1.203 -0.2447  0.0702  0.0035
    2TTP     C412860   4.447   0.684   1.281  0.0705  0.0443 -0.1364
    2TTP    C1712861   4.477   0.589   1.375 -0.0381  0.0587 -0.0876
    2TTP    C1812862   4.446   0.457   1.331 -0.2151  0.0732 -0.0091
    2TTP    C3212863   4.317   0.284   1.014 -0.7666  0.7217  0.6037
    2TTP    C3312864   4.176   0.330   0.983 -0.0369  0.1101 -0.8362
    2TTP    C3412865   4.134   0.282   0.846 -0.3288 -0.0336  0.4584
    2TTP    C3512866   4.192   0.370   0.736  0.0886  0.3784 -0.0112
    2TTP    C3612867   4.113   0.357   0.602 -0.3537  0.0955 -0.2754
    2TTP    C3712868   4.095   0.224   0.525 -0.1186  0.1285 -0.2793
    2TTP    C3812869   4.226   0.159   0.474  0.6463  0.4614 -0.6231
    2TTP    C3912870   4.204   0.047   0.368  0.0900 -0.1987 -0.2823
    2TTP    C4012871   4.171  -0.089   0.430 -0.3526  0.2464  0.4583
    2TTP    C4112872   4.134  -0.206   0.332  0.5119 -0.4111 -0.8157
    2TTP    C4212873   4.129  -0.334   0.411 -0.0842  0.3921  0.9316
    3TTP     S112874   4.591   1.294   1.646  0.0426  0.0468 -0.0165
    3TTP     S512875   4.790   1.068   1.953 -0.1222 -0.0246  0.0379
    3TTP     C112876   4.835   1.243   1.971 -0.1371 -0.0280  0.1071
    3TTP     C212877   4.776   1.323   1.877 -0.0871 -0.0061  0.0944
    3TTP     C312878   4.693   1.249   1.787 -0.0352  0.0141  0.0296
    3TTP     C412879   4.545   1.119   1.627  0.0575  0.0502 -0.0857
    3TTP    C1712880   4.604   1.039   1.721  0.0075  0.0283 -0.0730
    3TTP    C1812881   4.687   1.113   1.811 -0.0445  0.0081 -0.0081
    3TTP    C3212882   4.785   1.474   1.858  0.2761 -0.1371 -0.4996
    3TTP    C3312883   4.675   1.554   1.926  0.4342  0.3215  0.2566
    3TTP    C3412884   4.706   1.701   1.894 -0.8683 -0.2276 -0.3651
    3TTP    C3512885   4.607   1.804   1.947  0.1894 -0.3123  0.4657
    3TTP    C3612886   4.630   1.946   1.896  0.0646 -0.3096 -0.8277
    3TTP    C3712887   4.629   1.984   1.748 -0.2763 -0.5143 -0.2778
    3TTP    C3812888   4.503   1.946   1.669 -0.1937  0.2210  0.3860
    3TTP    C3912889   4.395   2.056   1.676 -1.1617 -0.1263  0.3424
    3TTP    C4012890   4.271   2.026   1.602  0.1088 -0.0132  0.3394
    3TTP    C4112891   4.189   2.156   1.611 -0.4452 -0.1949  0.7164
    3TTP    C4212892   4.092   2.148   1.489 -0.1777  0.6153 -0.3695
    4FIC     F112893   4.436  -0.462   1.703 -0.5125  0.1173  0.0291
    4FIC     F212894   4.395  -0.607   1.477 -0.1169  0.1214 -0.0478
    4FIC     O112895   4.414   0.042   1.505 -0.2381  0.1228  0.0112
    4FIC     N512896   4.319  -0.458   1.011  0.6473  0.1314 -0.1712
    4FIC     N612897   4.310  -0.035   0.902  0.7819  0.1347 -0.1698
    4FIC    C1912898   4.366   0.082   1.219  0.2373  0.1287 -0.0687
    4FIC    C2012899   4.374  -0.039   1.278  0.1528  0.1273 -0.0612
    4FIC    C2112900   4.398  -0.052   1.425 -0.0936  0.1242 -0.0193
    4FIC    C2212901   4.400  -0.196   1.456 -0.1281  0.1230 -0.0218
    4FIC    C2312902   4.420  -0.256   1.580 -0.3288  0.1204  0.0094
    4FIC    C2412903   4.418  -0.395   1.584 -0.3202  0.1197 -0.0002
    4FIC    C2512904   4.396  -0.470   1.467 -0.1161  0.1220 -0.0399
    4FIC    C2612905   4.377  -0.410   1.343  0.0849  0.1247 -0.0712
    4FIC    C2712906   4.379  -0.270   1.337  0.0793  0.1254 -0.0620
    4FIC    C2812907   4.361  -0.177   1.223  0.2599  0.1280 -0.0878
    4FIC    C2912908   4.338  -0.211   1.092  0.4839  0.1304 -0.1286
    4FIC    C3012909   4.328  -0.347   1.048  0.5729  0.1309 -0.1519
    4FIC    C3112910   4.323  -0.114   0.988  0.6465  0.1328 -0.1510
    5FIC     F112911   5.395   0.937   2.488 -0.1873  0.0715 -0.0226
    5FIC     F212912   5.436   1.188   2.583 -0.1726  0.0867 -0.0690
    5FIC     O112913   5.017   1.030   2.112 -0.2152  0.0175 -0.0079
    5FIC     N512914   5.224   1.617   2.453 -0.1717  0.0699 -0.1249
    5FIC     N612915   4.921   1.639   2.140 -0.1965  0.0247 -0.1041
    5FIC    C1912916   4.921   1.304   2.070 -0.2112  0.0128 -0.0469
    5FIC    C2012917   5.015   1.270   2.160 -0.2047  0.0258 -0.0487
    5FIC    C2112918   5.059   1.127   2.176 -0.2073  0.0274 -0.0280
    5FIC    C2212919   5.161   1.127   2.283 -0.1987  0.0428 -0.0361
    5FIC    C2312920   5.230   1.017   2.333 -0.1976  0.0494 -0.0230
    5FIC    C2412921   5.322   1.041   2.434 -0.1889  0.0642 -0.0345
    5FIC    C2512922   5.343   1.170   2.483 -0.1813  0.0720 -0.0584
    5FIC    C2612923   5.274   1.280   2.434 -0.1824  0.0654 -0.0715
    5FIC    C2712924   5.180   1.258   2.331 -0.1913  0.0505 -0.0601
    5FIC    C2812925   5.091   1.352   2.258 -0.1947  0.0403 -0.0689
    5FIC    C2912926   5.082   1.488   2.277 -0.1894  0.0438 -0.0914
    5FIC    C3012927   5.161   1.558   2.374 -0.1796  0.0582 -0.1097
    5FIC    C3112928   4.993   1.570   2.201 -0.1932  0.0333 -0.0982
   6.37733  10.69809   3.89395   0.00000   0.00000   0.00000   0.00000  -0.43699   0.00000
