JACS crystal with symmetry
12928
    1BTD     S2    1   1.066   1.605   2.195  0.0000  0.0000  0.0000
    1BTD     N1    2   1.053   1.769   2.190  0.0000  0.0000  0.0000
    1BTD     N2    3   1.001   1.565   2.052  0.0000  0.0000  0.0000
    1BTD     N3    4   0.800   1.812   1.703  0.0000  0.0000  0.0000
    1BTD     N4    5   0.856   2.084   1.895  0.0000  0.0000  0.0000
    1BTD     C5    6   0.957   1.925   2.034  0.0000  0.0000  0.0000
    1BTD     C6    7   0.997   1.797   2.078  0.0000  0.0000  0.0000
    1BTD     C7    8   0.968   1.682   1.998  0.0000  0.0000  0.0000
    1BTD     C8    9   0.901   1.699   1.873  0.0000  0.0000  0.0000
    1BTD    C15   10   0.865   1.827   1.823  0.0000  0.0000  0.0000
    1BTD    C16   11   0.884   1.948   1.909  0.0000  0.0000  0.0000
    1BTD    C43   12   0.753   2.149   1.818  0.0000  0.0000  0.0000
    1BTD    C44   13   0.611   2.097   1.855  0.0000  0.0000  0.0000
    1BTD    C45   14   0.573   2.072   2.004  0.0000  0.0000  0.0000
    1BTD    C46   15   0.567   2.204   2.086  0.0000  0.0000  0.0000
    1BTD    C47   16   0.495   2.177   1.789  0.0000  0.0000  0.0000
    1BTD    C48   17   0.478   2.171   1.635  0.0000  0.0000  0.0000
    1BTD    C49   18   0.389   2.277   1.563  0.0000  0.0000  0.0000
    1BTD    C50   19   0.410   2.302   1.411  0.0000  0.0000  0.0000
    1BTD    C75   20   0.788   1.910   1.584  0.0000  0.0000  0.0000
    1BTD    C76   21   0.926   1.974   1.549  0.0000  0.0000  0.0000
    1BTD    C77   22   0.925   2.060   1.420  0.0000  0.0000  0.0000
    1BTD    C78   23   0.780   2.028   1.375  0.0000  0.0000  0.0000
    1BTD    C79   24   1.047   1.880   1.531  0.0000  0.0000  0.0000
    1BTD    C80   25   1.026   1.748   1.452  0.0000  0.0000  0.0000
    1BTD    C81   26   1.122   1.629   1.476  0.0000  0.0000  0.0000
    1BTD    C82   27   1.254   1.624   1.393  0.0000  0.0000  0.0000
    2TTP     S1   28   1.032   2.124   2.233  0.0000  0.0000  0.0000
    2TTP     S5   29   0.849   2.431   2.014  0.0000  0.0000  0.0000
    2TTP     C1   30   0.908   2.501   2.160  0.0000  0.0000  0.0000
    2TTP     C2   31   0.969   2.410   2.238  0.0000  0.0000  0.0000
    2TTP     C3   32   0.971   2.279   2.186  0.0000  0.0000  0.0000
    2TTP     C4   33   0.966   2.053   2.091  0.0000  0.0000  0.0000
    2TTP    C17   34   0.906   2.145   2.006  0.0000  0.0000  0.0000
    2TTP    C18   35   0.905   2.278   2.058  0.0000  0.0000  0.0000
    2TTP    C32   36   1.027   2.434   2.379  0.0000  0.0000  0.0000
    2TTP    C33   37   1.179   2.419   2.402  0.0000  0.0000  0.0000
    2TTP    C34   38   1.237   2.454   2.541  0.0000  0.0000  0.0000
    2TTP    C35   39   1.390   2.448   2.512  0.0000  0.0000  0.0000
    2TTP    C36   40   1.436   2.595   2.488  0.0000  0.0000  0.0000
    2TTP    C37   41   1.368   2.708   2.570  0.0000  0.0000  0.0000
    2TTP    C38   42   1.452   2.828   2.622  0.0000  0.0000  0.0000
    2TTP    C39   43   1.342   2.873   2.720  0.0000  0.0000  0.0000
    2TTP    C40   44   1.387   2.914   2.864  0.0000  0.0000  0.0000
    2TTP    C41   45   1.306   3.022   2.941  0.0000  0.0000  0.0000
    2TTP    C42   46   1.368   3.088   3.067  0.0000  0.0000  0.0000
    3TTP     S1   47   0.868   1.434   1.749  0.0000  0.0000  0.0000
    3TTP     S5   48   0.646   1.609   1.438  0.0000  0.0000  0.0000
    3TTP     C1   49   0.640   1.434   1.421  0.0000  0.0000  0.0000
    3TTP     C2   50   0.711   1.369   1.517  0.0000  0.0000  0.0000
    3TTP     C3   51   0.772   1.457   1.606  0.0000  0.0000  0.0000
    3TTP     C4   52   0.866   1.604   1.775  0.0000  0.0000  0.0000
    3TTP    C17   53   0.803   1.676   1.672  0.0000  0.0000  0.0000
    3TTP    C18   54   0.744   1.591   1.577  0.0000  0.0000  0.0000
    3TTP    C32   55   0.729   1.215   1.526  0.0000  0.0000  0.0000
    3TTP    C33   56   0.847   1.162   1.438  0.0000  0.0000  0.0000
    3TTP    C34   57   0.865   1.009   1.443  0.0000  0.0000  0.0000
    3TTP    C35   58   0.893   0.966   1.590  0.0000  0.0000  0.0000
    3TTP    C36   59   0.907   0.815   1.622  0.0000  0.0000  0.0000
    3TTP    C37   60   0.784   0.721   1.608  0.0000  0.0000  0.0000
    3TTP    C38   61   0.870   0.594   1.636  0.0000  0.0000  0.0000
    3TTP    C39   62   0.776   0.494   1.565  0.0000  0.0000  0.0000
    3TTP    C40   63   0.770   0.496   1.409  0.0000  0.0000  0.0000
    3TTP    C41   64   0.663   0.583   1.338  0.0000  0.0000  0.0000
    3TTP    C42   65   0.698   0.727   1.288  0.0000  0.0000  0.0000
    4FIC     F1   66   0.576   3.150   1.788  0.0000  0.0000  0.0000
    4FIC     F2   67   0.617   3.286   2.017  0.0000  0.0000  0.0000
    4FIC     O1   68   0.786   2.674   1.925  0.0000  0.0000  0.0000
    4FIC     N5   69   0.825   3.157   2.426  0.0000  0.0000  0.0000
    4FIC     N6   70   0.996   2.760   2.515  0.0000  0.0000  0.0000
    4FIC    C19   71   0.891   2.636   2.202  0.0000  0.0000  0.0000
    4FIC    C20   72   0.839   2.750   2.150  0.0000  0.0000  0.0000
    4FIC    C21   73   0.784   2.761   2.016  0.0000  0.0000  0.0000
    4FIC    C22   74   0.738   2.900   2.001  0.0000  0.0000  0.0000
    4FIC    C23   75   0.677   2.954   1.884  0.0000  0.0000  0.0000
    4FIC    C24   76   0.635   3.087   1.905  0.0000  0.0000  0.0000
    4FIC    C25   77   0.655   3.155   2.017  0.0000  0.0000  0.0000
    4FIC    C26   78   0.712   3.101   2.122  0.0000  0.0000  0.0000
    4FIC    C27   79   0.755   2.973   2.109  0.0000  0.0000  0.0000
    4FIC    C28   80   0.823   2.881   2.210  0.0000  0.0000  0.0000
    4FIC    C29   81   0.865   2.909   2.351  0.0000  0.0000  0.0000
    4FIC    C30   82   0.845   3.053   2.390  0.0000  0.0000  0.0000
    4FIC    C31   83   0.932   2.823   2.446  0.0000  0.0000  0.0000
    5FIC     F1   84   0.181   1.706   0.808  0.0000  0.0000  0.0000
    5FIC     F2   85   0.127   1.455   0.745  0.0000  0.0000  0.0000
    5FIC     O1   86   0.502   1.643   1.224  0.0000  0.0000  0.0000
    5FIC     N5   87   0.276   1.041   0.951  0.0000  0.0000  0.0000
    5FIC     N6   88   0.470   1.024   1.325  0.0000  0.0000  0.0000
    5FIC    C19   89   0.563   1.363   1.323  0.0000  0.0000  0.0000
    5FIC    C20   90   0.482   1.400   1.221  0.0000  0.0000  0.0000
    5FIC    C21   91   0.457   1.541   1.178  0.0000  0.0000  0.0000
    5FIC    C22   92   0.372   1.532   1.058  0.0000  0.0000  0.0000
    5FIC    C23   93   0.320   1.639   0.985  0.0000  0.0000  0.0000
    5FIC    C24   94   0.244   1.608   0.881  0.0000  0.0000  0.0000
    5FIC    C25   95   0.212   1.475   0.848  0.0000  0.0000  0.0000
    5FIC    C26   96   0.260   1.372   0.922  0.0000  0.0000  0.0000
    5FIC    C27   97   0.342   1.401   1.027  0.0000  0.0000  0.0000
    5FIC    C28   98   0.406   1.315   1.131  0.0000  0.0000  0.0000
    5FIC    C29   99   0.393   1.177   1.136  0.0000  0.0000  0.0000
    5FIC    C30  100   0.328   1.103   1.034  0.0000  0.0000  0.0000
    5FIC    C31  101   0.437   1.094   1.245  0.0000  0.0000  0.0000
    6BTD     S2  102  -0.060   1.597  -0.200  0.0000  0.0000  0.0000
    6BTD     N1  103  -0.071   1.758  -0.189  0.0000  0.0000  0.0000
    6BTD     N2  104   0.019   1.565  -0.063  0.0000  0.0000  0.0000
    6BTD     N3  105   0.188   1.827   0.299  0.0000  0.0000  0.0000
    6BTD     N4  106   0.075   2.087   0.121  0.0000  0.0000  0.0000
    6BTD     C5  107   0.005   1.923  -0.020  0.0000  0.0000  0.0000
    6BTD     C6  108  -0.012   1.793  -0.076  0.0000  0.0000  0.0000
    6BTD     C7  109   0.039   1.682  -0.003  0.0000  0.0000  0.0000
    6BTD     C8  110   0.100   1.703   0.122  0.0000  0.0000  0.0000
    6BTD    C15  111   0.119   1.836   0.175  0.0000  0.0000  0.0000
    6BTD    C16  112   0.071   1.948   0.098  0.0000  0.0000  0.0000
    6BTD    C43  113   0.163   2.164   0.210  0.0000  0.0000  0.0000
    6BTD    C44  114   0.316   2.154   0.180  0.0000  0.0000  0.0000
    6BTD    C45  115   0.388   2.253   0.274  0.0000  0.0000  0.0000
    6BTD    C46  116   0.538   2.211   0.273  0.0000  0.0000  0.0000
    6BTD    C47  117   0.349   2.181   0.030  0.0000  0.0000  0.0000
    6BTD    C48  118   0.363   2.322  -0.033  0.0000  0.0000  0.0000
    6BTD    C49  119   0.377   2.290  -0.184  0.0000  0.0000  0.0000
    6BTD    C50  120   0.474   2.244  -0.298  0.0000  0.0000  0.0000
    6BTD    C75  121   0.175   1.915   0.415  0.0000  0.0000  0.0000
    6BTD    C76  122   0.026   1.945   0.451  0.0000  0.0000  0.0000
    6BTD    C77  123   0.017   2.033   0.578  0.0000  0.0000  0.0000
    6BTD    C78  124  -0.124   2.086   0.613  0.0000  0.0000  0.0000
    6BTD    C79  125  -0.059   1.818   0.471  0.0000  0.0000  0.0000
    6BTD    C80  126  -0.032   1.729   0.595  0.0000  0.0000  0.0000
    6BTD    C81  127  -0.124   1.604   0.590  0.0000  0.0000  0.0000
    6BTD    C82  128  -0.093   1.478   0.503  0.0000  0.0000  0.0000
    7TTP     S1  129  -0.122   2.113  -0.207  0.0000  0.0000  0.0000
    7TTP     S5  130  -0.023   2.432   0.050  0.0000  0.0000  0.0000
    7TTP     C1  131  -0.120   2.495  -0.082  0.0000  0.0000  0.0000
    7TTP     C2  132  -0.158   2.398  -0.170  0.0000  0.0000  0.0000
    7TTP     C3  133  -0.102   2.275  -0.137  0.0000  0.0000  0.0000
    7TTP     C4  134  -0.037   2.052  -0.076  0.0000  0.0000  0.0000
    7TTP    C17  135   0.014   2.143   0.015  0.0000  0.0000  0.0000
    7TTP    C18  136  -0.030   2.277  -0.025  0.0000  0.0000  0.0000
    7TTP    C32  137  -0.243   2.415  -0.298  0.0000  0.0000  0.0000
    7TTP    C33  138  -0.153   2.449  -0.420  0.0000  0.0000  0.0000
    7TTP    C34  139  -0.246   2.472  -0.541  0.0000  0.0000  0.0000
    7TTP    C35  140  -0.187   2.543  -0.666  0.0000  0.0000  0.0000
    7TTP    C36  141  -0.282   2.637  -0.747  0.0000  0.0000  0.0000
    7TTP    C37  142  -0.401   2.573  -0.824  0.0000  0.0000  0.0000
    7TTP    C38  143  -0.482   2.441  -0.836  0.0000  0.0000  0.0000
    7TTP    C39  144  -0.564   2.391  -0.713  0.0000  0.0000  0.0000
    7TTP    C40  145  -0.623   2.493  -0.613  0.0000  0.0000  0.0000
    7TTP    C41  146  -0.610   2.467  -0.460  0.0000  0.0000  0.0000
    7TTP    C42  147  -0.628   2.588  -0.365  0.0000  0.0000  0.0000
    8TTP     S1  148   0.183   1.444   0.237  0.0000  0.0000  0.0000
    8TTP     S5  149   0.385   1.647   0.545  0.0000  0.0000  0.0000
    8TTP     C1  150   0.416   1.474   0.567  0.0000  0.0000  0.0000
    8TTP     C2  151   0.351   1.400   0.466  0.0000  0.0000  0.0000
    8TTP     C3  152   0.274   1.480   0.382  0.0000  0.0000  0.0000
    8TTP     C4  153   0.160   1.616   0.216  0.0000  0.0000  0.0000
    8TTP    C17  154   0.214   1.691   0.320  0.0000  0.0000  0.0000
    8TTP    C18  155   0.284   1.614   0.415  0.0000  0.0000  0.0000
    8TTP    C32  156   0.344   1.246   0.459  0.0000  0.0000  0.0000
    8TTP    C33  157   0.239   1.179   0.553  0.0000  0.0000  0.0000
    8TTP    C34  158   0.232   1.024   0.537  0.0000  0.0000  0.0000
    8TTP    C35  159   0.123   0.974   0.635  0.0000  0.0000  0.0000
    8TTP    C36  160   0.139   0.820   0.641  0.0000  0.0000  0.0000
    8TTP    C37  161   0.106   0.782   0.493  0.0000  0.0000  0.0000
    8TTP    C38  162   0.100   0.628   0.464  0.0000  0.0000  0.0000
    8TTP    C39  163   0.038   0.577   0.332  0.0000  0.0000  0.0000
    8TTP    C40  164   0.129   0.509   0.225  0.0000  0.0000  0.0000
    8TTP    C41  165   0.204   0.378   0.259  0.0000  0.0000  0.0000
    8TTP    C42  166   0.226   0.271   0.150  0.0000  0.0000  0.0000
    9FIC     F1  167  -0.090   3.122   0.442  0.0000  0.0000  0.0000
    9FIC     F2  168  -0.199   3.276   0.250  0.0000  0.0000  0.0000
    9FIC     O1  169  -0.036   2.663   0.181  0.0000  0.0000  0.0000
    9FIC     N5  170  -0.352   3.163  -0.195  0.0000  0.0000  0.0000
    9FIC     N6  171  -0.304   2.782  -0.374  0.0000  0.0000  0.0000
    9FIC    C19  172  -0.164   2.632  -0.092  0.0000  0.0000  0.0000
    9FIC    C20  173  -0.155   2.743  -0.011  0.0000  0.0000  0.0000
    9FIC    C21  174  -0.092   2.751   0.116  0.0000  0.0000  0.0000
    9FIC    C22  175  -0.117   2.885   0.170  0.0000  0.0000  0.0000
    9FIC    C23  176  -0.087   2.935   0.301  0.0000  0.0000  0.0000
    9FIC    C24  177  -0.116   3.064   0.325  0.0000  0.0000  0.0000
    9FIC    C25  178  -0.176   3.143   0.216  0.0000  0.0000  0.0000
    9FIC    C26  179  -0.212   3.098   0.099  0.0000  0.0000  0.0000
    9FIC    C27  180  -0.177   2.963   0.071  0.0000  0.0000  0.0000
    9FIC    C28  181  -0.201   2.877  -0.045  0.0000  0.0000  0.0000
    9FIC    C29  182  -0.261   2.920  -0.161  0.0000  0.0000  0.0000
    9FIC    C30  183  -0.309   3.063  -0.174  0.0000  0.0000  0.0000
    9FIC    C31  184  -0.278   2.842  -0.280  0.0000  0.0000  0.0000
   10FIC     F1  185   0.872   1.797   1.158  0.0000  0.0000  0.0000
   10FIC     F2  186   0.919   1.554   1.239  0.0000  0.0000  0.0000
   10FIC     O1  187   0.560   1.703   0.736  0.0000  0.0000  0.0000
   10FIC     N5  188   0.742   1.134   1.089  0.0000  0.0000  0.0000
   10FIC     N6  189   0.552   1.079   0.711  0.0000  0.0000  0.0000
   10FIC    C19  190   0.492   1.416   0.668  0.0000  0.0000  0.0000
   10FIC    C20  191   0.572   1.462   0.767  0.0000  0.0000  0.0000
   10FIC    C21  192   0.603   1.609   0.800  0.0000  0.0000  0.0000
   10FIC    C22  193   0.682   1.611   0.915  0.0000  0.0000  0.0000
   10FIC    C23  194   0.739   1.721   0.982  0.0000  0.0000  0.0000
   10FIC    C24  195   0.815   1.704   1.091  0.0000  0.0000  0.0000
   10FIC    C25  196   0.844   1.575   1.134  0.0000  0.0000  0.0000
   10FIC    C26  197   0.788   1.456   1.075  0.0000  0.0000  0.0000
   10FIC    C27  198   0.705   1.478   0.963  0.0000  0.0000  0.0000
   10FIC    C28  199   0.639   1.388   0.870  0.0000  0.0000  0.0000
   10FIC    C29  200   0.643   1.249   0.882  0.0000  0.0000  0.0000
   10FIC    C30  201   0.700   1.184   1.001  0.0000  0.0000  0.0000
   10FIC    C31  202   0.587   1.155   0.789  0.0000  0.0000  0.0000
   11BTD     S2  203  -1.066  -1.605  -2.195  0.0000  0.0000  0.0000
   11BTD     N1  204  -1.053  -1.769  -2.190  0.0000  0.0000  0.0000
   11BTD     N2  205  -1.001  -1.565  -2.052  0.0000  0.0000  0.0000
   11BTD     N3  206  -0.800  -1.812  -1.703  0.0000  0.0000  0.0000
   11BTD     N4  207  -0.856  -2.084  -1.895  0.0000  0.0000  0.0000
   11BTD     C5  208  -0.957  -1.925  -2.034  0.0000  0.0000  0.0000
   11BTD     C6  209  -0.997  -1.797  -2.078  0.0000  0.0000  0.0000
   11BTD     C7  210  -0.968  -1.682  -1.998  0.0000  0.0000  0.0000
   11BTD     C8  211  -0.901  -1.699  -1.873  0.0000  0.0000  0.0000
   11BTD    C15  212  -0.865  -1.827  -1.823  0.0000  0.0000  0.0000
   11BTD    C16  213  -0.884  -1.948  -1.909  0.0000  0.0000  0.0000
   11BTD    C43  214  -0.753  -2.149  -1.818  0.0000  0.0000  0.0000
   11BTD    C44  215  -0.611  -2.097  -1.855  0.0000  0.0000  0.0000
   11BTD    C45  216  -0.573  -2.072  -2.004  0.0000  0.0000  0.0000
   11BTD    C46  217  -0.567  -2.204  -2.086  0.0000  0.0000  0.0000
   11BTD    C47  218  -0.495  -2.177  -1.789  0.0000  0.0000  0.0000
   11BTD    C48  219  -0.478  -2.171  -1.635  0.0000  0.0000  0.0000
   11BTD    C49  220  -0.389  -2.277  -1.563  0.0000  0.0000  0.0000
   11BTD    C50  221  -0.410  -2.302  -1.411  0.0000  0.0000  0.0000
   11BTD    C75  222  -0.788  -1.910  -1.584  0.0000  0.0000  0.0000
   11BTD    C76  223  -0.926  -1.974  -1.549  0.0000  0.0000  0.0000
   11BTD    C77  224  -0.925  -2.060  -1.420  0.0000  0.0000  0.0000
   11BTD    C78  225  -0.780  -2.028  -1.375  0.0000  0.0000  0.0000
   11BTD    C79  226  -1.047  -1.880  -1.531  0.0000  0.0000  0.0000
   11BTD    C80  227  -1.026  -1.748  -1.452  0.0000  0.0000  0.0000
   11BTD    C81  228  -1.122  -1.629  -1.476  0.0000  0.0000  0.0000
   11BTD    C82  229  -1.254  -1.624  -1.393  0.0000  0.0000  0.0000
   12TTP     S1  230  -1.032  -2.124  -2.233  0.0000  0.0000  0.0000
   12TTP     S5  231  -0.849  -2.431  -2.014  0.0000  0.0000  0.0000
   12TTP     C1  232  -0.908  -2.501  -2.160  0.0000  0.0000  0.0000
   12TTP     C2  233  -0.969  -2.410  -2.238  0.0000  0.0000  0.0000
   12TTP     C3  234  -0.971  -2.279  -2.186  0.0000  0.0000  0.0000
   12TTP     C4  235  -0.966  -2.053  -2.091  0.0000  0.0000  0.0000
   12TTP    C17  236  -0.906  -2.145  -2.006  0.0000  0.0000  0.0000
   12TTP    C18  237  -0.905  -2.278  -2.058  0.0000  0.0000  0.0000
   12TTP    C32  238  -1.027  -2.434  -2.379  0.0000  0.0000  0.0000
   12TTP    C33  239  -1.179  -2.419  -2.402  0.0000  0.0000  0.0000
   12TTP    C34  240  -1.237  -2.454  -2.541  0.0000  0.0000  0.0000
   12TTP    C35  241  -1.390  -2.448  -2.512  0.0000  0.0000  0.0000
   12TTP    C36  242  -1.436  -2.595  -2.488  0.0000  0.0000  0.0000
   12TTP    C37  243  -1.368  -2.708  -2.570  0.0000  0.0000  0.0000
   12TTP    C38  244  -1.452  -2.828  -2.622  0.0000  0.0000  0.0000
   12TTP    C39  245  -1.342  -2.873  -2.720  0.0000  0.0000  0.0000
   12TTP    C40  246  -1.387  -2.914  -2.864  0.0000  0.0000  0.0000
   12TTP    C41  247  -1.306  -3.022  -2.941  0.0000  0.0000  0.0000
   12TTP    C42  248  -1.368  -3.088  -3.067  0.0000  0.0000  0.0000
   13TTP     S1  249  -0.868  -1.434  -1.749  0.0000  0.0000  0.0000
   13TTP     S5  250  -0.646  -1.609  -1.438  0.0000  0.0000  0.0000
   13TTP     C1  251  -0.640  -1.434  -1.421  0.0000  0.0000  0.0000
   13TTP     C2  252  -0.711  -1.369  -1.517  0.0000  0.0000  0.0000
   13TTP     C3  253  -0.772  -1.457  -1.606  0.0000  0.0000  0.0000
   13TTP     C4  254  -0.866  -1.604  -1.775  0.0000  0.0000  0.0000
   13TTP    C17  255  -0.803  -1.676  -1.672  0.0000  0.0000  0.0000
   13TTP    C18  256  -0.744  -1.591  -1.577  0.0000  0.0000  0.0000
   13TTP    C32  257  -0.729  -1.215  -1.526  0.0000  0.0000  0.0000
   13TTP    C33  258  -0.847  -1.162  -1.438  0.0000  0.0000  0.0000
   13TTP    C34  259  -0.865  -1.009  -1.443  0.0000  0.0000  0.0000
   13TTP    C35  260  -0.893  -0.966  -1.590  0.0000  0.0000  0.0000
   13TTP    C36  261  -0.907  -0.815  -1.622  0.0000  0.0000  0.0000
   13TTP    C37  262  -0.784  -0.721  -1.608  0.0000  0.0000  0.0000
   13TTP    C38  263  -0.870  -0.594  -1.636  0.0000  0.0000  0.0000
   13TTP    C39  264  -0.776  -0.494  -1.565  0.0000  0.0000  0.0000
   13TTP    C40  265  -0.770  -0.496  -1.409  0.0000  0.0000  0.0000
   13TTP    C41  266  -0.663  -0.583  -1.338  0.0000  0.0000  0.0000
   13TTP    C42  267  -0.698  -0.727  -1.288  0.0000  0.0000  0.0000
   14FIC     F1  268  -0.576  -3.150  -1.788  0.0000  0.0000  0.0000
   14FIC     F2  269  -0.617  -3.286  -2.017  0.0000  0.0000  0.0000
   14FIC     O1  270  -0.786  -2.674  -1.925  0.0000  0.0000  0.0000
   14FIC     N5  271  -0.825  -3.157  -2.426  0.0000  0.0000  0.0000
   14FIC     N6  272  -0.996  -2.760  -2.515  0.0000  0.0000  0.0000
   14FIC    C19  273  -0.891  -2.636  -2.202  0.0000  0.0000  0.0000
   14FIC    C20  274  -0.839  -2.750  -2.150  0.0000  0.0000  0.0000
   14FIC    C21  275  -0.784  -2.761  -2.016  0.0000  0.0000  0.0000
   14FIC    C22  276  -0.738  -2.900  -2.001  0.0000  0.0000  0.0000
   14FIC    C23  277  -0.677  -2.954  -1.884  0.0000  0.0000  0.0000
   14FIC    C24  278  -0.635  -3.087  -1.905  0.0000  0.0000  0.0000
   14FIC    C25  279  -0.655  -3.155  -2.017  0.0000  0.0000  0.0000
   14FIC    C26  280  -0.712  -3.101  -2.122  0.0000  0.0000  0.0000
   14FIC    C27  281  -0.755  -2.973  -2.109  0.0000  0.0000  0.0000
   14FIC    C28  282  -0.823  -2.881  -2.210  0.0000  0.0000  0.0000
   14FIC    C29  283  -0.865  -2.909  -2.351  0.0000  0.0000  0.0000
   14FIC    C30  284  -0.844  -3.053  -2.390  0.0000  0.0000  0.0000
   14FIC    C31  285  -0.932  -2.823  -2.446  0.0000  0.0000  0.0000
   15FIC     F1  286  -0.181  -1.706  -0.808  0.0000  0.0000  0.0000
   15FIC     F2  287  -0.127  -1.455  -0.745  0.0000  0.0000  0.0000
   15FIC     O1  288  -0.502  -1.643  -1.224  0.0000  0.0000  0.0000
   15FIC     N5  289  -0.276  -1.041  -0.951  0.0000  0.0000  0.0000
   15FIC     N6  290  -0.470  -1.024  -1.325  0.0000  0.0000  0.0000
   15FIC    C19  291  -0.563  -1.363  -1.323  0.0000  0.0000  0.0000
   15FIC    C20  292  -0.482  -1.400  -1.221  0.0000  0.0000  0.0000
   15FIC    C21  293  -0.457  -1.541  -1.178  0.0000  0.0000  0.0000
   15FIC    C22  294  -0.372  -1.532  -1.058  0.0000  0.0000  0.0000
   15FIC    C23  295  -0.320  -1.639  -0.985  0.0000  0.0000  0.0000
   15FIC    C24  296  -0.244  -1.608  -0.881  0.0000  0.0000  0.0000
   15FIC    C25  297  -0.212  -1.475  -0.848  0.0000  0.0000  0.0000
   15FIC    C26  298  -0.260  -1.372  -0.922  0.0000  0.0000  0.0000
   15FIC    C27  299  -0.342  -1.401  -1.027  0.0000  0.0000  0.0000
   15FIC    C28  300  -0.406  -1.315  -1.131  0.0000  0.0000  0.0000
   15FIC    C29  301  -0.393  -1.177  -1.136  0.0000  0.0000  0.0000
   15FIC    C30  302  -0.328  -1.103  -1.034  0.0000  0.0000  0.0000
   15FIC    C31  303  -0.437  -1.094  -1.245  0.0000  0.0000  0.0000
   16BTD     S2  304   0.060  -1.597   0.200  0.0000  0.0000  0.0000
   16BTD     N1  305   0.071  -1.758   0.189  0.0000  0.0000  0.0000
   16BTD     N2  306  -0.019  -1.565   0.063  0.0000  0.0000  0.0000
   16BTD     N3  307  -0.188  -1.827  -0.299  0.0000  0.0000  0.0000
   16BTD     N4  308  -0.075  -2.087  -0.121  0.0000  0.0000  0.0000
   16BTD     C5  309  -0.005  -1.923   0.020  0.0000  0.0000  0.0000
   16BTD     C6  310   0.012  -1.793   0.076  0.0000  0.0000  0.0000
   16BTD     C7  311  -0.039  -1.682   0.003  0.0000  0.0000  0.0000
   16BTD     C8  312  -0.100  -1.703  -0.122  0.0000  0.0000  0.0000
   16BTD    C15  313  -0.119  -1.836  -0.175  0.0000  0.0000  0.0000
   16BTD    C16  314  -0.071  -1.948  -0.098  0.0000  0.0000  0.0000
   16BTD    C43  315  -0.163  -2.164  -0.210  0.0000  0.0000  0.0000
   16BTD    C44  316  -0.316  -2.154  -0.180  0.0000  0.0000  0.0000
   16BTD    C45  317  -0.388  -2.253  -0.274  0.0000  0.0000  0.0000
   16BTD    C46  318  -0.538  -2.211  -0.273  0.0000  0.0000  0.0000
   16BTD    C47  319  -0.349  -2.181  -0.030  0.0000  0.0000  0.0000
   16BTD    C48  320  -0.363  -2.322   0.033  0.0000  0.0000  0.0000
   16BTD    C49  321  -0.377  -2.290   0.184  0.0000  0.0000  0.0000
   16BTD    C50  322  -0.474  -2.244   0.298  0.0000  0.0000  0.0000
   16BTD    C75  323  -0.175  -1.915  -0.415  0.0000  0.0000  0.0000
   16BTD    C76  324  -0.026  -1.945  -0.451  0.0000  0.0000  0.0000
   16BTD    C77  325  -0.017  -2.033  -0.578  0.0000  0.0000  0.0000
   16BTD    C78  326   0.124  -2.086  -0.613  0.0000  0.0000  0.0000
   16BTD    C79  327   0.059  -1.818  -0.471  0.0000  0.0000  0.0000
   16BTD    C80  328   0.032  -1.729  -0.595  0.0000  0.0000  0.0000
   16BTD    C81  329   0.124  -1.604  -0.590  0.0000  0.0000  0.0000
   16BTD    C82  330   0.093  -1.478  -0.503  0.0000  0.0000  0.0000
   17TTP     S1  331   0.122  -2.113   0.207  0.0000  0.0000  0.0000
   17TTP     S5  332   0.023  -2.432  -0.050  0.0000  0.0000  0.0000
   17TTP     C1  333   0.120  -2.495   0.082  0.0000  0.0000  0.0000
   17TTP     C2  334   0.158  -2.398   0.170  0.0000  0.0000  0.0000
   17TTP     C3  335   0.102  -2.275   0.137  0.0000  0.0000  0.0000
   17TTP     C4  336   0.037  -2.052   0.076  0.0000  0.0000  0.0000
   17TTP    C17  337  -0.014  -2.143  -0.015  0.0000  0.0000  0.0000
   17TTP    C18  338   0.030  -2.277   0.025  0.0000  0.0000  0.0000
   17TTP    C32  339   0.243  -2.415   0.298  0.0000  0.0000  0.0000
   17TTP    C33  340   0.153  -2.449   0.420  0.0000  0.0000  0.0000
   17TTP    C34  341   0.246  -2.472   0.541  0.0000  0.0000  0.0000
   17TTP    C35  342   0.187  -2.543   0.666  0.0000  0.0000  0.0000
   17TTP    C36  343   0.282  -2.637   0.747  0.0000  0.0000  0.0000
   17TTP    C37  344   0.401  -2.573   0.824  0.0000  0.0000  0.0000
   17TTP    C38  345   0.482  -2.441   0.836  0.0000  0.0000  0.0000
   17TTP    C39  346   0.564  -2.391   0.713  0.0000  0.0000  0.0000
   17TTP    C40  347   0.623  -2.493   0.613  0.0000  0.0000  0.0000
   17TTP    C41  348   0.610  -2.467   0.460  0.0000  0.0000  0.0000
   17TTP    C42  349   0.628  -2.588   0.365  0.0000  0.0000  0.0000
   18TTP     S1  350  -0.183  -1.444  -0.237  0.0000  0.0000  0.0000
   18TTP     S5  351  -0.385  -1.647  -0.545  0.0000  0.0000  0.0000
   18TTP     C1  352  -0.416  -1.474  -0.567  0.0000  0.0000  0.0000
   18TTP     C2  353  -0.351  -1.400  -0.466  0.0000  0.0000  0.0000
   18TTP     C3  354  -0.274  -1.480  -0.382  0.0000  0.0000  0.0000
   18TTP     C4  355  -0.160  -1.616  -0.216  0.0000  0.0000  0.0000
   18TTP    C17  356  -0.214  -1.691  -0.320  0.0000  0.0000  0.0000
   18TTP    C18  357  -0.284  -1.614  -0.415  0.0000  0.0000  0.0000
   18TTP    C32  358  -0.344  -1.246  -0.459  0.0000  0.0000  0.0000
   18TTP    C33  359  -0.238  -1.179  -0.553  0.0000  0.0000  0.0000
   18TTP    C34  360  -0.232  -1.024  -0.537  0.0000  0.0000  0.0000
   18TTP    C35  361  -0.123  -0.974  -0.635  0.0000  0.0000  0.0000
   18TTP    C36  362  -0.139  -0.820  -0.641  0.0000  0.0000  0.0000
   18TTP    C37  363  -0.106  -0.782  -0.493  0.0000  0.0000  0.0000
   18TTP    C38  364  -0.100  -0.628  -0.464  0.0000  0.0000  0.0000
   18TTP    C39  365  -0.038  -0.577  -0.332  0.0000  0.0000  0.0000
   18TTP    C40  366  -0.129  -0.509  -0.225  0.0000  0.0000  0.0000
   18TTP    C41  367  -0.204  -0.378  -0.259  0.0000  0.0000  0.0000
   18TTP    C42  368  -0.226  -0.271  -0.150  0.0000  0.0000  0.0000
   19FIC     F1  369   0.090  -3.122  -0.442  0.0000  0.0000  0.0000
   19FIC     F2  370   0.199  -3.276  -0.250  0.0000  0.0000  0.0000
   19FIC     O1  371   0.036  -2.663  -0.181  0.0000  0.0000  0.0000
   19FIC     N5  372   0.352  -3.163   0.195  0.0000  0.0000  0.0000
   19FIC     N6  373   0.304  -2.782   0.374  0.0000  0.0000  0.0000
   19FIC    C19  374   0.164  -2.632   0.092  0.0000  0.0000  0.0000
   19FIC    C20  375   0.155  -2.743   0.011  0.0000  0.0000  0.0000
   19FIC    C21  376   0.092  -2.751  -0.116  0.0000  0.0000  0.0000
   19FIC    C22  377   0.117  -2.885  -0.170  0.0000  0.0000  0.0000
   19FIC    C23  378   0.087  -2.935  -0.301  0.0000  0.0000  0.0000
   19FIC    C24  379   0.116  -3.064  -0.325  0.0000  0.0000  0.0000
   19FIC    C25  380   0.176  -3.143  -0.216  0.0000  0.0000  0.0000
   19FIC    C26  381   0.212  -3.098  -0.099  0.0000  0.0000  0.0000
   19FIC    C27  382   0.177  -2.963  -0.071  0.0000  0.0000  0.0000
   19FIC    C28  383   0.201  -2.877   0.045  0.0000  0.0000  0.0000
   19FIC    C29  384   0.261  -2.920   0.161  0.0000  0.0000  0.0000
   19FIC    C30  385   0.309  -3.063   0.174  0.0000  0.0000  0.0000
   19FIC    C31  386   0.278  -2.842   0.280  0.0000  0.0000  0.0000
   20FIC     F1  387  -0.872  -1.797  -1.158  0.0000  0.0000  0.0000
   20FIC     F2  388  -0.919  -1.554  -1.239  0.0000  0.0000  0.0000
   20FIC     O1  389  -0.560  -1.703  -0.736  0.0000  0.0000  0.0000
   20FIC     N5  390  -0.742  -1.134  -1.089  0.0000  0.0000  0.0000
   20FIC     N6  391  -0.552  -1.079  -0.711  0.0000  0.0000  0.0000
   20FIC    C19  392  -0.492  -1.416  -0.668  0.0000  0.0000  0.0000
   20FIC    C20  393  -0.572  -1.462  -0.767  0.0000  0.0000  0.0000
   20FIC    C21  394  -0.603  -1.609  -0.800  0.0000  0.0000  0.0000
   20FIC    C22  395  -0.682  -1.611  -0.915  0.0000  0.0000  0.0000
   20FIC    C23  396  -0.739  -1.721  -0.982  0.0000  0.0000  0.0000
   20FIC    C24  397  -0.815  -1.704  -1.091  0.0000  0.0000  0.0000
   20FIC    C25  398  -0.844  -1.575  -1.134  0.0000  0.0000  0.0000
   20FIC    C26  399  -0.788  -1.456  -1.075  0.0000  0.0000  0.0000
   20FIC    C27  400  -0.705  -1.478  -0.963  0.0000  0.0000  0.0000
   20FIC    C28  401  -0.639  -1.388  -0.870  0.0000  0.0000  0.0000
   20FIC    C29  402  -0.643  -1.249  -0.882  0.0000  0.0000  0.0000
   20FIC    C30  403  -0.700  -1.184  -1.001  0.0000  0.0000  0.0000
   20FIC    C31  404  -0.587  -1.155  -0.789  0.0000  0.0000  0.0000
   21BTD     S2  405  -1.170   4.495  -1.196  0.0000  0.0000  0.0000
   21BTD     N1  406  -1.156   4.660  -1.192  0.0000  0.0000  0.0000
   21BTD     N2  407  -1.105   4.456  -1.054  0.0000  0.0000  0.0000
   21BTD     N3  408  -0.903   4.703  -0.704  0.0000  0.0000  0.0000
   21BTD     N4  409  -0.960   4.974  -0.897  0.0000  0.0000  0.0000
   21BTD     C5  410  -1.060   4.815  -1.035  0.0000  0.0000  0.0000
   21BTD     C6  411  -1.100   4.687  -1.079  0.0000  0.0000  0.0000
   21BTD     C7  412  -1.071   4.573  -0.999  0.0000  0.0000  0.0000
   21BTD     C8  413  -1.005   4.590  -0.875  0.0000  0.0000  0.0000
   21BTD    C15  414  -0.969   4.717  -0.825  0.0000  0.0000  0.0000
   21BTD    C16  415  -0.987   4.839  -0.910  0.0000  0.0000  0.0000
   21BTD    C43  416  -0.856   5.040  -0.820  0.0000  0.0000  0.0000
   21BTD    C44  417  -0.714   4.988  -0.856  0.0000  0.0000  0.0000
   21BTD    C45  418  -0.676   4.963  -1.006  0.0000  0.0000  0.0000
   21BTD    C46  419  -0.671   5.094  -1.087  0.0000  0.0000  0.0000
   21BTD    C47  420  -0.599   5.068  -0.790  0.0000  0.0000  0.0000
   21BTD    C48  421  -0.581   5.062  -0.637  0.0000  0.0000  0.0000
   21BTD    C49  422  -0.493   5.168  -0.565  0.0000  0.0000  0.0000
   21BTD    C50  423  -0.513   5.192  -0.413  0.0000  0.0000  0.0000
   21BTD    C75  424  -0.892   4.801  -0.586  0.0000  0.0000  0.0000
   21BTD    C76  425  -1.030   4.864  -0.551  0.0000  0.0000  0.0000
   21BTD    C77  426  -1.028   4.950  -0.422  0.0000  0.0000  0.0000
   21BTD    C78  427  -0.884   4.919  -0.376  0.0000  0.0000  0.0000
   21BTD    C79  428  -1.151   4.770  -0.532  0.0000  0.0000  0.0000
   21BTD    C80  429  -1.130   4.639  -0.453  0.0000  0.0000  0.0000
   21BTD    C81  430  -1.226   4.519  -0.478  0.0000  0.0000  0.0000
   21BTD    C82  431  -1.357   4.515  -0.394  0.0000  0.0000  0.0000
   22TTP     S1  432  -1.135   5.015  -1.234  0.0000  0.0000  0.0000
   22TTP     S5  433  -0.952   5.322  -1.016  0.0000  0.0000  0.0000
   22TTP     C1  434  -1.012   5.392  -1.162  0.0000  0.0000  0.0000
   22TTP     C2  435  -1.072   5.300  -1.239  0.0000  0.0000  0.0000
   22TTP     C3  436  -1.074   5.170  -1.188  0.0000  0.0000  0.0000
   22TTP     C4  437  -1.070   4.944  -1.092  0.0000  0.0000  0.0000
   22TTP    C17  438  -1.009   5.036  -1.008  0.0000  0.0000  0.0000
   22TTP    C18  439  -1.008   5.168  -1.060  0.0000  0.0000  0.0000
   22TTP    C32  440  -1.130   5.325  -1.381  0.0000  0.0000  0.0000
   22TTP    C33  441  -1.283   5.310  -1.403  0.0000  0.0000  0.0000
   22TTP    C34  442  -1.341   5.345  -1.543  0.0000  0.0000  0.0000
   22TTP    C35  443  -1.493   5.339  -1.514  0.0000  0.0000  0.0000
   22TTP    C36  444  -1.540   5.485  -1.489  0.0000  0.0000  0.0000
   22TTP    C37  445  -1.471   5.599  -1.572  0.0000  0.0000  0.0000
   22TTP    C38  446  -1.556   5.718  -1.623  0.0000  0.0000  0.0000
   22TTP    C39  447  -1.446   5.763  -1.721  0.0000  0.0000  0.0000
   22TTP    C40  448  -1.490   5.805  -1.865  0.0000  0.0000  0.0000
   22TTP    C41  449  -1.409   5.913  -1.943  0.0000  0.0000  0.0000
   22TTP    C42  450  -1.472   5.978  -2.069  0.0000  0.0000  0.0000
   23TTP     S1  451  -0.971   4.324  -0.750  0.0000  0.0000  0.0000
   23TTP     S5  452  -0.749   4.500  -0.440  0.0000  0.0000  0.0000
   23TTP     C1  453  -0.743   4.324  -0.422  0.0000  0.0000  0.0000
   23TTP     C2  454  -0.814   4.259  -0.518  0.0000  0.0000  0.0000
   23TTP     C3  455  -0.875   4.347  -0.607  0.0000  0.0000  0.0000
   23TTP     C4  456  -0.969   4.495  -0.776  0.0000  0.0000  0.0000
   23TTP    C17  457  -0.906   4.566  -0.674  0.0000  0.0000  0.0000
   23TTP    C18  458  -0.848   4.482  -0.578  0.0000  0.0000  0.0000
   23TTP    C32  459  -0.833   4.105  -0.528  0.0000  0.0000  0.0000
   23TTP    C33  460  -0.950   4.052  -0.440  0.0000  0.0000  0.0000
   23TTP    C34  461  -0.968   3.899  -0.445  0.0000  0.0000  0.0000
   23TTP    C35  462  -0.997   3.856  -0.591  0.0000  0.0000  0.0000
   23TTP    C36  463  -1.010   3.705  -0.624  0.0000  0.0000  0.0000
   23TTP    C37  464  -0.887   3.612  -0.609  0.0000  0.0000  0.0000
   23TTP    C38  465  -0.973   3.485  -0.638  0.0000  0.0000  0.0000
   23TTP    C39  466  -0.880   3.384  -0.566  0.0000  0.0000  0.0000
   23TTP    C40  467  -0.873   3.387  -0.411  0.0000  0.0000  0.0000
   23TTP    C41  468  -0.767   3.474  -0.339  0.0000  0.0000  0.0000
   23TTP    C42  469  -0.801   3.617  -0.290  0.0000  0.0000  0.0000
   24FIC     F1  470  -0.679   6.041  -0.789  0.0000  0.0000  0.0000
   24FIC     F2  471  -0.720   6.176  -1.018  0.0000  0.0000  0.0000
   24FIC     O1  472  -0.889   5.565  -0.926  0.0000  0.0000  0.0000
   24FIC     N5  473  -0.928   6.048  -1.428  0.0000  0.0000  0.0000
   24FIC     N6  474  -1.100   5.651  -1.516  0.0000  0.0000  0.0000
   24FIC    C19  475  -0.995   5.526  -1.204  0.0000  0.0000  0.0000
   24FIC    C20  476  -0.943   5.640  -1.152  0.0000  0.0000  0.0000
   24FIC    C21  477  -0.888   5.651  -1.018  0.0000  0.0000  0.0000
   24FIC    C22  478  -0.841   5.790  -1.002  0.0000  0.0000  0.0000
   24FIC    C23  479  -0.780   5.844  -0.885  0.0000  0.0000  0.0000
   24FIC    C24  480  -0.739   5.978  -0.907  0.0000  0.0000  0.0000
   24FIC    C25  481  -0.758   6.045  -1.019  0.0000  0.0000  0.0000
   24FIC    C26  482  -0.816   5.991  -1.124  0.0000  0.0000  0.0000
   24FIC    C27  483  -0.859   5.863  -1.111  0.0000  0.0000  0.0000
   24FIC    C28  484  -0.927   5.772  -1.211  0.0000  0.0000  0.0000
   24FIC    C29  485  -0.969   5.800  -1.353  0.0000  0.0000  0.0000
   24FIC    C30  486  -0.948   5.944  -1.392  0.0000  0.0000  0.0000
   24FIC    C31  487  -1.035   5.714  -1.448  0.0000  0.0000  0.0000
   25FIC     F1  488  -0.285   4.597   0.191  0.0000  0.0000  0.0000
   25FIC     F2  489  -0.230   4.345   0.253  0.0000  0.0000  0.0000
   25FIC     O1  490  -0.605   4.533  -0.226  0.0000  0.0000  0.0000
   25FIC     N5  491  -0.379   3.931   0.047  0.0000  0.0000  0.0000
   25FIC     N6  492  -0.574   3.915  -0.326  0.0000  0.0000  0.0000
   25FIC    C19  493  -0.667   4.254  -0.324  0.0000  0.0000  0.0000
   25FIC    C20  494  -0.585   4.291  -0.222  0.0000  0.0000  0.0000
   25FIC    C21  495  -0.560   4.431  -0.180  0.0000  0.0000  0.0000
   25FIC    C22  496  -0.476   4.423  -0.060  0.0000  0.0000  0.0000
   25FIC    C23  497  -0.423   4.529   0.013  0.0000  0.0000  0.0000
   25FIC    C24  498  -0.348   4.499   0.118  0.0000  0.0000  0.0000
   25FIC    C25  499  -0.315   4.366   0.150  0.0000  0.0000  0.0000
   25FIC    C26  500  -0.364   4.262   0.076  0.0000  0.0000  0.0000
   25FIC    C27  501  -0.445   4.291  -0.028  0.0000  0.0000  0.0000
   25FIC    C28  502  -0.510   4.205  -0.133  0.0000  0.0000  0.0000
   25FIC    C29  503  -0.496   4.067  -0.137  0.0000  0.0000  0.0000
   25FIC    C30  504  -0.432   3.993  -0.036  0.0000  0.0000  0.0000
   25FIC    C31  505  -0.541   3.985  -0.246  0.0000  0.0000  0.0000
   26BTD     S2  506  -0.043   4.487   1.199  0.0000  0.0000  0.0000
   26BTD     N1  507  -0.033   4.648   1.188  0.0000  0.0000  0.0000
   26BTD     N2  508  -0.122   4.456   1.061  0.0000  0.0000  0.0000
   26BTD     N3  509  -0.292   4.718   0.700  0.0000  0.0000  0.0000
   26BTD     N4  510  -0.178   4.978   0.877  0.0000  0.0000  0.0000
   26BTD     C5  511  -0.108   4.814   1.019  0.0000  0.0000  0.0000
   26BTD     C6  512  -0.091   4.683   1.075  0.0000  0.0000  0.0000
   26BTD     C7  513  -0.142   4.573   1.001  0.0000  0.0000  0.0000
   26BTD     C8  514  -0.204   4.594   0.877  0.0000  0.0000  0.0000
   26BTD    C15  515  -0.223   4.727   0.824  0.0000  0.0000  0.0000
   26BTD    C16  516  -0.175   4.838   0.900  0.0000  0.0000  0.0000
   26BTD    C43  517  -0.267   5.055   0.789  0.0000  0.0000  0.0000
   26BTD    C44  518  -0.419   5.045   0.819  0.0000  0.0000  0.0000
   26BTD    C45  519  -0.492   5.144   0.724  0.0000  0.0000  0.0000
   26BTD    C46  520  -0.642   5.102   0.726  0.0000  0.0000  0.0000
   26BTD    C47  521  -0.452   5.071   0.968  0.0000  0.0000  0.0000
   26BTD    C48  522  -0.467   5.212   1.032  0.0000  0.0000  0.0000
   26BTD    C49  523  -0.481   5.181   1.183  0.0000  0.0000  0.0000
   26BTD    C50  524  -0.577   5.135   1.296  0.0000  0.0000  0.0000
   26BTD    C75  525  -0.278   4.805   0.583  0.0000  0.0000  0.0000
   26BTD    C76  526  -0.130   4.835   0.548  0.0000  0.0000  0.0000
   26BTD    C77  527  -0.121   4.923   0.421  0.0000  0.0000  0.0000
   26BTD    C78  528   0.020   4.977   0.385  0.0000  0.0000  0.0000
   26BTD    C79  529  -0.044   4.708   0.527  0.0000  0.0000  0.0000
   26BTD    C80  530  -0.072   4.620   0.403  0.0000  0.0000  0.0000
   26BTD    C81  531   0.020   4.494   0.409  0.0000  0.0000  0.0000
   26BTD    C82  532  -0.011   4.369   0.496  0.0000  0.0000  0.0000
   27TTP     S1  533   0.018   5.004   1.205  0.0000  0.0000  0.0000
   27TTP     S5  534  -0.080   5.322   0.949  0.0000  0.0000  0.0000
   27TTP     C1  535   0.016   5.386   1.080  0.0000  0.0000  0.0000
   27TTP     C2  536   0.054   5.288   1.169  0.0000  0.0000  0.0000
   27TTP     C3  537  -0.001   5.166   1.135  0.0000  0.0000  0.0000
   27TTP     C4  538  -0.066   4.943   1.074  0.0000  0.0000  0.0000
   27TTP    C17  539  -0.117   5.033   0.983  0.0000  0.0000  0.0000
   27TTP    C18  540  -0.073   5.168   1.023  0.0000  0.0000  0.0000
   27TTP    C32  541   0.140   5.306   1.297  0.0000  0.0000  0.0000
   27TTP    C33  542   0.049   5.340   1.418  0.0000  0.0000  0.0000
   27TTP    C34  543   0.142   5.363   1.540  0.0000  0.0000  0.0000
   27TTP    C35  544   0.084   5.433   1.664  0.0000  0.0000  0.0000
   27TTP    C36  545   0.178   5.527   1.745  0.0000  0.0000  0.0000
   27TTP    C37  546   0.298   5.463   1.822  0.0000  0.0000  0.0000
   27TTP    C38  547   0.378   5.331   1.834  0.0000  0.0000  0.0000
   27TTP    C39  548   0.460   5.281   1.712  0.0000  0.0000  0.0000
   27TTP    C40  549   0.519   5.384   1.611  0.0000  0.0000  0.0000
   27TTP    C41  550   0.506   5.357   1.458  0.0000  0.0000  0.0000
   27TTP    C42  551   0.525   5.479   1.363  0.0000  0.0000  0.0000
   28TTP     S1  552  -0.286   4.335   0.762  0.0000  0.0000  0.0000
   28TTP     S5  553  -0.488   4.538   0.453  0.0000  0.0000  0.0000
   28TTP     C1  554  -0.519   4.365   0.432  0.0000  0.0000  0.0000
   28TTP     C2  555  -0.455   4.291   0.533  0.0000  0.0000  0.0000
   28TTP     C3  556  -0.378   4.371   0.617  0.0000  0.0000  0.0000
   28TTP     C4  557  -0.263   4.506   0.783  0.0000  0.0000  0.0000
   28TTP    C17  558  -0.317   4.581   0.679  0.0000  0.0000  0.0000
   28TTP    C18  559  -0.388   4.504   0.583  0.0000  0.0000  0.0000
   28TTP    C32  560  -0.447   4.136   0.539  0.0000  0.0000  0.0000
   28TTP    C33  561  -0.342   4.069   0.446  0.0000  0.0000  0.0000
   28TTP    C34  562  -0.335   3.915   0.461  0.0000  0.0000  0.0000
   28TTP    C35  563  -0.226   3.864   0.363  0.0000  0.0000  0.0000
   28TTP    C36  564  -0.242   3.710   0.358  0.0000  0.0000  0.0000
   28TTP    C37  565  -0.209   3.672   0.505  0.0000  0.0000  0.0000
   28TTP    C38  566  -0.204   3.518   0.535  0.0000  0.0000  0.0000
   28TTP    C39  567  -0.142   3.468   0.667  0.0000  0.0000  0.0000
   28TTP    C40  568  -0.233   3.400   0.774  0.0000  0.0000  0.0000
   28TTP    C41  569  -0.308   3.269   0.739  0.0000  0.0000  0.0000
   28TTP    C42  570  -0.330   3.161   0.848  0.0000  0.0000  0.0000
   29FIC     F1  571  -0.013   6.012   0.557  0.0000  0.0000  0.0000
   29FIC     F2  572   0.096   6.166   0.748  0.0000  0.0000  0.0000
   29FIC     O1  573  -0.068   5.553   0.817  0.0000  0.0000  0.0000
   29FIC     N5  574   0.248   6.054   1.193  0.0000  0.0000  0.0000
   29FIC     N6  575   0.200   5.673   1.372  0.0000  0.0000  0.0000
   29FIC    C19  576   0.060   5.523   1.090  0.0000  0.0000  0.0000
   29FIC    C20  577   0.051   5.634   1.010  0.0000  0.0000  0.0000
   29FIC    C21  578  -0.011   5.641   0.882  0.0000  0.0000  0.0000
   29FIC    C22  579   0.013   5.776   0.828  0.0000  0.0000  0.0000
   29FIC    C23  580  -0.016   5.825   0.698  0.0000  0.0000  0.0000
   29FIC    C24  581   0.012   5.954   0.673  0.0000  0.0000  0.0000
   29FIC    C25  582   0.072   6.033   0.783  0.0000  0.0000  0.0000
   29FIC    C26  583   0.108   5.989   0.899  0.0000  0.0000  0.0000
   29FIC    C27  584   0.073   5.854   0.927  0.0000  0.0000  0.0000
   29FIC    C28  585   0.097   5.767   1.043  0.0000  0.0000  0.0000
   29FIC    C29  586   0.157   5.810   1.160  0.0000  0.0000  0.0000
   29FIC    C30  587   0.205   5.954   1.172  0.0000  0.0000  0.0000
   29FIC    C31  588   0.175   5.733   1.279  0.0000  0.0000  0.0000
   30FIC     F1  589  -0.976   4.687  -0.160  0.0000  0.0000  0.0000
   30FIC     F2  590  -1.023   4.445  -0.241  0.0000  0.0000  0.0000
   30FIC     O1  591  -0.664   4.593   0.263  0.0000  0.0000  0.0000
   30FIC     N5  592  -0.846   4.024  -0.091  0.0000  0.0000  0.0000
   30FIC     N6  593  -0.655   3.969   0.287  0.0000  0.0000  0.0000
   30FIC    C19  594  -0.596   4.307   0.330  0.0000  0.0000  0.0000
   30FIC    C20  595  -0.675   4.353   0.231  0.0000  0.0000  0.0000
   30FIC    C21  596  -0.707   4.499   0.199  0.0000  0.0000  0.0000
   30FIC    C22  597  -0.786   4.501   0.083  0.0000  0.0000  0.0000
   30FIC    C23  598  -0.842   4.612   0.017  0.0000  0.0000  0.0000
   30FIC    C24  599  -0.918   4.595  -0.093  0.0000  0.0000  0.0000
   30FIC    C25  600  -0.947   4.466  -0.135  0.0000  0.0000  0.0000
   30FIC    C26  601  -0.892   4.347  -0.077  0.0000  0.0000  0.0000
   30FIC    C27  602  -0.809   4.368   0.036  0.0000  0.0000  0.0000
   30FIC    C28  603  -0.742   4.279   0.128  0.0000  0.0000  0.0000
   30FIC    C29  604  -0.747   4.139   0.116  0.0000  0.0000  0.0000
   30FIC    C30  605  -0.804   4.075  -0.003  0.0000  0.0000  0.0000
   30FIC    C31  606  -0.691   4.045   0.209  0.0000  0.0000  0.0000
   31BTD     S2  607   1.170  -4.495   1.196  0.0000  0.0000  0.0000
   31BTD     N1  608   1.156  -4.660   1.192  0.0000  0.0000  0.0000
   31BTD     N2  609   1.105  -4.456   1.054  0.0000  0.0000  0.0000
   31BTD     N3  610   0.903  -4.703   0.704  0.0000  0.0000  0.0000
   31BTD     N4  611   0.960  -4.974   0.897  0.0000  0.0000  0.0000
   31BTD     C5  612   1.060  -4.815   1.035  0.0000  0.0000  0.0000
   31BTD     C6  613   1.100  -4.687   1.079  0.0000  0.0000  0.0000
   31BTD     C7  614   1.071  -4.573   0.999  0.0000  0.0000  0.0000
   31BTD     C8  615   1.005  -4.590   0.875  0.0000  0.0000  0.0000
   31BTD    C15  616   0.969  -4.717   0.825  0.0000  0.0000  0.0000
   31BTD    C16  617   0.987  -4.839   0.910  0.0000  0.0000  0.0000
   31BTD    C43  618   0.856  -5.040   0.820  0.0000  0.0000  0.0000
   31BTD    C44  619   0.714  -4.988   0.856  0.0000  0.0000  0.0000
   31BTD    C45  620   0.676  -4.963   1.006  0.0000  0.0000  0.0000
   31BTD    C46  621   0.671  -5.094   1.087  0.0000  0.0000  0.0000
   31BTD    C47  622   0.599  -5.068   0.790  0.0000  0.0000  0.0000
   31BTD    C48  623   0.581  -5.062   0.637  0.0000  0.0000  0.0000
   31BTD    C49  624   0.493  -5.168   0.565  0.0000  0.0000  0.0000
   31BTD    C50  625   0.513  -5.192   0.413  0.0000  0.0000  0.0000
   31BTD    C75  626   0.892  -4.801   0.586  0.0000  0.0000  0.0000
   31BTD    C76  627   1.030  -4.864   0.551  0.0000  0.0000  0.0000
   31BTD    C77  628   1.028  -4.950   0.422  0.0000  0.0000  0.0000
   31BTD    C78  629   0.884  -4.919   0.376  0.0000  0.0000  0.0000
   31BTD    C79  630   1.151  -4.770   0.532  0.0000  0.0000  0.0000
   31BTD    C80  631   1.130  -4.639   0.453  0.0000  0.0000  0.0000
   31BTD    C81  632   1.226  -4.519   0.478  0.0000  0.0000  0.0000
   31BTD    C82  633   1.357  -4.515   0.394  0.0000  0.0000  0.0000
   32TTP     S1  634   1.135  -5.015   1.234  0.0000  0.0000  0.0000
   32TTP     S5  635   0.952  -5.322   1.016  0.0000  0.0000  0.0000
   32TTP     C1  636   1.012  -5.392   1.162  0.0000  0.0000  0.0000
   32TTP     C2  637   1.072  -5.300   1.239  0.0000  0.0000  0.0000
   32TTP     C3  638   1.074  -5.170   1.188  0.0000  0.0000  0.0000
   32TTP     C4  639   1.070  -4.944   1.092  0.0000  0.0000  0.0000
   32TTP    C17  640   1.009  -5.036   1.008  0.0000  0.0000  0.0000
   32TTP    C18  641   1.008  -5.168   1.060  0.0000  0.0000  0.0000
   32TTP    C32  642   1.130  -5.325   1.381  0.0000  0.0000  0.0000
   32TTP    C33  643   1.283  -5.310   1.403  0.0000  0.0000  0.0000
   32TTP    C34  644   1.341  -5.345   1.543  0.0000  0.0000  0.0000
   32TTP    C35  645   1.493  -5.339   1.514  0.0000  0.0000  0.0000
   32TTP    C36  646   1.540  -5.485   1.489  0.0000  0.0000  0.0000
   32TTP    C37  647   1.471  -5.599   1.572  0.0000  0.0000  0.0000
   32TTP    C38  648   1.556  -5.718   1.623  0.0000  0.0000  0.0000
   32TTP    C39  649   1.446  -5.763   1.721  0.0000  0.0000  0.0000
   32TTP    C40  650   1.490  -5.805   1.865  0.0000  0.0000  0.0000
   32TTP    C41  651   1.409  -5.913   1.943  0.0000  0.0000  0.0000
   32TTP    C42  652   1.472  -5.978   2.069  0.0000  0.0000  0.0000
   33TTP     S1  653   0.971  -4.324   0.750  0.0000  0.0000  0.0000
   33TTP     S5  654   0.749  -4.500   0.440  0.0000  0.0000  0.0000
   33TTP     C1  655   0.743  -4.324   0.422  0.0000  0.0000  0.0000
   33TTP     C2  656   0.814  -4.259   0.518  0.0000  0.0000  0.0000
   33TTP     C3  657   0.875  -4.347   0.607  0.0000  0.0000  0.0000
   33TTP     C4  658   0.969  -4.495   0.776  0.0000  0.0000  0.0000
   33TTP    C17  659   0.906  -4.566   0.674  0.0000  0.0000  0.0000
   33TTP    C18  660   0.848  -4.482   0.578  0.0000  0.0000  0.0000
   33TTP    C32  661   0.833  -4.105   0.528  0.0000  0.0000  0.0000
   33TTP    C33  662   0.950  -4.052   0.440  0.0000  0.0000  0.0000
   33TTP    C34  663   0.968  -3.899   0.445  0.0000  0.0000  0.0000
   33TTP    C35  664   0.997  -3.856   0.591  0.0000  0.0000  0.0000
   33TTP    C36  665   1.010  -3.705   0.624  0.0000  0.0000  0.0000
   33TTP    C37  666   0.887  -3.612   0.609  0.0000  0.0000  0.0000
   33TTP    C38  667   0.973  -3.485   0.638  0.0000  0.0000  0.0000
   33TTP    C39  668   0.880  -3.384   0.566  0.0000  0.0000  0.0000
   33TTP    C40  669   0.873  -3.387   0.411  0.0000  0.0000  0.0000
   33TTP    C41  670   0.767  -3.474   0.339  0.0000  0.0000  0.0000
   33TTP    C42  671   0.801  -3.617   0.290  0.0000  0.0000  0.0000
   34FIC     F1  672   0.679  -6.041   0.789  0.0000  0.0000  0.0000
   34FIC     F2  673   0.720  -6.176   1.018  0.0000  0.0000  0.0000
   34FIC     O1  674   0.889  -5.565   0.926  0.0000  0.0000  0.0000
   34FIC     N5  675   0.928  -6.048   1.428  0.0000  0.0000  0.0000
   34FIC     N6  676   1.100  -5.651   1.516  0.0000  0.0000  0.0000
   34FIC    C19  677   0.995  -5.526   1.204  0.0000  0.0000  0.0000
   34FIC    C20  678   0.943  -5.640   1.152  0.0000  0.0000  0.0000
   34FIC    C21  679   0.888  -5.651   1.018  0.0000  0.0000  0.0000
   34FIC    C22  680   0.841  -5.790   1.002  0.0000  0.0000  0.0000
   34FIC    C23  681   0.780  -5.844   0.885  0.0000  0.0000  0.0000
   34FIC    C24  682   0.739  -5.978   0.907  0.0000  0.0000  0.0000
   34FIC    C25  683   0.758  -6.045   1.019  0.0000  0.0000  0.0000
   34FIC    C26  684   0.816  -5.991   1.124  0.0000  0.0000  0.0000
   34FIC    C27  685   0.859  -5.863   1.111  0.0000  0.0000  0.0000
   34FIC    C28  686   0.927  -5.772   1.211  0.0000  0.0000  0.0000
   34FIC    C29  687   0.969  -5.800   1.353  0.0000  0.0000  0.0000
   34FIC    C30  688   0.948  -5.944   1.392  0.0000  0.0000  0.0000
   34FIC    C31  689   1.035  -5.714   1.448  0.0000  0.0000  0.0000
   35FIC     F1  690   0.285  -4.597  -0.191  0.0000  0.0000  0.0000
   35FIC     F2  691   0.230  -4.345  -0.253  0.0000  0.0000  0.0000
   35FIC     O1  692   0.605  -4.533   0.226  0.0000  0.0000  0.0000
   35FIC     N5  693   0.379  -3.931  -0.047  0.0000  0.0000  0.0000
   35FIC     N6  694   0.574  -3.915   0.326  0.0000  0.0000  0.0000
   35FIC    C19  695   0.667  -4.254   0.324  0.0000  0.0000  0.0000
   35FIC    C20  696   0.585  -4.291   0.222  0.0000  0.0000  0.0000
   35FIC    C21  697   0.560  -4.431   0.180  0.0000  0.0000  0.0000
   35FIC    C22  698   0.476  -4.423   0.060  0.0000  0.0000  0.0000
   35FIC    C23  699   0.423  -4.529  -0.013  0.0000  0.0000  0.0000
   35FIC    C24  700   0.348  -4.499  -0.118  0.0000  0.0000  0.0000
   35FIC    C25  701   0.315  -4.366  -0.150  0.0000  0.0000  0.0000
   35FIC    C26  702   0.364  -4.262  -0.076  0.0000  0.0000  0.0000
   35FIC    C27  703   0.445  -4.291   0.028  0.0000  0.0000  0.0000
   35FIC    C28  704   0.510  -4.205   0.133  0.0000  0.0000  0.0000
   35FIC    C29  705   0.496  -4.067   0.137  0.0000  0.0000  0.0000
   35FIC    C30  706   0.432  -3.993   0.036  0.0000  0.0000  0.0000
   35FIC    C31  707   0.541  -3.985   0.246  0.0000  0.0000  0.0000
   36BTD     S2  708   0.043  -4.487  -1.199  0.0000  0.0000  0.0000
   36BTD     N1  709   0.033  -4.648  -1.188  0.0000  0.0000  0.0000
   36BTD     N2  710   0.122  -4.456  -1.061  0.0000  0.0000  0.0000
   36BTD     N3  711   0.292  -4.718  -0.700  0.0000  0.0000  0.0000
   36BTD     N4  712   0.178  -4.978  -0.877  0.0000  0.0000  0.0000
   36BTD     C5  713   0.108  -4.814  -1.019  0.0000  0.0000  0.0000
   36BTD     C6  714   0.091  -4.683  -1.075  0.0000  0.0000  0.0000
   36BTD     C7  715   0.142  -4.573  -1.001  0.0000  0.0000  0.0000
   36BTD     C8  716   0.204  -4.594  -0.877  0.0000  0.0000  0.0000
   36BTD    C15  717   0.223  -4.727  -0.824  0.0000  0.0000  0.0000
   36BTD    C16  718   0.175  -4.838  -0.900  0.0000  0.0000  0.0000
   36BTD    C43  719   0.267  -5.055  -0.789  0.0000  0.0000  0.0000
   36BTD    C44  720   0.419  -5.045  -0.819  0.0000  0.0000  0.0000
   36BTD    C45  721   0.492  -5.144  -0.724  0.0000  0.0000  0.0000
   36BTD    C46  722   0.642  -5.102  -0.726  0.0000  0.0000  0.0000
   36BTD    C47  723   0.452  -5.071  -0.968  0.0000  0.0000  0.0000
   36BTD    C48  724   0.467  -5.212  -1.032  0.0000  0.0000  0.0000
   36BTD    C49  725   0.481  -5.181  -1.183  0.0000  0.0000  0.0000
   36BTD    C50  726   0.577  -5.135  -1.296  0.0000  0.0000  0.0000
   36BTD    C75  727   0.278  -4.805  -0.583  0.0000  0.0000  0.0000
   36BTD    C76  728   0.130  -4.835  -0.548  0.0000  0.0000  0.0000
   36BTD    C77  729   0.121  -4.923  -0.421  0.0000  0.0000  0.0000
   36BTD    C78  730  -0.020  -4.977  -0.385  0.0000  0.0000  0.0000
   36BTD    C79  731   0.044  -4.708  -0.527  0.0000  0.0000  0.0000
   36BTD    C80  732   0.072  -4.620  -0.403  0.0000  0.0000  0.0000
   36BTD    C81  733  -0.020  -4.494  -0.409  0.0000  0.0000  0.0000
   36BTD    C82  734   0.011  -4.369  -0.496  0.0000  0.0000  0.0000
   37TTP     S1  735  -0.018  -5.004  -1.205  0.0000  0.0000  0.0000
   37TTP     S5  736   0.080  -5.322  -0.949  0.0000  0.0000  0.0000
   37TTP     C1  737  -0.016  -5.386  -1.080  0.0000  0.0000  0.0000
   37TTP     C2  738  -0.054  -5.288  -1.169  0.0000  0.0000  0.0000
   37TTP     C3  739   0.001  -5.166  -1.135  0.0000  0.0000  0.0000
   37TTP     C4  740   0.066  -4.943  -1.074  0.0000  0.0000  0.0000
   37TTP    C17  741   0.117  -5.033  -0.983  0.0000  0.0000  0.0000
   37TTP    C18  742   0.073  -5.168  -1.023  0.0000  0.0000  0.0000
   37TTP    C32  743  -0.140  -5.306  -1.297  0.0000  0.0000  0.0000
   37TTP    C33  744  -0.049  -5.340  -1.418  0.0000  0.0000  0.0000
   37TTP    C34  745  -0.142  -5.363  -1.540  0.0000  0.0000  0.0000
   37TTP    C35  746  -0.084  -5.433  -1.664  0.0000  0.0000  0.0000
   37TTP    C36  747  -0.178  -5.527  -1.745  0.0000  0.0000  0.0000
   37TTP    C37  748  -0.298  -5.463  -1.822  0.0000  0.0000  0.0000
   37TTP    C38  749  -0.378  -5.331  -1.834  0.0000  0.0000  0.0000
   37TTP    C39  750  -0.460  -5.281  -1.712  0.0000  0.0000  0.0000
   37TTP    C40  751  -0.519  -5.384  -1.611  0.0000  0.0000  0.0000
   37TTP    C41  752  -0.506  -5.357  -1.458  0.0000  0.0000  0.0000
   37TTP    C42  753  -0.525  -5.479  -1.363  0.0000  0.0000  0.0000
   38TTP     S1  754   0.286  -4.335  -0.762  0.0000  0.0000  0.0000
   38TTP     S5  755   0.488  -4.538  -0.453  0.0000  0.0000  0.0000
   38TTP     C1  756   0.519  -4.365  -0.432  0.0000  0.0000  0.0000
   38TTP     C2  757   0.455  -4.291  -0.533  0.0000  0.0000  0.0000
   38TTP     C3  758   0.378  -4.371  -0.617  0.0000  0.0000  0.0000
   38TTP     C4  759   0.263  -4.506  -0.783  0.0000  0.0000  0.0000
   38TTP    C17  760   0.317  -4.581  -0.679  0.0000  0.0000  0.0000
   38TTP    C18  761   0.388  -4.504  -0.583  0.0000  0.0000  0.0000
   38TTP    C32  762   0.447  -4.136  -0.539  0.0000  0.0000  0.0000
   38TTP    C33  763   0.342  -4.069  -0.446  0.0000  0.0000  0.0000
   38TTP    C34  764   0.335  -3.915  -0.461  0.0000  0.0000  0.0000
   38TTP    C35  765   0.226  -3.864  -0.363  0.0000  0.0000  0.0000
   38TTP    C36  766   0.242  -3.710  -0.358  0.0000  0.0000  0.0000
   38TTP    C37  767   0.209  -3.672  -0.505  0.0000  0.0000  0.0000
   38TTP    C38  768   0.204  -3.518  -0.535  0.0000  0.0000  0.0000
   38TTP    C39  769   0.142  -3.468  -0.667  0.0000  0.0000  0.0000
   38TTP    C40  770   0.233  -3.400  -0.774  0.0000  0.0000  0.0000
   38TTP    C41  771   0.308  -3.269  -0.739  0.0000  0.0000  0.0000
   38TTP    C42  772   0.330  -3.161  -0.848  0.0000  0.0000  0.0000
   39FIC     F1  773   0.013  -6.012  -0.557  0.0000  0.0000  0.0000
   39FIC     F2  774  -0.096  -6.166  -0.748  0.0000  0.0000  0.0000
   39FIC     O1  775   0.068  -5.553  -0.817  0.0000  0.0000  0.0000
   39FIC     N5  776  -0.248  -6.054  -1.193  0.0000  0.0000  0.0000
   39FIC     N6  777  -0.200  -5.673  -1.372  0.0000  0.0000  0.0000
   39FIC    C19  778  -0.060  -5.523  -1.090  0.0000  0.0000  0.0000
   39FIC    C20  779  -0.051  -5.634  -1.010  0.0000  0.0000  0.0000
   39FIC    C21  780   0.011  -5.641  -0.882  0.0000  0.0000  0.0000
   39FIC    C22  781  -0.013  -5.776  -0.828  0.0000  0.0000  0.0000
   39FIC    C23  782   0.016  -5.825  -0.698  0.0000  0.0000  0.0000
   39FIC    C24  783  -0.012  -5.954  -0.673  0.0000  0.0000  0.0000
   39FIC    C25  784  -0.072  -6.033  -0.783  0.0000  0.0000  0.0000
   39FIC    C26  785  -0.108  -5.989  -0.899  0.0000  0.0000  0.0000
   39FIC    C27  786  -0.073  -5.854  -0.927  0.0000  0.0000  0.0000
   39FIC    C28  787  -0.097  -5.767  -1.043  0.0000  0.0000  0.0000
   39FIC    C29  788  -0.157  -5.810  -1.160  0.0000  0.0000  0.0000
   39FIC    C30  789  -0.205  -5.954  -1.172  0.0000  0.0000  0.0000
   39FIC    C31  790  -0.175  -5.733  -1.279  0.0000  0.0000  0.0000
   40FIC     F1  791   0.976  -4.687   0.160  0.0000  0.0000  0.0000
   40FIC     F2  792   1.023  -4.445   0.241  0.0000  0.0000  0.0000
   40FIC     O1  793   0.664  -4.593  -0.263  0.0000  0.0000  0.0000
   40FIC     N5  794   0.846  -4.024   0.091  0.0000  0.0000  0.0000
   40FIC     N6  795   0.655  -3.969  -0.287  0.0000  0.0000  0.0000
   40FIC    C19  796   0.596  -4.307  -0.330  0.0000  0.0000  0.0000
   40FIC    C20  797   0.675  -4.353  -0.231  0.0000  0.0000  0.0000
   40FIC    C21  798   0.707  -4.499  -0.199  0.0000  0.0000  0.0000
   40FIC    C22  799   0.786  -4.501  -0.083  0.0000  0.0000  0.0000
   40FIC    C23  800   0.842  -4.612  -0.017  0.0000  0.0000  0.0000
   40FIC    C24  801   0.918  -4.595   0.093  0.0000  0.0000  0.0000
   40FIC    C25  802   0.947  -4.466   0.135  0.0000  0.0000  0.0000
   40FIC    C26  803   0.892  -4.347   0.077  0.0000  0.0000  0.0000
   40FIC    C27  804   0.809  -4.368  -0.036  0.0000  0.0000  0.0000
   40FIC    C28  805   0.742  -4.279  -0.128  0.0000  0.0000  0.0000
   40FIC    C29  806   0.747  -4.139  -0.116  0.0000  0.0000  0.0000
   40FIC    C30  807   0.804  -4.075   0.003  0.0000  0.0000  0.0000
   40FIC    C31  808   0.691  -4.045  -0.209  0.0000  0.0000  0.0000
   41BTD     S2  809   0.859   1.605   4.192  0.0000  0.0000  0.0000
   41BTD     N1  810   0.846   1.769   4.187  0.0000  0.0000  0.0000
   41BTD     N2  811   0.794   1.565   4.049  0.0000  0.0000  0.0000
   41BTD     N3  812   0.593   1.812   3.700  0.0000  0.0000  0.0000
   41BTD     N4  813   0.649   2.084   3.892  0.0000  0.0000  0.0000
   41BTD     C5  814   0.750   1.925   4.031  0.0000  0.0000  0.0000
   41BTD     C6  815   0.790   1.797   4.075  0.0000  0.0000  0.0000
   41BTD     C7  816   0.761   1.682   3.995  0.0000  0.0000  0.0000
   41BTD     C8  817   0.694   1.699   3.870  0.0000  0.0000  0.0000
   41BTD    C15  818   0.658   1.827   3.820  0.0000  0.0000  0.0000
   41BTD    C16  819   0.677   1.948   3.906  0.0000  0.0000  0.0000
   41BTD    C43  820   0.546   2.149   3.815  0.0000  0.0000  0.0000
   41BTD    C44  821   0.404   2.097   3.852  0.0000  0.0000  0.0000
   41BTD    C45  822   0.366   2.072   4.001  0.0000  0.0000  0.0000
   41BTD    C46  823   0.360   2.204   4.083  0.0000  0.0000  0.0000
   41BTD    C47  824   0.288   2.177   3.786  0.0000  0.0000  0.0000
   41BTD    C48  825   0.271   2.171   3.632  0.0000  0.0000  0.0000
   41BTD    C49  826   0.182   2.277   3.560  0.0000  0.0000  0.0000
   41BTD    C50  827   0.203   2.302   3.408  0.0000  0.0000  0.0000
   41BTD    C75  828   0.581   1.910   3.581  0.0000  0.0000  0.0000
   41BTD    C76  829   0.719   1.974   3.546  0.0000  0.0000  0.0000
   41BTD    C77  830   0.718   2.060   3.417  0.0000  0.0000  0.0000
   41BTD    C78  831   0.573   2.028   3.372  0.0000  0.0000  0.0000
   41BTD    C79  832   0.840   1.880   3.528  0.0000  0.0000  0.0000
   41BTD    C80  833   0.819   1.748   3.449  0.0000  0.0000  0.0000
   41BTD    C81  834   0.915   1.629   3.473  0.0000  0.0000  0.0000
   41BTD    C82  835   1.047   1.624   3.390  0.0000  0.0000  0.0000
   42TTP     S1  836   0.825   2.124   4.230  0.0000  0.0000  0.0000
   42TTP     S5  837   0.642   2.431   4.011  0.0000  0.0000  0.0000
   42TTP     C1  838   0.701   2.501   4.157  0.0000  0.0000  0.0000
   42TTP     C2  839   0.762   2.410   4.235  0.0000  0.0000  0.0000
   42TTP     C3  840   0.764   2.279   4.183  0.0000  0.0000  0.0000
   42TTP     C4  841   0.759   2.053   4.088  0.0000  0.0000  0.0000
   42TTP    C17  842   0.699   2.145   4.003  0.0000  0.0000  0.0000
   42TTP    C18  843   0.698   2.278   4.055  0.0000  0.0000  0.0000
   42TTP    C32  844   0.820   2.434   4.376  0.0000  0.0000  0.0000
   42TTP    C33  845   0.972   2.419   4.399  0.0000  0.0000  0.0000
   42TTP    C34  846   1.030   2.454   4.538  0.0000  0.0000  0.0000
   42TTP    C35  847   1.183   2.448   4.509  0.0000  0.0000  0.0000
   42TTP    C36  848   1.229   2.595   4.485  0.0000  0.0000  0.0000
   42TTP    C37  849   1.161   2.708   4.567  0.0000  0.0000  0.0000
   42TTP    C38  850   1.245   2.828   4.619  0.0000  0.0000  0.0000
   42TTP    C39  851   1.135   2.873   4.717  0.0000  0.0000  0.0000
   42TTP    C40  852   1.180   2.914   4.861  0.0000  0.0000  0.0000
   42TTP    C41  853   1.099   3.022   4.938  0.0000  0.0000  0.0000
   42TTP    C42  854   1.161   3.088   5.064  0.0000  0.0000  0.0000
   43TTP     S1  855   0.661   1.434   3.746  0.0000  0.0000  0.0000
   43TTP     S5  856   0.439   1.609   3.435  0.0000  0.0000  0.0000
   43TTP     C1  857   0.433   1.434   3.418  0.0000  0.0000  0.0000
   43TTP     C2  858   0.504   1.369   3.514  0.0000  0.0000  0.0000
   43TTP     C3  859   0.565   1.457   3.603  0.0000  0.0000  0.0000
   43TTP     C4  860   0.659   1.604   3.772  0.0000  0.0000  0.0000
   43TTP    C17  861   0.596   1.676   3.669  0.0000  0.0000  0.0000
   43TTP    C18  862   0.537   1.591   3.574  0.0000  0.0000  0.0000
   43TTP    C32  863   0.522   1.215   3.523  0.0000  0.0000  0.0000
   43TTP    C33  864   0.640   1.162   3.435  0.0000  0.0000  0.0000
   43TTP    C34  865   0.658   1.009   3.440  0.0000  0.0000  0.0000
   43TTP    C35  866   0.686   0.966   3.587  0.0000  0.0000  0.0000
   43TTP    C36  867   0.700   0.815   3.619  0.0000  0.0000  0.0000
   43TTP    C37  868   0.577   0.721   3.605  0.0000  0.0000  0.0000
   43TTP    C38  869   0.663   0.594   3.633  0.0000  0.0000  0.0000
   43TTP    C39  870   0.569   0.494   3.562  0.0000  0.0000  0.0000
   43TTP    C40  871   0.563   0.496   3.406  0.0000  0.0000  0.0000
   43TTP    C41  872   0.456   0.583   3.335  0.0000  0.0000  0.0000
   43TTP    C42  873   0.491   0.727   3.285  0.0000  0.0000  0.0000
   44FIC     F1  874   0.369   3.150   3.785  0.0000  0.0000  0.0000
   44FIC     F2  875   0.410   3.286   4.014  0.0000  0.0000  0.0000
   44FIC     O1  876   0.579   2.674   3.922  0.0000  0.0000  0.0000
   44FIC     N5  877   0.618   3.157   4.423  0.0000  0.0000  0.0000
   44FIC     N6  878   0.789   2.760   4.512  0.0000  0.0000  0.0000
   44FIC    C19  879   0.684   2.636   4.199  0.0000  0.0000  0.0000
   44FIC    C20  880   0.632   2.750   4.147  0.0000  0.0000  0.0000
   44FIC    C21  881   0.577   2.761   4.013  0.0000  0.0000  0.0000
   44FIC    C22  882   0.531   2.900   3.998  0.0000  0.0000  0.0000
   44FIC    C23  883   0.470   2.954   3.881  0.0000  0.0000  0.0000
   44FIC    C24  884   0.428   3.087   3.902  0.0000  0.0000  0.0000
   44FIC    C25  885   0.448   3.155   4.014  0.0000  0.0000  0.0000
   44FIC    C26  886   0.505   3.101   4.119  0.0000  0.0000  0.0000
   44FIC    C27  887   0.548   2.973   4.106  0.0000  0.0000  0.0000
   44FIC    C28  888   0.616   2.881   4.207  0.0000  0.0000  0.0000
   44FIC    C29  889   0.658   2.909   4.348  0.0000  0.0000  0.0000
   44FIC    C30  890   0.638   3.053   4.387  0.0000  0.0000  0.0000
   44FIC    C31  891   0.725   2.823   4.443  0.0000  0.0000  0.0000
   45FIC     F1  892  -0.026   1.706   2.805  0.0000  0.0000  0.0000
   45FIC     F2  893  -0.080   1.455   2.742  0.0000  0.0000  0.0000
   45FIC     O1  894   0.295   1.643   3.221  0.0000  0.0000  0.0000
   45FIC     N5  895   0.069   1.041   2.948  0.0000  0.0000  0.0000
   45FIC     N6  896   0.263   1.024   3.322  0.0000  0.0000  0.0000
   45FIC    C19  897   0.356   1.363   3.320  0.0000  0.0000  0.0000
   45FIC    C20  898   0.275   1.400   3.218  0.0000  0.0000  0.0000
   45FIC    C21  899   0.250   1.541   3.175  0.0000  0.0000  0.0000
   45FIC    C22  900   0.165   1.532   3.055  0.0000  0.0000  0.0000
   45FIC    C23  901   0.113   1.639   2.982  0.0000  0.0000  0.0000
   45FIC    C24  902   0.037   1.608   2.878  0.0000  0.0000  0.0000
   45FIC    C25  903   0.005   1.475   2.845  0.0000  0.0000  0.0000
   45FIC    C26  904   0.053   1.372   2.919  0.0000  0.0000  0.0000
   45FIC    C27  905   0.135   1.401   3.024  0.0000  0.0000  0.0000
   45FIC    C28  906   0.199   1.315   3.128  0.0000  0.0000  0.0000
   45FIC    C29  907   0.186   1.177   3.133  0.0000  0.0000  0.0000
   45FIC    C30  908   0.121   1.103   3.031  0.0000  0.0000  0.0000
   45FIC    C31  909   0.230   1.094   3.242  0.0000  0.0000  0.0000
   46BTD     S2  910  -0.267   1.597   1.797  0.0000  0.0000  0.0000
   46BTD     N1  911  -0.278   1.758   1.808  0.0000  0.0000  0.0000
   46BTD     N2  912  -0.188   1.565   1.934  0.0000  0.0000  0.0000
   46BTD     N3  913  -0.019   1.827   2.296  0.0000  0.0000  0.0000
   46BTD     N4  914  -0.132   2.087   2.118  0.0000  0.0000  0.0000
   46BTD     C5  915  -0.202   1.923   1.977  0.0000  0.0000  0.0000
   46BTD     C6  916  -0.219   1.793   1.921  0.0000  0.0000  0.0000
   46BTD     C7  917  -0.168   1.682   1.994  0.0000  0.0000  0.0000
   46BTD     C8  918  -0.107   1.703   2.119  0.0000  0.0000  0.0000
   46BTD    C15  919  -0.088   1.836   2.172  0.0000  0.0000  0.0000
   46BTD    C16  920  -0.136   1.948   2.095  0.0000  0.0000  0.0000
   46BTD    C43  921  -0.044   2.164   2.207  0.0000  0.0000  0.0000
   46BTD    C44  922   0.109   2.154   2.177  0.0000  0.0000  0.0000
   46BTD    C45  923   0.181   2.253   2.271  0.0000  0.0000  0.0000
   46BTD    C46  924   0.331   2.211   2.270  0.0000  0.0000  0.0000
   46BTD    C47  925   0.142   2.181   2.027  0.0000  0.0000  0.0000
   46BTD    C48  926   0.156   2.322   1.964  0.0000  0.0000  0.0000
   46BTD    C49  927   0.170   2.290   1.813  0.0000  0.0000  0.0000
   46BTD    C50  928   0.267   2.244   1.699  0.0000  0.0000  0.0000
   46BTD    C75  929  -0.032   1.915   2.412  0.0000  0.0000  0.0000
   46BTD    C76  930  -0.181   1.945   2.448  0.0000  0.0000  0.0000
   46BTD    C77  931  -0.190   2.033   2.575  0.0000  0.0000  0.0000
   46BTD    C78  932  -0.331   2.086   2.610  0.0000  0.0000  0.0000
   46BTD    C79  933  -0.266   1.818   2.468  0.0000  0.0000  0.0000
   46BTD    C80  934  -0.239   1.729   2.592  0.0000  0.0000  0.0000
   46BTD    C81  935  -0.331   1.604   2.587  0.0000  0.0000  0.0000
   46BTD    C82  936  -0.300   1.478   2.500  0.0000  0.0000  0.0000
   47TTP     S1  937  -0.329   2.113   1.790  0.0000  0.0000  0.0000
   47TTP     S5  938  -0.230   2.432   2.047  0.0000  0.0000  0.0000
   47TTP     C1  939  -0.327   2.495   1.915  0.0000  0.0000  0.0000
   47TTP     C2  940  -0.365   2.398   1.827  0.0000  0.0000  0.0000
   47TTP     C3  941  -0.309   2.275   1.860  0.0000  0.0000  0.0000
   47TTP     C4  942  -0.244   2.052   1.921  0.0000  0.0000  0.0000
   47TTP    C17  943  -0.193   2.143   2.012  0.0000  0.0000  0.0000
   47TTP    C18  944  -0.237   2.277   1.972  0.0000  0.0000  0.0000
   47TTP    C32  945  -0.450   2.415   1.699  0.0000  0.0000  0.0000
   47TTP    C33  946  -0.360   2.449   1.577  0.0000  0.0000  0.0000
   47TTP    C34  947  -0.453   2.472   1.456  0.0000  0.0000  0.0000
   47TTP    C35  948  -0.394   2.543   1.331  0.0000  0.0000  0.0000
   47TTP    C36  949  -0.489   2.637   1.250  0.0000  0.0000  0.0000
   47TTP    C37  950  -0.608   2.573   1.173  0.0000  0.0000  0.0000
   47TTP    C38  951  -0.689   2.441   1.161  0.0000  0.0000  0.0000
   47TTP    C39  952  -0.771   2.391   1.284  0.0000  0.0000  0.0000
   47TTP    C40  953  -0.830   2.493   1.384  0.0000  0.0000  0.0000
   47TTP    C41  954  -0.817   2.467   1.537  0.0000  0.0000  0.0000
   47TTP    C42  955  -0.835   2.588   1.632  0.0000  0.0000  0.0000
   48TTP     S1  956  -0.024   1.444   2.234  0.0000  0.0000  0.0000
   48TTP     S5  957   0.178   1.647   2.542  0.0000  0.0000  0.0000
   48TTP     C1  958   0.209   1.474   2.564  0.0000  0.0000  0.0000
   48TTP     C2  959   0.144   1.400   2.463  0.0000  0.0000  0.0000
   48TTP     C3  960   0.067   1.480   2.379  0.0000  0.0000  0.0000
   48TTP     C4  961  -0.047   1.616   2.213  0.0000  0.0000  0.0000
   48TTP    C17  962   0.007   1.691   2.317  0.0000  0.0000  0.0000
   48TTP    C18  963   0.077   1.614   2.412  0.0000  0.0000  0.0000
   48TTP    C32  964   0.137   1.246   2.456  0.0000  0.0000  0.0000
   48TTP    C33  965   0.032   1.179   2.550  0.0000  0.0000  0.0000
   48TTP    C34  966   0.025   1.024   2.534  0.0000  0.0000  0.0000
   48TTP    C35  967  -0.084   0.974   2.632  0.0000  0.0000  0.0000
   48TTP    C36  968  -0.068   0.820   2.638  0.0000  0.0000  0.0000
   48TTP    C37  969  -0.101   0.782   2.490  0.0000  0.0000  0.0000
   48TTP    C38  970  -0.107   0.628   2.461  0.0000  0.0000  0.0000
   48TTP    C39  971  -0.169   0.577   2.329  0.0000  0.0000  0.0000
   48TTP    C40  972  -0.078   0.509   2.222  0.0000  0.0000  0.0000
   48TTP    C41  973  -0.003   0.378   2.256  0.0000  0.0000  0.0000
   48TTP    C42  974   0.019   0.271   2.147  0.0000  0.0000  0.0000
   49FIC     F1  975  -0.297   3.122   2.439  0.0000  0.0000  0.0000
   49FIC     F2  976  -0.406   3.276   2.247  0.0000  0.0000  0.0000
   49FIC     O1  977  -0.243   2.663   2.178  0.0000  0.0000  0.0000
   49FIC     N5  978  -0.559   3.163   1.802  0.0000  0.0000  0.0000
   49FIC     N6  979  -0.511   2.782   1.623  0.0000  0.0000  0.0000
   49FIC    C19  980  -0.371   2.632   1.905  0.0000  0.0000  0.0000
   49FIC    C20  981  -0.362   2.743   1.986  0.0000  0.0000  0.0000
   49FIC    C21  982  -0.299   2.751   2.113  0.0000  0.0000  0.0000
   49FIC    C22  983  -0.324   2.885   2.167  0.0000  0.0000  0.0000
   49FIC    C23  984  -0.294   2.935   2.298  0.0000  0.0000  0.0000
   49FIC    C24  985  -0.323   3.064   2.322  0.0000  0.0000  0.0000
   49FIC    C25  986  -0.383   3.143   2.213  0.0000  0.0000  0.0000
   49FIC    C26  987  -0.419   3.098   2.096  0.0000  0.0000  0.0000
   49FIC    C27  988  -0.384   2.963   2.068  0.0000  0.0000  0.0000
   49FIC    C28  989  -0.408   2.877   1.952  0.0000  0.0000  0.0000
   49FIC    C29  990  -0.468   2.920   1.836  0.0000  0.0000  0.0000
   49FIC    C30  991  -0.516   3.063   1.823  0.0000  0.0000  0.0000
   49FIC    C31  992  -0.485   2.842   1.717  0.0000  0.0000  0.0000
   50FIC     F1  993   0.665   1.797   3.155  0.0000  0.0000  0.0000
   50FIC     F2  994   0.712   1.554   3.236  0.0000  0.0000  0.0000
   50FIC     O1  995   0.353   1.703   2.733  0.0000  0.0000  0.0000
   50FIC     N5  996   0.535   1.134   3.086  0.0000  0.0000  0.0000
   50FIC     N6  997   0.345   1.079   2.708  0.0000  0.0000  0.0000
   50FIC    C19  998   0.285   1.416   2.665  0.0000  0.0000  0.0000
   50FIC    C20  999   0.365   1.462   2.764  0.0000  0.0000  0.0000
   50FIC    C21 1000   0.396   1.609   2.797  0.0000  0.0000  0.0000
   50FIC    C22 1001   0.475   1.611   2.912  0.0000  0.0000  0.0000
   50FIC    C23 1002   0.532   1.721   2.979  0.0000  0.0000  0.0000
   50FIC    C24 1003   0.608   1.704   3.088  0.0000  0.0000  0.0000
   50FIC    C25 1004   0.637   1.575   3.131  0.0000  0.0000  0.0000
   50FIC    C26 1005   0.581   1.456   3.072  0.0000  0.0000  0.0000
   50FIC    C27 1006   0.498   1.478   2.960  0.0000  0.0000  0.0000
   50FIC    C28 1007   0.432   1.388   2.867  0.0000  0.0000  0.0000
   50FIC    C29 1008   0.436   1.249   2.879  0.0000  0.0000  0.0000
   50FIC    C30 1009   0.493   1.184   2.998  0.0000  0.0000  0.0000
   50FIC    C31 1010   0.380   1.155   2.786  0.0000  0.0000  0.0000
   51BTD     S2 1011  -1.273  -1.605  -0.198  0.0000  0.0000  0.0000
   51BTD     N1 1012  -1.260  -1.769  -0.193  0.0000  0.0000  0.0000
   51BTD     N2 1013  -1.208  -1.565  -0.055  0.0000  0.0000  0.0000
   51BTD     N3 1014  -1.007  -1.812   0.294  0.0000  0.0000  0.0000
   51BTD     N4 1015  -1.063  -2.084   0.102  0.0000  0.0000  0.0000
   51BTD     C5 1016  -1.164  -1.925  -0.037  0.0000  0.0000  0.0000
   51BTD     C6 1017  -1.204  -1.797  -0.081  0.0000  0.0000  0.0000
   51BTD     C7 1018  -1.175  -1.682  -0.001  0.0000  0.0000  0.0000
   51BTD     C8 1019  -1.108  -1.699   0.124  0.0000  0.0000  0.0000
   51BTD    C15 1020  -1.072  -1.827   0.174  0.0000  0.0000  0.0000
   51BTD    C16 1021  -1.091  -1.948   0.088  0.0000  0.0000  0.0000
   51BTD    C43 1022  -0.960  -2.149   0.179  0.0000  0.0000  0.0000
   51BTD    C44 1023  -0.818  -2.097   0.142  0.0000  0.0000  0.0000
   51BTD    C45 1024  -0.780  -2.072  -0.007  0.0000  0.0000  0.0000
   51BTD    C46 1025  -0.774  -2.204  -0.089  0.0000  0.0000  0.0000
   51BTD    C47 1026  -0.702  -2.177   0.208  0.0000  0.0000  0.0000
   51BTD    C48 1027  -0.685  -2.171   0.362  0.0000  0.0000  0.0000
   51BTD    C49 1028  -0.596  -2.277   0.434  0.0000  0.0000  0.0000
   51BTD    C50 1029  -0.617  -2.302   0.586  0.0000  0.0000  0.0000
   51BTD    C75 1030  -0.995  -1.910   0.413  0.0000  0.0000  0.0000
   51BTD    C76 1031  -1.133  -1.974   0.448  0.0000  0.0000  0.0000
   51BTD    C77 1032  -1.132  -2.060   0.577  0.0000  0.0000  0.0000
   51BTD    C78 1033  -0.987  -2.028   0.622  0.0000  0.0000  0.0000
   51BTD    C79 1034  -1.254  -1.880   0.466  0.0000  0.0000  0.0000
   51BTD    C80 1035  -1.233  -1.748   0.545  0.0000  0.0000  0.0000
   51BTD    C81 1036  -1.329  -1.629   0.521  0.0000  0.0000  0.0000
   51BTD    C82 1037  -1.461  -1.624   0.604  0.0000  0.0000  0.0000
   52TTP     S1 1038  -1.239  -2.124  -0.236  0.0000  0.0000  0.0000
   52TTP     S5 1039  -1.056  -2.431  -0.017  0.0000  0.0000  0.0000
   52TTP     C1 1040  -1.115  -2.501  -0.163  0.0000  0.0000  0.0000
   52TTP     C2 1041  -1.176  -2.410  -0.241  0.0000  0.0000  0.0000
   52TTP     C3 1042  -1.178  -2.279  -0.189  0.0000  0.0000  0.0000
   52TTP     C4 1043  -1.173  -2.053  -0.094  0.0000  0.0000  0.0000
   52TTP    C17 1044  -1.113  -2.145  -0.009  0.0000  0.0000  0.0000
   52TTP    C18 1045  -1.112  -2.278  -0.061  0.0000  0.0000  0.0000
   52TTP    C32 1046  -1.234  -2.434  -0.382  0.0000  0.0000  0.0000
   52TTP    C33 1047  -1.386  -2.419  -0.405  0.0000  0.0000  0.0000
   52TTP    C34 1048  -1.444  -2.454  -0.544  0.0000  0.0000  0.0000
   52TTP    C35 1049  -1.597  -2.448  -0.515  0.0000  0.0000  0.0000
   52TTP    C36 1050  -1.643  -2.595  -0.491  0.0000  0.0000  0.0000
   52TTP    C37 1051  -1.575  -2.708  -0.573  0.0000  0.0000  0.0000
   52TTP    C38 1052  -1.659  -2.828  -0.625  0.0000  0.0000  0.0000
   52TTP    C39 1053  -1.549  -2.873  -0.723  0.0000  0.0000  0.0000
   52TTP    C40 1054  -1.594  -2.914  -0.867  0.0000  0.0000  0.0000
   52TTP    C41 1055  -1.513  -3.022  -0.944  0.0000  0.0000  0.0000
   52TTP    C42 1056  -1.575  -3.088  -1.070  0.0000  0.0000  0.0000
   53TTP     S1 1057  -1.075  -1.434   0.248  0.0000  0.0000  0.0000
   53TTP     S5 1058  -0.853  -1.609   0.559  0.0000  0.0000  0.0000
   53TTP     C1 1059  -0.847  -1.434   0.576  0.0000  0.0000  0.0000
   53TTP     C2 1060  -0.918  -1.369   0.480  0.0000  0.0000  0.0000
   53TTP     C3 1061  -0.979  -1.457   0.391  0.0000  0.0000  0.0000
   53TTP     C4 1062  -1.073  -1.604   0.222  0.0000  0.0000  0.0000
   53TTP    C17 1063  -1.010  -1.676   0.325  0.0000  0.0000  0.0000
   53TTP    C18 1064  -0.951  -1.591   0.420  0.0000  0.0000  0.0000
   53TTP    C32 1065  -0.936  -1.215   0.471  0.0000  0.0000  0.0000
   53TTP    C33 1066  -1.054  -1.162   0.559  0.0000  0.0000  0.0000
   53TTP    C34 1067  -1.072  -1.009   0.554  0.0000  0.0000  0.0000
   53TTP    C35 1068  -1.100  -0.966   0.407  0.0000  0.0000  0.0000
   53TTP    C36 1069  -1.114  -0.815   0.375  0.0000  0.0000  0.0000
   53TTP    C37 1070  -0.991  -0.721   0.389  0.0000  0.0000  0.0000
   53TTP    C38 1071  -1.077  -0.594   0.361  0.0000  0.0000  0.0000
   53TTP    C39 1072  -0.983  -0.494   0.432  0.0000  0.0000  0.0000
   53TTP    C40 1073  -0.977  -0.496   0.588  0.0000  0.0000  0.0000
   53TTP    C41 1074  -0.870  -0.583   0.659  0.0000  0.0000  0.0000
   53TTP    C42 1075  -0.905  -0.727   0.709  0.0000  0.0000  0.0000
   54FIC     F1 1076  -0.783  -3.150   0.209  0.0000  0.0000  0.0000
   54FIC     F2 1077  -0.824  -3.286  -0.020  0.0000  0.0000  0.0000
   54FIC     O1 1078  -0.993  -2.674   0.072  0.0000  0.0000  0.0000
   54FIC     N5 1079  -1.032  -3.157  -0.429  0.0000  0.0000  0.0000
   54FIC     N6 1080  -1.203  -2.760  -0.518  0.0000  0.0000  0.0000
   54FIC    C19 1081  -1.098  -2.636  -0.205  0.0000  0.0000  0.0000
   54FIC    C20 1082  -1.046  -2.750  -0.153  0.0000  0.0000  0.0000
   54FIC    C21 1083  -0.991  -2.761  -0.019  0.0000  0.0000  0.0000
   54FIC    C22 1084  -0.945  -2.900  -0.004  0.0000  0.0000  0.0000
   54FIC    C23 1085  -0.884  -2.954   0.113  0.0000  0.0000  0.0000
   54FIC    C24 1086  -0.842  -3.087   0.092  0.0000  0.0000  0.0000
   54FIC    C25 1087  -0.862  -3.155  -0.020  0.0000  0.0000  0.0000
   54FIC    C26 1088  -0.919  -3.101  -0.125  0.0000  0.0000  0.0000
   54FIC    C27 1089  -0.962  -2.973  -0.112  0.0000  0.0000  0.0000
   54FIC    C28 1090  -1.030  -2.881  -0.213  0.0000  0.0000  0.0000
   54FIC    C29 1091  -1.072  -2.909  -0.354  0.0000  0.0000  0.0000
   54FIC    C30 1092  -1.051  -3.053  -0.393  0.0000  0.0000  0.0000
   54FIC    C31 1093  -1.139  -2.823  -0.449  0.0000  0.0000  0.0000
   55FIC     F1 1094  -0.388  -1.706   1.189  0.0000  0.0000  0.0000
   55FIC     F2 1095  -0.334  -1.455   1.252  0.0000  0.0000  0.0000
   55FIC     O1 1096  -0.709  -1.643   0.773  0.0000  0.0000  0.0000
   55FIC     N5 1097  -0.483  -1.041   1.046  0.0000  0.0000  0.0000
   55FIC     N6 1098  -0.677  -1.024   0.672  0.0000  0.0000  0.0000
   55FIC    C19 1099  -0.770  -1.363   0.674  0.0000  0.0000  0.0000
   55FIC    C20 1100  -0.689  -1.400   0.776  0.0000  0.0000  0.0000
   55FIC    C21 1101  -0.664  -1.541   0.819  0.0000  0.0000  0.0000
   55FIC    C22 1102  -0.579  -1.532   0.939  0.0000  0.0000  0.0000
   55FIC    C23 1103  -0.527  -1.639   1.012  0.0000  0.0000  0.0000
   55FIC    C24 1104  -0.451  -1.608   1.116  0.0000  0.0000  0.0000
   55FIC    C25 1105  -0.419  -1.475   1.149  0.0000  0.0000  0.0000
   55FIC    C26 1106  -0.467  -1.372   1.075  0.0000  0.0000  0.0000
   55FIC    C27 1107  -0.549  -1.401   0.970  0.0000  0.0000  0.0000
   55FIC    C28 1108  -0.613  -1.315   0.866  0.0000  0.0000  0.0000
   55FIC    C29 1109  -0.600  -1.177   0.861  0.0000  0.0000  0.0000
   55FIC    C30 1110  -0.535  -1.103   0.963  0.0000  0.0000  0.0000
   55FIC    C31 1111  -0.644  -1.094   0.752  0.0000  0.0000  0.0000
   56BTD     S2 1112  -0.147  -1.597   2.197  0.0000  0.0000  0.0000
   56BTD     N1 1113  -0.136  -1.758   2.186  0.0000  0.0000  0.0000
   56BTD     N2 1114  -0.226  -1.565   2.060  0.0000  0.0000  0.0000
   56BTD     N3 1115  -0.395  -1.827   1.698  0.0000  0.0000  0.0000
   56BTD     N4 1116  -0.282  -2.087   1.876  0.0000  0.0000  0.0000
   56BTD     C5 1117  -0.212  -1.923   2.017  0.0000  0.0000  0.0000
   56BTD     C6 1118  -0.195  -1.793   2.073  0.0000  0.0000  0.0000
   56BTD     C7 1119  -0.246  -1.682   2.000  0.0000  0.0000  0.0000
   56BTD     C8 1120  -0.307  -1.703   1.875  0.0000  0.0000  0.0000
   56BTD    C15 1121  -0.326  -1.836   1.822  0.0000  0.0000  0.0000
   56BTD    C16 1122  -0.278  -1.948   1.899  0.0000  0.0000  0.0000
   56BTD    C43 1123  -0.370  -2.164   1.787  0.0000  0.0000  0.0000
   56BTD    C44 1124  -0.523  -2.154   1.817  0.0000  0.0000  0.0000
   56BTD    C45 1125  -0.595  -2.253   1.723  0.0000  0.0000  0.0000
   56BTD    C46 1126  -0.745  -2.211   1.724  0.0000  0.0000  0.0000
   56BTD    C47 1127  -0.556  -2.181   1.967  0.0000  0.0000  0.0000
   56BTD    C48 1128  -0.570  -2.322   2.030  0.0000  0.0000  0.0000
   56BTD    C49 1129  -0.584  -2.290   2.181  0.0000  0.0000  0.0000
   56BTD    C50 1130  -0.681  -2.244   2.295  0.0000  0.0000  0.0000
   56BTD    C75 1131  -0.382  -1.915   1.582  0.0000  0.0000  0.0000
   56BTD    C76 1132  -0.233  -1.945   1.546  0.0000  0.0000  0.0000
   56BTD    C77 1133  -0.224  -2.033   1.419  0.0000  0.0000  0.0000
   56BTD    C78 1134  -0.083  -2.086   1.384  0.0000  0.0000  0.0000
   56BTD    C79 1135  -0.148  -1.818   1.526  0.0000  0.0000  0.0000
   56BTD    C80 1136  -0.175  -1.729   1.402  0.0000  0.0000  0.0000
   56BTD    C81 1137  -0.083  -1.604   1.407  0.0000  0.0000  0.0000
   56BTD    C82 1138  -0.114  -1.478   1.494  0.0000  0.0000  0.0000
   57TTP     S1 1139  -0.085  -2.113   2.204  0.0000  0.0000  0.0000
   57TTP     S5 1140  -0.184  -2.432   1.947  0.0000  0.0000  0.0000
   57TTP     C1 1141  -0.087  -2.495   2.079  0.0000  0.0000  0.0000
   57TTP     C2 1142  -0.049  -2.398   2.167  0.0000  0.0000  0.0000
   57TTP     C3 1143  -0.105  -2.275   2.134  0.0000  0.0000  0.0000
   57TTP     C4 1144  -0.170  -2.052   2.073  0.0000  0.0000  0.0000
   57TTP    C17 1145  -0.221  -2.143   1.982  0.0000  0.0000  0.0000
   57TTP    C18 1146  -0.177  -2.277   2.022  0.0000  0.0000  0.0000
   57TTP    C32 1147   0.036  -2.415   2.295  0.0000  0.0000  0.0000
   57TTP    C33 1148  -0.054  -2.449   2.417  0.0000  0.0000  0.0000
   57TTP    C34 1149   0.039  -2.472   2.538  0.0000  0.0000  0.0000
   57TTP    C35 1150  -0.020  -2.543   2.663  0.0000  0.0000  0.0000
   57TTP    C36 1151   0.075  -2.637   2.744  0.0000  0.0000  0.0000
   57TTP    C37 1152   0.194  -2.573   2.821  0.0000  0.0000  0.0000
   57TTP    C38 1153   0.275  -2.441   2.833  0.0000  0.0000  0.0000
   57TTP    C39 1154   0.357  -2.391   2.710  0.0000  0.0000  0.0000
   57TTP    C40 1155   0.416  -2.493   2.610  0.0000  0.0000  0.0000
   57TTP    C41 1156   0.403  -2.467   2.457  0.0000  0.0000  0.0000
   57TTP    C42 1157   0.421  -2.588   2.362  0.0000  0.0000  0.0000
   58TTP     S1 1158  -0.390  -1.444   1.760  0.0000  0.0000  0.0000
   58TTP     S5 1159  -0.592  -1.647   1.452  0.0000  0.0000  0.0000
   58TTP     C1 1160  -0.623  -1.474   1.430  0.0000  0.0000  0.0000
   58TTP     C2 1161  -0.558  -1.400   1.531  0.0000  0.0000  0.0000
   58TTP     C3 1162  -0.481  -1.480   1.615  0.0000  0.0000  0.0000
   58TTP     C4 1163  -0.367  -1.616   1.781  0.0000  0.0000  0.0000
   58TTP    C17 1164  -0.421  -1.691   1.677  0.0000  0.0000  0.0000
   58TTP    C18 1165  -0.491  -1.614   1.582  0.0000  0.0000  0.0000
   58TTP    C32 1166  -0.551  -1.246   1.538  0.0000  0.0000  0.0000
   58TTP    C33 1167  -0.445  -1.179   1.444  0.0000  0.0000  0.0000
   58TTP    C34 1168  -0.439  -1.024   1.460  0.0000  0.0000  0.0000
   58TTP    C35 1169  -0.330  -0.974   1.362  0.0000  0.0000  0.0000
   58TTP    C36 1170  -0.346  -0.820   1.356  0.0000  0.0000  0.0000
   58TTP    C37 1171  -0.313  -0.782   1.504  0.0000  0.0000  0.0000
   58TTP    C38 1172  -0.307  -0.628   1.533  0.0000  0.0000  0.0000
   58TTP    C39 1173  -0.245  -0.577   1.665  0.0000  0.0000  0.0000
   58TTP    C40 1174  -0.336  -0.509   1.772  0.0000  0.0000  0.0000
   58TTP    C41 1175  -0.411  -0.378   1.738  0.0000  0.0000  0.0000
   58TTP    C42 1176  -0.433  -0.271   1.847  0.0000  0.0000  0.0000
   59FIC     F1 1177  -0.117  -3.122   1.555  0.0000  0.0000  0.0000
   59FIC     F2 1178  -0.008  -3.276   1.747  0.0000  0.0000  0.0000
   59FIC     O1 1179  -0.171  -2.663   1.816  0.0000  0.0000  0.0000
   59FIC     N5 1180   0.145  -3.163   2.192  0.0000  0.0000  0.0000
   59FIC     N6 1181   0.097  -2.782   2.371  0.0000  0.0000  0.0000
   59FIC    C19 1182  -0.043  -2.632   2.089  0.0000  0.0000  0.0000
   59FIC    C20 1183  -0.052  -2.743   2.008  0.0000  0.0000  0.0000
   59FIC    C21 1184  -0.115  -2.751   1.881  0.0000  0.0000  0.0000
   59FIC    C22 1185  -0.090  -2.885   1.827  0.0000  0.0000  0.0000
   59FIC    C23 1186  -0.120  -2.935   1.696  0.0000  0.0000  0.0000
   59FIC    C24 1187  -0.091  -3.064   1.672  0.0000  0.0000  0.0000
   59FIC    C25 1188  -0.031  -3.143   1.781  0.0000  0.0000  0.0000
   59FIC    C26 1189   0.005  -3.098   1.898  0.0000  0.0000  0.0000
   59FIC    C27 1190  -0.030  -2.963   1.926  0.0000  0.0000  0.0000
   59FIC    C28 1191  -0.006  -2.877   2.042  0.0000  0.0000  0.0000
   59FIC    C29 1192   0.054  -2.920   2.158  0.0000  0.0000  0.0000
   59FIC    C30 1193   0.102  -3.063   2.171  0.0000  0.0000  0.0000
   59FIC    C31 1194   0.071  -2.842   2.277  0.0000  0.0000  0.0000
   60FIC     F1 1195  -1.079  -1.797   0.839  0.0000  0.0000  0.0000
   60FIC     F2 1196  -1.126  -1.554   0.758  0.0000  0.0000  0.0000
   60FIC     O1 1197  -0.767  -1.703   1.261  0.0000  0.0000  0.0000
   60FIC     N5 1198  -0.949  -1.134   0.908  0.0000  0.0000  0.0000
   60FIC     N6 1199  -0.759  -1.079   1.286  0.0000  0.0000  0.0000
   60FIC    C19 1200  -0.699  -1.416   1.329  0.0000  0.0000  0.0000
   60FIC    C20 1201  -0.779  -1.462   1.230  0.0000  0.0000  0.0000
   60FIC    C21 1202  -0.810  -1.609   1.197  0.0000  0.0000  0.0000
   60FIC    C22 1203  -0.889  -1.611   1.082  0.0000  0.0000  0.0000
   60FIC    C23 1204  -0.946  -1.721   1.015  0.0000  0.0000  0.0000
   60FIC    C24 1205  -1.022  -1.704   0.906  0.0000  0.0000  0.0000
   60FIC    C25 1206  -1.051  -1.575   0.863  0.0000  0.0000  0.0000
   60FIC    C26 1207  -0.995  -1.456   0.922  0.0000  0.0000  0.0000
   60FIC    C27 1208  -0.912  -1.478   1.034  0.0000  0.0000  0.0000
   60FIC    C28 1209  -0.846  -1.388   1.127  0.0000  0.0000  0.0000
   60FIC    C29 1210  -0.850  -1.249   1.115  0.0000  0.0000  0.0000
   60FIC    C30 1211  -0.907  -1.184   0.996  0.0000  0.0000  0.0000
   60FIC    C31 1212  -0.794  -1.155   1.208  0.0000  0.0000  0.0000
   61BTD     S2 1213  -1.377   4.495   0.801  0.0000  0.0000  0.0000
   61BTD     N1 1214  -1.363   4.660   0.805  0.0000  0.0000  0.0000
   61BTD     N2 1215  -1.312   4.456   0.943  0.0000  0.0000  0.0000
   61BTD     N3 1216  -1.110   4.703   1.293  0.0000  0.0000  0.0000
   61BTD     N4 1217  -1.167   4.974   1.100  0.0000  0.0000  0.0000
   61BTD     C5 1218  -1.267   4.815   0.962  0.0000  0.0000  0.0000
   61BTD     C6 1219  -1.307   4.687   0.918  0.0000  0.0000  0.0000
   61BTD     C7 1220  -1.278   4.573   0.998  0.0000  0.0000  0.0000
   61BTD     C8 1221  -1.212   4.590   1.122  0.0000  0.0000  0.0000
   61BTD    C15 1222  -1.176   4.717   1.172  0.0000  0.0000  0.0000
   61BTD    C16 1223  -1.194   4.839   1.087  0.0000  0.0000  0.0000
   61BTD    C43 1224  -1.063   5.040   1.177  0.0000  0.0000  0.0000
   61BTD    C44 1225  -0.921   4.988   1.141  0.0000  0.0000  0.0000
   61BTD    C45 1226  -0.883   4.963   0.991  0.0000  0.0000  0.0000
   61BTD    C46 1227  -0.878   5.094   0.910  0.0000  0.0000  0.0000
   61BTD    C47 1228  -0.806   5.068   1.207  0.0000  0.0000  0.0000
   61BTD    C48 1229  -0.788   5.062   1.360  0.0000  0.0000  0.0000
   61BTD    C49 1230  -0.700   5.168   1.432  0.0000  0.0000  0.0000
   61BTD    C50 1231  -0.720   5.192   1.584  0.0000  0.0000  0.0000
   61BTD    C75 1232  -1.099   4.801   1.411  0.0000  0.0000  0.0000
   61BTD    C76 1233  -1.237   4.864   1.446  0.0000  0.0000  0.0000
   61BTD    C77 1234  -1.235   4.950   1.575  0.0000  0.0000  0.0000
   61BTD    C78 1235  -1.091   4.919   1.621  0.0000  0.0000  0.0000
   61BTD    C79 1236  -1.358   4.770   1.465  0.0000  0.0000  0.0000
   61BTD    C80 1237  -1.337   4.639   1.544  0.0000  0.0000  0.0000
   61BTD    C81 1238  -1.433   4.519   1.519  0.0000  0.0000  0.0000
   61BTD    C82 1239  -1.564   4.515   1.603  0.0000  0.0000  0.0000
   62TTP     S1 1240  -1.342   5.015   0.763  0.0000  0.0000  0.0000
   62TTP     S5 1241  -1.159   5.322   0.981  0.0000  0.0000  0.0000
   62TTP     C1 1242  -1.219   5.392   0.835  0.0000  0.0000  0.0000
   62TTP     C2 1243  -1.279   5.300   0.758  0.0000  0.0000  0.0000
   62TTP     C3 1244  -1.281   5.170   0.809  0.0000  0.0000  0.0000
   62TTP     C4 1245  -1.277   4.944   0.905  0.0000  0.0000  0.0000
   62TTP    C17 1246  -1.216   5.036   0.989  0.0000  0.0000  0.0000
   62TTP    C18 1247  -1.215   5.168   0.937  0.0000  0.0000  0.0000
   62TTP    C32 1248  -1.337   5.325   0.616  0.0000  0.0000  0.0000
   62TTP    C33 1249  -1.490   5.310   0.594  0.0000  0.0000  0.0000
   62TTP    C34 1250  -1.548   5.345   0.454  0.0000  0.0000  0.0000
   62TTP    C35 1251  -1.700   5.339   0.483  0.0000  0.0000  0.0000
   62TTP    C36 1252  -1.747   5.485   0.508  0.0000  0.0000  0.0000
   62TTP    C37 1253  -1.678   5.599   0.425  0.0000  0.0000  0.0000
   62TTP    C38 1254  -1.763   5.718   0.374  0.0000  0.0000  0.0000
   62TTP    C39 1255  -1.653   5.763   0.276  0.0000  0.0000  0.0000
   62TTP    C40 1256  -1.697   5.805   0.132  0.0000  0.0000  0.0000
   62TTP    C41 1257  -1.616   5.913   0.054  0.0000  0.0000  0.0000
   62TTP    C42 1258  -1.679   5.978  -0.072  0.0000  0.0000  0.0000
   63TTP     S1 1259  -1.178   4.324   1.247  0.0000  0.0000  0.0000
   63TTP     S5 1260  -0.956   4.500   1.557  0.0000  0.0000  0.0000
   63TTP     C1 1261  -0.950   4.324   1.575  0.0000  0.0000  0.0000
   63TTP     C2 1262  -1.021   4.259   1.479  0.0000  0.0000  0.0000
   63TTP     C3 1263  -1.082   4.347   1.390  0.0000  0.0000  0.0000
   63TTP     C4 1264  -1.176   4.495   1.221  0.0000  0.0000  0.0000
   63TTP    C17 1265  -1.113   4.566   1.323  0.0000  0.0000  0.0000
   63TTP    C18 1266  -1.055   4.482   1.419  0.0000  0.0000  0.0000
   63TTP    C32 1267  -1.040   4.105   1.469  0.0000  0.0000  0.0000
   63TTP    C33 1268  -1.157   4.052   1.557  0.0000  0.0000  0.0000
   63TTP    C34 1269  -1.175   3.899   1.552  0.0000  0.0000  0.0000
   63TTP    C35 1270  -1.204   3.856   1.406  0.0000  0.0000  0.0000
   63TTP    C36 1271  -1.217   3.705   1.373  0.0000  0.0000  0.0000
   63TTP    C37 1272  -1.094   3.612   1.388  0.0000  0.0000  0.0000
   63TTP    C38 1273  -1.180   3.485   1.359  0.0000  0.0000  0.0000
   63TTP    C39 1274  -1.087   3.384   1.431  0.0000  0.0000  0.0000
   63TTP    C40 1275  -1.080   3.387   1.586  0.0000  0.0000  0.0000
   63TTP    C41 1276  -0.974   3.474   1.658  0.0000  0.0000  0.0000
   63TTP    C42 1277  -1.008   3.617   1.707  0.0000  0.0000  0.0000
   64FIC     F1 1278  -0.886   6.041   1.208  0.0000  0.0000  0.0000
   64FIC     F2 1279  -0.927   6.176   0.979  0.0000  0.0000  0.0000
   64FIC     O1 1280  -1.096   5.565   1.071  0.0000  0.0000  0.0000
   64FIC     N5 1281  -1.135   6.048   0.569  0.0000  0.0000  0.0000
   64FIC     N6 1282  -1.307   5.651   0.481  0.0000  0.0000  0.0000
   64FIC    C19 1283  -1.202   5.526   0.793  0.0000  0.0000  0.0000
   64FIC    C20 1284  -1.150   5.640   0.845  0.0000  0.0000  0.0000
   64FIC    C21 1285  -1.095   5.651   0.979  0.0000  0.0000  0.0000
   64FIC    C22 1286  -1.048   5.790   0.995  0.0000  0.0000  0.0000
   64FIC    C23 1287  -0.987   5.844   1.112  0.0000  0.0000  0.0000
   64FIC    C24 1288  -0.946   5.978   1.090  0.0000  0.0000  0.0000
   64FIC    C25 1289  -0.965   6.045   0.978  0.0000  0.0000  0.0000
   64FIC    C26 1290  -1.023   5.991   0.873  0.0000  0.0000  0.0000
   64FIC    C27 1291  -1.066   5.863   0.886  0.0000  0.0000  0.0000
   64FIC    C28 1292  -1.134   5.772   0.786  0.0000  0.0000  0.0000
   64FIC    C29 1293  -1.176   5.800   0.644  0.0000  0.0000  0.0000
   64FIC    C30 1294  -1.155   5.944   0.605  0.0000  0.0000  0.0000
   64FIC    C31 1295  -1.242   5.714   0.549  0.0000  0.0000  0.0000
   65FIC     F1 1296  -0.492   4.597   2.188  0.0000  0.0000  0.0000
   65FIC     F2 1297  -0.437   4.345   2.250  0.0000  0.0000  0.0000
   65FIC     O1 1298  -0.812   4.533   1.771  0.0000  0.0000  0.0000
   65FIC     N5 1299  -0.586   3.931   2.044  0.0000  0.0000  0.0000
   65FIC     N6 1300  -0.781   3.915   1.671  0.0000  0.0000  0.0000
   65FIC    C19 1301  -0.874   4.254   1.673  0.0000  0.0000  0.0000
   65FIC    C20 1302  -0.792   4.291   1.775  0.0000  0.0000  0.0000
   65FIC    C21 1303  -0.767   4.431   1.817  0.0000  0.0000  0.0000
   65FIC    C22 1304  -0.683   4.423   1.937  0.0000  0.0000  0.0000
   65FIC    C23 1305  -0.630   4.529   2.010  0.0000  0.0000  0.0000
   65FIC    C24 1306  -0.555   4.499   2.115  0.0000  0.0000  0.0000
   65FIC    C25 1307  -0.522   4.366   2.147  0.0000  0.0000  0.0000
   65FIC    C26 1308  -0.571   4.262   2.073  0.0000  0.0000  0.0000
   65FIC    C27 1309  -0.652   4.291   1.969  0.0000  0.0000  0.0000
   65FIC    C28 1310  -0.717   4.205   1.864  0.0000  0.0000  0.0000
   65FIC    C29 1311  -0.703   4.067   1.860  0.0000  0.0000  0.0000
   65FIC    C30 1312  -0.639   3.993   1.961  0.0000  0.0000  0.0000
   65FIC    C31 1313  -0.748   3.985   1.751  0.0000  0.0000  0.0000
   66BTD     S2 1314  -0.250   4.487   3.196  0.0000  0.0000  0.0000
   66BTD     N1 1315  -0.240   4.648   3.185  0.0000  0.0000  0.0000
   66BTD     N2 1316  -0.329   4.456   3.058  0.0000  0.0000  0.0000
   66BTD     N3 1317  -0.499   4.718   2.697  0.0000  0.0000  0.0000
   66BTD     N4 1318  -0.385   4.978   2.874  0.0000  0.0000  0.0000
   66BTD     C5 1319  -0.315   4.814   3.016  0.0000  0.0000  0.0000
   66BTD     C6 1320  -0.298   4.683   3.072  0.0000  0.0000  0.0000
   66BTD     C7 1321  -0.349   4.573   2.998  0.0000  0.0000  0.0000
   66BTD     C8 1322  -0.411   4.594   2.874  0.0000  0.0000  0.0000
   66BTD    C15 1323  -0.430   4.727   2.821  0.0000  0.0000  0.0000
   66BTD    C16 1324  -0.382   4.838   2.897  0.0000  0.0000  0.0000
   66BTD    C43 1325  -0.474   5.055   2.786  0.0000  0.0000  0.0000
   66BTD    C44 1326  -0.626   5.045   2.816  0.0000  0.0000  0.0000
   66BTD    C45 1327  -0.699   5.144   2.721  0.0000  0.0000  0.0000
   66BTD    C46 1328  -0.849   5.102   2.723  0.0000  0.0000  0.0000
   66BTD    C47 1329  -0.659   5.071   2.965  0.0000  0.0000  0.0000
   66BTD    C48 1330  -0.674   5.212   3.029  0.0000  0.0000  0.0000
   66BTD    C49 1331  -0.688   5.181   3.180  0.0000  0.0000  0.0000
   66BTD    C50 1332  -0.784   5.135   3.293  0.0000  0.0000  0.0000
   66BTD    C75 1333  -0.485   4.805   2.580  0.0000  0.0000  0.0000
   66BTD    C76 1334  -0.337   4.835   2.545  0.0000  0.0000  0.0000
   66BTD    C77 1335  -0.328   4.923   2.418  0.0000  0.0000  0.0000
   66BTD    C78 1336  -0.187   4.977   2.382  0.0000  0.0000  0.0000
   66BTD    C79 1337  -0.251   4.708   2.524  0.0000  0.0000  0.0000
   66BTD    C80 1338  -0.279   4.620   2.400  0.0000  0.0000  0.0000
   66BTD    C81 1339  -0.187   4.494   2.406  0.0000  0.0000  0.0000
   66BTD    C82 1340  -0.218   4.369   2.493  0.0000  0.0000  0.0000
   67TTP     S1 1341  -0.189   5.004   3.202  0.0000  0.0000  0.0000
   67TTP     S5 1342  -0.287   5.322   2.946  0.0000  0.0000  0.0000
   67TTP     C1 1343  -0.191   5.386   3.077  0.0000  0.0000  0.0000
   67TTP     C2 1344  -0.153   5.288   3.166  0.0000  0.0000  0.0000
   67TTP     C3 1345  -0.208   5.166   3.132  0.0000  0.0000  0.0000
   67TTP     C4 1346  -0.273   4.943   3.071  0.0000  0.0000  0.0000
   67TTP    C17 1347  -0.324   5.033   2.980  0.0000  0.0000  0.0000
   67TTP    C18 1348  -0.280   5.168   3.020  0.0000  0.0000  0.0000
   67TTP    C32 1349  -0.067   5.306   3.294  0.0000  0.0000  0.0000
   67TTP    C33 1350  -0.158   5.340   3.415  0.0000  0.0000  0.0000
   67TTP    C34 1351  -0.065   5.363   3.537  0.0000  0.0000  0.0000
   67TTP    C35 1352  -0.123   5.433   3.661  0.0000  0.0000  0.0000
   67TTP    C36 1353  -0.029   5.527   3.742  0.0000  0.0000  0.0000
   67TTP    C37 1354   0.091   5.463   3.819  0.0000  0.0000  0.0000
   67TTP    C38 1355   0.171   5.331   3.831  0.0000  0.0000  0.0000
   67TTP    C39 1356   0.253   5.281   3.709  0.0000  0.0000  0.0000
   67TTP    C40 1357   0.312   5.384   3.608  0.0000  0.0000  0.0000
   67TTP    C41 1358   0.299   5.357   3.455  0.0000  0.0000  0.0000
   67TTP    C42 1359   0.318   5.479   3.360  0.0000  0.0000  0.0000
   68TTP     S1 1360  -0.493   4.335   2.759  0.0000  0.0000  0.0000
   68TTP     S5 1361  -0.695   4.538   2.450  0.0000  0.0000  0.0000
   68TTP     C1 1362  -0.726   4.365   2.429  0.0000  0.0000  0.0000
   68TTP     C2 1363  -0.662   4.291   2.530  0.0000  0.0000  0.0000
   68TTP     C3 1364  -0.585   4.371   2.614  0.0000  0.0000  0.0000
   68TTP     C4 1365  -0.470   4.506   2.780  0.0000  0.0000  0.0000
   68TTP    C17 1366  -0.524   4.581   2.676  0.0000  0.0000  0.0000
   68TTP    C18 1367  -0.595   4.504   2.580  0.0000  0.0000  0.0000
   68TTP    C32 1368  -0.654   4.136   2.536  0.0000  0.0000  0.0000
   68TTP    C33 1369  -0.549   4.069   2.443  0.0000  0.0000  0.0000
   68TTP    C34 1370  -0.542   3.915   2.458  0.0000  0.0000  0.0000
   68TTP    C35 1371  -0.433   3.864   2.360  0.0000  0.0000  0.0000
   68TTP    C36 1372  -0.449   3.710   2.355  0.0000  0.0000  0.0000
   68TTP    C37 1373  -0.416   3.672   2.502  0.0000  0.0000  0.0000
   68TTP    C38 1374  -0.411   3.518   2.532  0.0000  0.0000  0.0000
   68TTP    C39 1375  -0.349   3.468   2.664  0.0000  0.0000  0.0000
   68TTP    C40 1376  -0.440   3.400   2.771  0.0000  0.0000  0.0000
   68TTP    C41 1377  -0.515   3.269   2.736  0.0000  0.0000  0.0000
   68TTP    C42 1378  -0.537   3.161   2.845  0.0000  0.0000  0.0000
   69FIC     F1 1379  -0.220   6.012   2.554  0.0000  0.0000  0.0000
   69FIC     F2 1380  -0.111   6.166   2.745  0.0000  0.0000  0.0000
   69FIC     O1 1381  -0.275   5.553   2.814  0.0000  0.0000  0.0000
   69FIC     N5 1382   0.041   6.054   3.190  0.0000  0.0000  0.0000
   69FIC     N6 1383  -0.007   5.673   3.369  0.0000  0.0000  0.0000
   69FIC    C19 1384  -0.147   5.523   3.087  0.0000  0.0000  0.0000
   69FIC    C20 1385  -0.156   5.634   3.007  0.0000  0.0000  0.0000
   69FIC    C21 1386  -0.218   5.641   2.879  0.0000  0.0000  0.0000
   69FIC    C22 1387  -0.194   5.776   2.825  0.0000  0.0000  0.0000
   69FIC    C23 1388  -0.223   5.825   2.695  0.0000  0.0000  0.0000
   69FIC    C24 1389  -0.195   5.954   2.670  0.0000  0.0000  0.0000
   69FIC    C25 1390  -0.135   6.033   2.780  0.0000  0.0000  0.0000
   69FIC    C26 1391  -0.099   5.989   2.896  0.0000  0.0000  0.0000
   69FIC    C27 1392  -0.134   5.854   2.924  0.0000  0.0000  0.0000
   69FIC    C28 1393  -0.110   5.767   3.040  0.0000  0.0000  0.0000
   69FIC    C29 1394  -0.050   5.810   3.157  0.0000  0.0000  0.0000
   69FIC    C30 1395  -0.002   5.954   3.169  0.0000  0.0000  0.0000
   69FIC    C31 1396  -0.032   5.733   3.276  0.0000  0.0000  0.0000
   70FIC     F1 1397  -1.183   4.687   1.837  0.0000  0.0000  0.0000
   70FIC     F2 1398  -1.230   4.445   1.756  0.0000  0.0000  0.0000
   70FIC     O1 1399  -0.871   4.593   2.260  0.0000  0.0000  0.0000
   70FIC     N5 1400  -1.053   4.024   1.906  0.0000  0.0000  0.0000
   70FIC     N6 1401  -0.862   3.969   2.284  0.0000  0.0000  0.0000
   70FIC    C19 1402  -0.803   4.307   2.327  0.0000  0.0000  0.0000
   70FIC    C20 1403  -0.882   4.353   2.228  0.0000  0.0000  0.0000
   70FIC    C21 1404  -0.914   4.499   2.196  0.0000  0.0000  0.0000
   70FIC    C22 1405  -0.993   4.501   2.080  0.0000  0.0000  0.0000
   70FIC    C23 1406  -1.049   4.612   2.014  0.0000  0.0000  0.0000
   70FIC    C24 1407  -1.125   4.595   1.904  0.0000  0.0000  0.0000
   70FIC    C25 1408  -1.154   4.466   1.862  0.0000  0.0000  0.0000
   70FIC    C26 1409  -1.099   4.347   1.920  0.0000  0.0000  0.0000
   70FIC    C27 1410  -1.016   4.368   2.033  0.0000  0.0000  0.0000
   70FIC    C28 1411  -0.949   4.279   2.125  0.0000  0.0000  0.0000
   70FIC    C29 1412  -0.954   4.139   2.113  0.0000  0.0000  0.0000
   70FIC    C30 1413  -1.011   4.075   1.994  0.0000  0.0000  0.0000
   70FIC    C31 1414  -0.898   4.045   2.206  0.0000  0.0000  0.0000
   71BTD     S2 1415   0.963  -4.495   3.193  0.0000  0.0000  0.0000
   71BTD     N1 1416   0.949  -4.660   3.189  0.0000  0.0000  0.0000
   71BTD     N2 1417   0.898  -4.456   3.051  0.0000  0.0000  0.0000
   71BTD     N3 1418   0.696  -4.703   2.701  0.0000  0.0000  0.0000
   71BTD     N4 1419   0.753  -4.974   2.894  0.0000  0.0000  0.0000
   71BTD     C5 1420   0.853  -4.815   3.032  0.0000  0.0000  0.0000
   71BTD     C6 1421   0.893  -4.687   3.076  0.0000  0.0000  0.0000
   71BTD     C7 1422   0.864  -4.573   2.996  0.0000  0.0000  0.0000
   71BTD     C8 1423   0.798  -4.590   2.872  0.0000  0.0000  0.0000
   71BTD    C15 1424   0.762  -4.717   2.822  0.0000  0.0000  0.0000
   71BTD    C16 1425   0.780  -4.839   2.907  0.0000  0.0000  0.0000
   71BTD    C43 1426   0.649  -5.040   2.817  0.0000  0.0000  0.0000
   71BTD    C44 1427   0.507  -4.988   2.853  0.0000  0.0000  0.0000
   71BTD    C45 1428   0.469  -4.963   3.003  0.0000  0.0000  0.0000
   71BTD    C46 1429   0.464  -5.094   3.084  0.0000  0.0000  0.0000
   71BTD    C47 1430   0.392  -5.068   2.787  0.0000  0.0000  0.0000
   71BTD    C48 1431   0.374  -5.062   2.634  0.0000  0.0000  0.0000
   71BTD    C49 1432   0.286  -5.168   2.562  0.0000  0.0000  0.0000
   71BTD    C50 1433   0.306  -5.192   2.410  0.0000  0.0000  0.0000
   71BTD    C75 1434   0.685  -4.801   2.583  0.0000  0.0000  0.0000
   71BTD    C76 1435   0.823  -4.864   2.548  0.0000  0.0000  0.0000
   71BTD    C77 1436   0.821  -4.950   2.419  0.0000  0.0000  0.0000
   71BTD    C78 1437   0.677  -4.919   2.373  0.0000  0.0000  0.0000
   71BTD    C79 1438   0.944  -4.770   2.529  0.0000  0.0000  0.0000
   71BTD    C80 1439   0.923  -4.639   2.450  0.0000  0.0000  0.0000
   71BTD    C81 1440   1.019  -4.519   2.475  0.0000  0.0000  0.0000
   71BTD    C82 1441   1.150  -4.515   2.391  0.0000  0.0000  0.0000
   72TTP     S1 1442   0.928  -5.015   3.231  0.0000  0.0000  0.0000
   72TTP     S5 1443   0.745  -5.322   3.013  0.0000  0.0000  0.0000
   72TTP     C1 1444   0.805  -5.392   3.159  0.0000  0.0000  0.0000
   72TTP     C2 1445   0.865  -5.300   3.236  0.0000  0.0000  0.0000
   72TTP     C3 1446   0.867  -5.170   3.185  0.0000  0.0000  0.0000
   72TTP     C4 1447   0.863  -4.944   3.089  0.0000  0.0000  0.0000
   72TTP    C17 1448   0.802  -5.036   3.005  0.0000  0.0000  0.0000
   72TTP    C18 1449   0.801  -5.168   3.057  0.0000  0.0000  0.0000
   72TTP    C32 1450   0.923  -5.325   3.378  0.0000  0.0000  0.0000
   72TTP    C33 1451   1.076  -5.310   3.400  0.0000  0.0000  0.0000
   72TTP    C34 1452   1.134  -5.345   3.540  0.0000  0.0000  0.0000
   72TTP    C35 1453   1.286  -5.339   3.511  0.0000  0.0000  0.0000
   72TTP    C36 1454   1.333  -5.485   3.486  0.0000  0.0000  0.0000
   72TTP    C37 1455   1.264  -5.599   3.569  0.0000  0.0000  0.0000
   72TTP    C38 1456   1.349  -5.718   3.620  0.0000  0.0000  0.0000
   72TTP    C39 1457   1.239  -5.763   3.718  0.0000  0.0000  0.0000
   72TTP    C40 1458   1.283  -5.805   3.862  0.0000  0.0000  0.0000
   72TTP    C41 1459   1.202  -5.913   3.940  0.0000  0.0000  0.0000
   72TTP    C42 1460   1.265  -5.978   4.066  0.0000  0.0000  0.0000
   73TTP     S1 1461   0.764  -4.324   2.747  0.0000  0.0000  0.0000
   73TTP     S5 1462   0.542  -4.500   2.437  0.0000  0.0000  0.0000
   73TTP     C1 1463   0.536  -4.324   2.419  0.0000  0.0000  0.0000
   73TTP     C2 1464   0.607  -4.259   2.515  0.0000  0.0000  0.0000
   73TTP     C3 1465   0.668  -4.347   2.604  0.0000  0.0000  0.0000
   73TTP     C4 1466   0.762  -4.495   2.773  0.0000  0.0000  0.0000
   73TTP    C17 1467   0.699  -4.566   2.671  0.0000  0.0000  0.0000
   73TTP    C18 1468   0.641  -4.482   2.575  0.0000  0.0000  0.0000
   73TTP    C32 1469   0.626  -4.105   2.525  0.0000  0.0000  0.0000
   73TTP    C33 1470   0.743  -4.052   2.437  0.0000  0.0000  0.0000
   73TTP    C34 1471   0.761  -3.899   2.442  0.0000  0.0000  0.0000
   73TTP    C35 1472   0.790  -3.856   2.588  0.0000  0.0000  0.0000
   73TTP    C36 1473   0.803  -3.705   2.621  0.0000  0.0000  0.0000
   73TTP    C37 1474   0.680  -3.612   2.606  0.0000  0.0000  0.0000
   73TTP    C38 1475   0.766  -3.485   2.635  0.0000  0.0000  0.0000
   73TTP    C39 1476   0.673  -3.384   2.563  0.0000  0.0000  0.0000
   73TTP    C40 1477   0.666  -3.387   2.408  0.0000  0.0000  0.0000
   73TTP    C41 1478   0.560  -3.474   2.336  0.0000  0.0000  0.0000
   73TTP    C42 1479   0.594  -3.617   2.287  0.0000  0.0000  0.0000
   74FIC     F1 1480   0.472  -6.041   2.786  0.0000  0.0000  0.0000
   74FIC     F2 1481   0.513  -6.176   3.015  0.0000  0.0000  0.0000
   74FIC     O1 1482   0.682  -5.565   2.923  0.0000  0.0000  0.0000
   74FIC     N5 1483   0.721  -6.048   3.425  0.0000  0.0000  0.0000
   74FIC     N6 1484   0.893  -5.651   3.513  0.0000  0.0000  0.0000
   74FIC    C19 1485   0.788  -5.526   3.201  0.0000  0.0000  0.0000
   74FIC    C20 1486   0.736  -5.640   3.149  0.0000  0.0000  0.0000
   74FIC    C21 1487   0.681  -5.651   3.015  0.0000  0.0000  0.0000
   74FIC    C22 1488   0.634  -5.790   2.999  0.0000  0.0000  0.0000
   74FIC    C23 1489   0.573  -5.844   2.882  0.0000  0.0000  0.0000
   74FIC    C24 1490   0.532  -5.978   2.904  0.0000  0.0000  0.0000
   74FIC    C25 1491   0.551  -6.045   3.016  0.0000  0.0000  0.0000
   74FIC    C26 1492   0.609  -5.991   3.121  0.0000  0.0000  0.0000
   74FIC    C27 1493   0.652  -5.863   3.108  0.0000  0.0000  0.0000
   74FIC    C28 1494   0.720  -5.772   3.208  0.0000  0.0000  0.0000
   74FIC    C29 1495   0.762  -5.800   3.350  0.0000  0.0000  0.0000
   74FIC    C30 1496   0.741  -5.944   3.389  0.0000  0.0000  0.0000
   74FIC    C31 1497   0.828  -5.714   3.445  0.0000  0.0000  0.0000
   75FIC     F1 1498   0.078  -4.597   1.806  0.0000  0.0000  0.0000
   75FIC     F2 1499   0.023  -4.345   1.744  0.0000  0.0000  0.0000
   75FIC     O1 1500   0.398  -4.533   2.223  0.0000  0.0000  0.0000
   75FIC     N5 1501   0.172  -3.931   1.950  0.0000  0.0000  0.0000
   75FIC     N6 1502   0.367  -3.915   2.323  0.0000  0.0000  0.0000
   75FIC    C19 1503   0.460  -4.254   2.321  0.0000  0.0000  0.0000
   75FIC    C20 1504   0.378  -4.291   2.219  0.0000  0.0000  0.0000
   75FIC    C21 1505   0.353  -4.431   2.177  0.0000  0.0000  0.0000
   75FIC    C22 1506   0.269  -4.423   2.057  0.0000  0.0000  0.0000
   75FIC    C23 1507   0.216  -4.529   1.984  0.0000  0.0000  0.0000
   75FIC    C24 1508   0.141  -4.499   1.879  0.0000  0.0000  0.0000
   75FIC    C25 1509   0.108  -4.366   1.847  0.0000  0.0000  0.0000
   75FIC    C26 1510   0.157  -4.262   1.921  0.0000  0.0000  0.0000
   75FIC    C27 1511   0.238  -4.291   2.025  0.0000  0.0000  0.0000
   75FIC    C28 1512   0.303  -4.205   2.130  0.0000  0.0000  0.0000
   75FIC    C29 1513   0.289  -4.067   2.134  0.0000  0.0000  0.0000
   75FIC    C30 1514   0.225  -3.993   2.033  0.0000  0.0000  0.0000
   75FIC    C31 1515   0.334  -3.985   2.243  0.0000  0.0000  0.0000
   76BTD     S2 1516  -0.164  -4.487   0.798  0.0000  0.0000  0.0000
   76BTD     N1 1517  -0.174  -4.648   0.809  0.0000  0.0000  0.0000
   76BTD     N2 1518  -0.085  -4.456   0.936  0.0000  0.0000  0.0000
   76BTD     N3 1519   0.085  -4.718   1.297  0.0000  0.0000  0.0000
   76BTD     N4 1520  -0.029  -4.978   1.120  0.0000  0.0000  0.0000
   76BTD     C5 1521  -0.099  -4.814   0.978  0.0000  0.0000  0.0000
   76BTD     C6 1522  -0.116  -4.683   0.922  0.0000  0.0000  0.0000
   76BTD     C7 1523  -0.065  -4.573   0.996  0.0000  0.0000  0.0000
   76BTD     C8 1524  -0.003  -4.594   1.120  0.0000  0.0000  0.0000
   76BTD    C15 1525   0.016  -4.727   1.173  0.0000  0.0000  0.0000
   76BTD    C16 1526  -0.032  -4.838   1.097  0.0000  0.0000  0.0000
   76BTD    C43 1527   0.060  -5.055   1.208  0.0000  0.0000  0.0000
   76BTD    C44 1528   0.212  -5.045   1.178  0.0000  0.0000  0.0000
   76BTD    C45 1529   0.285  -5.144   1.273  0.0000  0.0000  0.0000
   76BTD    C46 1530   0.435  -5.102   1.271  0.0000  0.0000  0.0000
   76BTD    C47 1531   0.245  -5.071   1.029  0.0000  0.0000  0.0000
   76BTD    C48 1532   0.260  -5.212   0.965  0.0000  0.0000  0.0000
   76BTD    C49 1533   0.274  -5.181   0.814  0.0000  0.0000  0.0000
   76BTD    C50 1534   0.370  -5.135   0.701  0.0000  0.0000  0.0000
   76BTD    C75 1535   0.071  -4.805   1.414  0.0000  0.0000  0.0000
   76BTD    C76 1536  -0.077  -4.835   1.449  0.0000  0.0000  0.0000
   76BTD    C77 1537  -0.086  -4.923   1.576  0.0000  0.0000  0.0000
   76BTD    C78 1538  -0.227  -4.977   1.612  0.0000  0.0000  0.0000
   76BTD    C79 1539  -0.163  -4.708   1.470  0.0000  0.0000  0.0000
   76BTD    C80 1540  -0.135  -4.620   1.594  0.0000  0.0000  0.0000
   76BTD    C81 1541  -0.227  -4.494   1.588  0.0000  0.0000  0.0000
   76BTD    C82 1542  -0.196  -4.369   1.501  0.0000  0.0000  0.0000
   77TTP     S1 1543  -0.225  -5.004   0.792  0.0000  0.0000  0.0000
   77TTP     S5 1544  -0.127  -5.322   1.048  0.0000  0.0000  0.0000
   77TTP     C1 1545  -0.223  -5.386   0.917  0.0000  0.0000  0.0000
   77TTP     C2 1546  -0.261  -5.288   0.828  0.0000  0.0000  0.0000
   77TTP     C3 1547  -0.206  -5.166   0.862  0.0000  0.0000  0.0000
   77TTP     C4 1548  -0.141  -4.943   0.923  0.0000  0.0000  0.0000
   77TTP    C17 1549  -0.090  -5.033   1.014  0.0000  0.0000  0.0000
   77TTP    C18 1550  -0.134  -5.168   0.974  0.0000  0.0000  0.0000
   77TTP    C32 1551  -0.347  -5.306   0.700  0.0000  0.0000  0.0000
   77TTP    C33 1552  -0.256  -5.340   0.579  0.0000  0.0000  0.0000
   77TTP    C34 1553  -0.349  -5.363   0.457  0.0000  0.0000  0.0000
   77TTP    C35 1554  -0.291  -5.433   0.333  0.0000  0.0000  0.0000
   77TTP    C36 1555  -0.385  -5.527   0.252  0.0000  0.0000  0.0000
   77TTP    C37 1556  -0.505  -5.463   0.175  0.0000  0.0000  0.0000
   77TTP    C38 1557  -0.585  -5.331   0.163  0.0000  0.0000  0.0000
   77TTP    C39 1558  -0.667  -5.281   0.285  0.0000  0.0000  0.0000
   77TTP    C40 1559  -0.726  -5.384   0.386  0.0000  0.0000  0.0000
   77TTP    C41 1560  -0.713  -5.357   0.539  0.0000  0.0000  0.0000
   77TTP    C42 1561  -0.732  -5.479   0.634  0.0000  0.0000  0.0000
   78TTP     S1 1562   0.079  -4.335   1.235  0.0000  0.0000  0.0000
   78TTP     S5 1563   0.281  -4.538   1.544  0.0000  0.0000  0.0000
   78TTP     C1 1564   0.312  -4.365   1.565  0.0000  0.0000  0.0000
   78TTP     C2 1565   0.248  -4.291   1.464  0.0000  0.0000  0.0000
   78TTP     C3 1566   0.171  -4.371   1.380  0.0000  0.0000  0.0000
   78TTP     C4 1567   0.056  -4.506   1.214  0.0000  0.0000  0.0000
   78TTP    C17 1568   0.110  -4.581   1.318  0.0000  0.0000  0.0000
   78TTP    C18 1569   0.181  -4.504   1.414  0.0000  0.0000  0.0000
   78TTP    C32 1570   0.240  -4.136   1.458  0.0000  0.0000  0.0000
   78TTP    C33 1571   0.135  -4.069   1.551  0.0000  0.0000  0.0000
   78TTP    C34 1572   0.128  -3.915   1.536  0.0000  0.0000  0.0000
   78TTP    C35 1573   0.019  -3.864   1.634  0.0000  0.0000  0.0000
   78TTP    C36 1574   0.035  -3.710   1.639  0.0000  0.0000  0.0000
   78TTP    C37 1575   0.002  -3.672   1.492  0.0000  0.0000  0.0000
   78TTP    C38 1576  -0.003  -3.518   1.462  0.0000  0.0000  0.0000
   78TTP    C39 1577  -0.065  -3.468   1.330  0.0000  0.0000  0.0000
   78TTP    C40 1578   0.026  -3.400   1.223  0.0000  0.0000  0.0000
   78TTP    C41 1579   0.101  -3.269   1.258  0.0000  0.0000  0.0000
   78TTP    C42 1580   0.123  -3.161   1.149  0.0000  0.0000  0.0000
   79FIC     F1 1581  -0.194  -6.012   1.440  0.0000  0.0000  0.0000
   79FIC     F2 1582  -0.303  -6.166   1.249  0.0000  0.0000  0.0000
   79FIC     O1 1583  -0.139  -5.553   1.180  0.0000  0.0000  0.0000
   79FIC     N5 1584  -0.455  -6.054   0.804  0.0000  0.0000  0.0000
   79FIC     N6 1585  -0.407  -5.673   0.625  0.0000  0.0000  0.0000
   79FIC    C19 1586  -0.267  -5.523   0.907  0.0000  0.0000  0.0000
   79FIC    C20 1587  -0.258  -5.634   0.987  0.0000  0.0000  0.0000
   79FIC    C21 1588  -0.196  -5.641   1.115  0.0000  0.0000  0.0000
   79FIC    C22 1589  -0.220  -5.776   1.169  0.0000  0.0000  0.0000
   79FIC    C23 1590  -0.191  -5.825   1.299  0.0000  0.0000  0.0000
   79FIC    C24 1591  -0.219  -5.954   1.324  0.0000  0.0000  0.0000
   79FIC    C25 1592  -0.279  -6.033   1.214  0.0000  0.0000  0.0000
   79FIC    C26 1593  -0.315  -5.989   1.098  0.0000  0.0000  0.0000
   79FIC    C27 1594  -0.280  -5.854   1.070  0.0000  0.0000  0.0000
   79FIC    C28 1595  -0.304  -5.767   0.954  0.0000  0.0000  0.0000
   79FIC    C29 1596  -0.364  -5.810   0.837  0.0000  0.0000  0.0000
   79FIC    C30 1597  -0.412  -5.954   0.825  0.0000  0.0000  0.0000
   79FIC    C31 1598  -0.382  -5.733   0.718  0.0000  0.0000  0.0000
   80FIC     F1 1599   0.769  -4.687   2.157  0.0000  0.0000  0.0000
   80FIC     F2 1600   0.816  -4.445   2.238  0.0000  0.0000  0.0000
   80FIC     O1 1601   0.457  -4.593   1.734  0.0000  0.0000  0.0000
   80FIC     N5 1602   0.639  -4.024   2.088  0.0000  0.0000  0.0000
   80FIC     N6 1603   0.448  -3.969   1.710  0.0000  0.0000  0.0000
   80FIC    C19 1604   0.389  -4.307   1.667  0.0000  0.0000  0.0000
   80FIC    C20 1605   0.468  -4.353   1.766  0.0000  0.0000  0.0000
   80FIC    C21 1606   0.500  -4.499   1.798  0.0000  0.0000  0.0000
   80FIC    C22 1607   0.579  -4.501   1.914  0.0000  0.0000  0.0000
   80FIC    C23 1608   0.635  -4.612   1.980  0.0000  0.0000  0.0000
   80FIC    C24 1609   0.711  -4.595   2.090  0.0000  0.0000  0.0000
   80FIC    C25 1610   0.740  -4.466   2.132  0.0000  0.0000  0.0000
   80FIC    C26 1611   0.685  -4.347   2.074  0.0000  0.0000  0.0000
   80FIC    C27 1612   0.602  -4.368   1.961  0.0000  0.0000  0.0000
   80FIC    C28 1613   0.535  -4.279   1.869  0.0000  0.0000  0.0000
   80FIC    C29 1614   0.540  -4.139   1.881  0.0000  0.0000  0.0000
   80FIC    C30 1615   0.597  -4.075   2.000  0.0000  0.0000  0.0000
   80FIC    C31 1616   0.484  -4.045   1.788  0.0000  0.0000  0.0000
   81BTD     S2 1617   1.066   7.386   2.195  0.0000  0.0000  0.0000
   81BTD     N1 1618   1.053   7.550   2.190  0.0000  0.0000  0.0000
   81BTD     N2 1619   1.001   7.346   2.052  0.0000  0.0000  0.0000
   81BTD     N3 1620   0.800   7.593   1.703  0.0000  0.0000  0.0000
   81BTD     N4 1621   0.856   7.865   1.895  0.0000  0.0000  0.0000
   81BTD     C5 1622   0.957   7.706   2.034  0.0000  0.0000  0.0000
   81BTD     C6 1623   0.997   7.578   2.078  0.0000  0.0000  0.0000
   81BTD     C7 1624   0.968   7.463   1.998  0.0000  0.0000  0.0000
   81BTD     C8 1625   0.901   7.480   1.873  0.0000  0.0000  0.0000
   81BTD    C15 1626   0.865   7.608   1.823  0.0000  0.0000  0.0000
   81BTD    C16 1627   0.884   7.729   1.909  0.0000  0.0000  0.0000
   81BTD    C43 1628   0.753   7.930   1.818  0.0000  0.0000  0.0000
   81BTD    C44 1629   0.611   7.878   1.855  0.0000  0.0000  0.0000
   81BTD    C45 1630   0.573   7.853   2.004  0.0000  0.0000  0.0000
   81BTD    C46 1631   0.567   7.985   2.086  0.0000  0.0000  0.0000
   81BTD    C47 1632   0.495   7.958   1.789  0.0000  0.0000  0.0000
   81BTD    C48 1633   0.478   7.952   1.635  0.0000  0.0000  0.0000
   81BTD    C49 1634   0.389   8.058   1.563  0.0000  0.0000  0.0000
   81BTD    C50 1635   0.410   8.083   1.411  0.0000  0.0000  0.0000
   81BTD    C75 1636   0.788   7.691   1.584  0.0000  0.0000  0.0000
   81BTD    C76 1637   0.926   7.755   1.549  0.0000  0.0000  0.0000
   81BTD    C77 1638   0.925   7.841   1.420  0.0000  0.0000  0.0000
   81BTD    C78 1639   0.780   7.809   1.375  0.0000  0.0000  0.0000
   81BTD    C79 1640   1.047   7.661   1.531  0.0000  0.0000  0.0000
   81BTD    C80 1641   1.026   7.529   1.452  0.0000  0.0000  0.0000
   81BTD    C81 1642   1.122   7.410   1.476  0.0000  0.0000  0.0000
   81BTD    C82 1643   1.254   7.405   1.393  0.0000  0.0000  0.0000
   82TTP     S1 1644   1.032   7.905   2.233  0.0000  0.0000  0.0000
   82TTP     S5 1645   0.849   8.212   2.014  0.0000  0.0000  0.0000
   82TTP     C1 1646   0.908   8.282   2.160  0.0000  0.0000  0.0000
   82TTP     C2 1647   0.969   8.191   2.238  0.0000  0.0000  0.0000
   82TTP     C3 1648   0.971   8.060   2.186  0.0000  0.0000  0.0000
   82TTP     C4 1649   0.966   7.834   2.091  0.0000  0.0000  0.0000
   82TTP    C17 1650   0.906   7.926   2.006  0.0000  0.0000  0.0000
   82TTP    C18 1651   0.905   8.059   2.058  0.0000  0.0000  0.0000
   82TTP    C32 1652   1.027   8.215   2.379  0.0000  0.0000  0.0000
   82TTP    C33 1653   1.179   8.200   2.402  0.0000  0.0000  0.0000
   82TTP    C34 1654   1.237   8.235   2.541  0.0000  0.0000  0.0000
   82TTP    C35 1655   1.390   8.229   2.512  0.0000  0.0000  0.0000
   82TTP    C36 1656   1.436   8.376   2.488  0.0000  0.0000  0.0000
   82TTP    C37 1657   1.368   8.489   2.570  0.0000  0.0000  0.0000
   82TTP    C38 1658   1.452   8.609   2.622  0.0000  0.0000  0.0000
   82TTP    C39 1659   1.342   8.654   2.720  0.0000  0.0000  0.0000
   82TTP    C40 1660   1.387   8.695   2.864  0.0000  0.0000  0.0000
   82TTP    C41 1661   1.306   8.803   2.941  0.0000  0.0000  0.0000
   82TTP    C42 1662   1.368   8.869   3.067  0.0000  0.0000  0.0000
   83TTP     S1 1663   0.868   7.215   1.749  0.0000  0.0000  0.0000
   83TTP     S5 1664   0.646   7.390   1.438  0.0000  0.0000  0.0000
   83TTP     C1 1665   0.640   7.215   1.421  0.0000  0.0000  0.0000
   83TTP     C2 1666   0.711   7.150   1.517  0.0000  0.0000  0.0000
   83TTP     C3 1667   0.772   7.238   1.606  0.0000  0.0000  0.0000
   83TTP     C4 1668   0.866   7.385   1.775  0.0000  0.0000  0.0000
   83TTP    C17 1669   0.803   7.457   1.672  0.0000  0.0000  0.0000
   83TTP    C18 1670   0.744   7.372   1.577  0.0000  0.0000  0.0000
   83TTP    C32 1671   0.729   6.996   1.526  0.0000  0.0000  0.0000
   83TTP    C33 1672   0.847   6.943   1.438  0.0000  0.0000  0.0000
   83TTP    C34 1673   0.865   6.790   1.443  0.0000  0.0000  0.0000
   83TTP    C35 1674   0.893   6.747   1.590  0.0000  0.0000  0.0000
   83TTP    C36 1675   0.907   6.596   1.622  0.0000  0.0000  0.0000
   83TTP    C37 1676   0.784   6.502   1.608  0.0000  0.0000  0.0000
   83TTP    C38 1677   0.870   6.375   1.636  0.0000  0.0000  0.0000
   83TTP    C39 1678   0.776   6.275   1.565  0.0000  0.0000  0.0000
   83TTP    C40 1679   0.770   6.277   1.409  0.0000  0.0000  0.0000
   83TTP    C41 1680   0.663   6.364   1.338  0.0000  0.0000  0.0000
   83TTP    C42 1681   0.698   6.508   1.288  0.0000  0.0000  0.0000
   84FIC     F1 1682   0.576   8.931   1.788  0.0000  0.0000  0.0000
   84FIC     F2 1683   0.617   9.067   2.017  0.0000  0.0000  0.0000
   84FIC     O1 1684   0.786   8.455   1.925  0.0000  0.0000  0.0000
   84FIC     N5 1685   0.825   8.938   2.426  0.0000  0.0000  0.0000
   84FIC     N6 1686   0.996   8.541   2.515  0.0000  0.0000  0.0000
   84FIC    C19 1687   0.891   8.417   2.202  0.0000  0.0000  0.0000
   84FIC    C20 1688   0.839   8.531   2.150  0.0000  0.0000  0.0000
   84FIC    C21 1689   0.784   8.542   2.016  0.0000  0.0000  0.0000
   84FIC    C22 1690   0.738   8.681   2.001  0.0000  0.0000  0.0000
   84FIC    C23 1691   0.677   8.735   1.884  0.0000  0.0000  0.0000
   84FIC    C24 1692   0.635   8.868   1.905  0.0000  0.0000  0.0000
   84FIC    C25 1693   0.655   8.936   2.017  0.0000  0.0000  0.0000
   84FIC    C26 1694   0.712   8.882   2.122  0.0000  0.0000  0.0000
   84FIC    C27 1695   0.755   8.754   2.109  0.0000  0.0000  0.0000
   84FIC    C28 1696   0.823   8.662   2.210  0.0000  0.0000  0.0000
   84FIC    C29 1697   0.865   8.690   2.351  0.0000  0.0000  0.0000
   84FIC    C30 1698   0.845   8.834   2.390  0.0000  0.0000  0.0000
   84FIC    C31 1699   0.932   8.604   2.446  0.0000  0.0000  0.0000
   85FIC     F1 1700   0.181   7.487   0.808  0.0000  0.0000  0.0000
   85FIC     F2 1701   0.127   7.236   0.745  0.0000  0.0000  0.0000
   85FIC     O1 1702   0.502   7.424   1.224  0.0000  0.0000  0.0000
   85FIC     N5 1703   0.276   6.822   0.951  0.0000  0.0000  0.0000
   85FIC     N6 1704   0.470   6.805   1.325  0.0000  0.0000  0.0000
   85FIC    C19 1705   0.563   7.144   1.323  0.0000  0.0000  0.0000
   85FIC    C20 1706   0.482   7.181   1.221  0.0000  0.0000  0.0000
   85FIC    C21 1707   0.457   7.322   1.178  0.0000  0.0000  0.0000
   85FIC    C22 1708   0.372   7.313   1.058  0.0000  0.0000  0.0000
   85FIC    C23 1709   0.320   7.420   0.985  0.0000  0.0000  0.0000
   85FIC    C24 1710   0.244   7.389   0.881  0.0000  0.0000  0.0000
   85FIC    C25 1711   0.212   7.256   0.848  0.0000  0.0000  0.0000
   85FIC    C26 1712   0.260   7.153   0.922  0.0000  0.0000  0.0000
   85FIC    C27 1713   0.342   7.182   1.027  0.0000  0.0000  0.0000
   85FIC    C28 1714   0.406   7.096   1.131  0.0000  0.0000  0.0000
   85FIC    C29 1715   0.393   6.958   1.136  0.0000  0.0000  0.0000
   85FIC    C30 1716   0.328   6.884   1.034  0.0000  0.0000  0.0000
   85FIC    C31 1717   0.437   6.875   1.245  0.0000  0.0000  0.0000
   86BTD     S2 1718  -0.060   7.378  -0.200  0.0000  0.0000  0.0000
   86BTD     N1 1719  -0.071   7.539  -0.189  0.0000  0.0000  0.0000
   86BTD     N2 1720   0.019   7.346  -0.063  0.0000  0.0000  0.0000
   86BTD     N3 1721   0.188   7.608   0.299  0.0000  0.0000  0.0000
   86BTD     N4 1722   0.075   7.868   0.121  0.0000  0.0000  0.0000
   86BTD     C5 1723   0.005   7.704  -0.020  0.0000  0.0000  0.0000
   86BTD     C6 1724  -0.012   7.574  -0.076  0.0000  0.0000  0.0000
   86BTD     C7 1725   0.039   7.463  -0.003  0.0000  0.0000  0.0000
   86BTD     C8 1726   0.100   7.484   0.122  0.0000  0.0000  0.0000
   86BTD    C15 1727   0.119   7.617   0.175  0.0000  0.0000  0.0000
   86BTD    C16 1728   0.071   7.729   0.098  0.0000  0.0000  0.0000
   86BTD    C43 1729   0.163   7.945   0.210  0.0000  0.0000  0.0000
   86BTD    C44 1730   0.316   7.935   0.180  0.0000  0.0000  0.0000
   86BTD    C45 1731   0.388   8.034   0.274  0.0000  0.0000  0.0000
   86BTD    C46 1732   0.538   7.992   0.273  0.0000  0.0000  0.0000
   86BTD    C47 1733   0.349   7.962   0.030  0.0000  0.0000  0.0000
   86BTD    C48 1734   0.363   8.103  -0.033  0.0000  0.0000  0.0000
   86BTD    C49 1735   0.377   8.071  -0.184  0.0000  0.0000  0.0000
   86BTD    C50 1736   0.474   8.025  -0.298  0.0000  0.0000  0.0000
   86BTD    C75 1737   0.175   7.696   0.415  0.0000  0.0000  0.0000
   86BTD    C76 1738   0.026   7.726   0.451  0.0000  0.0000  0.0000
   86BTD    C77 1739   0.017   7.814   0.578  0.0000  0.0000  0.0000
   86BTD    C78 1740  -0.124   7.867   0.613  0.0000  0.0000  0.0000
   86BTD    C79 1741  -0.059   7.599   0.471  0.0000  0.0000  0.0000
   86BTD    C80 1742  -0.032   7.510   0.595  0.0000  0.0000  0.0000
   86BTD    C81 1743  -0.124   7.385   0.590  0.0000  0.0000  0.0000
   86BTD    C82 1744  -0.093   7.259   0.503  0.0000  0.0000  0.0000
   87TTP     S1 1745  -0.122   7.894  -0.207  0.0000  0.0000  0.0000
   87TTP     S5 1746  -0.023   8.213   0.050  0.0000  0.0000  0.0000
   87TTP     C1 1747  -0.120   8.276  -0.082  0.0000  0.0000  0.0000
   87TTP     C2 1748  -0.158   8.179  -0.170  0.0000  0.0000  0.0000
   87TTP     C3 1749  -0.102   8.056  -0.137  0.0000  0.0000  0.0000
   87TTP     C4 1750  -0.037   7.833  -0.076  0.0000  0.0000  0.0000
   87TTP    C17 1751   0.014   7.924   0.015  0.0000  0.0000  0.0000
   87TTP    C18 1752  -0.030   8.058  -0.025  0.0000  0.0000  0.0000
   87TTP    C32 1753  -0.243   8.196  -0.298  0.0000  0.0000  0.0000
   87TTP    C33 1754  -0.153   8.230  -0.420  0.0000  0.0000  0.0000
   87TTP    C34 1755  -0.246   8.253  -0.541  0.0000  0.0000  0.0000
   87TTP    C35 1756  -0.187   8.324  -0.666  0.0000  0.0000  0.0000
   87TTP    C36 1757  -0.282   8.418  -0.747  0.0000  0.0000  0.0000
   87TTP    C37 1758  -0.401   8.354  -0.824  0.0000  0.0000  0.0000
   87TTP    C38 1759  -0.482   8.222  -0.836  0.0000  0.0000  0.0000
   87TTP    C39 1760  -0.564   8.172  -0.713  0.0000  0.0000  0.0000
   87TTP    C40 1761  -0.623   8.274  -0.613  0.0000  0.0000  0.0000
   87TTP    C41 1762  -0.610   8.248  -0.460  0.0000  0.0000  0.0000
   87TTP    C42 1763  -0.628   8.369  -0.365  0.0000  0.0000  0.0000
   88TTP     S1 1764   0.183   7.225   0.237  0.0000  0.0000  0.0000
   88TTP     S5 1765   0.385   7.428   0.545  0.0000  0.0000  0.0000
   88TTP     C1 1766   0.416   7.255   0.567  0.0000  0.0000  0.0000
   88TTP     C2 1767   0.351   7.181   0.466  0.0000  0.0000  0.0000
   88TTP     C3 1768   0.274   7.261   0.382  0.0000  0.0000  0.0000
   88TTP     C4 1769   0.160   7.397   0.216  0.0000  0.0000  0.0000
   88TTP    C17 1770   0.214   7.472   0.320  0.0000  0.0000  0.0000
   88TTP    C18 1771   0.284   7.395   0.415  0.0000  0.0000  0.0000
   88TTP    C32 1772   0.344   7.027   0.459  0.0000  0.0000  0.0000
   88TTP    C33 1773   0.239   6.960   0.553  0.0000  0.0000  0.0000
   88TTP    C34 1774   0.232   6.805   0.537  0.0000  0.0000  0.0000
   88TTP    C35 1775   0.123   6.755   0.635  0.0000  0.0000  0.0000
   88TTP    C36 1776   0.139   6.601   0.641  0.0000  0.0000  0.0000
   88TTP    C37 1777   0.106   6.563   0.493  0.0000  0.0000  0.0000
   88TTP    C38 1778   0.100   6.409   0.464  0.0000  0.0000  0.0000
   88TTP    C39 1779   0.038   6.358   0.332  0.0000  0.0000  0.0000
   88TTP    C40 1780   0.129   6.290   0.225  0.0000  0.0000  0.0000
   88TTP    C41 1781   0.204   6.159   0.259  0.0000  0.0000  0.0000
   88TTP    C42 1782   0.226   6.052   0.150  0.0000  0.0000  0.0000
   89FIC     F1 1783  -0.090   8.903   0.442  0.0000  0.0000  0.0000
   89FIC     F2 1784  -0.199   9.057   0.250  0.0000  0.0000  0.0000
   89FIC     O1 1785  -0.036   8.444   0.181  0.0000  0.0000  0.0000
   89FIC     N5 1786  -0.352   8.944  -0.195  0.0000  0.0000  0.0000
   89FIC     N6 1787  -0.304   8.563  -0.374  0.0000  0.0000  0.0000
   89FIC    C19 1788  -0.164   8.413  -0.092  0.0000  0.0000  0.0000
   89FIC    C20 1789  -0.155   8.524  -0.011  0.0000  0.0000  0.0000
   89FIC    C21 1790  -0.092   8.532   0.116  0.0000  0.0000  0.0000
   89FIC    C22 1791  -0.117   8.666   0.170  0.0000  0.0000  0.0000
   89FIC    C23 1792  -0.087   8.716   0.301  0.0000  0.0000  0.0000
   89FIC    C24 1793  -0.116   8.845   0.325  0.0000  0.0000  0.0000
   89FIC    C25 1794  -0.176   8.924   0.216  0.0000  0.0000  0.0000
   89FIC    C26 1795  -0.212   8.879   0.099  0.0000  0.0000  0.0000
   89FIC    C27 1796  -0.177   8.744   0.071  0.0000  0.0000  0.0000
   89FIC    C28 1797  -0.201   8.658  -0.045  0.0000  0.0000  0.0000
   89FIC    C29 1798  -0.261   8.701  -0.161  0.0000  0.0000  0.0000
   89FIC    C30 1799  -0.309   8.844  -0.174  0.0000  0.0000  0.0000
   89FIC    C31 1800  -0.278   8.623  -0.280  0.0000  0.0000  0.0000
   90FIC     F1 1801   0.872   7.578   1.158  0.0000  0.0000  0.0000
   90FIC     F2 1802   0.919   7.335   1.239  0.0000  0.0000  0.0000
   90FIC     O1 1803   0.560   7.484   0.736  0.0000  0.0000  0.0000
   90FIC     N5 1804   0.742   6.915   1.089  0.0000  0.0000  0.0000
   90FIC     N6 1805   0.552   6.860   0.711  0.0000  0.0000  0.0000
   90FIC    C19 1806   0.492   7.197   0.668  0.0000  0.0000  0.0000
   90FIC    C20 1807   0.572   7.243   0.767  0.0000  0.0000  0.0000
   90FIC    C21 1808   0.603   7.390   0.800  0.0000  0.0000  0.0000
   90FIC    C22 1809   0.682   7.392   0.915  0.0000  0.0000  0.0000
   90FIC    C23 1810   0.739   7.502   0.982  0.0000  0.0000  0.0000
   90FIC    C24 1811   0.815   7.485   1.091  0.0000  0.0000  0.0000
   90FIC    C25 1812   0.844   7.356   1.134  0.0000  0.0000  0.0000
   90FIC    C26 1813   0.788   7.237   1.075  0.0000  0.0000  0.0000
   90FIC    C27 1814   0.705   7.259   0.963  0.0000  0.0000  0.0000
   90FIC    C28 1815   0.639   7.169   0.870  0.0000  0.0000  0.0000
   90FIC    C29 1816   0.643   7.030   0.882  0.0000  0.0000  0.0000
   90FIC    C30 1817   0.700   6.965   1.001  0.0000  0.0000  0.0000
   90FIC    C31 1818   0.587   6.936   0.789  0.0000  0.0000  0.0000
   91BTD     S2 1819  -1.066   4.176  -2.195  0.0000  0.0000  0.0000
   91BTD     N1 1820  -1.053   4.012  -2.190  0.0000  0.0000  0.0000
   91BTD     N2 1821  -1.001   4.216  -2.052  0.0000  0.0000  0.0000
   91BTD     N3 1822  -0.800   3.969  -1.703  0.0000  0.0000  0.0000
   91BTD     N4 1823  -0.856   3.697  -1.895  0.0000  0.0000  0.0000
   91BTD     C5 1824  -0.957   3.856  -2.034  0.0000  0.0000  0.0000
   91BTD     C6 1825  -0.997   3.984  -2.078  0.0000  0.0000  0.0000
   91BTD     C7 1826  -0.968   4.099  -1.998  0.0000  0.0000  0.0000
   91BTD     C8 1827  -0.901   4.082  -1.873  0.0000  0.0000  0.0000
   91BTD    C15 1828  -0.865   3.954  -1.823  0.0000  0.0000  0.0000
   91BTD    C16 1829  -0.884   3.833  -1.909  0.0000  0.0000  0.0000
   91BTD    C43 1830  -0.753   3.632  -1.818  0.0000  0.0000  0.0000
   91BTD    C44 1831  -0.611   3.684  -1.855  0.0000  0.0000  0.0000
   91BTD    C45 1832  -0.573   3.709  -2.004  0.0000  0.0000  0.0000
   91BTD    C46 1833  -0.567   3.577  -2.086  0.0000  0.0000  0.0000
   91BTD    C47 1834  -0.495   3.604  -1.789  0.0000  0.0000  0.0000
   91BTD    C48 1835  -0.478   3.610  -1.635  0.0000  0.0000  0.0000
   91BTD    C49 1836  -0.389   3.504  -1.563  0.0000  0.0000  0.0000
   91BTD    C50 1837  -0.410   3.479  -1.411  0.0000  0.0000  0.0000
   91BTD    C75 1838  -0.788   3.871  -1.584  0.0000  0.0000  0.0000
   91BTD    C76 1839  -0.926   3.807  -1.549  0.0000  0.0000  0.0000
   91BTD    C77 1840  -0.925   3.721  -1.420  0.0000  0.0000  0.0000
   91BTD    C78 1841  -0.780   3.753  -1.375  0.0000  0.0000  0.0000
   91BTD    C79 1842  -1.047   3.901  -1.531  0.0000  0.0000  0.0000
   91BTD    C80 1843  -1.026   4.033  -1.452  0.0000  0.0000  0.0000
   91BTD    C81 1844  -1.122   4.152  -1.476  0.0000  0.0000  0.0000
   91BTD    C82 1845  -1.254   4.157  -1.393  0.0000  0.0000  0.0000
   92TTP     S1 1846  -1.032   3.657  -2.233  0.0000  0.0000  0.0000
   92TTP     S5 1847  -0.849   3.350  -2.014  0.0000  0.0000  0.0000
   92TTP     C1 1848  -0.908   3.280  -2.160  0.0000  0.0000  0.0000
   92TTP     C2 1849  -0.969   3.371  -2.238  0.0000  0.0000  0.0000
   92TTP     C3 1850  -0.971   3.502  -2.186  0.0000  0.0000  0.0000
   92TTP     C4 1851  -0.966   3.728  -2.091  0.0000  0.0000  0.0000
   92TTP    C17 1852  -0.906   3.636  -2.006  0.0000  0.0000  0.0000
   92TTP    C18 1853  -0.905   3.503  -2.058  0.0000  0.0000  0.0000
   92TTP    C32 1854  -1.027   3.347  -2.379  0.0000  0.0000  0.0000
   92TTP    C33 1855  -1.179   3.362  -2.402  0.0000  0.0000  0.0000
   92TTP    C34 1856  -1.237   3.327  -2.541  0.0000  0.0000  0.0000
   92TTP    C35 1857  -1.390   3.333  -2.512  0.0000  0.0000  0.0000
   92TTP    C36 1858  -1.436   3.186  -2.488  0.0000  0.0000  0.0000
   92TTP    C37 1859  -1.368   3.073  -2.570  0.0000  0.0000  0.0000
   92TTP    C38 1860  -1.452   2.953  -2.622  0.0000  0.0000  0.0000
   92TTP    C39 1861  -1.342   2.908  -2.720  0.0000  0.0000  0.0000
   92TTP    C40 1862  -1.387   2.867  -2.864  0.0000  0.0000  0.0000
   92TTP    C41 1863  -1.306   2.759  -2.941  0.0000  0.0000  0.0000
   92TTP    C42 1864  -1.368   2.693  -3.067  0.0000  0.0000  0.0000
   93TTP     S1 1865  -0.868   4.347  -1.749  0.0000  0.0000  0.0000
   93TTP     S5 1866  -0.646   4.172  -1.438  0.0000  0.0000  0.0000
   93TTP     C1 1867  -0.640   4.347  -1.421  0.0000  0.0000  0.0000
   93TTP     C2 1868  -0.711   4.412  -1.517  0.0000  0.0000  0.0000
   93TTP     C3 1869  -0.772   4.324  -1.606  0.0000  0.0000  0.0000
   93TTP     C4 1870  -0.866   4.177  -1.775  0.0000  0.0000  0.0000
   93TTP    C17 1871  -0.803   4.105  -1.672  0.0000  0.0000  0.0000
   93TTP    C18 1872  -0.744   4.190  -1.577  0.0000  0.0000  0.0000
   93TTP    C32 1873  -0.729   4.566  -1.526  0.0000  0.0000  0.0000
   93TTP    C33 1874  -0.847   4.619  -1.438  0.0000  0.0000  0.0000
   93TTP    C34 1875  -0.865   4.772  -1.443  0.0000  0.0000  0.0000
   93TTP    C35 1876  -0.893   4.815  -1.590  0.0000  0.0000  0.0000
   93TTP    C36 1877  -0.907   4.966  -1.622  0.0000  0.0000  0.0000
   93TTP    C37 1878  -0.784   5.060  -1.608  0.0000  0.0000  0.0000
   93TTP    C38 1879  -0.870   5.187  -1.636  0.0000  0.0000  0.0000
   93TTP    C39 1880  -0.776   5.287  -1.565  0.0000  0.0000  0.0000
   93TTP    C40 1881  -0.770   5.285  -1.409  0.0000  0.0000  0.0000
   93TTP    C41 1882  -0.663   5.198  -1.338  0.0000  0.0000  0.0000
   93TTP    C42 1883  -0.698   5.054  -1.288  0.0000  0.0000  0.0000
   94FIC     F1 1884  -0.576   2.631  -1.788  0.0000  0.0000  0.0000
   94FIC     F2 1885  -0.617   2.495  -2.017  0.0000  0.0000  0.0000
   94FIC     O1 1886  -0.786   3.107  -1.925  0.0000  0.0000  0.0000
   94FIC     N5 1887  -0.825   2.624  -2.426  0.0000  0.0000  0.0000
   94FIC     N6 1888  -0.996   3.021  -2.515  0.0000  0.0000  0.0000
   94FIC    C19 1889  -0.891   3.145  -2.202  0.0000  0.0000  0.0000
   94FIC    C20 1890  -0.839   3.031  -2.150  0.0000  0.0000  0.0000
   94FIC    C21 1891  -0.784   3.020  -2.016  0.0000  0.0000  0.0000
   94FIC    C22 1892  -0.738   2.881  -2.001  0.0000  0.0000  0.0000
   94FIC    C23 1893  -0.677   2.827  -1.884  0.0000  0.0000  0.0000
   94FIC    C24 1894  -0.635   2.694  -1.905  0.0000  0.0000  0.0000
   94FIC    C25 1895  -0.655   2.626  -2.017  0.0000  0.0000  0.0000
   94FIC    C26 1896  -0.712   2.680  -2.122  0.0000  0.0000  0.0000
   94FIC    C27 1897  -0.755   2.808  -2.109  0.0000  0.0000  0.0000
   94FIC    C28 1898  -0.823   2.900  -2.210  0.0000  0.0000  0.0000
   94FIC    C29 1899  -0.865   2.872  -2.351  0.0000  0.0000  0.0000
   94FIC    C30 1900  -0.844   2.728  -2.390  0.0000  0.0000  0.0000
   94FIC    C31 1901  -0.932   2.958  -2.446  0.0000  0.0000  0.0000
   95FIC     F1 1902  -0.181   4.075  -0.808  0.0000  0.0000  0.0000
   95FIC     F2 1903  -0.127   4.326  -0.745  0.0000  0.0000  0.0000
   95FIC     O1 1904  -0.502   4.138  -1.224  0.0000  0.0000  0.0000
   95FIC     N5 1905  -0.276   4.740  -0.951  0.0000  0.0000  0.0000
   95FIC     N6 1906  -0.470   4.757  -1.325  0.0000  0.0000  0.0000
   95FIC    C19 1907  -0.563   4.418  -1.323  0.0000  0.0000  0.0000
   95FIC    C20 1908  -0.482   4.381  -1.221  0.0000  0.0000  0.0000
   95FIC    C21 1909  -0.457   4.240  -1.178  0.0000  0.0000  0.0000
   95FIC    C22 1910  -0.372   4.249  -1.058  0.0000  0.0000  0.0000
   95FIC    C23 1911  -0.320   4.142  -0.985  0.0000  0.0000  0.0000
   95FIC    C24 1912  -0.244   4.173  -0.881  0.0000  0.0000  0.0000
   95FIC    C25 1913  -0.212   4.306  -0.848  0.0000  0.0000  0.0000
   95FIC    C26 1914  -0.260   4.409  -0.922  0.0000  0.0000  0.0000
   95FIC    C27 1915  -0.342   4.380  -1.027  0.0000  0.0000  0.0000
   95FIC    C28 1916  -0.406   4.466  -1.131  0.0000  0.0000  0.0000
   95FIC    C29 1917  -0.393   4.604  -1.136  0.0000  0.0000  0.0000
   95FIC    C30 1918  -0.328   4.678  -1.034  0.0000  0.0000  0.0000
   95FIC    C31 1919  -0.437   4.687  -1.245  0.0000  0.0000  0.0000
   96BTD     S2 1920   0.060   4.184   0.200  0.0000  0.0000  0.0000
   96BTD     N1 1921   0.071   4.023   0.189  0.0000  0.0000  0.0000
   96BTD     N2 1922  -0.019   4.216   0.063  0.0000  0.0000  0.0000
   96BTD     N3 1923  -0.188   3.954  -0.299  0.0000  0.0000  0.0000
   96BTD     N4 1924  -0.075   3.694  -0.121  0.0000  0.0000  0.0000
   96BTD     C5 1925  -0.005   3.858   0.020  0.0000  0.0000  0.0000
   96BTD     C6 1926   0.012   3.988   0.076  0.0000  0.0000  0.0000
   96BTD     C7 1927  -0.039   4.099   0.003  0.0000  0.0000  0.0000
   96BTD     C8 1928  -0.100   4.078  -0.122  0.0000  0.0000  0.0000
   96BTD    C15 1929  -0.119   3.945  -0.175  0.0000  0.0000  0.0000
   96BTD    C16 1930  -0.071   3.833  -0.098  0.0000  0.0000  0.0000
   96BTD    C43 1931  -0.163   3.617  -0.210  0.0000  0.0000  0.0000
   96BTD    C44 1932  -0.316   3.627  -0.180  0.0000  0.0000  0.0000
   96BTD    C45 1933  -0.388   3.528  -0.274  0.0000  0.0000  0.0000
   96BTD    C46 1934  -0.538   3.570  -0.273  0.0000  0.0000  0.0000
   96BTD    C47 1935  -0.349   3.600  -0.030  0.0000  0.0000  0.0000
   96BTD    C48 1936  -0.363   3.459   0.033  0.0000  0.0000  0.0000
   96BTD    C49 1937  -0.377   3.491   0.184  0.0000  0.0000  0.0000
   96BTD    C50 1938  -0.474   3.537   0.298  0.0000  0.0000  0.0000
   96BTD    C75 1939  -0.175   3.866  -0.415  0.0000  0.0000  0.0000
   96BTD    C76 1940  -0.026   3.836  -0.451  0.0000  0.0000  0.0000
   96BTD    C77 1941  -0.017   3.748  -0.578  0.0000  0.0000  0.0000
   96BTD    C78 1942   0.124   3.695  -0.613  0.0000  0.0000  0.0000
   96BTD    C79 1943   0.059   3.963  -0.471  0.0000  0.0000  0.0000
   96BTD    C80 1944   0.032   4.052  -0.595  0.0000  0.0000  0.0000
   96BTD    C81 1945   0.124   4.177  -0.590  0.0000  0.0000  0.0000
   96BTD    C82 1946   0.093   4.303  -0.503  0.0000  0.0000  0.0000
   97TTP     S1 1947   0.122   3.668   0.207  0.0000  0.0000  0.0000
   97TTP     S5 1948   0.023   3.349  -0.050  0.0000  0.0000  0.0000
   97TTP     C1 1949   0.120   3.286   0.082  0.0000  0.0000  0.0000
   97TTP     C2 1950   0.158   3.383   0.170  0.0000  0.0000  0.0000
   97TTP     C3 1951   0.102   3.506   0.137  0.0000  0.0000  0.0000
   97TTP     C4 1952   0.037   3.729   0.076  0.0000  0.0000  0.0000
   97TTP    C17 1953  -0.014   3.638  -0.015  0.0000  0.0000  0.0000
   97TTP    C18 1954   0.030   3.504   0.025  0.0000  0.0000  0.0000
   97TTP    C32 1955   0.243   3.366   0.298  0.0000  0.0000  0.0000
   97TTP    C33 1956   0.153   3.332   0.420  0.0000  0.0000  0.0000
   97TTP    C34 1957   0.246   3.309   0.541  0.0000  0.0000  0.0000
   97TTP    C35 1958   0.187   3.238   0.666  0.0000  0.0000  0.0000
   97TTP    C36 1959   0.282   3.144   0.747  0.0000  0.0000  0.0000
   97TTP    C37 1960   0.401   3.208   0.824  0.0000  0.0000  0.0000
   97TTP    C38 1961   0.482   3.340   0.836  0.0000  0.0000  0.0000
   97TTP    C39 1962   0.564   3.390   0.713  0.0000  0.0000  0.0000
   97TTP    C40 1963   0.623   3.288   0.613  0.0000  0.0000  0.0000
   97TTP    C41 1964   0.610   3.314   0.460  0.0000  0.0000  0.0000
   97TTP    C42 1965   0.628   3.193   0.365  0.0000  0.0000  0.0000
   98TTP     S1 1966  -0.183   4.337  -0.237  0.0000  0.0000  0.0000
   98TTP     S5 1967  -0.385   4.134  -0.545  0.0000  0.0000  0.0000
   98TTP     C1 1968  -0.416   4.307  -0.567  0.0000  0.0000  0.0000
   98TTP     C2 1969  -0.351   4.381  -0.466  0.0000  0.0000  0.0000
   98TTP     C3 1970  -0.274   4.301  -0.382  0.0000  0.0000  0.0000
   98TTP     C4 1971  -0.160   4.165  -0.216  0.0000  0.0000  0.0000
   98TTP    C17 1972  -0.214   4.090  -0.320  0.0000  0.0000  0.0000
   98TTP    C18 1973  -0.284   4.167  -0.415  0.0000  0.0000  0.0000
   98TTP    C32 1974  -0.344   4.535  -0.459  0.0000  0.0000  0.0000
   98TTP    C33 1975  -0.238   4.602  -0.553  0.0000  0.0000  0.0000
   98TTP    C34 1976  -0.232   4.757  -0.537  0.0000  0.0000  0.0000
   98TTP    C35 1977  -0.123   4.807  -0.635  0.0000  0.0000  0.0000
   98TTP    C36 1978  -0.139   4.961  -0.641  0.0000  0.0000  0.0000
   98TTP    C37 1979  -0.106   4.999  -0.493  0.0000  0.0000  0.0000
   98TTP    C38 1980  -0.100   5.153  -0.464  0.0000  0.0000  0.0000
   98TTP    C39 1981  -0.038   5.204  -0.332  0.0000  0.0000  0.0000
   98TTP    C40 1982  -0.129   5.272  -0.225  0.0000  0.0000  0.0000
   98TTP    C41 1983  -0.204   5.403  -0.259  0.0000  0.0000  0.0000
   98TTP    C42 1984  -0.226   5.510  -0.150  0.0000  0.0000  0.0000
   99FIC     F1 1985   0.090   2.659  -0.442  0.0000  0.0000  0.0000
   99FIC     F2 1986   0.199   2.505  -0.250  0.0000  0.0000  0.0000
   99FIC     O1 1987   0.036   3.118  -0.181  0.0000  0.0000  0.0000
   99FIC     N5 1988   0.352   2.618   0.195  0.0000  0.0000  0.0000
   99FIC     N6 1989   0.304   2.999   0.374  0.0000  0.0000  0.0000
   99FIC    C19 1990   0.164   3.149   0.092  0.0000  0.0000  0.0000
   99FIC    C20 1991   0.155   3.038   0.011  0.0000  0.0000  0.0000
   99FIC    C21 1992   0.092   3.030  -0.116  0.0000  0.0000  0.0000
   99FIC    C22 1993   0.117   2.896  -0.170  0.0000  0.0000  0.0000
   99FIC    C23 1994   0.087   2.846  -0.301  0.0000  0.0000  0.0000
   99FIC    C24 1995   0.116   2.717  -0.325  0.0000  0.0000  0.0000
   99FIC    C25 1996   0.176   2.638  -0.216  0.0000  0.0000  0.0000
   99FIC    C26 1997   0.212   2.683  -0.099  0.0000  0.0000  0.0000
   99FIC    C27 1998   0.177   2.818  -0.071  0.0000  0.0000  0.0000
   99FIC    C28 1999   0.201   2.904   0.045  0.0000  0.0000  0.0000
   99FIC    C29 2000   0.261   2.861   0.161  0.0000  0.0000  0.0000
   99FIC    C30 2001   0.309   2.718   0.174  0.0000  0.0000  0.0000
   99FIC    C31 2002   0.278   2.939   0.280  0.0000  0.0000  0.0000
  100FIC     F1 2003  -0.872   3.984  -1.158  0.0000  0.0000  0.0000
  100FIC     F2 2004  -0.919   4.227  -1.239  0.0000  0.0000  0.0000
  100FIC     O1 2005  -0.560   4.078  -0.736  0.0000  0.0000  0.0000
  100FIC     N5 2006  -0.742   4.647  -1.089  0.0000  0.0000  0.0000
  100FIC     N6 2007  -0.552   4.702  -0.711  0.0000  0.0000  0.0000
  100FIC    C19 2008  -0.492   4.365  -0.668  0.0000  0.0000  0.0000
  100FIC    C20 2009  -0.572   4.319  -0.767  0.0000  0.0000  0.0000
  100FIC    C21 2010  -0.603   4.172  -0.800  0.0000  0.0000  0.0000
  100FIC    C22 2011  -0.682   4.170  -0.915  0.0000  0.0000  0.0000
  100FIC    C23 2012  -0.739   4.060  -0.982  0.0000  0.0000  0.0000
  100FIC    C24 2013  -0.815   4.077  -1.091  0.0000  0.0000  0.0000
  100FIC    C25 2014  -0.844   4.206  -1.134  0.0000  0.0000  0.0000
  100FIC    C26 2015  -0.788   4.325  -1.075  0.0000  0.0000  0.0000
  100FIC    C27 2016  -0.705   4.303  -0.963  0.0000  0.0000  0.0000
  100FIC    C28 2017  -0.639   4.393  -0.870  0.0000  0.0000  0.0000
  100FIC    C29 2018  -0.643   4.532  -0.882  0.0000  0.0000  0.0000
  100FIC    C30 2019  -0.700   4.597  -1.001  0.0000  0.0000  0.0000
  100FIC    C31 2020  -0.587   4.626  -0.789  0.0000  0.0000  0.0000
  101BTD     S2 2021  -1.170  10.276  -1.196  0.0000  0.0000  0.0000
  101BTD     N1 2022  -1.156  10.441  -1.192  0.0000  0.0000  0.0000
  101BTD     N2 2023  -1.105  10.237  -1.054  0.0000  0.0000  0.0000
  101BTD     N3 2024  -0.903  10.484  -0.704  0.0000  0.0000  0.0000
  101BTD     N4 2025  -0.960  10.755  -0.897  0.0000  0.0000  0.0000
  101BTD     C5 2026  -1.060  10.596  -1.035  0.0000  0.0000  0.0000
  101BTD     C6 2027  -1.100  10.468  -1.079  0.0000  0.0000  0.0000
  101BTD     C7 2028  -1.071  10.354  -0.999  0.0000  0.0000  0.0000
  101BTD     C8 2029  -1.005  10.371  -0.875  0.0000  0.0000  0.0000
  101BTD    C15 2030  -0.969  10.498  -0.825  0.0000  0.0000  0.0000
  101BTD    C16 2031  -0.987  10.620  -0.910  0.0000  0.0000  0.0000
  101BTD    C43 2032  -0.856  10.821  -0.820  0.0000  0.0000  0.0000
  101BTD    C44 2033  -0.714  10.769  -0.856  0.0000  0.0000  0.0000
  101BTD    C45 2034  -0.676  10.744  -1.006  0.0000  0.0000  0.0000
  101BTD    C46 2035  -0.671  10.875  -1.087  0.0000  0.0000  0.0000
  101BTD    C47 2036  -0.599  10.849  -0.790  0.0000  0.0000  0.0000
  101BTD    C48 2037  -0.581  10.843  -0.637  0.0000  0.0000  0.0000
  101BTD    C49 2038  -0.493  10.949  -0.565  0.0000  0.0000  0.0000
  101BTD    C50 2039  -0.513  10.973  -0.413  0.0000  0.0000  0.0000
  101BTD    C75 2040  -0.892  10.582  -0.586  0.0000  0.0000  0.0000
  101BTD    C76 2041  -1.030  10.645  -0.551  0.0000  0.0000  0.0000
  101BTD    C77 2042  -1.028  10.731  -0.422  0.0000  0.0000  0.0000
  101BTD    C78 2043  -0.884  10.700  -0.376  0.0000  0.0000  0.0000
  101BTD    C79 2044  -1.151  10.551  -0.532  0.0000  0.0000  0.0000
  101BTD    C80 2045  -1.130  10.420  -0.453  0.0000  0.0000  0.0000
  101BTD    C81 2046  -1.226  10.300  -0.478  0.0000  0.0000  0.0000
  101BTD    C82 2047  -1.357  10.296  -0.394  0.0000  0.0000  0.0000
  102TTP     S1 2048  -1.135  10.796  -1.234  0.0000  0.0000  0.0000
  102TTP     S5 2049  -0.952  11.103  -1.016  0.0000  0.0000  0.0000
  102TTP     C1 2050  -1.012  11.173  -1.162  0.0000  0.0000  0.0000
  102TTP     C2 2051  -1.072  11.081  -1.239  0.0000  0.0000  0.0000
  102TTP     C3 2052  -1.074  10.951  -1.188  0.0000  0.0000  0.0000
  102TTP     C4 2053  -1.070  10.725  -1.092  0.0000  0.0000  0.0000
  102TTP    C17 2054  -1.009  10.817  -1.008  0.0000  0.0000  0.0000
  102TTP    C18 2055  -1.008  10.949  -1.060  0.0000  0.0000  0.0000
  102TTP    C32 2056  -1.130  11.106  -1.381  0.0000  0.0000  0.0000
  102TTP    C33 2057  -1.283  11.091  -1.403  0.0000  0.0000  0.0000
  102TTP    C34 2058  -1.341  11.126  -1.543  0.0000  0.0000  0.0000
  102TTP    C35 2059  -1.493  11.120  -1.514  0.0000  0.0000  0.0000
  102TTP    C36 2060  -1.540  11.266  -1.489  0.0000  0.0000  0.0000
  102TTP    C37 2061  -1.471  11.380  -1.572  0.0000  0.0000  0.0000
  102TTP    C38 2062  -1.556  11.499  -1.623  0.0000  0.0000  0.0000
  102TTP    C39 2063  -1.446  11.544  -1.721  0.0000  0.0000  0.0000
  102TTP    C40 2064  -1.490  11.586  -1.865  0.0000  0.0000  0.0000
  102TTP    C41 2065  -1.409  11.694  -1.943  0.0000  0.0000  0.0000
  102TTP    C42 2066  -1.472  11.759  -2.069  0.0000  0.0000  0.0000
  103TTP     S1 2067  -0.971  10.105  -0.750  0.0000  0.0000  0.0000
  103TTP     S5 2068  -0.749  10.281  -0.440  0.0000  0.0000  0.0000
  103TTP     C1 2069  -0.743  10.105  -0.422  0.0000  0.0000  0.0000
  103TTP     C2 2070  -0.814  10.040  -0.518  0.0000  0.0000  0.0000
  103TTP     C3 2071  -0.875  10.128  -0.607  0.0000  0.0000  0.0000
  103TTP     C4 2072  -0.969  10.276  -0.776  0.0000  0.0000  0.0000
  103TTP    C17 2073  -0.906  10.347  -0.674  0.0000  0.0000  0.0000
  103TTP    C18 2074  -0.848  10.263  -0.578  0.0000  0.0000  0.0000
  103TTP    C32 2075  -0.833   9.886  -0.528  0.0000  0.0000  0.0000
  103TTP    C33 2076  -0.950   9.833  -0.440  0.0000  0.0000  0.0000
  103TTP    C34 2077  -0.968   9.680  -0.445  0.0000  0.0000  0.0000
  103TTP    C35 2078  -0.997   9.637  -0.591  0.0000  0.0000  0.0000
  103TTP    C36 2079  -1.010   9.486  -0.624  0.0000  0.0000  0.0000
  103TTP    C37 2080  -0.887   9.393  -0.609  0.0000  0.0000  0.0000
  103TTP    C38 2081  -0.973   9.266  -0.638  0.0000  0.0000  0.0000
  103TTP    C39 2082  -0.880   9.165  -0.566  0.0000  0.0000  0.0000
  103TTP    C40 2083  -0.873   9.168  -0.411  0.0000  0.0000  0.0000
  103TTP    C41 2084  -0.767   9.255  -0.339  0.0000  0.0000  0.0000
  103TTP    C42 2085  -0.801   9.398  -0.290  0.0000  0.0000  0.0000
  104FIC     F1 2086  -0.679  11.822  -0.789  0.0000  0.0000  0.0000
  104FIC     F2 2087  -0.720  11.957  -1.018  0.0000  0.0000  0.0000
  104FIC     O1 2088  -0.889  11.346  -0.926  0.0000  0.0000  0.0000
  104FIC     N5 2089  -0.928  11.829  -1.428  0.0000  0.0000  0.0000
  104FIC     N6 2090  -1.100  11.432  -1.516  0.0000  0.0000  0.0000
  104FIC    C19 2091  -0.995  11.307  -1.204  0.0000  0.0000  0.0000
  104FIC    C20 2092  -0.943  11.421  -1.152  0.0000  0.0000  0.0000
  104FIC    C21 2093  -0.888  11.432  -1.018  0.0000  0.0000  0.0000
  104FIC    C22 2094  -0.841  11.571  -1.002  0.0000  0.0000  0.0000
  104FIC    C23 2095  -0.780  11.625  -0.885  0.0000  0.0000  0.0000
  104FIC    C24 2096  -0.739  11.759  -0.907  0.0000  0.0000  0.0000
  104FIC    C25 2097  -0.758  11.826  -1.019  0.0000  0.0000  0.0000
  104FIC    C26 2098  -0.816  11.772  -1.124  0.0000  0.0000  0.0000
  104FIC    C27 2099  -0.859  11.644  -1.111  0.0000  0.0000  0.0000
  104FIC    C28 2100  -0.927  11.553  -1.211  0.0000  0.0000  0.0000
  104FIC    C29 2101  -0.969  11.581  -1.353  0.0000  0.0000  0.0000
  104FIC    C30 2102  -0.948  11.725  -1.392  0.0000  0.0000  0.0000
  104FIC    C31 2103  -1.035  11.495  -1.448  0.0000  0.0000  0.0000
  105FIC     F1 2104  -0.285  10.378   0.191  0.0000  0.0000  0.0000
  105FIC     F2 2105  -0.230  10.126   0.253  0.0000  0.0000  0.0000
  105FIC     O1 2106  -0.605  10.314  -0.226  0.0000  0.0000  0.0000
  105FIC     N5 2107  -0.379   9.712   0.047  0.0000  0.0000  0.0000
  105FIC     N6 2108  -0.574   9.696  -0.326  0.0000  0.0000  0.0000
  105FIC    C19 2109  -0.667  10.035  -0.324  0.0000  0.0000  0.0000
  105FIC    C20 2110  -0.585  10.072  -0.222  0.0000  0.0000  0.0000
  105FIC    C21 2111  -0.560  10.212  -0.180  0.0000  0.0000  0.0000
  105FIC    C22 2112  -0.476  10.204  -0.060  0.0000  0.0000  0.0000
  105FIC    C23 2113  -0.423  10.310   0.013  0.0000  0.0000  0.0000
  105FIC    C24 2114  -0.348  10.280   0.118  0.0000  0.0000  0.0000
  105FIC    C25 2115  -0.315  10.147   0.150  0.0000  0.0000  0.0000
  105FIC    C26 2116  -0.364  10.043   0.076  0.0000  0.0000  0.0000
  105FIC    C27 2117  -0.445  10.072  -0.028  0.0000  0.0000  0.0000
  105FIC    C28 2118  -0.510   9.986  -0.133  0.0000  0.0000  0.0000
  105FIC    C29 2119  -0.496   9.848  -0.137  0.0000  0.0000  0.0000
  105FIC    C30 2120  -0.432   9.774  -0.036  0.0000  0.0000  0.0000
  105FIC    C31 2121  -0.541   9.766  -0.246  0.0000  0.0000  0.0000
  106BTD     S2 2122  -0.043  10.268   1.199  0.0000  0.0000  0.0000
  106BTD     N1 2123  -0.033  10.429   1.188  0.0000  0.0000  0.0000
  106BTD     N2 2124  -0.122  10.237   1.061  0.0000  0.0000  0.0000
  106BTD     N3 2125  -0.292  10.499   0.700  0.0000  0.0000  0.0000
  106BTD     N4 2126  -0.178  10.759   0.877  0.0000  0.0000  0.0000
  106BTD     C5 2127  -0.108  10.595   1.019  0.0000  0.0000  0.0000
  106BTD     C6 2128  -0.091  10.464   1.075  0.0000  0.0000  0.0000
  106BTD     C7 2129  -0.142  10.354   1.001  0.0000  0.0000  0.0000
  106BTD     C8 2130  -0.204  10.375   0.877  0.0000  0.0000  0.0000
  106BTD    C15 2131  -0.223  10.508   0.824  0.0000  0.0000  0.0000
  106BTD    C16 2132  -0.175  10.619   0.900  0.0000  0.0000  0.0000
  106BTD    C43 2133  -0.267  10.836   0.789  0.0000  0.0000  0.0000
  106BTD    C44 2134  -0.419  10.826   0.819  0.0000  0.0000  0.0000
  106BTD    C45 2135  -0.492  10.925   0.724  0.0000  0.0000  0.0000
  106BTD    C46 2136  -0.642  10.883   0.726  0.0000  0.0000  0.0000
  106BTD    C47 2137  -0.452  10.852   0.968  0.0000  0.0000  0.0000
  106BTD    C48 2138  -0.467  10.993   1.032  0.0000  0.0000  0.0000
  106BTD    C49 2139  -0.481  10.962   1.183  0.0000  0.0000  0.0000
  106BTD    C50 2140  -0.577  10.916   1.296  0.0000  0.0000  0.0000
  106BTD    C75 2141  -0.278  10.586   0.583  0.0000  0.0000  0.0000
  106BTD    C76 2142  -0.130  10.616   0.548  0.0000  0.0000  0.0000
  106BTD    C77 2143  -0.121  10.704   0.421  0.0000  0.0000  0.0000
  106BTD    C78 2144   0.020  10.758   0.385  0.0000  0.0000  0.0000
  106BTD    C79 2145  -0.044  10.489   0.527  0.0000  0.0000  0.0000
  106BTD    C80 2146  -0.072  10.401   0.403  0.0000  0.0000  0.0000
  106BTD    C81 2147   0.020  10.275   0.409  0.0000  0.0000  0.0000
  106BTD    C82 2148  -0.011  10.150   0.496  0.0000  0.0000  0.0000
  107TTP     S1 2149   0.018  10.785   1.205  0.0000  0.0000  0.0000
  107TTP     S5 2150  -0.080  11.103   0.949  0.0000  0.0000  0.0000
  107TTP     C1 2151   0.016  11.167   1.080  0.0000  0.0000  0.0000
  107TTP     C2 2152   0.054  11.069   1.169  0.0000  0.0000  0.0000
  107TTP     C3 2153  -0.001  10.947   1.135  0.0000  0.0000  0.0000
  107TTP     C4 2154  -0.066  10.724   1.074  0.0000  0.0000  0.0000
  107TTP    C17 2155  -0.117  10.814   0.983  0.0000  0.0000  0.0000
  107TTP    C18 2156  -0.073  10.949   1.023  0.0000  0.0000  0.0000
  107TTP    C32 2157   0.140  11.087   1.297  0.0000  0.0000  0.0000
  107TTP    C33 2158   0.049  11.121   1.418  0.0000  0.0000  0.0000
  107TTP    C34 2159   0.142  11.144   1.540  0.0000  0.0000  0.0000
  107TTP    C35 2160   0.084  11.214   1.664  0.0000  0.0000  0.0000
  107TTP    C36 2161   0.178  11.308   1.745  0.0000  0.0000  0.0000
  107TTP    C37 2162   0.298  11.244   1.822  0.0000  0.0000  0.0000
  107TTP    C38 2163   0.378  11.112   1.834  0.0000  0.0000  0.0000
  107TTP    C39 2164   0.460  11.062   1.712  0.0000  0.0000  0.0000
  107TTP    C40 2165   0.519  11.165   1.611  0.0000  0.0000  0.0000
  107TTP    C41 2166   0.506  11.138   1.458  0.0000  0.0000  0.0000
  107TTP    C42 2167   0.525  11.260   1.363  0.0000  0.0000  0.0000
  108TTP     S1 2168  -0.286  10.116   0.762  0.0000  0.0000  0.0000
  108TTP     S5 2169  -0.488  10.319   0.453  0.0000  0.0000  0.0000
  108TTP     C1 2170  -0.519  10.146   0.432  0.0000  0.0000  0.0000
  108TTP     C2 2171  -0.455  10.072   0.533  0.0000  0.0000  0.0000
  108TTP     C3 2172  -0.378  10.152   0.617  0.0000  0.0000  0.0000
  108TTP     C4 2173  -0.263  10.287   0.783  0.0000  0.0000  0.0000
  108TTP    C17 2174  -0.317  10.362   0.679  0.0000  0.0000  0.0000
  108TTP    C18 2175  -0.388  10.285   0.583  0.0000  0.0000  0.0000
  108TTP    C32 2176  -0.447   9.917   0.539  0.0000  0.0000  0.0000
  108TTP    C33 2177  -0.342   9.850   0.446  0.0000  0.0000  0.0000
  108TTP    C34 2178  -0.335   9.696   0.461  0.0000  0.0000  0.0000
  108TTP    C35 2179  -0.226   9.645   0.363  0.0000  0.0000  0.0000
  108TTP    C36 2180  -0.242   9.491   0.358  0.0000  0.0000  0.0000
  108TTP    C37 2181  -0.209   9.453   0.505  0.0000  0.0000  0.0000
  108TTP    C38 2182  -0.204   9.299   0.535  0.0000  0.0000  0.0000
  108TTP    C39 2183  -0.142   9.249   0.667  0.0000  0.0000  0.0000
  108TTP    C40 2184  -0.233   9.181   0.774  0.0000  0.0000  0.0000
  108TTP    C41 2185  -0.308   9.050   0.739  0.0000  0.0000  0.0000
  108TTP    C42 2186  -0.330   8.942   0.848  0.0000  0.0000  0.0000
  109FIC     F1 2187  -0.013  11.793   0.557  0.0000  0.0000  0.0000
  109FIC     F2 2188   0.096  11.947   0.748  0.0000  0.0000  0.0000
  109FIC     O1 2189  -0.068  11.334   0.817  0.0000  0.0000  0.0000
  109FIC     N5 2190   0.248  11.835   1.193  0.0000  0.0000  0.0000
  109FIC     N6 2191   0.200  11.454   1.372  0.0000  0.0000  0.0000
  109FIC    C19 2192   0.060  11.304   1.090  0.0000  0.0000  0.0000
  109FIC    C20 2193   0.051  11.415   1.010  0.0000  0.0000  0.0000
  109FIC    C21 2194  -0.011  11.422   0.882  0.0000  0.0000  0.0000
  109FIC    C22 2195   0.013  11.557   0.828  0.0000  0.0000  0.0000
  109FIC    C23 2196  -0.016  11.606   0.698  0.0000  0.0000  0.0000
  109FIC    C24 2197   0.012  11.735   0.673  0.0000  0.0000  0.0000
  109FIC    C25 2198   0.072  11.814   0.783  0.0000  0.0000  0.0000
  109FIC    C26 2199   0.108  11.770   0.899  0.0000  0.0000  0.0000
  109FIC    C27 2200   0.073  11.635   0.927  0.0000  0.0000  0.0000
  109FIC    C28 2201   0.097  11.548   1.043  0.0000  0.0000  0.0000
  109FIC    C29 2202   0.157  11.591   1.160  0.0000  0.0000  0.0000
  109FIC    C30 2203   0.205  11.735   1.172  0.0000  0.0000  0.0000
  109FIC    C31 2204   0.175  11.514   1.279  0.0000  0.0000  0.0000
  110FIC     F1 2205  -0.976  10.468  -0.160  0.0000  0.0000  0.0000
  110FIC     F2 2206  -1.023  10.226  -0.241  0.0000  0.0000  0.0000
  110FIC     O1 2207  -0.664  10.374   0.263  0.0000  0.0000  0.0000
  110FIC     N5 2208  -0.846   9.805  -0.091  0.0000  0.0000  0.0000
  110FIC     N6 2209  -0.655   9.750   0.287  0.0000  0.0000  0.0000
  110FIC    C19 2210  -0.596  10.088   0.330  0.0000  0.0000  0.0000
  110FIC    C20 2211  -0.675  10.134   0.231  0.0000  0.0000  0.0000
  110FIC    C21 2212  -0.707  10.280   0.199  0.0000  0.0000  0.0000
  110FIC    C22 2213  -0.786  10.282   0.083  0.0000  0.0000  0.0000
  110FIC    C23 2214  -0.842  10.393   0.017  0.0000  0.0000  0.0000
  110FIC    C24 2215  -0.918  10.376  -0.093  0.0000  0.0000  0.0000
  110FIC    C25 2216  -0.947  10.247  -0.135  0.0000  0.0000  0.0000
  110FIC    C26 2217  -0.892  10.128  -0.077  0.0000  0.0000  0.0000
  110FIC    C27 2218  -0.809  10.149   0.036  0.0000  0.0000  0.0000
  110FIC    C28 2219  -0.742  10.060   0.128  0.0000  0.0000  0.0000
  110FIC    C29 2220  -0.747   9.920   0.116  0.0000  0.0000  0.0000
  110FIC    C30 2221  -0.804   9.856  -0.003  0.0000  0.0000  0.0000
  110FIC    C31 2222  -0.691   9.826   0.209  0.0000  0.0000  0.0000
  111BTD     S2 2223   1.170   1.286   1.196  0.0000  0.0000  0.0000
  111BTD     N1 2224   1.156   1.121   1.192  0.0000  0.0000  0.0000
  111BTD     N2 2225   1.105   1.325   1.054  0.0000  0.0000  0.0000
  111BTD     N3 2226   0.903   1.078   0.704  0.0000  0.0000  0.0000
  111BTD     N4 2227   0.960   0.807   0.897  0.0000  0.0000  0.0000
  111BTD     C5 2228   1.060   0.966   1.035  0.0000  0.0000  0.0000
  111BTD     C6 2229   1.100   1.094   1.079  0.0000  0.0000  0.0000
  111BTD     C7 2230   1.071   1.208   0.999  0.0000  0.0000  0.0000
  111BTD     C8 2231   1.005   1.191   0.875  0.0000  0.0000  0.0000
  111BTD    C15 2232   0.969   1.064   0.825  0.0000  0.0000  0.0000
  111BTD    C16 2233   0.987   0.942   0.910  0.0000  0.0000  0.0000
  111BTD    C43 2234   0.856   0.741   0.820  0.0000  0.0000  0.0000
  111BTD    C44 2235   0.714   0.793   0.856  0.0000  0.0000  0.0000
  111BTD    C45 2236   0.676   0.818   1.006  0.0000  0.0000  0.0000
  111BTD    C46 2237   0.671   0.687   1.087  0.0000  0.0000  0.0000
  111BTD    C47 2238   0.599   0.713   0.790  0.0000  0.0000  0.0000
  111BTD    C48 2239   0.581   0.719   0.637  0.0000  0.0000  0.0000
  111BTD    C49 2240   0.493   0.613   0.565  0.0000  0.0000  0.0000
  111BTD    C50 2241   0.513   0.589   0.413  0.0000  0.0000  0.0000
  111BTD    C75 2242   0.892   0.980   0.586  0.0000  0.0000  0.0000
  111BTD    C76 2243   1.030   0.917   0.551  0.0000  0.0000  0.0000
  111BTD    C77 2244   1.028   0.831   0.422  0.0000  0.0000  0.0000
  111BTD    C78 2245   0.884   0.862   0.376  0.0000  0.0000  0.0000
  111BTD    C79 2246   1.151   1.011   0.532  0.0000  0.0000  0.0000
  111BTD    C80 2247   1.130   1.142   0.453  0.0000  0.0000  0.0000
  111BTD    C81 2248   1.226   1.262   0.478  0.0000  0.0000  0.0000
  111BTD    C82 2249   1.357   1.266   0.394  0.0000  0.0000  0.0000
  112TTP     S1 2250   1.135   0.766   1.234  0.0000  0.0000  0.0000
  112TTP     S5 2251   0.952   0.459   1.016  0.0000  0.0000  0.0000
  112TTP     C1 2252   1.012   0.389   1.162  0.0000  0.0000  0.0000
  112TTP     C2 2253   1.072   0.481   1.239  0.0000  0.0000  0.0000
  112TTP     C3 2254   1.074   0.611   1.188  0.0000  0.0000  0.0000
  112TTP     C4 2255   1.070   0.837   1.092  0.0000  0.0000  0.0000
  112TTP    C17 2256   1.009   0.745   1.008  0.0000  0.0000  0.0000
  112TTP    C18 2257   1.008   0.613   1.060  0.0000  0.0000  0.0000
  112TTP    C32 2258   1.130   0.456   1.381  0.0000  0.0000  0.0000
  112TTP    C33 2259   1.283   0.471   1.403  0.0000  0.0000  0.0000
  112TTP    C34 2260   1.341   0.436   1.543  0.0000  0.0000  0.0000
  112TTP    C35 2261   1.493   0.442   1.514  0.0000  0.0000  0.0000
  112TTP    C36 2262   1.540   0.296   1.489  0.0000  0.0000  0.0000
  112TTP    C37 2263   1.471   0.182   1.572  0.0000  0.0000  0.0000
  112TTP    C38 2264   1.556   0.063   1.623  0.0000  0.0000  0.0000
  112TTP    C39 2265   1.446   0.018   1.721  0.0000  0.0000  0.0000
  112TTP    C40 2266   1.490  -0.024   1.865  0.0000  0.0000  0.0000
  112TTP    C41 2267   1.409  -0.132   1.943  0.0000  0.0000  0.0000
  112TTP    C42 2268   1.472  -0.197   2.069  0.0000  0.0000  0.0000
  113TTP     S1 2269   0.971   1.457   0.750  0.0000  0.0000  0.0000
  113TTP     S5 2270   0.749   1.281   0.440  0.0000  0.0000  0.0000
  113TTP     C1 2271   0.743   1.457   0.422  0.0000  0.0000  0.0000
  113TTP     C2 2272   0.814   1.522   0.518  0.0000  0.0000  0.0000
  113TTP     C3 2273   0.875   1.434   0.607  0.0000  0.0000  0.0000
  113TTP     C4 2274   0.969   1.286   0.776  0.0000  0.0000  0.0000
  113TTP    C17 2275   0.906   1.215   0.674  0.0000  0.0000  0.0000
  113TTP    C18 2276   0.848   1.299   0.578  0.0000  0.0000  0.0000
  113TTP    C32 2277   0.833   1.676   0.528  0.0000  0.0000  0.0000
  113TTP    C33 2278   0.950   1.729   0.440  0.0000  0.0000  0.0000
  113TTP    C34 2279   0.968   1.882   0.445  0.0000  0.0000  0.0000
  113TTP    C35 2280   0.997   1.925   0.591  0.0000  0.0000  0.0000
  113TTP    C36 2281   1.010   2.076   0.624  0.0000  0.0000  0.0000
  113TTP    C37 2282   0.887   2.169   0.609  0.0000  0.0000  0.0000
  113TTP    C38 2283   0.973   2.296   0.638  0.0000  0.0000  0.0000
  113TTP    C39 2284   0.880   2.397   0.566  0.0000  0.0000  0.0000
  113TTP    C40 2285   0.873   2.394   0.411  0.0000  0.0000  0.0000
  113TTP    C41 2286   0.767   2.307   0.339  0.0000  0.0000  0.0000
  113TTP    C42 2287   0.801   2.164   0.290  0.0000  0.0000  0.0000
  114FIC     F1 2288   0.679  -0.260   0.789  0.0000  0.0000  0.0000
  114FIC     F2 2289   0.720  -0.395   1.018  0.0000  0.0000  0.0000
  114FIC     O1 2290   0.889   0.216   0.926  0.0000  0.0000  0.0000
  114FIC     N5 2291   0.928  -0.267   1.428  0.0000  0.0000  0.0000
  114FIC     N6 2292   1.100   0.130   1.516  0.0000  0.0000  0.0000
  114FIC    C19 2293   0.995   0.255   1.204  0.0000  0.0000  0.0000
  114FIC    C20 2294   0.943   0.141   1.152  0.0000  0.0000  0.0000
  114FIC    C21 2295   0.888   0.130   1.018  0.0000  0.0000  0.0000
  114FIC    C22 2296   0.841  -0.009   1.002  0.0000  0.0000  0.0000
  114FIC    C23 2297   0.780  -0.063   0.885  0.0000  0.0000  0.0000
  114FIC    C24 2298   0.739  -0.197   0.907  0.0000  0.0000  0.0000
  114FIC    C25 2299   0.758  -0.264   1.019  0.0000  0.0000  0.0000
  114FIC    C26 2300   0.816  -0.210   1.124  0.0000  0.0000  0.0000
  114FIC    C27 2301   0.859  -0.082   1.111  0.0000  0.0000  0.0000
  114FIC    C28 2302   0.927   0.009   1.211  0.0000  0.0000  0.0000
  114FIC    C29 2303   0.969  -0.019   1.353  0.0000  0.0000  0.0000
  114FIC    C30 2304   0.948  -0.163   1.392  0.0000  0.0000  0.0000
  114FIC    C31 2305   1.035   0.067   1.448  0.0000  0.0000  0.0000
  115FIC     F1 2306   0.285   1.184  -0.191  0.0000  0.0000  0.0000
  115FIC     F2 2307   0.230   1.436  -0.253  0.0000  0.0000  0.0000
  115FIC     O1 2308   0.605   1.248   0.226  0.0000  0.0000  0.0000
  115FIC     N5 2309   0.379   1.850  -0.047  0.0000  0.0000  0.0000
  115FIC     N6 2310   0.574   1.866   0.326  0.0000  0.0000  0.0000
  115FIC    C19 2311   0.667   1.527   0.324  0.0000  0.0000  0.0000
  115FIC    C20 2312   0.585   1.490   0.222  0.0000  0.0000  0.0000
  115FIC    C21 2313   0.560   1.350   0.180  0.0000  0.0000  0.0000
  115FIC    C22 2314   0.476   1.358   0.060  0.0000  0.0000  0.0000
  115FIC    C23 2315   0.423   1.252  -0.013  0.0000  0.0000  0.0000
  115FIC    C24 2316   0.348   1.282  -0.118  0.0000  0.0000  0.0000
  115FIC    C25 2317   0.315   1.415  -0.150  0.0000  0.0000  0.0000
  115FIC    C26 2318   0.364   1.519  -0.076  0.0000  0.0000  0.0000
  115FIC    C27 2319   0.445   1.490   0.028  0.0000  0.0000  0.0000
  115FIC    C28 2320   0.510   1.576   0.133  0.0000  0.0000  0.0000
  115FIC    C29 2321   0.496   1.714   0.137  0.0000  0.0000  0.0000
  115FIC    C30 2322   0.432   1.788   0.036  0.0000  0.0000  0.0000
  115FIC    C31 2323   0.541   1.796   0.246  0.0000  0.0000  0.0000
  116BTD     S2 2324   0.043   1.294  -1.199  0.0000  0.0000  0.0000
  116BTD     N1 2325   0.033   1.133  -1.188  0.0000  0.0000  0.0000
  116BTD     N2 2326   0.122   1.325  -1.061  0.0000  0.0000  0.0000
  116BTD     N3 2327   0.292   1.063  -0.700  0.0000  0.0000  0.0000
  116BTD     N4 2328   0.178   0.803  -0.877  0.0000  0.0000  0.0000
  116BTD     C5 2329   0.108   0.967  -1.019  0.0000  0.0000  0.0000
  116BTD     C6 2330   0.091   1.098  -1.075  0.0000  0.0000  0.0000
  116BTD     C7 2331   0.142   1.208  -1.001  0.0000  0.0000  0.0000
  116BTD     C8 2332   0.204   1.187  -0.877  0.0000  0.0000  0.0000
  116BTD    C15 2333   0.223   1.054  -0.824  0.0000  0.0000  0.0000
  116BTD    C16 2334   0.175   0.943  -0.900  0.0000  0.0000  0.0000
  116BTD    C43 2335   0.267   0.726  -0.789  0.0000  0.0000  0.0000
  116BTD    C44 2336   0.419   0.736  -0.819  0.0000  0.0000  0.0000
  116BTD    C45 2337   0.492   0.637  -0.724  0.0000  0.0000  0.0000
  116BTD    C46 2338   0.642   0.679  -0.726  0.0000  0.0000  0.0000
  116BTD    C47 2339   0.452   0.710  -0.968  0.0000  0.0000  0.0000
  116BTD    C48 2340   0.467   0.569  -1.032  0.0000  0.0000  0.0000
  116BTD    C49 2341   0.481   0.600  -1.183  0.0000  0.0000  0.0000
  116BTD    C50 2342   0.577   0.646  -1.296  0.0000  0.0000  0.0000
  116BTD    C75 2343   0.278   0.976  -0.583  0.0000  0.0000  0.0000
  116BTD    C76 2344   0.130   0.946  -0.548  0.0000  0.0000  0.0000
  116BTD    C77 2345   0.121   0.858  -0.421  0.0000  0.0000  0.0000
  116BTD    C78 2346  -0.020   0.804  -0.385  0.0000  0.0000  0.0000
  116BTD    C79 2347   0.044   1.073  -0.527  0.0000  0.0000  0.0000
  116BTD    C80 2348   0.072   1.161  -0.403  0.0000  0.0000  0.0000
  116BTD    C81 2349  -0.020   1.287  -0.409  0.0000  0.0000  0.0000
  116BTD    C82 2350   0.011   1.412  -0.496  0.0000  0.0000  0.0000
  117TTP     S1 2351  -0.018   0.777  -1.205  0.0000  0.0000  0.0000
  117TTP     S5 2352   0.080   0.459  -0.949  0.0000  0.0000  0.0000
  117TTP     C1 2353  -0.016   0.395  -1.080  0.0000  0.0000  0.0000
  117TTP     C2 2354  -0.054   0.493  -1.169  0.0000  0.0000  0.0000
  117TTP     C3 2355   0.001   0.615  -1.135  0.0000  0.0000  0.0000
  117TTP     C4 2356   0.066   0.838  -1.074  0.0000  0.0000  0.0000
  117TTP    C17 2357   0.117   0.748  -0.983  0.0000  0.0000  0.0000
  117TTP    C18 2358   0.073   0.613  -1.023  0.0000  0.0000  0.0000
  117TTP    C32 2359  -0.140   0.475  -1.297  0.0000  0.0000  0.0000
  117TTP    C33 2360  -0.049   0.441  -1.418  0.0000  0.0000  0.0000
  117TTP    C34 2361  -0.142   0.418  -1.540  0.0000  0.0000  0.0000
  117TTP    C35 2362  -0.084   0.348  -1.664  0.0000  0.0000  0.0000
  117TTP    C36 2363  -0.178   0.254  -1.745  0.0000  0.0000  0.0000
  117TTP    C37 2364  -0.298   0.318  -1.822  0.0000  0.0000  0.0000
  117TTP    C38 2365  -0.378   0.450  -1.834  0.0000  0.0000  0.0000
  117TTP    C39 2366  -0.460   0.500  -1.712  0.0000  0.0000  0.0000
  117TTP    C40 2367  -0.519   0.397  -1.611  0.0000  0.0000  0.0000
  117TTP    C41 2368  -0.506   0.424  -1.458  0.0000  0.0000  0.0000
  117TTP    C42 2369  -0.525   0.302  -1.363  0.0000  0.0000  0.0000
  118TTP     S1 2370   0.286   1.446  -0.762  0.0000  0.0000  0.0000
  118TTP     S5 2371   0.488   1.243  -0.453  0.0000  0.0000  0.0000
  118TTP     C1 2372   0.519   1.416  -0.432  0.0000  0.0000  0.0000
  118TTP     C2 2373   0.455   1.490  -0.533  0.0000  0.0000  0.0000
  118TTP     C3 2374   0.378   1.410  -0.617  0.0000  0.0000  0.0000
  118TTP     C4 2375   0.263   1.275  -0.783  0.0000  0.0000  0.0000
  118TTP    C17 2376   0.317   1.200  -0.679  0.0000  0.0000  0.0000
  118TTP    C18 2377   0.388   1.277  -0.583  0.0000  0.0000  0.0000
  118TTP    C32 2378   0.447   1.645  -0.539  0.0000  0.0000  0.0000
  118TTP    C33 2379   0.342   1.712  -0.446  0.0000  0.0000  0.0000
  118TTP    C34 2380   0.335   1.866  -0.461  0.0000  0.0000  0.0000
  118TTP    C35 2381   0.226   1.917  -0.363  0.0000  0.0000  0.0000
  118TTP    C36 2382   0.242   2.071  -0.358  0.0000  0.0000  0.0000
  118TTP    C37 2383   0.209   2.109  -0.505  0.0000  0.0000  0.0000
  118TTP    C38 2384   0.204   2.263  -0.535  0.0000  0.0000  0.0000
  118TTP    C39 2385   0.142   2.313  -0.667  0.0000  0.0000  0.0000
  118TTP    C40 2386   0.233   2.381  -0.774  0.0000  0.0000  0.0000
  118TTP    C41 2387   0.308   2.512  -0.739  0.0000  0.0000  0.0000
  118TTP    C42 2388   0.330   2.620  -0.848  0.0000  0.0000  0.0000
  119FIC     F1 2389   0.013  -0.231  -0.557  0.0000  0.0000  0.0000
  119FIC     F2 2390  -0.096  -0.385  -0.748  0.0000  0.0000  0.0000
  119FIC     O1 2391   0.068   0.228  -0.817  0.0000  0.0000  0.0000
  119FIC     N5 2392  -0.248  -0.273  -1.193  0.0000  0.0000  0.0000
  119FIC     N6 2393  -0.200   0.108  -1.372  0.0000  0.0000  0.0000
  119FIC    C19 2394  -0.060   0.258  -1.090  0.0000  0.0000  0.0000
  119FIC    C20 2395  -0.051   0.147  -1.010  0.0000  0.0000  0.0000
  119FIC    C21 2396   0.011   0.140  -0.882  0.0000  0.0000  0.0000
  119FIC    C22 2397  -0.013   0.005  -0.828  0.0000  0.0000  0.0000
  119FIC    C23 2398   0.016  -0.044  -0.698  0.0000  0.0000  0.0000
  119FIC    C24 2399  -0.012  -0.173  -0.673  0.0000  0.0000  0.0000
  119FIC    C25 2400  -0.072  -0.252  -0.783  0.0000  0.0000  0.0000
  119FIC    C26 2401  -0.108  -0.208  -0.899  0.0000  0.0000  0.0000
  119FIC    C27 2402  -0.073  -0.073  -0.927  0.0000  0.0000  0.0000
  119FIC    C28 2403  -0.097   0.014  -1.043  0.0000  0.0000  0.0000
  119FIC    C29 2404  -0.157  -0.029  -1.160  0.0000  0.0000  0.0000
  119FIC    C30 2405  -0.205  -0.173  -1.172  0.0000  0.0000  0.0000
  119FIC    C31 2406  -0.175   0.048  -1.279  0.0000  0.0000  0.0000
  120FIC     F1 2407   0.976   1.094   0.160  0.0000  0.0000  0.0000
  120FIC     F2 2408   1.023   1.336   0.241  0.0000  0.0000  0.0000
  120FIC     O1 2409   0.664   1.188  -0.263  0.0000  0.0000  0.0000
  120FIC     N5 2410   0.846   1.757   0.091  0.0000  0.0000  0.0000
  120FIC     N6 2411   0.655   1.812  -0.287  0.0000  0.0000  0.0000
  120FIC    C19 2412   0.596   1.474  -0.330  0.0000  0.0000  0.0000
  120FIC    C20 2413   0.675   1.428  -0.231  0.0000  0.0000  0.0000
  120FIC    C21 2414   0.707   1.282  -0.199  0.0000  0.0000  0.0000
  120FIC    C22 2415   0.786   1.280  -0.083  0.0000  0.0000  0.0000
  120FIC    C23 2416   0.842   1.169  -0.017  0.0000  0.0000  0.0000
  120FIC    C24 2417   0.918   1.186   0.093  0.0000  0.0000  0.0000
  120FIC    C25 2418   0.947   1.315   0.135  0.0000  0.0000  0.0000
  120FIC    C26 2419   0.892   1.434   0.077  0.0000  0.0000  0.0000
  120FIC    C27 2420   0.809   1.413  -0.036  0.0000  0.0000  0.0000
  120FIC    C28 2421   0.742   1.502  -0.128  0.0000  0.0000  0.0000
  120FIC    C29 2422   0.747   1.642  -0.116  0.0000  0.0000  0.0000
  120FIC    C30 2423   0.804   1.706   0.003  0.0000  0.0000  0.0000
  120FIC    C31 2424   0.691   1.736  -0.209  0.0000  0.0000  0.0000
  121BTD     S2 2425   0.859   7.386   4.192  0.0000  0.0000  0.0000
  121BTD     N1 2426   0.846   7.550   4.187  0.0000  0.0000  0.0000
  121BTD     N2 2427   0.794   7.346   4.049  0.0000  0.0000  0.0000
  121BTD     N3 2428   0.593   7.593   3.700  0.0000  0.0000  0.0000
  121BTD     N4 2429   0.649   7.865   3.892  0.0000  0.0000  0.0000
  121BTD     C5 2430   0.750   7.706   4.031  0.0000  0.0000  0.0000
  121BTD     C6 2431   0.790   7.578   4.075  0.0000  0.0000  0.0000
  121BTD     C7 2432   0.761   7.463   3.995  0.0000  0.0000  0.0000
  121BTD     C8 2433   0.694   7.480   3.870  0.0000  0.0000  0.0000
  121BTD    C15 2434   0.658   7.608   3.820  0.0000  0.0000  0.0000
  121BTD    C16 2435   0.677   7.729   3.906  0.0000  0.0000  0.0000
  121BTD    C43 2436   0.546   7.930   3.815  0.0000  0.0000  0.0000
  121BTD    C44 2437   0.404   7.878   3.852  0.0000  0.0000  0.0000
  121BTD    C45 2438   0.366   7.853   4.001  0.0000  0.0000  0.0000
  121BTD    C46 2439   0.360   7.985   4.083  0.0000  0.0000  0.0000
  121BTD    C47 2440   0.288   7.958   3.786  0.0000  0.0000  0.0000
  121BTD    C48 2441   0.271   7.952   3.632  0.0000  0.0000  0.0000
  121BTD    C49 2442   0.182   8.058   3.560  0.0000  0.0000  0.0000
  121BTD    C50 2443   0.203   8.083   3.408  0.0000  0.0000  0.0000
  121BTD    C75 2444   0.581   7.691   3.581  0.0000  0.0000  0.0000
  121BTD    C76 2445   0.719   7.755   3.546  0.0000  0.0000  0.0000
  121BTD    C77 2446   0.718   7.841   3.417  0.0000  0.0000  0.0000
  121BTD    C78 2447   0.573   7.809   3.372  0.0000  0.0000  0.0000
  121BTD    C79 2448   0.840   7.661   3.528  0.0000  0.0000  0.0000
  121BTD    C80 2449   0.819   7.529   3.449  0.0000  0.0000  0.0000
  121BTD    C81 2450   0.915   7.410   3.473  0.0000  0.0000  0.0000
  121BTD    C82 2451   1.047   7.405   3.390  0.0000  0.0000  0.0000
  122TTP     S1 2452   0.825   7.905   4.230  0.0000  0.0000  0.0000
  122TTP     S5 2453   0.642   8.212   4.011  0.0000  0.0000  0.0000
  122TTP     C1 2454   0.701   8.282   4.157  0.0000  0.0000  0.0000
  122TTP     C2 2455   0.762   8.191   4.235  0.0000  0.0000  0.0000
  122TTP     C3 2456   0.764   8.060   4.183  0.0000  0.0000  0.0000
  122TTP     C4 2457   0.759   7.834   4.088  0.0000  0.0000  0.0000
  122TTP    C17 2458   0.699   7.926   4.003  0.0000  0.0000  0.0000
  122TTP    C18 2459   0.698   8.059   4.055  0.0000  0.0000  0.0000
  122TTP    C32 2460   0.820   8.215   4.376  0.0000  0.0000  0.0000
  122TTP    C33 2461   0.972   8.200   4.399  0.0000  0.0000  0.0000
  122TTP    C34 2462   1.030   8.235   4.538  0.0000  0.0000  0.0000
  122TTP    C35 2463   1.183   8.229   4.509  0.0000  0.0000  0.0000
  122TTP    C36 2464   1.229   8.376   4.485  0.0000  0.0000  0.0000
  122TTP    C37 2465   1.161   8.489   4.567  0.0000  0.0000  0.0000
  122TTP    C38 2466   1.245   8.609   4.619  0.0000  0.0000  0.0000
  122TTP    C39 2467   1.135   8.654   4.717  0.0000  0.0000  0.0000
  122TTP    C40 2468   1.180   8.695   4.861  0.0000  0.0000  0.0000
  122TTP    C41 2469   1.099   8.803   4.938  0.0000  0.0000  0.0000
  122TTP    C42 2470   1.161   8.869   5.064  0.0000  0.0000  0.0000
  123TTP     S1 2471   0.661   7.215   3.746  0.0000  0.0000  0.0000
  123TTP     S5 2472   0.439   7.390   3.435  0.0000  0.0000  0.0000
  123TTP     C1 2473   0.433   7.215   3.418  0.0000  0.0000  0.0000
  123TTP     C2 2474   0.504   7.150   3.514  0.0000  0.0000  0.0000
  123TTP     C3 2475   0.565   7.238   3.603  0.0000  0.0000  0.0000
  123TTP     C4 2476   0.659   7.385   3.772  0.0000  0.0000  0.0000
  123TTP    C17 2477   0.596   7.457   3.669  0.0000  0.0000  0.0000
  123TTP    C18 2478   0.537   7.372   3.574  0.0000  0.0000  0.0000
  123TTP    C32 2479   0.522   6.996   3.523  0.0000  0.0000  0.0000
  123TTP    C33 2480   0.640   6.943   3.435  0.0000  0.0000  0.0000
  123TTP    C34 2481   0.658   6.790   3.440  0.0000  0.0000  0.0000
  123TTP    C35 2482   0.686   6.747   3.587  0.0000  0.0000  0.0000
  123TTP    C36 2483   0.700   6.596   3.619  0.0000  0.0000  0.0000
  123TTP    C37 2484   0.577   6.502   3.605  0.0000  0.0000  0.0000
  123TTP    C38 2485   0.663   6.375   3.633  0.0000  0.0000  0.0000
  123TTP    C39 2486   0.569   6.275   3.562  0.0000  0.0000  0.0000
  123TTP    C40 2487   0.563   6.277   3.406  0.0000  0.0000  0.0000
  123TTP    C41 2488   0.456   6.364   3.335  0.0000  0.0000  0.0000
  123TTP    C42 2489   0.491   6.508   3.285  0.0000  0.0000  0.0000
  124FIC     F1 2490   0.369   8.931   3.785  0.0000  0.0000  0.0000
  124FIC     F2 2491   0.410   9.067   4.014  0.0000  0.0000  0.0000
  124FIC     O1 2492   0.579   8.455   3.922  0.0000  0.0000  0.0000
  124FIC     N5 2493   0.618   8.938   4.423  0.0000  0.0000  0.0000
  124FIC     N6 2494   0.789   8.541   4.512  0.0000  0.0000  0.0000
  124FIC    C19 2495   0.684   8.417   4.199  0.0000  0.0000  0.0000
  124FIC    C20 2496   0.632   8.531   4.147  0.0000  0.0000  0.0000
  124FIC    C21 2497   0.577   8.542   4.013  0.0000  0.0000  0.0000
  124FIC    C22 2498   0.531   8.681   3.998  0.0000  0.0000  0.0000
  124FIC    C23 2499   0.470   8.735   3.881  0.0000  0.0000  0.0000
  124FIC    C24 2500   0.428   8.868   3.902  0.0000  0.0000  0.0000
  124FIC    C25 2501   0.448   8.936   4.014  0.0000  0.0000  0.0000
  124FIC    C26 2502   0.505   8.882   4.119  0.0000  0.0000  0.0000
  124FIC    C27 2503   0.548   8.754   4.106  0.0000  0.0000  0.0000
  124FIC    C28 2504   0.616   8.662   4.207  0.0000  0.0000  0.0000
  124FIC    C29 2505   0.658   8.690   4.348  0.0000  0.0000  0.0000
  124FIC    C30 2506   0.638   8.834   4.387  0.0000  0.0000  0.0000
  124FIC    C31 2507   0.725   8.604   4.443  0.0000  0.0000  0.0000
  125FIC     F1 2508  -0.026   7.487   2.805  0.0000  0.0000  0.0000
  125FIC     F2 2509  -0.080   7.236   2.742  0.0000  0.0000  0.0000
  125FIC     O1 2510   0.295   7.424   3.221  0.0000  0.0000  0.0000
  125FIC     N5 2511   0.069   6.822   2.948  0.0000  0.0000  0.0000
  125FIC     N6 2512   0.263   6.805   3.322  0.0000  0.0000  0.0000
  125FIC    C19 2513   0.356   7.144   3.320  0.0000  0.0000  0.0000
  125FIC    C20 2514   0.275   7.181   3.218  0.0000  0.0000  0.0000
  125FIC    C21 2515   0.250   7.322   3.175  0.0000  0.0000  0.0000
  125FIC    C22 2516   0.165   7.313   3.055  0.0000  0.0000  0.0000
  125FIC    C23 2517   0.113   7.420   2.982  0.0000  0.0000  0.0000
  125FIC    C24 2518   0.037   7.389   2.878  0.0000  0.0000  0.0000
  125FIC    C25 2519   0.005   7.256   2.845  0.0000  0.0000  0.0000
  125FIC    C26 2520   0.053   7.153   2.919  0.0000  0.0000  0.0000
  125FIC    C27 2521   0.135   7.182   3.024  0.0000  0.0000  0.0000
  125FIC    C28 2522   0.199   7.096   3.128  0.0000  0.0000  0.0000
  125FIC    C29 2523   0.186   6.958   3.133  0.0000  0.0000  0.0000
  125FIC    C30 2524   0.121   6.884   3.031  0.0000  0.0000  0.0000
  125FIC    C31 2525   0.230   6.875   3.242  0.0000  0.0000  0.0000
  126BTD     S2 2526  -0.267   7.378   1.797  0.0000  0.0000  0.0000
  126BTD     N1 2527  -0.278   7.539   1.808  0.0000  0.0000  0.0000
  126BTD     N2 2528  -0.188   7.346   1.934  0.0000  0.0000  0.0000
  126BTD     N3 2529  -0.019   7.608   2.296  0.0000  0.0000  0.0000
  126BTD     N4 2530  -0.132   7.868   2.118  0.0000  0.0000  0.0000
  126BTD     C5 2531  -0.202   7.704   1.977  0.0000  0.0000  0.0000
  126BTD     C6 2532  -0.219   7.574   1.921  0.0000  0.0000  0.0000
  126BTD     C7 2533  -0.168   7.463   1.994  0.0000  0.0000  0.0000
  126BTD     C8 2534  -0.107   7.484   2.119  0.0000  0.0000  0.0000
  126BTD    C15 2535  -0.088   7.617   2.172  0.0000  0.0000  0.0000
  126BTD    C16 2536  -0.136   7.729   2.095  0.0000  0.0000  0.0000
  126BTD    C43 2537  -0.044   7.945   2.207  0.0000  0.0000  0.0000
  126BTD    C44 2538   0.109   7.935   2.177  0.0000  0.0000  0.0000
  126BTD    C45 2539   0.181   8.034   2.271  0.0000  0.0000  0.0000
  126BTD    C46 2540   0.331   7.992   2.270  0.0000  0.0000  0.0000
  126BTD    C47 2541   0.142   7.962   2.027  0.0000  0.0000  0.0000
  126BTD    C48 2542   0.156   8.103   1.964  0.0000  0.0000  0.0000
  126BTD    C49 2543   0.170   8.071   1.813  0.0000  0.0000  0.0000
  126BTD    C50 2544   0.267   8.025   1.699  0.0000  0.0000  0.0000
  126BTD    C75 2545  -0.032   7.696   2.412  0.0000  0.0000  0.0000
  126BTD    C76 2546  -0.181   7.726   2.448  0.0000  0.0000  0.0000
  126BTD    C77 2547  -0.190   7.814   2.575  0.0000  0.0000  0.0000
  126BTD    C78 2548  -0.331   7.867   2.610  0.0000  0.0000  0.0000
  126BTD    C79 2549  -0.266   7.599   2.468  0.0000  0.0000  0.0000
  126BTD    C80 2550  -0.239   7.510   2.592  0.0000  0.0000  0.0000
  126BTD    C81 2551  -0.331   7.385   2.587  0.0000  0.0000  0.0000
  126BTD    C82 2552  -0.300   7.259   2.500  0.0000  0.0000  0.0000
  127TTP     S1 2553  -0.329   7.894   1.790  0.0000  0.0000  0.0000
  127TTP     S5 2554  -0.230   8.213   2.047  0.0000  0.0000  0.0000
  127TTP     C1 2555  -0.327   8.276   1.915  0.0000  0.0000  0.0000
  127TTP     C2 2556  -0.365   8.179   1.827  0.0000  0.0000  0.0000
  127TTP     C3 2557  -0.309   8.056   1.860  0.0000  0.0000  0.0000
  127TTP     C4 2558  -0.244   7.833   1.921  0.0000  0.0000  0.0000
  127TTP    C17 2559  -0.193   7.924   2.012  0.0000  0.0000  0.0000
  127TTP    C18 2560  -0.237   8.058   1.972  0.0000  0.0000  0.0000
  127TTP    C32 2561  -0.450   8.196   1.699  0.0000  0.0000  0.0000
  127TTP    C33 2562  -0.360   8.230   1.577  0.0000  0.0000  0.0000
  127TTP    C34 2563  -0.453   8.253   1.456  0.0000  0.0000  0.0000
  127TTP    C35 2564  -0.394   8.324   1.331  0.0000  0.0000  0.0000
  127TTP    C36 2565  -0.489   8.418   1.250  0.0000  0.0000  0.0000
  127TTP    C37 2566  -0.608   8.354   1.173  0.0000  0.0000  0.0000
  127TTP    C38 2567  -0.689   8.222   1.161  0.0000  0.0000  0.0000
  127TTP    C39 2568  -0.771   8.172   1.284  0.0000  0.0000  0.0000
  127TTP    C40 2569  -0.830   8.274   1.384  0.0000  0.0000  0.0000
  127TTP    C41 2570  -0.817   8.248   1.537  0.0000  0.0000  0.0000
  127TTP    C42 2571  -0.835   8.369   1.632  0.0000  0.0000  0.0000
  128TTP     S1 2572  -0.024   7.225   2.234  0.0000  0.0000  0.0000
  128TTP     S5 2573   0.178   7.428   2.542  0.0000  0.0000  0.0000
  128TTP     C1 2574   0.209   7.255   2.564  0.0000  0.0000  0.0000
  128TTP     C2 2575   0.144   7.181   2.463  0.0000  0.0000  0.0000
  128TTP     C3 2576   0.067   7.261   2.379  0.0000  0.0000  0.0000
  128TTP     C4 2577  -0.047   7.397   2.213  0.0000  0.0000  0.0000
  128TTP    C17 2578   0.007   7.472   2.317  0.0000  0.0000  0.0000
  128TTP    C18 2579   0.077   7.395   2.412  0.0000  0.0000  0.0000
  128TTP    C32 2580   0.137   7.027   2.456  0.0000  0.0000  0.0000
  128TTP    C33 2581   0.032   6.960   2.550  0.0000  0.0000  0.0000
  128TTP    C34 2582   0.025   6.805   2.534  0.0000  0.0000  0.0000
  128TTP    C35 2583  -0.084   6.755   2.632  0.0000  0.0000  0.0000
  128TTP    C36 2584  -0.068   6.601   2.638  0.0000  0.0000  0.0000
  128TTP    C37 2585  -0.101   6.563   2.490  0.0000  0.0000  0.0000
  128TTP    C38 2586  -0.107   6.409   2.461  0.0000  0.0000  0.0000
  128TTP    C39 2587  -0.169   6.358   2.329  0.0000  0.0000  0.0000
  128TTP    C40 2588  -0.078   6.290   2.222  0.0000  0.0000  0.0000
  128TTP    C41 2589  -0.003   6.159   2.256  0.0000  0.0000  0.0000
  128TTP    C42 2590   0.019   6.052   2.147  0.0000  0.0000  0.0000
  129FIC     F1 2591  -0.297   8.903   2.439  0.0000  0.0000  0.0000
  129FIC     F2 2592  -0.406   9.057   2.247  0.0000  0.0000  0.0000
  129FIC     O1 2593  -0.243   8.444   2.178  0.0000  0.0000  0.0000
  129FIC     N5 2594  -0.559   8.944   1.802  0.0000  0.0000  0.0000
  129FIC     N6 2595  -0.511   8.563   1.623  0.0000  0.0000  0.0000
  129FIC    C19 2596  -0.371   8.413   1.905  0.0000  0.0000  0.0000
  129FIC    C20 2597  -0.362   8.524   1.986  0.0000  0.0000  0.0000
  129FIC    C21 2598  -0.299   8.532   2.113  0.0000  0.0000  0.0000
  129FIC    C22 2599  -0.324   8.666   2.167  0.0000  0.0000  0.0000
  129FIC    C23 2600  -0.294   8.716   2.298  0.0000  0.0000  0.0000
  129FIC    C24 2601  -0.323   8.845   2.322  0.0000  0.0000  0.0000
  129FIC    C25 2602  -0.383   8.924   2.213  0.0000  0.0000  0.0000
  129FIC    C26 2603  -0.419   8.879   2.096  0.0000  0.0000  0.0000
  129FIC    C27 2604  -0.384   8.744   2.068  0.0000  0.0000  0.0000
  129FIC    C28 2605  -0.408   8.658   1.952  0.0000  0.0000  0.0000
  129FIC    C29 2606  -0.468   8.701   1.836  0.0000  0.0000  0.0000
  129FIC    C30 2607  -0.516   8.844   1.823  0.0000  0.0000  0.0000
  129FIC    C31 2608  -0.485   8.623   1.717  0.0000  0.0000  0.0000
  130FIC     F1 2609   0.665   7.578   3.155  0.0000  0.0000  0.0000
  130FIC     F2 2610   0.712   7.335   3.236  0.0000  0.0000  0.0000
  130FIC     O1 2611   0.353   7.484   2.733  0.0000  0.0000  0.0000
  130FIC     N5 2612   0.535   6.915   3.086  0.0000  0.0000  0.0000
  130FIC     N6 2613   0.345   6.860   2.708  0.0000  0.0000  0.0000
  130FIC    C19 2614   0.285   7.197   2.665  0.0000  0.0000  0.0000
  130FIC    C20 2615   0.365   7.243   2.764  0.0000  0.0000  0.0000
  130FIC    C21 2616   0.396   7.390   2.797  0.0000  0.0000  0.0000
  130FIC    C22 2617   0.475   7.392   2.912  0.0000  0.0000  0.0000
  130FIC    C23 2618   0.532   7.502   2.979  0.0000  0.0000  0.0000
  130FIC    C24 2619   0.608   7.485   3.088  0.0000  0.0000  0.0000
  130FIC    C25 2620   0.637   7.356   3.131  0.0000  0.0000  0.0000
  130FIC    C26 2621   0.581   7.237   3.072  0.0000  0.0000  0.0000
  130FIC    C27 2622   0.498   7.259   2.960  0.0000  0.0000  0.0000
  130FIC    C28 2623   0.432   7.169   2.867  0.0000  0.0000  0.0000
  130FIC    C29 2624   0.436   7.030   2.879  0.0000  0.0000  0.0000
  130FIC    C30 2625   0.493   6.965   2.998  0.0000  0.0000  0.0000
  130FIC    C31 2626   0.380   6.936   2.786  0.0000  0.0000  0.0000
  131BTD     S2 2627  -1.273   4.176  -0.198  0.0000  0.0000  0.0000
  131BTD     N1 2628  -1.260   4.012  -0.193  0.0000  0.0000  0.0000
  131BTD     N2 2629  -1.208   4.216  -0.055  0.0000  0.0000  0.0000
  131BTD     N3 2630  -1.007   3.969   0.294  0.0000  0.0000  0.0000
  131BTD     N4 2631  -1.063   3.697   0.102  0.0000  0.0000  0.0000
  131BTD     C5 2632  -1.164   3.856  -0.037  0.0000  0.0000  0.0000
  131BTD     C6 2633  -1.204   3.984  -0.081  0.0000  0.0000  0.0000
  131BTD     C7 2634  -1.175   4.099  -0.001  0.0000  0.0000  0.0000
  131BTD     C8 2635  -1.108   4.082   0.124  0.0000  0.0000  0.0000
  131BTD    C15 2636  -1.072   3.954   0.174  0.0000  0.0000  0.0000
  131BTD    C16 2637  -1.091   3.833   0.088  0.0000  0.0000  0.0000
  131BTD    C43 2638  -0.960   3.632   0.179  0.0000  0.0000  0.0000
  131BTD    C44 2639  -0.818   3.684   0.142  0.0000  0.0000  0.0000
  131BTD    C45 2640  -0.780   3.709  -0.007  0.0000  0.0000  0.0000
  131BTD    C46 2641  -0.774   3.577  -0.089  0.0000  0.0000  0.0000
  131BTD    C47 2642  -0.702   3.604   0.208  0.0000  0.0000  0.0000
  131BTD    C48 2643  -0.685   3.610   0.362  0.0000  0.0000  0.0000
  131BTD    C49 2644  -0.596   3.504   0.434  0.0000  0.0000  0.0000
  131BTD    C50 2645  -0.617   3.479   0.586  0.0000  0.0000  0.0000
  131BTD    C75 2646  -0.995   3.871   0.413  0.0000  0.0000  0.0000
  131BTD    C76 2647  -1.133   3.807   0.448  0.0000  0.0000  0.0000
  131BTD    C77 2648  -1.132   3.721   0.577  0.0000  0.0000  0.0000
  131BTD    C78 2649  -0.987   3.753   0.622  0.0000  0.0000  0.0000
  131BTD    C79 2650  -1.254   3.901   0.466  0.0000  0.0000  0.0000
  131BTD    C80 2651  -1.233   4.033   0.545  0.0000  0.0000  0.0000
  131BTD    C81 2652  -1.329   4.152   0.521  0.0000  0.0000  0.0000
  131BTD    C82 2653  -1.461   4.157   0.604  0.0000  0.0000  0.0000
  132TTP     S1 2654  -1.239   3.657  -0.236  0.0000  0.0000  0.0000
  132TTP     S5 2655  -1.056   3.350  -0.017  0.0000  0.0000  0.0000
  132TTP     C1 2656  -1.115   3.280  -0.163  0.0000  0.0000  0.0000
  132TTP     C2 2657  -1.176   3.371  -0.241  0.0000  0.0000  0.0000
  132TTP     C3 2658  -1.178   3.502  -0.189  0.0000  0.0000  0.0000
  132TTP     C4 2659  -1.173   3.728  -0.094  0.0000  0.0000  0.0000
  132TTP    C17 2660  -1.113   3.636  -0.009  0.0000  0.0000  0.0000
  132TTP    C18 2661  -1.112   3.503  -0.061  0.0000  0.0000  0.0000
  132TTP    C32 2662  -1.234   3.347  -0.382  0.0000  0.0000  0.0000
  132TTP    C33 2663  -1.386   3.362  -0.405  0.0000  0.0000  0.0000
  132TTP    C34 2664  -1.444   3.327  -0.544  0.0000  0.0000  0.0000
  132TTP    C35 2665  -1.597   3.333  -0.515  0.0000  0.0000  0.0000
  132TTP    C36 2666  -1.643   3.186  -0.491  0.0000  0.0000  0.0000
  132TTP    C37 2667  -1.575   3.073  -0.573  0.0000  0.0000  0.0000
  132TTP    C38 2668  -1.659   2.953  -0.625  0.0000  0.0000  0.0000
  132TTP    C39 2669  -1.549   2.908  -0.723  0.0000  0.0000  0.0000
  132TTP    C40 2670  -1.594   2.867  -0.867  0.0000  0.0000  0.0000
  132TTP    C41 2671  -1.513   2.759  -0.944  0.0000  0.0000  0.0000
  132TTP    C42 2672  -1.575   2.693  -1.070  0.0000  0.0000  0.0000
  133TTP     S1 2673  -1.075   4.347   0.248  0.0000  0.0000  0.0000
  133TTP     S5 2674  -0.853   4.172   0.559  0.0000  0.0000  0.0000
  133TTP     C1 2675  -0.847   4.347   0.576  0.0000  0.0000  0.0000
  133TTP     C2 2676  -0.918   4.412   0.480  0.0000  0.0000  0.0000
  133TTP     C3 2677  -0.979   4.324   0.391  0.0000  0.0000  0.0000
  133TTP     C4 2678  -1.073   4.177   0.222  0.0000  0.0000  0.0000
  133TTP    C17 2679  -1.010   4.105   0.325  0.0000  0.0000  0.0000
  133TTP    C18 2680  -0.951   4.190   0.420  0.0000  0.0000  0.0000
  133TTP    C32 2681  -0.936   4.566   0.471  0.0000  0.0000  0.0000
  133TTP    C33 2682  -1.054   4.619   0.559  0.0000  0.0000  0.0000
  133TTP    C34 2683  -1.072   4.772   0.554  0.0000  0.0000  0.0000
  133TTP    C35 2684  -1.100   4.815   0.407  0.0000  0.0000  0.0000
  133TTP    C36 2685  -1.114   4.966   0.375  0.0000  0.0000  0.0000
  133TTP    C37 2686  -0.991   5.060   0.389  0.0000  0.0000  0.0000
  133TTP    C38 2687  -1.077   5.187   0.361  0.0000  0.0000  0.0000
  133TTP    C39 2688  -0.983   5.287   0.432  0.0000  0.0000  0.0000
  133TTP    C40 2689  -0.977   5.285   0.588  0.0000  0.0000  0.0000
  133TTP    C41 2690  -0.870   5.198   0.659  0.0000  0.0000  0.0000
  133TTP    C42 2691  -0.905   5.054   0.709  0.0000  0.0000  0.0000
  134FIC     F1 2692  -0.783   2.631   0.209  0.0000  0.0000  0.0000
  134FIC     F2 2693  -0.824   2.495  -0.020  0.0000  0.0000  0.0000
  134FIC     O1 2694  -0.993   3.107   0.072  0.0000  0.0000  0.0000
  134FIC     N5 2695  -1.032   2.624  -0.429  0.0000  0.0000  0.0000
  134FIC     N6 2696  -1.203   3.021  -0.518  0.0000  0.0000  0.0000
  134FIC    C19 2697  -1.098   3.145  -0.205  0.0000  0.0000  0.0000
  134FIC    C20 2698  -1.046   3.031  -0.153  0.0000  0.0000  0.0000
  134FIC    C21 2699  -0.991   3.020  -0.019  0.0000  0.0000  0.0000
  134FIC    C22 2700  -0.945   2.881  -0.004  0.0000  0.0000  0.0000
  134FIC    C23 2701  -0.884   2.827   0.113  0.0000  0.0000  0.0000
  134FIC    C24 2702  -0.842   2.694   0.092  0.0000  0.0000  0.0000
  134FIC    C25 2703  -0.862   2.626  -0.020  0.0000  0.0000  0.0000
  134FIC    C26 2704  -0.919   2.680  -0.125  0.0000  0.0000  0.0000
  134FIC    C27 2705  -0.962   2.808  -0.112  0.0000  0.0000  0.0000
  134FIC    C28 2706  -1.030   2.900  -0.213  0.0000  0.0000  0.0000
  134FIC    C29 2707  -1.072   2.872  -0.354  0.0000  0.0000  0.0000
  134FIC    C30 2708  -1.051   2.728  -0.393  0.0000  0.0000  0.0000
  134FIC    C31 2709  -1.139   2.958  -0.449  0.0000  0.0000  0.0000
  135FIC     F1 2710  -0.388   4.075   1.189  0.0000  0.0000  0.0000
  135FIC     F2 2711  -0.334   4.326   1.252  0.0000  0.0000  0.0000
  135FIC     O1 2712  -0.709   4.138   0.773  0.0000  0.0000  0.0000
  135FIC     N5 2713  -0.483   4.740   1.046  0.0000  0.0000  0.0000
  135FIC     N6 2714  -0.677   4.757   0.672  0.0000  0.0000  0.0000
  135FIC    C19 2715  -0.770   4.418   0.674  0.0000  0.0000  0.0000
  135FIC    C20 2716  -0.689   4.381   0.776  0.0000  0.0000  0.0000
  135FIC    C21 2717  -0.664   4.240   0.819  0.0000  0.0000  0.0000
  135FIC    C22 2718  -0.579   4.249   0.939  0.0000  0.0000  0.0000
  135FIC    C23 2719  -0.527   4.142   1.012  0.0000  0.0000  0.0000
  135FIC    C24 2720  -0.451   4.173   1.116  0.0000  0.0000  0.0000
  135FIC    C25 2721  -0.419   4.306   1.149  0.0000  0.0000  0.0000
  135FIC    C26 2722  -0.467   4.409   1.075  0.0000  0.0000  0.0000
  135FIC    C27 2723  -0.549   4.380   0.970  0.0000  0.0000  0.0000
  135FIC    C28 2724  -0.613   4.466   0.866  0.0000  0.0000  0.0000
  135FIC    C29 2725  -0.600   4.604   0.861  0.0000  0.0000  0.0000
  135FIC    C30 2726  -0.535   4.678   0.963  0.0000  0.0000  0.0000
  135FIC    C31 2727  -0.644   4.687   0.752  0.0000  0.0000  0.0000
  136BTD     S2 2728  -0.147   4.184   2.197  0.0000  0.0000  0.0000
  136BTD     N1 2729  -0.136   4.023   2.186  0.0000  0.0000  0.0000
  136BTD     N2 2730  -0.226   4.216   2.060  0.0000  0.0000  0.0000
  136BTD     N3 2731  -0.395   3.954   1.698  0.0000  0.0000  0.0000
  136BTD     N4 2732  -0.282   3.694   1.876  0.0000  0.0000  0.0000
  136BTD     C5 2733  -0.212   3.858   2.017  0.0000  0.0000  0.0000
  136BTD     C6 2734  -0.195   3.988   2.073  0.0000  0.0000  0.0000
  136BTD     C7 2735  -0.246   4.099   2.000  0.0000  0.0000  0.0000
  136BTD     C8 2736  -0.307   4.078   1.875  0.0000  0.0000  0.0000
  136BTD    C15 2737  -0.326   3.945   1.822  0.0000  0.0000  0.0000
  136BTD    C16 2738  -0.278   3.833   1.899  0.0000  0.0000  0.0000
  136BTD    C43 2739  -0.370   3.617   1.787  0.0000  0.0000  0.0000
  136BTD    C44 2740  -0.523   3.627   1.817  0.0000  0.0000  0.0000
  136BTD    C45 2741  -0.595   3.528   1.723  0.0000  0.0000  0.0000
  136BTD    C46 2742  -0.745   3.570   1.724  0.0000  0.0000  0.0000
  136BTD    C47 2743  -0.556   3.600   1.967  0.0000  0.0000  0.0000
  136BTD    C48 2744  -0.570   3.459   2.030  0.0000  0.0000  0.0000
  136BTD    C49 2745  -0.584   3.491   2.181  0.0000  0.0000  0.0000
  136BTD    C50 2746  -0.681   3.537   2.295  0.0000  0.0000  0.0000
  136BTD    C75 2747  -0.382   3.866   1.582  0.0000  0.0000  0.0000
  136BTD    C76 2748  -0.233   3.836   1.546  0.0000  0.0000  0.0000
  136BTD    C77 2749  -0.224   3.748   1.419  0.0000  0.0000  0.0000
  136BTD    C78 2750  -0.083   3.695   1.384  0.0000  0.0000  0.0000
  136BTD    C79 2751  -0.148   3.963   1.526  0.0000  0.0000  0.0000
  136BTD    C80 2752  -0.175   4.052   1.402  0.0000  0.0000  0.0000
  136BTD    C81 2753  -0.083   4.177   1.407  0.0000  0.0000  0.0000
  136BTD    C82 2754  -0.114   4.303   1.494  0.0000  0.0000  0.0000
  137TTP     S1 2755  -0.085   3.668   2.204  0.0000  0.0000  0.0000
  137TTP     S5 2756  -0.184   3.349   1.947  0.0000  0.0000  0.0000
  137TTP     C1 2757  -0.087   3.286   2.079  0.0000  0.0000  0.0000
  137TTP     C2 2758  -0.049   3.383   2.167  0.0000  0.0000  0.0000
  137TTP     C3 2759  -0.105   3.506   2.134  0.0000  0.0000  0.0000
  137TTP     C4 2760  -0.170   3.729   2.073  0.0000  0.0000  0.0000
  137TTP    C17 2761  -0.221   3.638   1.982  0.0000  0.0000  0.0000
  137TTP    C18 2762  -0.177   3.504   2.022  0.0000  0.0000  0.0000
  137TTP    C32 2763   0.036   3.366   2.295  0.0000  0.0000  0.0000
  137TTP    C33 2764  -0.054   3.332   2.417  0.0000  0.0000  0.0000
  137TTP    C34 2765   0.039   3.309   2.538  0.0000  0.0000  0.0000
  137TTP    C35 2766  -0.020   3.238   2.663  0.0000  0.0000  0.0000
  137TTP    C36 2767   0.075   3.144   2.744  0.0000  0.0000  0.0000
  137TTP    C37 2768   0.194   3.208   2.821  0.0000  0.0000  0.0000
  137TTP    C38 2769   0.275   3.340   2.833  0.0000  0.0000  0.0000
  137TTP    C39 2770   0.357   3.390   2.710  0.0000  0.0000  0.0000
  137TTP    C40 2771   0.416   3.288   2.610  0.0000  0.0000  0.0000
  137TTP    C41 2772   0.403   3.314   2.457  0.0000  0.0000  0.0000
  137TTP    C42 2773   0.421   3.193   2.362  0.0000  0.0000  0.0000
  138TTP     S1 2774  -0.390   4.337   1.760  0.0000  0.0000  0.0000
  138TTP     S5 2775  -0.592   4.134   1.452  0.0000  0.0000  0.0000
  138TTP     C1 2776  -0.623   4.307   1.430  0.0000  0.0000  0.0000
  138TTP     C2 2777  -0.558   4.381   1.531  0.0000  0.0000  0.0000
  138TTP     C3 2778  -0.481   4.301   1.615  0.0000  0.0000  0.0000
  138TTP     C4 2779  -0.367   4.165   1.781  0.0000  0.0000  0.0000
  138TTP    C17 2780  -0.421   4.090   1.677  0.0000  0.0000  0.0000
  138TTP    C18 2781  -0.491   4.167   1.582  0.0000  0.0000  0.0000
  138TTP    C32 2782  -0.551   4.535   1.538  0.0000  0.0000  0.0000
  138TTP    C33 2783  -0.445   4.602   1.444  0.0000  0.0000  0.0000
  138TTP    C34 2784  -0.439   4.757   1.460  0.0000  0.0000  0.0000
  138TTP    C35 2785  -0.330   4.807   1.362  0.0000  0.0000  0.0000
  138TTP    C36 2786  -0.346   4.961   1.356  0.0000  0.0000  0.0000
  138TTP    C37 2787  -0.313   4.999   1.504  0.0000  0.0000  0.0000
  138TTP    C38 2788  -0.307   5.153   1.533  0.0000  0.0000  0.0000
  138TTP    C39 2789  -0.245   5.204   1.665  0.0000  0.0000  0.0000
  138TTP    C40 2790  -0.336   5.272   1.772  0.0000  0.0000  0.0000
  138TTP    C41 2791  -0.411   5.403   1.738  0.0000  0.0000  0.0000
  138TTP    C42 2792  -0.433   5.510   1.847  0.0000  0.0000  0.0000
  139FIC     F1 2793  -0.117   2.659   1.555  0.0000  0.0000  0.0000
  139FIC     F2 2794  -0.008   2.505   1.747  0.0000  0.0000  0.0000
  139FIC     O1 2795  -0.171   3.118   1.816  0.0000  0.0000  0.0000
  139FIC     N5 2796   0.145   2.618   2.192  0.0000  0.0000  0.0000
  139FIC     N6 2797   0.097   2.999   2.371  0.0000  0.0000  0.0000
  139FIC    C19 2798  -0.043   3.149   2.089  0.0000  0.0000  0.0000
  139FIC    C20 2799  -0.052   3.038   2.008  0.0000  0.0000  0.0000
  139FIC    C21 2800  -0.115   3.030   1.881  0.0000  0.0000  0.0000
  139FIC    C22 2801  -0.090   2.896   1.827  0.0000  0.0000  0.0000
  139FIC    C23 2802  -0.120   2.846   1.696  0.0000  0.0000  0.0000
  139FIC    C24 2803  -0.091   2.717   1.672  0.0000  0.0000  0.0000
  139FIC    C25 2804  -0.031   2.638   1.781  0.0000  0.0000  0.0000
  139FIC    C26 2805   0.005   2.683   1.898  0.0000  0.0000  0.0000
  139FIC    C27 2806  -0.030   2.818   1.926  0.0000  0.0000  0.0000
  139FIC    C28 2807  -0.006   2.904   2.042  0.0000  0.0000  0.0000
  139FIC    C29 2808   0.054   2.861   2.158  0.0000  0.0000  0.0000
  139FIC    C30 2809   0.102   2.718   2.171  0.0000  0.0000  0.0000
  139FIC    C31 2810   0.071   2.939   2.277  0.0000  0.0000  0.0000
  140FIC     F1 2811  -1.079   3.984   0.839  0.0000  0.0000  0.0000
  140FIC     F2 2812  -1.126   4.227   0.758  0.0000  0.0000  0.0000
  140FIC     O1 2813  -0.767   4.078   1.261  0.0000  0.0000  0.0000
  140FIC     N5 2814  -0.949   4.647   0.908  0.0000  0.0000  0.0000
  140FIC     N6 2815  -0.759   4.702   1.286  0.0000  0.0000  0.0000
  140FIC    C19 2816  -0.699   4.365   1.329  0.0000  0.0000  0.0000
  140FIC    C20 2817  -0.779   4.319   1.230  0.0000  0.0000  0.0000
  140FIC    C21 2818  -0.810   4.172   1.197  0.0000  0.0000  0.0000
  140FIC    C22 2819  -0.889   4.170   1.082  0.0000  0.0000  0.0000
  140FIC    C23 2820  -0.946   4.060   1.015  0.0000  0.0000  0.0000
  140FIC    C24 2821  -1.022   4.077   0.906  0.0000  0.0000  0.0000
  140FIC    C25 2822  -1.051   4.206   0.863  0.0000  0.0000  0.0000
  140FIC    C26 2823  -0.995   4.325   0.922  0.0000  0.0000  0.0000
  140FIC    C27 2824  -0.912   4.303   1.034  0.0000  0.0000  0.0000
  140FIC    C28 2825  -0.846   4.393   1.127  0.0000  0.0000  0.0000
  140FIC    C29 2826  -0.850   4.532   1.115  0.0000  0.0000  0.0000
  140FIC    C30 2827  -0.907   4.597   0.996  0.0000  0.0000  0.0000
  140FIC    C31 2828  -0.794   4.626   1.208  0.0000  0.0000  0.0000
  141BTD     S2 2829  -1.377  10.276   0.801  0.0000  0.0000  0.0000
  141BTD     N1 2830  -1.363  10.441   0.805  0.0000  0.0000  0.0000
  141BTD     N2 2831  -1.312  10.237   0.943  0.0000  0.0000  0.0000
  141BTD     N3 2832  -1.110  10.484   1.293  0.0000  0.0000  0.0000
  141BTD     N4 2833  -1.167  10.755   1.100  0.0000  0.0000  0.0000
  141BTD     C5 2834  -1.267  10.596   0.962  0.0000  0.0000  0.0000
  141BTD     C6 2835  -1.307  10.468   0.918  0.0000  0.0000  0.0000
  141BTD     C7 2836  -1.278  10.354   0.998  0.0000  0.0000  0.0000
  141BTD     C8 2837  -1.212  10.371   1.122  0.0000  0.0000  0.0000
  141BTD    C15 2838  -1.176  10.498   1.172  0.0000  0.0000  0.0000
  141BTD    C16 2839  -1.194  10.620   1.087  0.0000  0.0000  0.0000
  141BTD    C43 2840  -1.063  10.821   1.177  0.0000  0.0000  0.0000
  141BTD    C44 2841  -0.921  10.769   1.141  0.0000  0.0000  0.0000
  141BTD    C45 2842  -0.883  10.744   0.991  0.0000  0.0000  0.0000
  141BTD    C46 2843  -0.878  10.875   0.910  0.0000  0.0000  0.0000
  141BTD    C47 2844  -0.806  10.849   1.207  0.0000  0.0000  0.0000
  141BTD    C48 2845  -0.788  10.843   1.360  0.0000  0.0000  0.0000
  141BTD    C49 2846  -0.700  10.949   1.432  0.0000  0.0000  0.0000
  141BTD    C50 2847  -0.720  10.973   1.584  0.0000  0.0000  0.0000
  141BTD    C75 2848  -1.099  10.582   1.411  0.0000  0.0000  0.0000
  141BTD    C76 2849  -1.237  10.645   1.446  0.0000  0.0000  0.0000
  141BTD    C77 2850  -1.235  10.731   1.575  0.0000  0.0000  0.0000
  141BTD    C78 2851  -1.091  10.700   1.621  0.0000  0.0000  0.0000
  141BTD    C79 2852  -1.358  10.551   1.465  0.0000  0.0000  0.0000
  141BTD    C80 2853  -1.337  10.420   1.544  0.0000  0.0000  0.0000
  141BTD    C81 2854  -1.433  10.300   1.519  0.0000  0.0000  0.0000
  141BTD    C82 2855  -1.564  10.296   1.603  0.0000  0.0000  0.0000
  142TTP     S1 2856  -1.342  10.796   0.763  0.0000  0.0000  0.0000
  142TTP     S5 2857  -1.159  11.103   0.981  0.0000  0.0000  0.0000
  142TTP     C1 2858  -1.219  11.173   0.835  0.0000  0.0000  0.0000
  142TTP     C2 2859  -1.279  11.081   0.758  0.0000  0.0000  0.0000
  142TTP     C3 2860  -1.281  10.951   0.809  0.0000  0.0000  0.0000
  142TTP     C4 2861  -1.277  10.725   0.905  0.0000  0.0000  0.0000
  142TTP    C17 2862  -1.216  10.817   0.989  0.0000  0.0000  0.0000
  142TTP    C18 2863  -1.215  10.949   0.937  0.0000  0.0000  0.0000
  142TTP    C32 2864  -1.337  11.106   0.616  0.0000  0.0000  0.0000
  142TTP    C33 2865  -1.490  11.091   0.594  0.0000  0.0000  0.0000
  142TTP    C34 2866  -1.548  11.126   0.454  0.0000  0.0000  0.0000
  142TTP    C35 2867  -1.700  11.120   0.483  0.0000  0.0000  0.0000
  142TTP    C36 2868  -1.747  11.266   0.508  0.0000  0.0000  0.0000
  142TTP    C37 2869  -1.678  11.380   0.425  0.0000  0.0000  0.0000
  142TTP    C38 2870  -1.763  11.499   0.374  0.0000  0.0000  0.0000
  142TTP    C39 2871  -1.653  11.544   0.276  0.0000  0.0000  0.0000
  142TTP    C40 2872  -1.697  11.586   0.132  0.0000  0.0000  0.0000
  142TTP    C41 2873  -1.616  11.694   0.054  0.0000  0.0000  0.0000
  142TTP    C42 2874  -1.679  11.759  -0.072  0.0000  0.0000  0.0000
  143TTP     S1 2875  -1.178  10.105   1.247  0.0000  0.0000  0.0000
  143TTP     S5 2876  -0.956  10.281   1.557  0.0000  0.0000  0.0000
  143TTP     C1 2877  -0.950  10.105   1.575  0.0000  0.0000  0.0000
  143TTP     C2 2878  -1.021  10.040   1.479  0.0000  0.0000  0.0000
  143TTP     C3 2879  -1.082  10.128   1.390  0.0000  0.0000  0.0000
  143TTP     C4 2880  -1.176  10.276   1.221  0.0000  0.0000  0.0000
  143TTP    C17 2881  -1.113  10.347   1.323  0.0000  0.0000  0.0000
  143TTP    C18 2882  -1.055  10.263   1.419  0.0000  0.0000  0.0000
  143TTP    C32 2883  -1.040   9.886   1.469  0.0000  0.0000  0.0000
  143TTP    C33 2884  -1.157   9.833   1.557  0.0000  0.0000  0.0000
  143TTP    C34 2885  -1.175   9.680   1.552  0.0000  0.0000  0.0000
  143TTP    C35 2886  -1.204   9.637   1.406  0.0000  0.0000  0.0000
  143TTP    C36 2887  -1.217   9.486   1.373  0.0000  0.0000  0.0000
  143TTP    C37 2888  -1.094   9.393   1.388  0.0000  0.0000  0.0000
  143TTP    C38 2889  -1.180   9.266   1.359  0.0000  0.0000  0.0000
  143TTP    C39 2890  -1.087   9.165   1.431  0.0000  0.0000  0.0000
  143TTP    C40 2891  -1.080   9.168   1.586  0.0000  0.0000  0.0000
  143TTP    C41 2892  -0.974   9.255   1.658  0.0000  0.0000  0.0000
  143TTP    C42 2893  -1.008   9.398   1.707  0.0000  0.0000  0.0000
  144FIC     F1 2894  -0.886  11.822   1.208  0.0000  0.0000  0.0000
  144FIC     F2 2895  -0.927  11.957   0.979  0.0000  0.0000  0.0000
  144FIC     O1 2896  -1.096  11.346   1.071  0.0000  0.0000  0.0000
  144FIC     N5 2897  -1.135  11.829   0.569  0.0000  0.0000  0.0000
  144FIC     N6 2898  -1.307  11.432   0.481  0.0000  0.0000  0.0000
  144FIC    C19 2899  -1.202  11.307   0.793  0.0000  0.0000  0.0000
  144FIC    C20 2900  -1.150  11.421   0.845  0.0000  0.0000  0.0000
  144FIC    C21 2901  -1.095  11.432   0.979  0.0000  0.0000  0.0000
  144FIC    C22 2902  -1.048  11.571   0.995  0.0000  0.0000  0.0000
  144FIC    C23 2903  -0.987  11.625   1.112  0.0000  0.0000  0.0000
  144FIC    C24 2904  -0.946  11.759   1.090  0.0000  0.0000  0.0000
  144FIC    C25 2905  -0.965  11.826   0.978  0.0000  0.0000  0.0000
  144FIC    C26 2906  -1.023  11.772   0.873  0.0000  0.0000  0.0000
  144FIC    C27 2907  -1.066  11.644   0.886  0.0000  0.0000  0.0000
  144FIC    C28 2908  -1.134  11.553   0.786  0.0000  0.0000  0.0000
  144FIC    C29 2909  -1.176  11.581   0.644  0.0000  0.0000  0.0000
  144FIC    C30 2910  -1.155  11.725   0.605  0.0000  0.0000  0.0000
  144FIC    C31 2911  -1.242  11.495   0.549  0.0000  0.0000  0.0000
  145FIC     F1 2912  -0.492  10.378   2.188  0.0000  0.0000  0.0000
  145FIC     F2 2913  -0.437  10.126   2.250  0.0000  0.0000  0.0000
  145FIC     O1 2914  -0.812  10.314   1.771  0.0000  0.0000  0.0000
  145FIC     N5 2915  -0.586   9.712   2.044  0.0000  0.0000  0.0000
  145FIC     N6 2916  -0.781   9.696   1.671  0.0000  0.0000  0.0000
  145FIC    C19 2917  -0.874  10.035   1.673  0.0000  0.0000  0.0000
  145FIC    C20 2918  -0.792  10.072   1.775  0.0000  0.0000  0.0000
  145FIC    C21 2919  -0.767  10.212   1.817  0.0000  0.0000  0.0000
  145FIC    C22 2920  -0.683  10.204   1.937  0.0000  0.0000  0.0000
  145FIC    C23 2921  -0.630  10.310   2.010  0.0000  0.0000  0.0000
  145FIC    C24 2922  -0.555  10.280   2.115  0.0000  0.0000  0.0000
  145FIC    C25 2923  -0.522  10.147   2.147  0.0000  0.0000  0.0000
  145FIC    C26 2924  -0.571  10.043   2.073  0.0000  0.0000  0.0000
  145FIC    C27 2925  -0.652  10.072   1.969  0.0000  0.0000  0.0000
  145FIC    C28 2926  -0.717   9.986   1.864  0.0000  0.0000  0.0000
  145FIC    C29 2927  -0.703   9.848   1.860  0.0000  0.0000  0.0000
  145FIC    C30 2928  -0.639   9.774   1.961  0.0000  0.0000  0.0000
  145FIC    C31 2929  -0.748   9.766   1.751  0.0000  0.0000  0.0000
  146BTD     S2 2930  -0.250  10.268   3.196  0.0000  0.0000  0.0000
  146BTD     N1 2931  -0.240  10.429   3.185  0.0000  0.0000  0.0000
  146BTD     N2 2932  -0.329  10.237   3.058  0.0000  0.0000  0.0000
  146BTD     N3 2933  -0.499  10.499   2.697  0.0000  0.0000  0.0000
  146BTD     N4 2934  -0.385  10.759   2.874  0.0000  0.0000  0.0000
  146BTD     C5 2935  -0.315  10.595   3.016  0.0000  0.0000  0.0000
  146BTD     C6 2936  -0.298  10.464   3.072  0.0000  0.0000  0.0000
  146BTD     C7 2937  -0.349  10.354   2.998  0.0000  0.0000  0.0000
  146BTD     C8 2938  -0.411  10.375   2.874  0.0000  0.0000  0.0000
  146BTD    C15 2939  -0.430  10.508   2.821  0.0000  0.0000  0.0000
  146BTD    C16 2940  -0.382  10.619   2.897  0.0000  0.0000  0.0000
  146BTD    C43 2941  -0.474  10.836   2.786  0.0000  0.0000  0.0000
  146BTD    C44 2942  -0.626  10.826   2.816  0.0000  0.0000  0.0000
  146BTD    C45 2943  -0.699  10.925   2.721  0.0000  0.0000  0.0000
  146BTD    C46 2944  -0.849  10.883   2.723  0.0000  0.0000  0.0000
  146BTD    C47 2945  -0.659  10.852   2.965  0.0000  0.0000  0.0000
  146BTD    C48 2946  -0.674  10.993   3.029  0.0000  0.0000  0.0000
  146BTD    C49 2947  -0.688  10.962   3.180  0.0000  0.0000  0.0000
  146BTD    C50 2948  -0.784  10.916   3.293  0.0000  0.0000  0.0000
  146BTD    C75 2949  -0.485  10.586   2.580  0.0000  0.0000  0.0000
  146BTD    C76 2950  -0.337  10.616   2.545  0.0000  0.0000  0.0000
  146BTD    C77 2951  -0.328  10.704   2.418  0.0000  0.0000  0.0000
  146BTD    C78 2952  -0.187  10.758   2.382  0.0000  0.0000  0.0000
  146BTD    C79 2953  -0.251  10.489   2.524  0.0000  0.0000  0.0000
  146BTD    C80 2954  -0.279  10.401   2.400  0.0000  0.0000  0.0000
  146BTD    C81 2955  -0.187  10.275   2.406  0.0000  0.0000  0.0000
  146BTD    C82 2956  -0.218  10.150   2.493  0.0000  0.0000  0.0000
  147TTP     S1 2957  -0.189  10.785   3.202  0.0000  0.0000  0.0000
  147TTP     S5 2958  -0.287  11.103   2.946  0.0000  0.0000  0.0000
  147TTP     C1 2959  -0.191  11.167   3.077  0.0000  0.0000  0.0000
  147TTP     C2 2960  -0.153  11.069   3.166  0.0000  0.0000  0.0000
  147TTP     C3 2961  -0.208  10.947   3.132  0.0000  0.0000  0.0000
  147TTP     C4 2962  -0.273  10.724   3.071  0.0000  0.0000  0.0000
  147TTP    C17 2963  -0.324  10.814   2.980  0.0000  0.0000  0.0000
  147TTP    C18 2964  -0.280  10.949   3.020  0.0000  0.0000  0.0000
  147TTP    C32 2965  -0.067  11.087   3.294  0.0000  0.0000  0.0000
  147TTP    C33 2966  -0.158  11.121   3.415  0.0000  0.0000  0.0000
  147TTP    C34 2967  -0.065  11.144   3.537  0.0000  0.0000  0.0000
  147TTP    C35 2968  -0.123  11.214   3.661  0.0000  0.0000  0.0000
  147TTP    C36 2969  -0.029  11.308   3.742  0.0000  0.0000  0.0000
  147TTP    C37 2970   0.091  11.244   3.819  0.0000  0.0000  0.0000
  147TTP    C38 2971   0.171  11.112   3.831  0.0000  0.0000  0.0000
  147TTP    C39 2972   0.253  11.062   3.709  0.0000  0.0000  0.0000
  147TTP    C40 2973   0.312  11.165   3.608  0.0000  0.0000  0.0000
  147TTP    C41 2974   0.299  11.138   3.455  0.0000  0.0000  0.0000
  147TTP    C42 2975   0.318  11.260   3.360  0.0000  0.0000  0.0000
  148TTP     S1 2976  -0.493  10.116   2.759  0.0000  0.0000  0.0000
  148TTP     S5 2977  -0.695  10.319   2.450  0.0000  0.0000  0.0000
  148TTP     C1 2978  -0.726  10.146   2.429  0.0000  0.0000  0.0000
  148TTP     C2 2979  -0.662  10.072   2.530  0.0000  0.0000  0.0000
  148TTP     C3 2980  -0.585  10.152   2.614  0.0000  0.0000  0.0000
  148TTP     C4 2981  -0.470  10.287   2.780  0.0000  0.0000  0.0000
  148TTP    C17 2982  -0.524  10.362   2.676  0.0000  0.0000  0.0000
  148TTP    C18 2983  -0.595  10.285   2.580  0.0000  0.0000  0.0000
  148TTP    C32 2984  -0.654   9.917   2.536  0.0000  0.0000  0.0000
  148TTP    C33 2985  -0.549   9.850   2.443  0.0000  0.0000  0.0000
  148TTP    C34 2986  -0.542   9.696   2.458  0.0000  0.0000  0.0000
  148TTP    C35 2987  -0.433   9.645   2.360  0.0000  0.0000  0.0000
  148TTP    C36 2988  -0.449   9.491   2.355  0.0000  0.0000  0.0000
  148TTP    C37 2989  -0.416   9.453   2.502  0.0000  0.0000  0.0000
  148TTP    C38 2990  -0.411   9.299   2.532  0.0000  0.0000  0.0000
  148TTP    C39 2991  -0.349   9.249   2.664  0.0000  0.0000  0.0000
  148TTP    C40 2992  -0.440   9.181   2.771  0.0000  0.0000  0.0000
  148TTP    C41 2993  -0.515   9.050   2.736  0.0000  0.0000  0.0000
  148TTP    C42 2994  -0.537   8.942   2.845  0.0000  0.0000  0.0000
  149FIC     F1 2995  -0.220  11.793   2.554  0.0000  0.0000  0.0000
  149FIC     F2 2996  -0.111  11.947   2.745  0.0000  0.0000  0.0000
  149FIC     O1 2997  -0.275  11.334   2.814  0.0000  0.0000  0.0000
  149FIC     N5 2998   0.041  11.835   3.190  0.0000  0.0000  0.0000
  149FIC     N6 2999  -0.007  11.454   3.369  0.0000  0.0000  0.0000
  149FIC    C19 3000  -0.147  11.304   3.087  0.0000  0.0000  0.0000
  149FIC    C20 3001  -0.156  11.415   3.007  0.0000  0.0000  0.0000
  149FIC    C21 3002  -0.218  11.422   2.879  0.0000  0.0000  0.0000
  149FIC    C22 3003  -0.194  11.557   2.825  0.0000  0.0000  0.0000
  149FIC    C23 3004  -0.223  11.606   2.695  0.0000  0.0000  0.0000
  149FIC    C24 3005  -0.195  11.735   2.670  0.0000  0.0000  0.0000
  149FIC    C25 3006  -0.135  11.814   2.780  0.0000  0.0000  0.0000
  149FIC    C26 3007  -0.099  11.770   2.896  0.0000  0.0000  0.0000
  149FIC    C27 3008  -0.134  11.635   2.924  0.0000  0.0000  0.0000
  149FIC    C28 3009  -0.110  11.548   3.040  0.0000  0.0000  0.0000
  149FIC    C29 3010  -0.050  11.591   3.157  0.0000  0.0000  0.0000
  149FIC    C30 3011  -0.002  11.735   3.169  0.0000  0.0000  0.0000
  149FIC    C31 3012  -0.032  11.514   3.276  0.0000  0.0000  0.0000
  150FIC     F1 3013  -1.183  10.468   1.837  0.0000  0.0000  0.0000
  150FIC     F2 3014  -1.230  10.226   1.756  0.0000  0.0000  0.0000
  150FIC     O1 3015  -0.871  10.374   2.260  0.0000  0.0000  0.0000
  150FIC     N5 3016  -1.053   9.805   1.906  0.0000  0.0000  0.0000
  150FIC     N6 3017  -0.862   9.750   2.284  0.0000  0.0000  0.0000
  150FIC    C19 3018  -0.803  10.088   2.327  0.0000  0.0000  0.0000
  150FIC    C20 3019  -0.882  10.134   2.228  0.0000  0.0000  0.0000
  150FIC    C21 3020  -0.914  10.280   2.196  0.0000  0.0000  0.0000
  150FIC    C22 3021  -0.993  10.282   2.080  0.0000  0.0000  0.0000
  150FIC    C23 3022  -1.049  10.393   2.014  0.0000  0.0000  0.0000
  150FIC    C24 3023  -1.125  10.376   1.904  0.0000  0.0000  0.0000
  150FIC    C25 3024  -1.154  10.247   1.862  0.0000  0.0000  0.0000
  150FIC    C26 3025  -1.099  10.128   1.920  0.0000  0.0000  0.0000
  150FIC    C27 3026  -1.016  10.149   2.033  0.0000  0.0000  0.0000
  150FIC    C28 3027  -0.949  10.060   2.125  0.0000  0.0000  0.0000
  150FIC    C29 3028  -0.954   9.920   2.113  0.0000  0.0000  0.0000
  150FIC    C30 3029  -1.011   9.856   1.994  0.0000  0.0000  0.0000
  150FIC    C31 3030  -0.898   9.826   2.206  0.0000  0.0000  0.0000
  151BTD     S2 3031   0.963   1.286   3.193  0.0000  0.0000  0.0000
  151BTD     N1 3032   0.949   1.121   3.189  0.0000  0.0000  0.0000
  151BTD     N2 3033   0.898   1.325   3.051  0.0000  0.0000  0.0000
  151BTD     N3 3034   0.696   1.078   2.701  0.0000  0.0000  0.0000
  151BTD     N4 3035   0.753   0.807   2.894  0.0000  0.0000  0.0000
  151BTD     C5 3036   0.853   0.966   3.032  0.0000  0.0000  0.0000
  151BTD     C6 3037   0.893   1.094   3.076  0.0000  0.0000  0.0000
  151BTD     C7 3038   0.864   1.208   2.996  0.0000  0.0000  0.0000
  151BTD     C8 3039   0.798   1.191   2.872  0.0000  0.0000  0.0000
  151BTD    C15 3040   0.762   1.064   2.822  0.0000  0.0000  0.0000
  151BTD    C16 3041   0.780   0.942   2.907  0.0000  0.0000  0.0000
  151BTD    C43 3042   0.649   0.741   2.817  0.0000  0.0000  0.0000
  151BTD    C44 3043   0.507   0.793   2.853  0.0000  0.0000  0.0000
  151BTD    C45 3044   0.469   0.818   3.003  0.0000  0.0000  0.0000
  151BTD    C46 3045   0.464   0.687   3.084  0.0000  0.0000  0.0000
  151BTD    C47 3046   0.392   0.713   2.787  0.0000  0.0000  0.0000
  151BTD    C48 3047   0.374   0.719   2.634  0.0000  0.0000  0.0000
  151BTD    C49 3048   0.286   0.613   2.562  0.0000  0.0000  0.0000
  151BTD    C50 3049   0.306   0.589   2.410  0.0000  0.0000  0.0000
  151BTD    C75 3050   0.685   0.980   2.583  0.0000  0.0000  0.0000
  151BTD    C76 3051   0.823   0.917   2.548  0.0000  0.0000  0.0000
  151BTD    C77 3052   0.821   0.831   2.419  0.0000  0.0000  0.0000
  151BTD    C78 3053   0.677   0.862   2.373  0.0000  0.0000  0.0000
  151BTD    C79 3054   0.944   1.011   2.529  0.0000  0.0000  0.0000
  151BTD    C80 3055   0.923   1.142   2.450  0.0000  0.0000  0.0000
  151BTD    C81 3056   1.019   1.262   2.475  0.0000  0.0000  0.0000
  151BTD    C82 3057   1.150   1.266   2.391  0.0000  0.0000  0.0000
  152TTP     S1 3058   0.928   0.766   3.231  0.0000  0.0000  0.0000
  152TTP     S5 3059   0.745   0.459   3.013  0.0000  0.0000  0.0000
  152TTP     C1 3060   0.805   0.389   3.159  0.0000  0.0000  0.0000
  152TTP     C2 3061   0.865   0.481   3.236  0.0000  0.0000  0.0000
  152TTP     C3 3062   0.867   0.611   3.185  0.0000  0.0000  0.0000
  152TTP     C4 3063   0.863   0.837   3.089  0.0000  0.0000  0.0000
  152TTP    C17 3064   0.802   0.745   3.005  0.0000  0.0000  0.0000
  152TTP    C18 3065   0.801   0.613   3.057  0.0000  0.0000  0.0000
  152TTP    C32 3066   0.923   0.456   3.378  0.0000  0.0000  0.0000
  152TTP    C33 3067   1.076   0.471   3.400  0.0000  0.0000  0.0000
  152TTP    C34 3068   1.134   0.436   3.540  0.0000  0.0000  0.0000
  152TTP    C35 3069   1.286   0.442   3.511  0.0000  0.0000  0.0000
  152TTP    C36 3070   1.333   0.296   3.486  0.0000  0.0000  0.0000
  152TTP    C37 3071   1.264   0.182   3.569  0.0000  0.0000  0.0000
  152TTP    C38 3072   1.349   0.063   3.620  0.0000  0.0000  0.0000
  152TTP    C39 3073   1.239   0.018   3.718  0.0000  0.0000  0.0000
  152TTP    C40 3074   1.283  -0.024   3.862  0.0000  0.0000  0.0000
  152TTP    C41 3075   1.202  -0.132   3.940  0.0000  0.0000  0.0000
  152TTP    C42 3076   1.265  -0.197   4.066  0.0000  0.0000  0.0000
  153TTP     S1 3077   0.764   1.457   2.747  0.0000  0.0000  0.0000
  153TTP     S5 3078   0.542   1.281   2.437  0.0000  0.0000  0.0000
  153TTP     C1 3079   0.536   1.457   2.419  0.0000  0.0000  0.0000
  153TTP     C2 3080   0.607   1.522   2.515  0.0000  0.0000  0.0000
  153TTP     C3 3081   0.668   1.434   2.604  0.0000  0.0000  0.0000
  153TTP     C4 3082   0.762   1.286   2.773  0.0000  0.0000  0.0000
  153TTP    C17 3083   0.699   1.215   2.671  0.0000  0.0000  0.0000
  153TTP    C18 3084   0.641   1.299   2.575  0.0000  0.0000  0.0000
  153TTP    C32 3085   0.626   1.676   2.525  0.0000  0.0000  0.0000
  153TTP    C33 3086   0.743   1.729   2.437  0.0000  0.0000  0.0000
  153TTP    C34 3087   0.761   1.882   2.442  0.0000  0.0000  0.0000
  153TTP    C35 3088   0.790   1.925   2.588  0.0000  0.0000  0.0000
  153TTP    C36 3089   0.803   2.076   2.621  0.0000  0.0000  0.0000
  153TTP    C37 3090   0.680   2.169   2.606  0.0000  0.0000  0.0000
  153TTP    C38 3091   0.766   2.296   2.635  0.0000  0.0000  0.0000
  153TTP    C39 3092   0.673   2.397   2.563  0.0000  0.0000  0.0000
  153TTP    C40 3093   0.666   2.394   2.408  0.0000  0.0000  0.0000
  153TTP    C41 3094   0.560   2.307   2.336  0.0000  0.0000  0.0000
  153TTP    C42 3095   0.594   2.164   2.287  0.0000  0.0000  0.0000
  154FIC     F1 3096   0.472  -0.260   2.786  0.0000  0.0000  0.0000
  154FIC     F2 3097   0.513  -0.395   3.015  0.0000  0.0000  0.0000
  154FIC     O1 3098   0.682   0.216   2.923  0.0000  0.0000  0.0000
  154FIC     N5 3099   0.721  -0.267   3.425  0.0000  0.0000  0.0000
  154FIC     N6 3100   0.893   0.130   3.513  0.0000  0.0000  0.0000
  154FIC    C19 3101   0.788   0.255   3.201  0.0000  0.0000  0.0000
  154FIC    C20 3102   0.736   0.141   3.149  0.0000  0.0000  0.0000
  154FIC    C21 3103   0.681   0.130   3.015  0.0000  0.0000  0.0000
  154FIC    C22 3104   0.634  -0.009   2.999  0.0000  0.0000  0.0000
  154FIC    C23 3105   0.573  -0.063   2.882  0.0000  0.0000  0.0000
  154FIC    C24 3106   0.532  -0.197   2.904  0.0000  0.0000  0.0000
  154FIC    C25 3107   0.551  -0.264   3.016  0.0000  0.0000  0.0000
  154FIC    C26 3108   0.609  -0.210   3.121  0.0000  0.0000  0.0000
  154FIC    C27 3109   0.652  -0.082   3.108  0.0000  0.0000  0.0000
  154FIC    C28 3110   0.720   0.009   3.208  0.0000  0.0000  0.0000
  154FIC    C29 3111   0.762  -0.019   3.350  0.0000  0.0000  0.0000
  154FIC    C30 3112   0.741  -0.163   3.389  0.0000  0.0000  0.0000
  154FIC    C31 3113   0.828   0.067   3.445  0.0000  0.0000  0.0000
  155FIC     F1 3114   0.078   1.184   1.806  0.0000  0.0000  0.0000
  155FIC     F2 3115   0.023   1.436   1.744  0.0000  0.0000  0.0000
  155FIC     O1 3116   0.398   1.248   2.223  0.0000  0.0000  0.0000
  155FIC     N5 3117   0.172   1.850   1.950  0.0000  0.0000  0.0000
  155FIC     N6 3118   0.367   1.866   2.323  0.0000  0.0000  0.0000
  155FIC    C19 3119   0.460   1.527   2.321  0.0000  0.0000  0.0000
  155FIC    C20 3120   0.378   1.490   2.219  0.0000  0.0000  0.0000
  155FIC    C21 3121   0.353   1.350   2.177  0.0000  0.0000  0.0000
  155FIC    C22 3122   0.269   1.358   2.057  0.0000  0.0000  0.0000
  155FIC    C23 3123   0.216   1.252   1.984  0.0000  0.0000  0.0000
  155FIC    C24 3124   0.141   1.282   1.879  0.0000  0.0000  0.0000
  155FIC    C25 3125   0.108   1.415   1.847  0.0000  0.0000  0.0000
  155FIC    C26 3126   0.157   1.519   1.921  0.0000  0.0000  0.0000
  155FIC    C27 3127   0.238   1.490   2.025  0.0000  0.0000  0.0000
  155FIC    C28 3128   0.303   1.576   2.130  0.0000  0.0000  0.0000
  155FIC    C29 3129   0.289   1.714   2.134  0.0000  0.0000  0.0000
  155FIC    C30 3130   0.225   1.788   2.033  0.0000  0.0000  0.0000
  155FIC    C31 3131   0.334   1.796   2.243  0.0000  0.0000  0.0000
  156BTD     S2 3132  -0.164   1.294   0.798  0.0000  0.0000  0.0000
  156BTD     N1 3133  -0.174   1.133   0.809  0.0000  0.0000  0.0000
  156BTD     N2 3134  -0.085   1.325   0.936  0.0000  0.0000  0.0000
  156BTD     N3 3135   0.085   1.063   1.297  0.0000  0.0000  0.0000
  156BTD     N4 3136  -0.029   0.803   1.120  0.0000  0.0000  0.0000
  156BTD     C5 3137  -0.099   0.967   0.978  0.0000  0.0000  0.0000
  156BTD     C6 3138  -0.116   1.098   0.922  0.0000  0.0000  0.0000
  156BTD     C7 3139  -0.065   1.208   0.996  0.0000  0.0000  0.0000
  156BTD     C8 3140  -0.003   1.187   1.120  0.0000  0.0000  0.0000
  156BTD    C15 3141   0.016   1.054   1.173  0.0000  0.0000  0.0000
  156BTD    C16 3142  -0.032   0.943   1.097  0.0000  0.0000  0.0000
  156BTD    C43 3143   0.060   0.726   1.208  0.0000  0.0000  0.0000
  156BTD    C44 3144   0.212   0.736   1.178  0.0000  0.0000  0.0000
  156BTD    C45 3145   0.285   0.637   1.273  0.0000  0.0000  0.0000
  156BTD    C46 3146   0.435   0.679   1.271  0.0000  0.0000  0.0000
  156BTD    C47 3147   0.245   0.710   1.029  0.0000  0.0000  0.0000
  156BTD    C48 3148   0.260   0.569   0.965  0.0000  0.0000  0.0000
  156BTD    C49 3149   0.274   0.600   0.814  0.0000  0.0000  0.0000
  156BTD    C50 3150   0.370   0.646   0.701  0.0000  0.0000  0.0000
  156BTD    C75 3151   0.071   0.976   1.414  0.0000  0.0000  0.0000
  156BTD    C76 3152  -0.077   0.946   1.449  0.0000  0.0000  0.0000
  156BTD    C77 3153  -0.086   0.858   1.576  0.0000  0.0000  0.0000
  156BTD    C78 3154  -0.227   0.804   1.612  0.0000  0.0000  0.0000
  156BTD    C79 3155  -0.163   1.073   1.470  0.0000  0.0000  0.0000
  156BTD    C80 3156  -0.135   1.161   1.594  0.0000  0.0000  0.0000
  156BTD    C81 3157  -0.227   1.287   1.588  0.0000  0.0000  0.0000
  156BTD    C82 3158  -0.196   1.412   1.501  0.0000  0.0000  0.0000
  157TTP     S1 3159  -0.225   0.777   0.792  0.0000  0.0000  0.0000
  157TTP     S5 3160  -0.127   0.459   1.048  0.0000  0.0000  0.0000
  157TTP     C1 3161  -0.223   0.395   0.917  0.0000  0.0000  0.0000
  157TTP     C2 3162  -0.261   0.493   0.828  0.0000  0.0000  0.0000
  157TTP     C3 3163  -0.206   0.615   0.862  0.0000  0.0000  0.0000
  157TTP     C4 3164  -0.141   0.838   0.923  0.0000  0.0000  0.0000
  157TTP    C17 3165  -0.090   0.748   1.014  0.0000  0.0000  0.0000
  157TTP    C18 3166  -0.134   0.613   0.974  0.0000  0.0000  0.0000
  157TTP    C32 3167  -0.347   0.475   0.700  0.0000  0.0000  0.0000
  157TTP    C33 3168  -0.256   0.441   0.579  0.0000  0.0000  0.0000
  157TTP    C34 3169  -0.349   0.418   0.457  0.0000  0.0000  0.0000
  157TTP    C35 3170  -0.291   0.348   0.333  0.0000  0.0000  0.0000
  157TTP    C36 3171  -0.385   0.254   0.252  0.0000  0.0000  0.0000
  157TTP    C37 3172  -0.505   0.318   0.175  0.0000  0.0000  0.0000
  157TTP    C38 3173  -0.585   0.450   0.163  0.0000  0.0000  0.0000
  157TTP    C39 3174  -0.667   0.500   0.285  0.0000  0.0000  0.0000
  157TTP    C40 3175  -0.726   0.397   0.386  0.0000  0.0000  0.0000
  157TTP    C41 3176  -0.713   0.424   0.539  0.0000  0.0000  0.0000
  157TTP    C42 3177  -0.732   0.302   0.634  0.0000  0.0000  0.0000
  158TTP     S1 3178   0.079   1.446   1.235  0.0000  0.0000  0.0000
  158TTP     S5 3179   0.281   1.243   1.544  0.0000  0.0000  0.0000
  158TTP     C1 3180   0.312   1.416   1.565  0.0000  0.0000  0.0000
  158TTP     C2 3181   0.248   1.490   1.464  0.0000  0.0000  0.0000
  158TTP     C3 3182   0.171   1.410   1.380  0.0000  0.0000  0.0000
  158TTP     C4 3183   0.056   1.275   1.214  0.0000  0.0000  0.0000
  158TTP    C17 3184   0.110   1.200   1.318  0.0000  0.0000  0.0000
  158TTP    C18 3185   0.181   1.277   1.414  0.0000  0.0000  0.0000
  158TTP    C32 3186   0.240   1.645   1.458  0.0000  0.0000  0.0000
  158TTP    C33 3187   0.135   1.712   1.551  0.0000  0.0000  0.0000
  158TTP    C34 3188   0.128   1.866   1.536  0.0000  0.0000  0.0000
  158TTP    C35 3189   0.019   1.917   1.634  0.0000  0.0000  0.0000
  158TTP    C36 3190   0.035   2.071   1.639  0.0000  0.0000  0.0000
  158TTP    C37 3191   0.002   2.109   1.492  0.0000  0.0000  0.0000
  158TTP    C38 3192  -0.003   2.263   1.462  0.0000  0.0000  0.0000
  158TTP    C39 3193  -0.065   2.313   1.330  0.0000  0.0000  0.0000
  158TTP    C40 3194   0.026   2.381   1.223  0.0000  0.0000  0.0000
  158TTP    C41 3195   0.101   2.512   1.258  0.0000  0.0000  0.0000
  158TTP    C42 3196   0.123   2.620   1.149  0.0000  0.0000  0.0000
  159FIC     F1 3197  -0.194  -0.231   1.440  0.0000  0.0000  0.0000
  159FIC     F2 3198  -0.303  -0.385   1.249  0.0000  0.0000  0.0000
  159FIC     O1 3199  -0.139   0.228   1.180  0.0000  0.0000  0.0000
  159FIC     N5 3200  -0.455  -0.273   0.804  0.0000  0.0000  0.0000
  159FIC     N6 3201  -0.407   0.108   0.625  0.0000  0.0000  0.0000
  159FIC    C19 3202  -0.267   0.258   0.907  0.0000  0.0000  0.0000
  159FIC    C20 3203  -0.258   0.147   0.987  0.0000  0.0000  0.0000
  159FIC    C21 3204  -0.196   0.140   1.115  0.0000  0.0000  0.0000
  159FIC    C22 3205  -0.220   0.005   1.169  0.0000  0.0000  0.0000
  159FIC    C23 3206  -0.191  -0.044   1.299  0.0000  0.0000  0.0000
  159FIC    C24 3207  -0.219  -0.173   1.324  0.0000  0.0000  0.0000
  159FIC    C25 3208  -0.279  -0.252   1.214  0.0000  0.0000  0.0000
  159FIC    C26 3209  -0.315  -0.208   1.098  0.0000  0.0000  0.0000
  159FIC    C27 3210  -0.280  -0.073   1.070  0.0000  0.0000  0.0000
  159FIC    C28 3211  -0.304   0.014   0.954  0.0000  0.0000  0.0000
  159FIC    C29 3212  -0.364  -0.029   0.837  0.0000  0.0000  0.0000
  159FIC    C30 3213  -0.412  -0.173   0.825  0.0000  0.0000  0.0000
  159FIC    C31 3214  -0.382   0.048   0.718  0.0000  0.0000  0.0000
  160FIC     F1 3215   0.769   1.094   2.157  0.0000  0.0000  0.0000
  160FIC     F2 3216   0.816   1.336   2.238  0.0000  0.0000  0.0000
  160FIC     O1 3217   0.457   1.188   1.734  0.0000  0.0000  0.0000
  160FIC     N5 3218   0.639   1.757   2.088  0.0000  0.0000  0.0000
  160FIC     N6 3219   0.448   1.812   1.710  0.0000  0.0000  0.0000
  160FIC    C19 3220   0.389   1.474   1.667  0.0000  0.0000  0.0000
  160FIC    C20 3221   0.468   1.428   1.766  0.0000  0.0000  0.0000
  160FIC    C21 3222   0.500   1.282   1.798  0.0000  0.0000  0.0000
  160FIC    C22 3223   0.579   1.280   1.914  0.0000  0.0000  0.0000
  160FIC    C23 3224   0.635   1.169   1.980  0.0000  0.0000  0.0000
  160FIC    C24 3225   0.711   1.186   2.090  0.0000  0.0000  0.0000
  160FIC    C25 3226   0.740   1.315   2.132  0.0000  0.0000  0.0000
  160FIC    C26 3227   0.685   1.434   2.074  0.0000  0.0000  0.0000
  160FIC    C27 3228   0.602   1.413   1.961  0.0000  0.0000  0.0000
  160FIC    C28 3229   0.535   1.502   1.869  0.0000  0.0000  0.0000
  160FIC    C29 3230   0.540   1.642   1.881  0.0000  0.0000  0.0000
  160FIC    C30 3231   0.597   1.706   2.000  0.0000  0.0000  0.0000
  160FIC    C31 3232   0.484   1.736   1.788  0.0000  0.0000  0.0000
  161BTD     S2 3233   2.578   1.605   2.195  0.0000  0.0000  0.0000
  161BTD     N1 3234   2.565   1.769   2.190  0.0000  0.0000  0.0000
  161BTD     N2 3235   2.513   1.565   2.052  0.0000  0.0000  0.0000
  161BTD     N3 3236   2.312   1.812   1.703  0.0000  0.0000  0.0000
  161BTD     N4 3237   2.368   2.084   1.895  0.0000  0.0000  0.0000
  161BTD     C5 3238   2.469   1.925   2.034  0.0000  0.0000  0.0000
  161BTD     C6 3239   2.509   1.797   2.078  0.0000  0.0000  0.0000
  161BTD     C7 3240   2.480   1.682   1.998  0.0000  0.0000  0.0000
  161BTD     C8 3241   2.413   1.699   1.873  0.0000  0.0000  0.0000
  161BTD    C15 3242   2.377   1.827   1.823  0.0000  0.0000  0.0000
  161BTD    C16 3243   2.396   1.948   1.909  0.0000  0.0000  0.0000
  161BTD    C43 3244   2.265   2.149   1.818  0.0000  0.0000  0.0000
  161BTD    C44 3245   2.123   2.097   1.855  0.0000  0.0000  0.0000
  161BTD    C45 3246   2.085   2.072   2.004  0.0000  0.0000  0.0000
  161BTD    C46 3247   2.079   2.204   2.086  0.0000  0.0000  0.0000
  161BTD    C47 3248   2.007   2.177   1.789  0.0000  0.0000  0.0000
  161BTD    C48 3249   1.990   2.171   1.635  0.0000  0.0000  0.0000
  161BTD    C49 3250   1.901   2.277   1.563  0.0000  0.0000  0.0000
  161BTD    C50 3251   1.922   2.302   1.411  0.0000  0.0000  0.0000
  161BTD    C75 3252   2.300   1.910   1.584  0.0000  0.0000  0.0000
  161BTD    C76 3253   2.438   1.974   1.549  0.0000  0.0000  0.0000
  161BTD    C77 3254   2.437   2.060   1.420  0.0000  0.0000  0.0000
  161BTD    C78 3255   2.292   2.028   1.375  0.0000  0.0000  0.0000
  161BTD    C79 3256   2.559   1.880   1.531  0.0000  0.0000  0.0000
  161BTD    C80 3257   2.538   1.748   1.452  0.0000  0.0000  0.0000
  161BTD    C81 3258   2.634   1.629   1.476  0.0000  0.0000  0.0000
  161BTD    C82 3259   2.766   1.624   1.393  0.0000  0.0000  0.0000
  162TTP     S1 3260   2.544   2.124   2.233  0.0000  0.0000  0.0000
  162TTP     S5 3261   2.361   2.431   2.014  0.0000  0.0000  0.0000
  162TTP     C1 3262   2.420   2.501   2.160  0.0000  0.0000  0.0000
  162TTP     C2 3263   2.481   2.410   2.238  0.0000  0.0000  0.0000
  162TTP     C3 3264   2.483   2.279   2.186  0.0000  0.0000  0.0000
  162TTP     C4 3265   2.478   2.053   2.091  0.0000  0.0000  0.0000
  162TTP    C17 3266   2.418   2.145   2.006  0.0000  0.0000  0.0000
  162TTP    C18 3267   2.417   2.278   2.058  0.0000  0.0000  0.0000
  162TTP    C32 3268   2.539   2.434   2.379  0.0000  0.0000  0.0000
  162TTP    C33 3269   2.691   2.419   2.402  0.0000  0.0000  0.0000
  162TTP    C34 3270   2.749   2.454   2.541  0.0000  0.0000  0.0000
  162TTP    C35 3271   2.902   2.448   2.512  0.0000  0.0000  0.0000
  162TTP    C36 3272   2.948   2.595   2.488  0.0000  0.0000  0.0000
  162TTP    C37 3273   2.880   2.708   2.570  0.0000  0.0000  0.0000
  162TTP    C38 3274   2.964   2.828   2.622  0.0000  0.0000  0.0000
  162TTP    C39 3275   2.854   2.873   2.720  0.0000  0.0000  0.0000
  162TTP    C40 3276   2.899   2.914   2.864  0.0000  0.0000  0.0000
  162TTP    C41 3277   2.818   3.022   2.941  0.0000  0.0000  0.0000
  162TTP    C42 3278   2.880   3.088   3.067  0.0000  0.0000  0.0000
  163TTP     S1 3279   2.380   1.434   1.749  0.0000  0.0000  0.0000
  163TTP     S5 3280   2.158   1.609   1.438  0.0000  0.0000  0.0000
  163TTP     C1 3281   2.152   1.434   1.421  0.0000  0.0000  0.0000
  163TTP     C2 3282   2.223   1.369   1.517  0.0000  0.0000  0.0000
  163TTP     C3 3283   2.284   1.457   1.606  0.0000  0.0000  0.0000
  163TTP     C4 3284   2.378   1.604   1.775  0.0000  0.0000  0.0000
  163TTP    C17 3285   2.315   1.676   1.672  0.0000  0.0000  0.0000
  163TTP    C18 3286   2.256   1.591   1.577  0.0000  0.0000  0.0000
  163TTP    C32 3287   2.241   1.215   1.526  0.0000  0.0000  0.0000
  163TTP    C33 3288   2.359   1.162   1.438  0.0000  0.0000  0.0000
  163TTP    C34 3289   2.377   1.009   1.443  0.0000  0.0000  0.0000
  163TTP    C35 3290   2.405   0.966   1.590  0.0000  0.0000  0.0000
  163TTP    C36 3291   2.419   0.815   1.622  0.0000  0.0000  0.0000
  163TTP    C37 3292   2.296   0.721   1.608  0.0000  0.0000  0.0000
  163TTP    C38 3293   2.382   0.594   1.636  0.0000  0.0000  0.0000
  163TTP    C39 3294   2.288   0.494   1.565  0.0000  0.0000  0.0000
  163TTP    C40 3295   2.282   0.496   1.409  0.0000  0.0000  0.0000
  163TTP    C41 3296   2.175   0.583   1.338  0.0000  0.0000  0.0000
  163TTP    C42 3297   2.210   0.727   1.288  0.0000  0.0000  0.0000
  164FIC     F1 3298   2.088   3.150   1.788  0.0000  0.0000  0.0000
  164FIC     F2 3299   2.129   3.286   2.017  0.0000  0.0000  0.0000
  164FIC     O1 3300   2.298   2.674   1.925  0.0000  0.0000  0.0000
  164FIC     N5 3301   2.337   3.157   2.426  0.0000  0.0000  0.0000
  164FIC     N6 3302   2.508   2.760   2.515  0.0000  0.0000  0.0000
  164FIC    C19 3303   2.403   2.636   2.202  0.0000  0.0000  0.0000
  164FIC    C20 3304   2.351   2.750   2.150  0.0000  0.0000  0.0000
  164FIC    C21 3305   2.296   2.761   2.016  0.0000  0.0000  0.0000
  164FIC    C22 3306   2.250   2.900   2.001  0.0000  0.0000  0.0000
  164FIC    C23 3307   2.189   2.954   1.884  0.0000  0.0000  0.0000
  164FIC    C24 3308   2.147   3.087   1.905  0.0000  0.0000  0.0000
  164FIC    C25 3309   2.167   3.155   2.017  0.0000  0.0000  0.0000
  164FIC    C26 3310   2.224   3.101   2.122  0.0000  0.0000  0.0000
  164FIC    C27 3311   2.267   2.973   2.109  0.0000  0.0000  0.0000
  164FIC    C28 3312   2.335   2.881   2.210  0.0000  0.0000  0.0000
  164FIC    C29 3313   2.377   2.909   2.351  0.0000  0.0000  0.0000
  164FIC    C30 3314   2.357   3.053   2.390  0.0000  0.0000  0.0000
  164FIC    C31 3315   2.444   2.823   2.446  0.0000  0.0000  0.0000
  165FIC     F1 3316   1.693   1.706   0.808  0.0000  0.0000  0.0000
  165FIC     F2 3317   1.639   1.455   0.745  0.0000  0.0000  0.0000
  165FIC     O1 3318   2.014   1.643   1.224  0.0000  0.0000  0.0000
  165FIC     N5 3319   1.788   1.041   0.951  0.0000  0.0000  0.0000
  165FIC     N6 3320   1.982   1.024   1.325  0.0000  0.0000  0.0000
  165FIC    C19 3321   2.075   1.363   1.323  0.0000  0.0000  0.0000
  165FIC    C20 3322   1.994   1.400   1.221  0.0000  0.0000  0.0000
  165FIC    C21 3323   1.969   1.541   1.178  0.0000  0.0000  0.0000
  165FIC    C22 3324   1.884   1.532   1.058  0.0000  0.0000  0.0000
  165FIC    C23 3325   1.832   1.639   0.985  0.0000  0.0000  0.0000
  165FIC    C24 3326   1.756   1.608   0.881  0.0000  0.0000  0.0000
  165FIC    C25 3327   1.724   1.475   0.848  0.0000  0.0000  0.0000
  165FIC    C26 3328   1.772   1.372   0.922  0.0000  0.0000  0.0000
  165FIC    C27 3329   1.854   1.401   1.027  0.0000  0.0000  0.0000
  165FIC    C28 3330   1.918   1.315   1.131  0.0000  0.0000  0.0000
  165FIC    C29 3331   1.905   1.177   1.136  0.0000  0.0000  0.0000
  165FIC    C30 3332   1.840   1.103   1.034  0.0000  0.0000  0.0000
  165FIC    C31 3333   1.949   1.094   1.245  0.0000  0.0000  0.0000
  166BTD     S2 3334   1.452   1.597  -0.200  0.0000  0.0000  0.0000
  166BTD     N1 3335   1.441   1.758  -0.189  0.0000  0.0000  0.0000
  166BTD     N2 3336   1.531   1.565  -0.063  0.0000  0.0000  0.0000
  166BTD     N3 3337   1.700   1.827   0.299  0.0000  0.0000  0.0000
  166BTD     N4 3338   1.587   2.087   0.121  0.0000  0.0000  0.0000
  166BTD     C5 3339   1.517   1.923  -0.020  0.0000  0.0000  0.0000
  166BTD     C6 3340   1.500   1.793  -0.076  0.0000  0.0000  0.0000
  166BTD     C7 3341   1.551   1.682  -0.003  0.0000  0.0000  0.0000
  166BTD     C8 3342   1.612   1.703   0.122  0.0000  0.0000  0.0000
  166BTD    C15 3343   1.631   1.836   0.175  0.0000  0.0000  0.0000
  166BTD    C16 3344   1.583   1.948   0.098  0.0000  0.0000  0.0000
  166BTD    C43 3345   1.675   2.164   0.210  0.0000  0.0000  0.0000
  166BTD    C44 3346   1.828   2.154   0.180  0.0000  0.0000  0.0000
  166BTD    C45 3347   1.900   2.253   0.274  0.0000  0.0000  0.0000
  166BTD    C46 3348   2.050   2.211   0.273  0.0000  0.0000  0.0000
  166BTD    C47 3349   1.861   2.181   0.030  0.0000  0.0000  0.0000
  166BTD    C48 3350   1.875   2.322  -0.033  0.0000  0.0000  0.0000
  166BTD    C49 3351   1.889   2.290  -0.184  0.0000  0.0000  0.0000
  166BTD    C50 3352   1.986   2.244  -0.298  0.0000  0.0000  0.0000
  166BTD    C75 3353   1.687   1.915   0.415  0.0000  0.0000  0.0000
  166BTD    C76 3354   1.538   1.945   0.451  0.0000  0.0000  0.0000
  166BTD    C77 3355   1.529   2.033   0.578  0.0000  0.0000  0.0000
  166BTD    C78 3356   1.388   2.086   0.613  0.0000  0.0000  0.0000
  166BTD    C79 3357   1.453   1.818   0.471  0.0000  0.0000  0.0000
  166BTD    C80 3358   1.480   1.729   0.595  0.0000  0.0000  0.0000
  166BTD    C81 3359   1.388   1.604   0.590  0.0000  0.0000  0.0000
  166BTD    C82 3360   1.419   1.478   0.503  0.0000  0.0000  0.0000
  167TTP     S1 3361   1.390   2.113  -0.207  0.0000  0.0000  0.0000
  167TTP     S5 3362   1.489   2.432   0.050  0.0000  0.0000  0.0000
  167TTP     C1 3363   1.392   2.495  -0.082  0.0000  0.0000  0.0000
  167TTP     C2 3364   1.354   2.398  -0.170  0.0000  0.0000  0.0000
  167TTP     C3 3365   1.410   2.275  -0.137  0.0000  0.0000  0.0000
  167TTP     C4 3366   1.475   2.052  -0.076  0.0000  0.0000  0.0000
  167TTP    C17 3367   1.526   2.143   0.015  0.0000  0.0000  0.0000
  167TTP    C18 3368   1.482   2.277  -0.025  0.0000  0.0000  0.0000
  167TTP    C32 3369   1.269   2.415  -0.298  0.0000  0.0000  0.0000
  167TTP    C33 3370   1.359   2.449  -0.420  0.0000  0.0000  0.0000
  167TTP    C34 3371   1.266   2.472  -0.541  0.0000  0.0000  0.0000
  167TTP    C35 3372   1.325   2.543  -0.666  0.0000  0.0000  0.0000
  167TTP    C36 3373   1.230   2.637  -0.747  0.0000  0.0000  0.0000
  167TTP    C37 3374   1.111   2.573  -0.824  0.0000  0.0000  0.0000
  167TTP    C38 3375   1.030   2.441  -0.836  0.0000  0.0000  0.0000
  167TTP    C39 3376   0.948   2.391  -0.713  0.0000  0.0000  0.0000
  167TTP    C40 3377   0.889   2.493  -0.613  0.0000  0.0000  0.0000
  167TTP    C41 3378   0.902   2.467  -0.460  0.0000  0.0000  0.0000
  167TTP    C42 3379   0.884   2.588  -0.365  0.0000  0.0000  0.0000
  168TTP     S1 3380   1.695   1.444   0.237  0.0000  0.0000  0.0000
  168TTP     S5 3381   1.897   1.647   0.545  0.0000  0.0000  0.0000
  168TTP     C1 3382   1.928   1.474   0.567  0.0000  0.0000  0.0000
  168TTP     C2 3383   1.863   1.400   0.466  0.0000  0.0000  0.0000
  168TTP     C3 3384   1.786   1.480   0.382  0.0000  0.0000  0.0000
  168TTP     C4 3385   1.672   1.616   0.216  0.0000  0.0000  0.0000
  168TTP    C17 3386   1.726   1.691   0.320  0.0000  0.0000  0.0000
  168TTP    C18 3387   1.796   1.614   0.415  0.0000  0.0000  0.0000
  168TTP    C32 3388   1.856   1.246   0.459  0.0000  0.0000  0.0000
  168TTP    C33 3389   1.751   1.179   0.553  0.0000  0.0000  0.0000
  168TTP    C34 3390   1.744   1.024   0.537  0.0000  0.0000  0.0000
  168TTP    C35 3391   1.635   0.974   0.635  0.0000  0.0000  0.0000
  168TTP    C36 3392   1.651   0.820   0.641  0.0000  0.0000  0.0000
  168TTP    C37 3393   1.618   0.782   0.493  0.0000  0.0000  0.0000
  168TTP    C38 3394   1.612   0.628   0.464  0.0000  0.0000  0.0000
  168TTP    C39 3395   1.550   0.577   0.332  0.0000  0.0000  0.0000
  168TTP    C40 3396   1.641   0.509   0.225  0.0000  0.0000  0.0000
  168TTP    C41 3397   1.716   0.378   0.259  0.0000  0.0000  0.0000
  168TTP    C42 3398   1.738   0.271   0.150  0.0000  0.0000  0.0000
  169FIC     F1 3399   1.422   3.122   0.442  0.0000  0.0000  0.0000
  169FIC     F2 3400   1.313   3.276   0.250  0.0000  0.0000  0.0000
  169FIC     O1 3401   1.476   2.663   0.181  0.0000  0.0000  0.0000
  169FIC     N5 3402   1.160   3.163  -0.195  0.0000  0.0000  0.0000
  169FIC     N6 3403   1.208   2.782  -0.374  0.0000  0.0000  0.0000
  169FIC    C19 3404   1.348   2.632  -0.092  0.0000  0.0000  0.0000
  169FIC    C20 3405   1.357   2.743  -0.011  0.0000  0.0000  0.0000
  169FIC    C21 3406   1.420   2.751   0.116  0.0000  0.0000  0.0000
  169FIC    C22 3407   1.395   2.885   0.170  0.0000  0.0000  0.0000
  169FIC    C23 3408   1.425   2.935   0.301  0.0000  0.0000  0.0000
  169FIC    C24 3409   1.396   3.064   0.325  0.0000  0.0000  0.0000
  169FIC    C25 3410   1.336   3.143   0.216  0.0000  0.0000  0.0000
  169FIC    C26 3411   1.300   3.098   0.099  0.0000  0.0000  0.0000
  169FIC    C27 3412   1.335   2.963   0.071  0.0000  0.0000  0.0000
  169FIC    C28 3413   1.311   2.877  -0.045  0.0000  0.0000  0.0000
  169FIC    C29 3414   1.251   2.920  -0.161  0.0000  0.0000  0.0000
  169FIC    C30 3415   1.203   3.063  -0.174  0.0000  0.0000  0.0000
  169FIC    C31 3416   1.234   2.842  -0.280  0.0000  0.0000  0.0000
  170FIC     F1 3417   2.384   1.797   1.158  0.0000  0.0000  0.0000
  170FIC     F2 3418   2.431   1.554   1.239  0.0000  0.0000  0.0000
  170FIC     O1 3419   2.072   1.703   0.736  0.0000  0.0000  0.0000
  170FIC     N5 3420   2.254   1.134   1.089  0.0000  0.0000  0.0000
  170FIC     N6 3421   2.064   1.079   0.711  0.0000  0.0000  0.0000
  170FIC    C19 3422   2.004   1.416   0.668  0.0000  0.0000  0.0000
  170FIC    C20 3423   2.084   1.462   0.767  0.0000  0.0000  0.0000
  170FIC    C21 3424   2.115   1.609   0.800  0.0000  0.0000  0.0000
  170FIC    C22 3425   2.194   1.611   0.915  0.0000  0.0000  0.0000
  170FIC    C23 3426   2.251   1.721   0.982  0.0000  0.0000  0.0000
  170FIC    C24 3427   2.327   1.704   1.091  0.0000  0.0000  0.0000
  170FIC    C25 3428   2.356   1.575   1.134  0.0000  0.0000  0.0000
  170FIC    C26 3429   2.300   1.456   1.075  0.0000  0.0000  0.0000
  170FIC    C27 3430   2.217   1.478   0.963  0.0000  0.0000  0.0000
  170FIC    C28 3431   2.151   1.388   0.870  0.0000  0.0000  0.0000
  170FIC    C29 3432   2.155   1.249   0.882  0.0000  0.0000  0.0000
  170FIC    C30 3433   2.212   1.184   1.001  0.0000  0.0000  0.0000
  170FIC    C31 3434   2.099   1.155   0.789  0.0000  0.0000  0.0000
  171BTD     S2 3435   0.446  -1.605  -2.195  0.0000  0.0000  0.0000
  171BTD     N1 3436   0.459  -1.769  -2.190  0.0000  0.0000  0.0000
  171BTD     N2 3437   0.511  -1.565  -2.052  0.0000  0.0000  0.0000
  171BTD     N3 3438   0.712  -1.812  -1.703  0.0000  0.0000  0.0000
  171BTD     N4 3439   0.656  -2.084  -1.895  0.0000  0.0000  0.0000
  171BTD     C5 3440   0.555  -1.925  -2.034  0.0000  0.0000  0.0000
  171BTD     C6 3441   0.515  -1.797  -2.078  0.0000  0.0000  0.0000
  171BTD     C7 3442   0.544  -1.682  -1.998  0.0000  0.0000  0.0000
  171BTD     C8 3443   0.611  -1.699  -1.873  0.0000  0.0000  0.0000
  171BTD    C15 3444   0.647  -1.827  -1.823  0.0000  0.0000  0.0000
  171BTD    C16 3445   0.628  -1.948  -1.909  0.0000  0.0000  0.0000
  171BTD    C43 3446   0.759  -2.149  -1.818  0.0000  0.0000  0.0000
  171BTD    C44 3447   0.901  -2.097  -1.855  0.0000  0.0000  0.0000
  171BTD    C45 3448   0.939  -2.072  -2.004  0.0000  0.0000  0.0000
  171BTD    C46 3449   0.945  -2.204  -2.086  0.0000  0.0000  0.0000
  171BTD    C47 3450   1.017  -2.177  -1.789  0.0000  0.0000  0.0000
  171BTD    C48 3451   1.034  -2.171  -1.635  0.0000  0.0000  0.0000
  171BTD    C49 3452   1.123  -2.277  -1.563  0.0000  0.0000  0.0000
  171BTD    C50 3453   1.102  -2.302  -1.411  0.0000  0.0000  0.0000
  171BTD    C75 3454   0.724  -1.910  -1.584  0.0000  0.0000  0.0000
  171BTD    C76 3455   0.586  -1.974  -1.549  0.0000  0.0000  0.0000
  171BTD    C77 3456   0.587  -2.060  -1.420  0.0000  0.0000  0.0000
  171BTD    C78 3457   0.732  -2.028  -1.375  0.0000  0.0000  0.0000
  171BTD    C79 3458   0.465  -1.880  -1.531  0.0000  0.0000  0.0000
  171BTD    C80 3459   0.486  -1.748  -1.452  0.0000  0.0000  0.0000
  171BTD    C81 3460   0.390  -1.629  -1.476  0.0000  0.0000  0.0000
  171BTD    C82 3461   0.258  -1.624  -1.393  0.0000  0.0000  0.0000
  172TTP     S1 3462   0.480  -2.124  -2.233  0.0000  0.0000  0.0000
  172TTP     S5 3463   0.663  -2.431  -2.014  0.0000  0.0000  0.0000
  172TTP     C1 3464   0.604  -2.501  -2.160  0.0000  0.0000  0.0000
  172TTP     C2 3465   0.543  -2.410  -2.238  0.0000  0.0000  0.0000
  172TTP     C3 3466   0.541  -2.279  -2.186  0.0000  0.0000  0.0000
  172TTP     C4 3467   0.546  -2.053  -2.091  0.0000  0.0000  0.0000
  172TTP    C17 3468   0.606  -2.145  -2.006  0.0000  0.0000  0.0000
  172TTP    C18 3469   0.607  -2.278  -2.058  0.0000  0.0000  0.0000
  172TTP    C32 3470   0.485  -2.434  -2.379  0.0000  0.0000  0.0000
  172TTP    C33 3471   0.333  -2.419  -2.402  0.0000  0.0000  0.0000
  172TTP    C34 3472   0.275  -2.454  -2.541  0.0000  0.0000  0.0000
  172TTP    C35 3473   0.122  -2.448  -2.512  0.0000  0.0000  0.0000
  172TTP    C36 3474   0.076  -2.595  -2.488  0.0000  0.0000  0.0000
  172TTP    C37 3475   0.144  -2.708  -2.570  0.0000  0.0000  0.0000
  172TTP    C38 3476   0.060  -2.828  -2.622  0.0000  0.0000  0.0000
  172TTP    C39 3477   0.170  -2.873  -2.720  0.0000  0.0000  0.0000
  172TTP    C40 3478   0.125  -2.914  -2.864  0.0000  0.0000  0.0000
  172TTP    C41 3479   0.206  -3.022  -2.941  0.0000  0.0000  0.0000
  172TTP    C42 3480   0.144  -3.088  -3.067  0.0000  0.0000  0.0000
  173TTP     S1 3481   0.644  -1.434  -1.749  0.0000  0.0000  0.0000
  173TTP     S5 3482   0.866  -1.609  -1.438  0.0000  0.0000  0.0000
  173TTP     C1 3483   0.872  -1.434  -1.421  0.0000  0.0000  0.0000
  173TTP     C2 3484   0.801  -1.369  -1.517  0.0000  0.0000  0.0000
  173TTP     C3 3485   0.740  -1.457  -1.606  0.0000  0.0000  0.0000
  173TTP     C4 3486   0.646  -1.604  -1.775  0.0000  0.0000  0.0000
  173TTP    C17 3487   0.709  -1.676  -1.672  0.0000  0.0000  0.0000
  173TTP    C18 3488   0.768  -1.591  -1.577  0.0000  0.0000  0.0000
  173TTP    C32 3489   0.783  -1.215  -1.526  0.0000  0.0000  0.0000
  173TTP    C33 3490   0.665  -1.162  -1.438  0.0000  0.0000  0.0000
  173TTP    C34 3491   0.647  -1.009  -1.443  0.0000  0.0000  0.0000
  173TTP    C35 3492   0.619  -0.966  -1.590  0.0000  0.0000  0.0000
  173TTP    C36 3493   0.605  -0.815  -1.622  0.0000  0.0000  0.0000
  173TTP    C37 3494   0.728  -0.721  -1.608  0.0000  0.0000  0.0000
  173TTP    C38 3495   0.642  -0.594  -1.636  0.0000  0.0000  0.0000
  173TTP    C39 3496   0.736  -0.494  -1.565  0.0000  0.0000  0.0000
  173TTP    C40 3497   0.742  -0.496  -1.409  0.0000  0.0000  0.0000
  173TTP    C41 3498   0.849  -0.583  -1.338  0.0000  0.0000  0.0000
  173TTP    C42 3499   0.814  -0.727  -1.288  0.0000  0.0000  0.0000
  174FIC     F1 3500   0.936  -3.150  -1.788  0.0000  0.0000  0.0000
  174FIC     F2 3501   0.895  -3.286  -2.017  0.0000  0.0000  0.0000
  174FIC     O1 3502   0.726  -2.674  -1.925  0.0000  0.0000  0.0000
  174FIC     N5 3503   0.687  -3.157  -2.426  0.0000  0.0000  0.0000
  174FIC     N6 3504   0.516  -2.760  -2.515  0.0000  0.0000  0.0000
  174FIC    C19 3505   0.621  -2.636  -2.202  0.0000  0.0000  0.0000
  174FIC    C20 3506   0.673  -2.750  -2.150  0.0000  0.0000  0.0000
  174FIC    C21 3507   0.728  -2.761  -2.016  0.0000  0.0000  0.0000
  174FIC    C22 3508   0.774  -2.900  -2.001  0.0000  0.0000  0.0000
  174FIC    C23 3509   0.835  -2.954  -1.884  0.0000  0.0000  0.0000
  174FIC    C24 3510   0.877  -3.087  -1.905  0.0000  0.0000  0.0000
  174FIC    C25 3511   0.857  -3.155  -2.017  0.0000  0.0000  0.0000
  174FIC    C26 3512   0.800  -3.101  -2.122  0.0000  0.0000  0.0000
  174FIC    C27 3513   0.757  -2.973  -2.109  0.0000  0.0000  0.0000
  174FIC    C28 3514   0.689  -2.881  -2.210  0.0000  0.0000  0.0000
  174FIC    C29 3515   0.647  -2.909  -2.351  0.0000  0.0000  0.0000
  174FIC    C30 3516   0.668  -3.053  -2.390  0.0000  0.0000  0.0000
  174FIC    C31 3517   0.580  -2.823  -2.446  0.0000  0.0000  0.0000
  175FIC     F1 3518   1.331  -1.706  -0.808  0.0000  0.0000  0.0000
  175FIC     F2 3519   1.385  -1.455  -0.745  0.0000  0.0000  0.0000
  175FIC     O1 3520   1.010  -1.643  -1.224  0.0000  0.0000  0.0000
  175FIC     N5 3521   1.236  -1.041  -0.951  0.0000  0.0000  0.0000
  175FIC     N6 3522   1.042  -1.024  -1.325  0.0000  0.0000  0.0000
  175FIC    C19 3523   0.949  -1.363  -1.323  0.0000  0.0000  0.0000
  175FIC    C20 3524   1.030  -1.400  -1.221  0.0000  0.0000  0.0000
  175FIC    C21 3525   1.055  -1.541  -1.178  0.0000  0.0000  0.0000
  175FIC    C22 3526   1.140  -1.532  -1.058  0.0000  0.0000  0.0000
  175FIC    C23 3527   1.192  -1.639  -0.985  0.0000  0.0000  0.0000
  175FIC    C24 3528   1.268  -1.608  -0.881  0.0000  0.0000  0.0000
  175FIC    C25 3529   1.300  -1.475  -0.848  0.0000  0.0000  0.0000
  175FIC    C26 3530   1.252  -1.372  -0.922  0.0000  0.0000  0.0000
  175FIC    C27 3531   1.170  -1.401  -1.027  0.0000  0.0000  0.0000
  175FIC    C28 3532   1.106  -1.315  -1.131  0.0000  0.0000  0.0000
  175FIC    C29 3533   1.119  -1.177  -1.136  0.0000  0.0000  0.0000
  175FIC    C30 3534   1.184  -1.103  -1.034  0.0000  0.0000  0.0000
  175FIC    C31 3535   1.075  -1.094  -1.245  0.0000  0.0000  0.0000
  176BTD     S2 3536   1.572  -1.597   0.200  0.0000  0.0000  0.0000
  176BTD     N1 3537   1.583  -1.758   0.189  0.0000  0.0000  0.0000
  176BTD     N2 3538   1.493  -1.565   0.063  0.0000  0.0000  0.0000
  176BTD     N3 3539   1.324  -1.827  -0.299  0.0000  0.0000  0.0000
  176BTD     N4 3540   1.437  -2.087  -0.121  0.0000  0.0000  0.0000
  176BTD     C5 3541   1.507  -1.923   0.020  0.0000  0.0000  0.0000
  176BTD     C6 3542   1.524  -1.793   0.076  0.0000  0.0000  0.0000
  176BTD     C7 3543   1.473  -1.682   0.003  0.0000  0.0000  0.0000
  176BTD     C8 3544   1.412  -1.703  -0.122  0.0000  0.0000  0.0000
  176BTD    C15 3545   1.393  -1.836  -0.175  0.0000  0.0000  0.0000
  176BTD    C16 3546   1.441  -1.948  -0.098  0.0000  0.0000  0.0000
  176BTD    C43 3547   1.349  -2.164  -0.210  0.0000  0.0000  0.0000
  176BTD    C44 3548   1.196  -2.154  -0.180  0.0000  0.0000  0.0000
  176BTD    C45 3549   1.124  -2.253  -0.274  0.0000  0.0000  0.0000
  176BTD    C46 3550   0.974  -2.211  -0.273  0.0000  0.0000  0.0000
  176BTD    C47 3551   1.163  -2.181  -0.030  0.0000  0.0000  0.0000
  176BTD    C48 3552   1.149  -2.322   0.033  0.0000  0.0000  0.0000
  176BTD    C49 3553   1.135  -2.290   0.184  0.0000  0.0000  0.0000
  176BTD    C50 3554   1.038  -2.244   0.298  0.0000  0.0000  0.0000
  176BTD    C75 3555   1.337  -1.915  -0.415  0.0000  0.0000  0.0000
  176BTD    C76 3556   1.486  -1.945  -0.451  0.0000  0.0000  0.0000
  176BTD    C77 3557   1.495  -2.033  -0.578  0.0000  0.0000  0.0000
  176BTD    C78 3558   1.636  -2.086  -0.613  0.0000  0.0000  0.0000
  176BTD    C79 3559   1.571  -1.818  -0.471  0.0000  0.0000  0.0000
  176BTD    C80 3560   1.544  -1.729  -0.595  0.0000  0.0000  0.0000
  176BTD    C81 3561   1.636  -1.604  -0.590  0.0000  0.0000  0.0000
  176BTD    C82 3562   1.605  -1.478  -0.503  0.0000  0.0000  0.0000
  177TTP     S1 3563   1.634  -2.113   0.207  0.0000  0.0000  0.0000
  177TTP     S5 3564   1.535  -2.432  -0.050  0.0000  0.0000  0.0000
  177TTP     C1 3565   1.632  -2.495   0.082  0.0000  0.0000  0.0000
  177TTP     C2 3566   1.670  -2.398   0.170  0.0000  0.0000  0.0000
  177TTP     C3 3567   1.614  -2.275   0.137  0.0000  0.0000  0.0000
  177TTP     C4 3568   1.549  -2.052   0.076  0.0000  0.0000  0.0000
  177TTP    C17 3569   1.498  -2.143  -0.015  0.0000  0.0000  0.0000
  177TTP    C18 3570   1.542  -2.277   0.025  0.0000  0.0000  0.0000
  177TTP    C32 3571   1.755  -2.415   0.298  0.0000  0.0000  0.0000
  177TTP    C33 3572   1.665  -2.449   0.420  0.0000  0.0000  0.0000
  177TTP    C34 3573   1.758  -2.472   0.541  0.0000  0.0000  0.0000
  177TTP    C35 3574   1.699  -2.543   0.666  0.0000  0.0000  0.0000
  177TTP    C36 3575   1.794  -2.637   0.747  0.0000  0.0000  0.0000
  177TTP    C37 3576   1.913  -2.573   0.824  0.0000  0.0000  0.0000
  177TTP    C38 3577   1.994  -2.441   0.836  0.0000  0.0000  0.0000
  177TTP    C39 3578   2.076  -2.391   0.713  0.0000  0.0000  0.0000
  177TTP    C40 3579   2.135  -2.493   0.613  0.0000  0.0000  0.0000
  177TTP    C41 3580   2.122  -2.467   0.460  0.0000  0.0000  0.0000
  177TTP    C42 3581   2.140  -2.588   0.365  0.0000  0.0000  0.0000
  178TTP     S1 3582   1.329  -1.444  -0.237  0.0000  0.0000  0.0000
  178TTP     S5 3583   1.127  -1.647  -0.545  0.0000  0.0000  0.0000
  178TTP     C1 3584   1.096  -1.474  -0.567  0.0000  0.0000  0.0000
  178TTP     C2 3585   1.161  -1.400  -0.466  0.0000  0.0000  0.0000
  178TTP     C3 3586   1.238  -1.480  -0.382  0.0000  0.0000  0.0000
  178TTP     C4 3587   1.352  -1.616  -0.216  0.0000  0.0000  0.0000
  178TTP    C17 3588   1.298  -1.691  -0.320  0.0000  0.0000  0.0000
  178TTP    C18 3589   1.228  -1.614  -0.415  0.0000  0.0000  0.0000
  178TTP    C32 3590   1.168  -1.246  -0.459  0.0000  0.0000  0.0000
  178TTP    C33 3591   1.274  -1.179  -0.553  0.0000  0.0000  0.0000
  178TTP    C34 3592   1.280  -1.024  -0.537  0.0000  0.0000  0.0000
  178TTP    C35 3593   1.389  -0.974  -0.635  0.0000  0.0000  0.0000
  178TTP    C36 3594   1.373  -0.820  -0.641  0.0000  0.0000  0.0000
  178TTP    C37 3595   1.406  -0.782  -0.493  0.0000  0.0000  0.0000
  178TTP    C38 3596   1.412  -0.628  -0.464  0.0000  0.0000  0.0000
  178TTP    C39 3597   1.474  -0.577  -0.332  0.0000  0.0000  0.0000
  178TTP    C40 3598   1.383  -0.509  -0.225  0.0000  0.0000  0.0000
  178TTP    C41 3599   1.308  -0.378  -0.259  0.0000  0.0000  0.0000
  178TTP    C42 3600   1.286  -0.271  -0.150  0.0000  0.0000  0.0000
  179FIC     F1 3601   1.602  -3.122  -0.442  0.0000  0.0000  0.0000
  179FIC     F2 3602   1.711  -3.276  -0.250  0.0000  0.0000  0.0000
  179FIC     O1 3603   1.548  -2.663  -0.181  0.0000  0.0000  0.0000
  179FIC     N5 3604   1.864  -3.163   0.195  0.0000  0.0000  0.0000
  179FIC     N6 3605   1.816  -2.782   0.374  0.0000  0.0000  0.0000
  179FIC    C19 3606   1.676  -2.632   0.092  0.0000  0.0000  0.0000
  179FIC    C20 3607   1.667  -2.743   0.011  0.0000  0.0000  0.0000
  179FIC    C21 3608   1.604  -2.751  -0.116  0.0000  0.0000  0.0000
  179FIC    C22 3609   1.629  -2.885  -0.170  0.0000  0.0000  0.0000
  179FIC    C23 3610   1.599  -2.935  -0.301  0.0000  0.0000  0.0000
  179FIC    C24 3611   1.628  -3.064  -0.325  0.0000  0.0000  0.0000
  179FIC    C25 3612   1.688  -3.143  -0.216  0.0000  0.0000  0.0000
  179FIC    C26 3613   1.724  -3.098  -0.099  0.0000  0.0000  0.0000
  179FIC    C27 3614   1.689  -2.963  -0.071  0.0000  0.0000  0.0000
  179FIC    C28 3615   1.713  -2.877   0.045  0.0000  0.0000  0.0000
  179FIC    C29 3616   1.773  -2.920   0.161  0.0000  0.0000  0.0000
  179FIC    C30 3617   1.821  -3.063   0.174  0.0000  0.0000  0.0000
  179FIC    C31 3618   1.790  -2.842   0.280  0.0000  0.0000  0.0000
  180FIC     F1 3619   0.640  -1.797  -1.158  0.0000  0.0000  0.0000
  180FIC     F2 3620   0.593  -1.554  -1.239  0.0000  0.0000  0.0000
  180FIC     O1 3621   0.952  -1.703  -0.736  0.0000  0.0000  0.0000
  180FIC     N5 3622   0.770  -1.134  -1.089  0.0000  0.0000  0.0000
  180FIC     N6 3623   0.960  -1.079  -0.711  0.0000  0.0000  0.0000
  180FIC    C19 3624   1.020  -1.416  -0.668  0.0000  0.0000  0.0000
  180FIC    C20 3625   0.940  -1.462  -0.767  0.0000  0.0000  0.0000
  180FIC    C21 3626   0.909  -1.609  -0.800  0.0000  0.0000  0.0000
  180FIC    C22 3627   0.830  -1.611  -0.915  0.0000  0.0000  0.0000
  180FIC    C23 3628   0.773  -1.721  -0.982  0.0000  0.0000  0.0000
  180FIC    C24 3629   0.697  -1.704  -1.091  0.0000  0.0000  0.0000
  180FIC    C25 3630   0.668  -1.575  -1.134  0.0000  0.0000  0.0000
  180FIC    C26 3631   0.724  -1.456  -1.075  0.0000  0.0000  0.0000
  180FIC    C27 3632   0.807  -1.478  -0.963  0.0000  0.0000  0.0000
  180FIC    C28 3633   0.873  -1.388  -0.870  0.0000  0.0000  0.0000
  180FIC    C29 3634   0.869  -1.249  -0.882  0.0000  0.0000  0.0000
  180FIC    C30 3635   0.812  -1.184  -1.001  0.0000  0.0000  0.0000
  180FIC    C31 3636   0.925  -1.155  -0.789  0.0000  0.0000  0.0000
  181BTD     S2 3637   0.342   4.495  -1.196  0.0000  0.0000  0.0000
  181BTD     N1 3638   0.356   4.660  -1.192  0.0000  0.0000  0.0000
  181BTD     N2 3639   0.407   4.456  -1.054  0.0000  0.0000  0.0000
  181BTD     N3 3640   0.609   4.703  -0.704  0.0000  0.0000  0.0000
  181BTD     N4 3641   0.552   4.974  -0.897  0.0000  0.0000  0.0000
  181BTD     C5 3642   0.452   4.815  -1.035  0.0000  0.0000  0.0000
  181BTD     C6 3643   0.412   4.687  -1.079  0.0000  0.0000  0.0000
  181BTD     C7 3644   0.441   4.573  -0.999  0.0000  0.0000  0.0000
  181BTD     C8 3645   0.507   4.590  -0.875  0.0000  0.0000  0.0000
  181BTD    C15 3646   0.543   4.717  -0.825  0.0000  0.0000  0.0000
  181BTD    C16 3647   0.525   4.839  -0.910  0.0000  0.0000  0.0000
  181BTD    C43 3648   0.656   5.040  -0.820  0.0000  0.0000  0.0000
  181BTD    C44 3649   0.798   4.988  -0.856  0.0000  0.0000  0.0000
  181BTD    C45 3650   0.836   4.963  -1.006  0.0000  0.0000  0.0000
  181BTD    C46 3651   0.841   5.094  -1.087  0.0000  0.0000  0.0000
  181BTD    C47 3652   0.913   5.068  -0.790  0.0000  0.0000  0.0000
  181BTD    C48 3653   0.931   5.062  -0.637  0.0000  0.0000  0.0000
  181BTD    C49 3654   1.019   5.168  -0.565  0.0000  0.0000  0.0000
  181BTD    C50 3655   0.999   5.192  -0.413  0.0000  0.0000  0.0000
  181BTD    C75 3656   0.620   4.801  -0.586  0.0000  0.0000  0.0000
  181BTD    C76 3657   0.482   4.864  -0.551  0.0000  0.0000  0.0000
  181BTD    C77 3658   0.484   4.950  -0.422  0.0000  0.0000  0.0000
  181BTD    C78 3659   0.628   4.919  -0.376  0.0000  0.0000  0.0000
  181BTD    C79 3660   0.361   4.770  -0.532  0.0000  0.0000  0.0000
  181BTD    C80 3661   0.382   4.639  -0.453  0.0000  0.0000  0.0000
  181BTD    C81 3662   0.286   4.519  -0.478  0.0000  0.0000  0.0000
  181BTD    C82 3663   0.155   4.515  -0.394  0.0000  0.0000  0.0000
  182TTP     S1 3664   0.377   5.015  -1.234  0.0000  0.0000  0.0000
  182TTP     S5 3665   0.560   5.322  -1.016  0.0000  0.0000  0.0000
  182TTP     C1 3666   0.500   5.392  -1.162  0.0000  0.0000  0.0000
  182TTP     C2 3667   0.440   5.300  -1.239  0.0000  0.0000  0.0000
  182TTP     C3 3668   0.438   5.170  -1.188  0.0000  0.0000  0.0000
  182TTP     C4 3669   0.442   4.944  -1.092  0.0000  0.0000  0.0000
  182TTP    C17 3670   0.503   5.036  -1.008  0.0000  0.0000  0.0000
  182TTP    C18 3671   0.504   5.168  -1.060  0.0000  0.0000  0.0000
  182TTP    C32 3672   0.382   5.325  -1.381  0.0000  0.0000  0.0000
  182TTP    C33 3673   0.229   5.310  -1.403  0.0000  0.0000  0.0000
  182TTP    C34 3674   0.171   5.345  -1.543  0.0000  0.0000  0.0000
  182TTP    C35 3675   0.019   5.339  -1.514  0.0000  0.0000  0.0000
  182TTP    C36 3676  -0.028   5.485  -1.489  0.0000  0.0000  0.0000
  182TTP    C37 3677   0.041   5.599  -1.572  0.0000  0.0000  0.0000
  182TTP    C38 3678  -0.044   5.718  -1.623  0.0000  0.0000  0.0000
  182TTP    C39 3679   0.066   5.763  -1.721  0.0000  0.0000  0.0000
  182TTP    C40 3680   0.022   5.805  -1.865  0.0000  0.0000  0.0000
  182TTP    C41 3681   0.103   5.913  -1.943  0.0000  0.0000  0.0000
  182TTP    C42 3682   0.040   5.978  -2.069  0.0000  0.0000  0.0000
  183TTP     S1 3683   0.541   4.324  -0.750  0.0000  0.0000  0.0000
  183TTP     S5 3684   0.763   4.500  -0.440  0.0000  0.0000  0.0000
  183TTP     C1 3685   0.769   4.324  -0.422  0.0000  0.0000  0.0000
  183TTP     C2 3686   0.698   4.259  -0.518  0.0000  0.0000  0.0000
  183TTP     C3 3687   0.637   4.347  -0.607  0.0000  0.0000  0.0000
  183TTP     C4 3688   0.543   4.495  -0.776  0.0000  0.0000  0.0000
  183TTP    C17 3689   0.606   4.566  -0.674  0.0000  0.0000  0.0000
  183TTP    C18 3690   0.664   4.482  -0.578  0.0000  0.0000  0.0000
  183TTP    C32 3691   0.679   4.105  -0.528  0.0000  0.0000  0.0000
  183TTP    C33 3692   0.562   4.052  -0.440  0.0000  0.0000  0.0000
  183TTP    C34 3693   0.544   3.899  -0.445  0.0000  0.0000  0.0000
  183TTP    C35 3694   0.515   3.856  -0.591  0.0000  0.0000  0.0000
  183TTP    C36 3695   0.502   3.705  -0.624  0.0000  0.0000  0.0000
  183TTP    C37 3696   0.625   3.612  -0.609  0.0000  0.0000  0.0000
  183TTP    C38 3697   0.539   3.485  -0.638  0.0000  0.0000  0.0000
  183TTP    C39 3698   0.632   3.384  -0.566  0.0000  0.0000  0.0000
  183TTP    C40 3699   0.639   3.387  -0.411  0.0000  0.0000  0.0000
  183TTP    C41 3700   0.745   3.474  -0.339  0.0000  0.0000  0.0000
  183TTP    C42 3701   0.711   3.617  -0.290  0.0000  0.0000  0.0000
  184FIC     F1 3702   0.833   6.041  -0.789  0.0000  0.0000  0.0000
  184FIC     F2 3703   0.792   6.176  -1.018  0.0000  0.0000  0.0000
  184FIC     O1 3704   0.623   5.565  -0.926  0.0000  0.0000  0.0000
  184FIC     N5 3705   0.584   6.048  -1.428  0.0000  0.0000  0.0000
  184FIC     N6 3706   0.412   5.651  -1.516  0.0000  0.0000  0.0000
  184FIC    C19 3707   0.517   5.526  -1.204  0.0000  0.0000  0.0000
  184FIC    C20 3708   0.569   5.640  -1.152  0.0000  0.0000  0.0000
  184FIC    C21 3709   0.624   5.651  -1.018  0.0000  0.0000  0.0000
  184FIC    C22 3710   0.671   5.790  -1.002  0.0000  0.0000  0.0000
  184FIC    C23 3711   0.732   5.844  -0.885  0.0000  0.0000  0.0000
  184FIC    C24 3712   0.773   5.978  -0.907  0.0000  0.0000  0.0000
  184FIC    C25 3713   0.754   6.045  -1.019  0.0000  0.0000  0.0000
  184FIC    C26 3714   0.696   5.991  -1.124  0.0000  0.0000  0.0000
  184FIC    C27 3715   0.653   5.863  -1.111  0.0000  0.0000  0.0000
  184FIC    C28 3716   0.585   5.772  -1.211  0.0000  0.0000  0.0000
  184FIC    C29 3717   0.543   5.800  -1.353  0.0000  0.0000  0.0000
  184FIC    C30 3718   0.564   5.944  -1.392  0.0000  0.0000  0.0000
  184FIC    C31 3719   0.477   5.714  -1.448  0.0000  0.0000  0.0000
  185FIC     F1 3720   1.227   4.597   0.191  0.0000  0.0000  0.0000
  185FIC     F2 3721   1.282   4.345   0.253  0.0000  0.0000  0.0000
  185FIC     O1 3722   0.907   4.533  -0.226  0.0000  0.0000  0.0000
  185FIC     N5 3723   1.133   3.931   0.047  0.0000  0.0000  0.0000
  185FIC     N6 3724   0.938   3.915  -0.326  0.0000  0.0000  0.0000
  185FIC    C19 3725   0.845   4.254  -0.324  0.0000  0.0000  0.0000
  185FIC    C20 3726   0.927   4.291  -0.222  0.0000  0.0000  0.0000
  185FIC    C21 3727   0.952   4.431  -0.180  0.0000  0.0000  0.0000
  185FIC    C22 3728   1.036   4.423  -0.060  0.0000  0.0000  0.0000
  185FIC    C23 3729   1.089   4.529   0.013  0.0000  0.0000  0.0000
  185FIC    C24 3730   1.164   4.499   0.118  0.0000  0.0000  0.0000
  185FIC    C25 3731   1.197   4.366   0.150  0.0000  0.0000  0.0000
  185FIC    C26 3732   1.148   4.262   0.076  0.0000  0.0000  0.0000
  185FIC    C27 3733   1.067   4.291  -0.028  0.0000  0.0000  0.0000
  185FIC    C28 3734   1.002   4.205  -0.133  0.0000  0.0000  0.0000
  185FIC    C29 3735   1.016   4.067  -0.137  0.0000  0.0000  0.0000
  185FIC    C30 3736   1.080   3.993  -0.036  0.0000  0.0000  0.0000
  185FIC    C31 3737   0.971   3.985  -0.246  0.0000  0.0000  0.0000
  186BTD     S2 3738   1.469   4.487   1.199  0.0000  0.0000  0.0000
  186BTD     N1 3739   1.479   4.648   1.188  0.0000  0.0000  0.0000
  186BTD     N2 3740   1.390   4.456   1.061  0.0000  0.0000  0.0000
  186BTD     N3 3741   1.220   4.718   0.700  0.0000  0.0000  0.0000
  186BTD     N4 3742   1.334   4.978   0.877  0.0000  0.0000  0.0000
  186BTD     C5 3743   1.404   4.814   1.019  0.0000  0.0000  0.0000
  186BTD     C6 3744   1.421   4.683   1.075  0.0000  0.0000  0.0000
  186BTD     C7 3745   1.370   4.573   1.001  0.0000  0.0000  0.0000
  186BTD     C8 3746   1.308   4.594   0.877  0.0000  0.0000  0.0000
  186BTD    C15 3747   1.289   4.727   0.824  0.0000  0.0000  0.0000
  186BTD    C16 3748   1.337   4.838   0.900  0.0000  0.0000  0.0000
  186BTD    C43 3749   1.245   5.055   0.789  0.0000  0.0000  0.0000
  186BTD    C44 3750   1.093   5.045   0.819  0.0000  0.0000  0.0000
  186BTD    C45 3751   1.020   5.144   0.724  0.0000  0.0000  0.0000
  186BTD    C46 3752   0.870   5.102   0.726  0.0000  0.0000  0.0000
  186BTD    C47 3753   1.060   5.071   0.968  0.0000  0.0000  0.0000
  186BTD    C48 3754   1.045   5.212   1.032  0.0000  0.0000  0.0000
  186BTD    C49 3755   1.031   5.181   1.183  0.0000  0.0000  0.0000
  186BTD    C50 3756   0.935   5.135   1.296  0.0000  0.0000  0.0000
  186BTD    C75 3757   1.234   4.805   0.583  0.0000  0.0000  0.0000
  186BTD    C76 3758   1.382   4.835   0.548  0.0000  0.0000  0.0000
  186BTD    C77 3759   1.391   4.923   0.421  0.0000  0.0000  0.0000
  186BTD    C78 3760   1.532   4.977   0.385  0.0000  0.0000  0.0000
  186BTD    C79 3761   1.468   4.708   0.527  0.0000  0.0000  0.0000
  186BTD    C80 3762   1.440   4.620   0.403  0.0000  0.0000  0.0000
  186BTD    C81 3763   1.532   4.494   0.409  0.0000  0.0000  0.0000
  186BTD    C82 3764   1.501   4.369   0.496  0.0000  0.0000  0.0000
  187TTP     S1 3765   1.530   5.004   1.205  0.0000  0.0000  0.0000
  187TTP     S5 3766   1.432   5.322   0.949  0.0000  0.0000  0.0000
  187TTP     C1 3767   1.528   5.386   1.080  0.0000  0.0000  0.0000
  187TTP     C2 3768   1.566   5.288   1.169  0.0000  0.0000  0.0000
  187TTP     C3 3769   1.511   5.166   1.135  0.0000  0.0000  0.0000
  187TTP     C4 3770   1.446   4.943   1.074  0.0000  0.0000  0.0000
  187TTP    C17 3771   1.395   5.033   0.983  0.0000  0.0000  0.0000
  187TTP    C18 3772   1.439   5.168   1.023  0.0000  0.0000  0.0000
  187TTP    C32 3773   1.652   5.306   1.297  0.0000  0.0000  0.0000
  187TTP    C33 3774   1.561   5.340   1.418  0.0000  0.0000  0.0000
  187TTP    C34 3775   1.654   5.363   1.540  0.0000  0.0000  0.0000
  187TTP    C35 3776   1.596   5.433   1.664  0.0000  0.0000  0.0000
  187TTP    C36 3777   1.690   5.527   1.745  0.0000  0.0000  0.0000
  187TTP    C37 3778   1.810   5.463   1.822  0.0000  0.0000  0.0000
  187TTP    C38 3779   1.890   5.331   1.834  0.0000  0.0000  0.0000
  187TTP    C39 3780   1.972   5.281   1.712  0.0000  0.0000  0.0000
  187TTP    C40 3781   2.031   5.384   1.611  0.0000  0.0000  0.0000
  187TTP    C41 3782   2.018   5.357   1.458  0.0000  0.0000  0.0000
  187TTP    C42 3783   2.037   5.479   1.363  0.0000  0.0000  0.0000
  188TTP     S1 3784   1.226   4.335   0.762  0.0000  0.0000  0.0000
  188TTP     S5 3785   1.024   4.538   0.453  0.0000  0.0000  0.0000
  188TTP     C1 3786   0.993   4.365   0.432  0.0000  0.0000  0.0000
  188TTP     C2 3787   1.057   4.291   0.533  0.0000  0.0000  0.0000
  188TTP     C3 3788   1.134   4.371   0.617  0.0000  0.0000  0.0000
  188TTP     C4 3789   1.249   4.506   0.783  0.0000  0.0000  0.0000
  188TTP    C17 3790   1.195   4.581   0.679  0.0000  0.0000  0.0000
  188TTP    C18 3791   1.124   4.504   0.583  0.0000  0.0000  0.0000
  188TTP    C32 3792   1.065   4.136   0.539  0.0000  0.0000  0.0000
  188TTP    C33 3793   1.170   4.069   0.446  0.0000  0.0000  0.0000
  188TTP    C34 3794   1.177   3.915   0.461  0.0000  0.0000  0.0000
  188TTP    C35 3795   1.286   3.864   0.363  0.0000  0.0000  0.0000
  188TTP    C36 3796   1.270   3.710   0.358  0.0000  0.0000  0.0000
  188TTP    C37 3797   1.303   3.672   0.505  0.0000  0.0000  0.0000
  188TTP    C38 3798   1.308   3.518   0.535  0.0000  0.0000  0.0000
  188TTP    C39 3799   1.370   3.468   0.667  0.0000  0.0000  0.0000
  188TTP    C40 3800   1.279   3.400   0.774  0.0000  0.0000  0.0000
  188TTP    C41 3801   1.204   3.269   0.739  0.0000  0.0000  0.0000
  188TTP    C42 3802   1.182   3.161   0.848  0.0000  0.0000  0.0000
  189FIC     F1 3803   1.499   6.012   0.557  0.0000  0.0000  0.0000
  189FIC     F2 3804   1.608   6.166   0.748  0.0000  0.0000  0.0000
  189FIC     O1 3805   1.444   5.553   0.817  0.0000  0.0000  0.0000
  189FIC     N5 3806   1.760   6.054   1.193  0.0000  0.0000  0.0000
  189FIC     N6 3807   1.712   5.673   1.372  0.0000  0.0000  0.0000
  189FIC    C19 3808   1.572   5.523   1.090  0.0000  0.0000  0.0000
  189FIC    C20 3809   1.563   5.634   1.010  0.0000  0.0000  0.0000
  189FIC    C21 3810   1.501   5.641   0.882  0.0000  0.0000  0.0000
  189FIC    C22 3811   1.525   5.776   0.828  0.0000  0.0000  0.0000
  189FIC    C23 3812   1.496   5.825   0.698  0.0000  0.0000  0.0000
  189FIC    C24 3813   1.524   5.954   0.673  0.0000  0.0000  0.0000
  189FIC    C25 3814   1.584   6.033   0.783  0.0000  0.0000  0.0000
  189FIC    C26 3815   1.620   5.989   0.899  0.0000  0.0000  0.0000
  189FIC    C27 3816   1.585   5.854   0.927  0.0000  0.0000  0.0000
  189FIC    C28 3817   1.609   5.767   1.043  0.0000  0.0000  0.0000
  189FIC    C29 3818   1.669   5.810   1.160  0.0000  0.0000  0.0000
  189FIC    C30 3819   1.717   5.954   1.172  0.0000  0.0000  0.0000
  189FIC    C31 3820   1.687   5.733   1.279  0.0000  0.0000  0.0000
  190FIC     F1 3821   0.536   4.687  -0.160  0.0000  0.0000  0.0000
  190FIC     F2 3822   0.489   4.445  -0.241  0.0000  0.0000  0.0000
  190FIC     O1 3823   0.848   4.593   0.263  0.0000  0.0000  0.0000
  190FIC     N5 3824   0.666   4.024  -0.091  0.0000  0.0000  0.0000
  190FIC     N6 3825   0.857   3.969   0.287  0.0000  0.0000  0.0000
  190FIC    C19 3826   0.916   4.307   0.330  0.0000  0.0000  0.0000
  190FIC    C20 3827   0.837   4.353   0.231  0.0000  0.0000  0.0000
  190FIC    C21 3828   0.805   4.499   0.199  0.0000  0.0000  0.0000
  190FIC    C22 3829   0.726   4.501   0.083  0.0000  0.0000  0.0000
  190FIC    C23 3830   0.670   4.612   0.017  0.0000  0.0000  0.0000
  190FIC    C24 3831   0.594   4.595  -0.093  0.0000  0.0000  0.0000
  190FIC    C25 3832   0.565   4.466  -0.135  0.0000  0.0000  0.0000
  190FIC    C26 3833   0.620   4.347  -0.077  0.0000  0.0000  0.0000
  190FIC    C27 3834   0.703   4.368   0.036  0.0000  0.0000  0.0000
  190FIC    C28 3835   0.770   4.279   0.128  0.0000  0.0000  0.0000
  190FIC    C29 3836   0.765   4.139   0.116  0.0000  0.0000  0.0000
  190FIC    C30 3837   0.708   4.075  -0.003  0.0000  0.0000  0.0000
  190FIC    C31 3838   0.821   4.045   0.209  0.0000  0.0000  0.0000
  191BTD     S2 3839   2.682  -4.495   1.196  0.0000  0.0000  0.0000
  191BTD     N1 3840   2.668  -4.660   1.192  0.0000  0.0000  0.0000
  191BTD     N2 3841   2.617  -4.456   1.054  0.0000  0.0000  0.0000
  191BTD     N3 3842   2.415  -4.703   0.704  0.0000  0.0000  0.0000
  191BTD     N4 3843   2.472  -4.974   0.897  0.0000  0.0000  0.0000
  191BTD     C5 3844   2.572  -4.815   1.035  0.0000  0.0000  0.0000
  191BTD     C6 3845   2.612  -4.687   1.079  0.0000  0.0000  0.0000
  191BTD     C7 3846   2.583  -4.573   0.999  0.0000  0.0000  0.0000
  191BTD     C8 3847   2.517  -4.590   0.875  0.0000  0.0000  0.0000
  191BTD    C15 3848   2.481  -4.717   0.825  0.0000  0.0000  0.0000
  191BTD    C16 3849   2.499  -4.839   0.910  0.0000  0.0000  0.0000
  191BTD    C43 3850   2.368  -5.040   0.820  0.0000  0.0000  0.0000
  191BTD    C44 3851   2.226  -4.988   0.856  0.0000  0.0000  0.0000
  191BTD    C45 3852   2.188  -4.963   1.006  0.0000  0.0000  0.0000
  191BTD    C46 3853   2.183  -5.094   1.087  0.0000  0.0000  0.0000
  191BTD    C47 3854   2.111  -5.068   0.790  0.0000  0.0000  0.0000
  191BTD    C48 3855   2.093  -5.062   0.637  0.0000  0.0000  0.0000
  191BTD    C49 3856   2.005  -5.168   0.565  0.0000  0.0000  0.0000
  191BTD    C50 3857   2.025  -5.192   0.413  0.0000  0.0000  0.0000
  191BTD    C75 3858   2.404  -4.801   0.586  0.0000  0.0000  0.0000
  191BTD    C76 3859   2.542  -4.864   0.551  0.0000  0.0000  0.0000
  191BTD    C77 3860   2.540  -4.950   0.422  0.0000  0.0000  0.0000
  191BTD    C78 3861   2.396  -4.919   0.376  0.0000  0.0000  0.0000
  191BTD    C79 3862   2.663  -4.770   0.532  0.0000  0.0000  0.0000
  191BTD    C80 3863   2.642  -4.639   0.453  0.0000  0.0000  0.0000
  191BTD    C81 3864   2.738  -4.519   0.478  0.0000  0.0000  0.0000
  191BTD    C82 3865   2.869  -4.515   0.394  0.0000  0.0000  0.0000
  192TTP     S1 3866   2.647  -5.015   1.234  0.0000  0.0000  0.0000
  192TTP     S5 3867   2.464  -5.322   1.016  0.0000  0.0000  0.0000
  192TTP     C1 3868   2.524  -5.392   1.162  0.0000  0.0000  0.0000
  192TTP     C2 3869   2.584  -5.300   1.239  0.0000  0.0000  0.0000
  192TTP     C3 3870   2.586  -5.170   1.188  0.0000  0.0000  0.0000
  192TTP     C4 3871   2.582  -4.944   1.092  0.0000  0.0000  0.0000
  192TTP    C17 3872   2.521  -5.036   1.008  0.0000  0.0000  0.0000
  192TTP    C18 3873   2.520  -5.168   1.060  0.0000  0.0000  0.0000
  192TTP    C32 3874   2.642  -5.325   1.381  0.0000  0.0000  0.0000
  192TTP    C33 3875   2.795  -5.310   1.403  0.0000  0.0000  0.0000
  192TTP    C34 3876   2.853  -5.345   1.543  0.0000  0.0000  0.0000
  192TTP    C35 3877   3.005  -5.339   1.514  0.0000  0.0000  0.0000
  192TTP    C36 3878   3.052  -5.485   1.489  0.0000  0.0000  0.0000
  192TTP    C37 3879   2.983  -5.599   1.572  0.0000  0.0000  0.0000
  192TTP    C38 3880   3.068  -5.718   1.623  0.0000  0.0000  0.0000
  192TTP    C39 3881   2.958  -5.763   1.721  0.0000  0.0000  0.0000
  192TTP    C40 3882   3.002  -5.805   1.865  0.0000  0.0000  0.0000
  192TTP    C41 3883   2.921  -5.913   1.943  0.0000  0.0000  0.0000
  192TTP    C42 3884   2.984  -5.978   2.069  0.0000  0.0000  0.0000
  193TTP     S1 3885   2.483  -4.324   0.750  0.0000  0.0000  0.0000
  193TTP     S5 3886   2.261  -4.500   0.440  0.0000  0.0000  0.0000
  193TTP     C1 3887   2.255  -4.324   0.422  0.0000  0.0000  0.0000
  193TTP     C2 3888   2.326  -4.259   0.518  0.0000  0.0000  0.0000
  193TTP     C3 3889   2.387  -4.347   0.607  0.0000  0.0000  0.0000
  193TTP     C4 3890   2.481  -4.495   0.776  0.0000  0.0000  0.0000
  193TTP    C17 3891   2.418  -4.566   0.674  0.0000  0.0000  0.0000
  193TTP    C18 3892   2.360  -4.482   0.578  0.0000  0.0000  0.0000
  193TTP    C32 3893   2.345  -4.105   0.528  0.0000  0.0000  0.0000
  193TTP    C33 3894   2.462  -4.052   0.440  0.0000  0.0000  0.0000
  193TTP    C34 3895   2.480  -3.899   0.445  0.0000  0.0000  0.0000
  193TTP    C35 3896   2.509  -3.856   0.591  0.0000  0.0000  0.0000
  193TTP    C36 3897   2.522  -3.705   0.624  0.0000  0.0000  0.0000
  193TTP    C37 3898   2.399  -3.612   0.609  0.0000  0.0000  0.0000
  193TTP    C38 3899   2.485  -3.485   0.638  0.0000  0.0000  0.0000
  193TTP    C39 3900   2.392  -3.384   0.566  0.0000  0.0000  0.0000
  193TTP    C40 3901   2.385  -3.387   0.411  0.0000  0.0000  0.0000
  193TTP    C41 3902   2.279  -3.474   0.339  0.0000  0.0000  0.0000
  193TTP    C42 3903   2.313  -3.617   0.290  0.0000  0.0000  0.0000
  194FIC     F1 3904   2.191  -6.041   0.789  0.0000  0.0000  0.0000
  194FIC     F2 3905   2.232  -6.176   1.018  0.0000  0.0000  0.0000
  194FIC     O1 3906   2.401  -5.565   0.926  0.0000  0.0000  0.0000
  194FIC     N5 3907   2.440  -6.048   1.428  0.0000  0.0000  0.0000
  194FIC     N6 3908   2.612  -5.651   1.516  0.0000  0.0000  0.0000
  194FIC    C19 3909   2.507  -5.526   1.204  0.0000  0.0000  0.0000
  194FIC    C20 3910   2.455  -5.640   1.152  0.0000  0.0000  0.0000
  194FIC    C21 3911   2.400  -5.651   1.018  0.0000  0.0000  0.0000
  194FIC    C22 3912   2.353  -5.790   1.002  0.0000  0.0000  0.0000
  194FIC    C23 3913   2.292  -5.844   0.885  0.0000  0.0000  0.0000
  194FIC    C24 3914   2.251  -5.978   0.907  0.0000  0.0000  0.0000
  194FIC    C25 3915   2.270  -6.045   1.019  0.0000  0.0000  0.0000
  194FIC    C26 3916   2.328  -5.991   1.124  0.0000  0.0000  0.0000
  194FIC    C27 3917   2.371  -5.863   1.111  0.0000  0.0000  0.0000
  194FIC    C28 3918   2.439  -5.772   1.211  0.0000  0.0000  0.0000
  194FIC    C29 3919   2.481  -5.800   1.353  0.0000  0.0000  0.0000
  194FIC    C30 3920   2.460  -5.944   1.392  0.0000  0.0000  0.0000
  194FIC    C31 3921   2.547  -5.714   1.448  0.0000  0.0000  0.0000
  195FIC     F1 3922   1.797  -4.597  -0.191  0.0000  0.0000  0.0000
  195FIC     F2 3923   1.742  -4.345  -0.253  0.0000  0.0000  0.0000
  195FIC     O1 3924   2.117  -4.533   0.226  0.0000  0.0000  0.0000
  195FIC     N5 3925   1.891  -3.931  -0.047  0.0000  0.0000  0.0000
  195FIC     N6 3926   2.086  -3.915   0.326  0.0000  0.0000  0.0000
  195FIC    C19 3927   2.179  -4.254   0.324  0.0000  0.0000  0.0000
  195FIC    C20 3928   2.097  -4.291   0.222  0.0000  0.0000  0.0000
  195FIC    C21 3929   2.072  -4.431   0.180  0.0000  0.0000  0.0000
  195FIC    C22 3930   1.988  -4.423   0.060  0.0000  0.0000  0.0000
  195FIC    C23 3931   1.935  -4.529  -0.013  0.0000  0.0000  0.0000
  195FIC    C24 3932   1.860  -4.499  -0.118  0.0000  0.0000  0.0000
  195FIC    C25 3933   1.827  -4.366  -0.150  0.0000  0.0000  0.0000
  195FIC    C26 3934   1.876  -4.262  -0.076  0.0000  0.0000  0.0000
  195FIC    C27 3935   1.957  -4.291   0.028  0.0000  0.0000  0.0000
  195FIC    C28 3936   2.022  -4.205   0.133  0.0000  0.0000  0.0000
  195FIC    C29 3937   2.008  -4.067   0.137  0.0000  0.0000  0.0000
  195FIC    C30 3938   1.944  -3.993   0.036  0.0000  0.0000  0.0000
  195FIC    C31 3939   2.053  -3.985   0.246  0.0000  0.0000  0.0000
  196BTD     S2 3940   1.555  -4.487  -1.199  0.0000  0.0000  0.0000
  196BTD     N1 3941   1.545  -4.648  -1.188  0.0000  0.0000  0.0000
  196BTD     N2 3942   1.634  -4.456  -1.061  0.0000  0.0000  0.0000
  196BTD     N3 3943   1.804  -4.718  -0.700  0.0000  0.0000  0.0000
  196BTD     N4 3944   1.690  -4.978  -0.877  0.0000  0.0000  0.0000
  196BTD     C5 3945   1.620  -4.814  -1.019  0.0000  0.0000  0.0000
  196BTD     C6 3946   1.603  -4.683  -1.075  0.0000  0.0000  0.0000
  196BTD     C7 3947   1.654  -4.573  -1.001  0.0000  0.0000  0.0000
  196BTD     C8 3948   1.716  -4.594  -0.877  0.0000  0.0000  0.0000
  196BTD    C15 3949   1.735  -4.727  -0.824  0.0000  0.0000  0.0000
  196BTD    C16 3950   1.687  -4.838  -0.900  0.0000  0.0000  0.0000
  196BTD    C43 3951   1.779  -5.055  -0.789  0.0000  0.0000  0.0000
  196BTD    C44 3952   1.931  -5.045  -0.819  0.0000  0.0000  0.0000
  196BTD    C45 3953   2.004  -5.144  -0.724  0.0000  0.0000  0.0000
  196BTD    C46 3954   2.154  -5.102  -0.726  0.0000  0.0000  0.0000
  196BTD    C47 3955   1.964  -5.071  -0.968  0.0000  0.0000  0.0000
  196BTD    C48 3956   1.979  -5.212  -1.032  0.0000  0.0000  0.0000
  196BTD    C49 3957   1.993  -5.181  -1.183  0.0000  0.0000  0.0000
  196BTD    C50 3958   2.089  -5.135  -1.296  0.0000  0.0000  0.0000
  196BTD    C75 3959   1.790  -4.805  -0.583  0.0000  0.0000  0.0000
  196BTD    C76 3960   1.642  -4.835  -0.548  0.0000  0.0000  0.0000
  196BTD    C77 3961   1.633  -4.923  -0.421  0.0000  0.0000  0.0000
  196BTD    C78 3962   1.492  -4.977  -0.385  0.0000  0.0000  0.0000
  196BTD    C79 3963   1.556  -4.708  -0.527  0.0000  0.0000  0.0000
  196BTD    C80 3964   1.584  -4.620  -0.403  0.0000  0.0000  0.0000
  196BTD    C81 3965   1.492  -4.494  -0.409  0.0000  0.0000  0.0000
  196BTD    C82 3966   1.523  -4.369  -0.496  0.0000  0.0000  0.0000
  197TTP     S1 3967   1.494  -5.004  -1.205  0.0000  0.0000  0.0000
  197TTP     S5 3968   1.592  -5.322  -0.949  0.0000  0.0000  0.0000
  197TTP     C1 3969   1.496  -5.386  -1.080  0.0000  0.0000  0.0000
  197TTP     C2 3970   1.458  -5.288  -1.169  0.0000  0.0000  0.0000
  197TTP     C3 3971   1.513  -5.166  -1.135  0.0000  0.0000  0.0000
  197TTP     C4 3972   1.578  -4.943  -1.074  0.0000  0.0000  0.0000
  197TTP    C17 3973   1.629  -5.033  -0.983  0.0000  0.0000  0.0000
  197TTP    C18 3974   1.585  -5.168  -1.023  0.0000  0.0000  0.0000
  197TTP    C32 3975   1.372  -5.306  -1.297  0.0000  0.0000  0.0000
  197TTP    C33 3976   1.463  -5.340  -1.418  0.0000  0.0000  0.0000
  197TTP    C34 3977   1.370  -5.363  -1.540  0.0000  0.0000  0.0000
  197TTP    C35 3978   1.428  -5.433  -1.664  0.0000  0.0000  0.0000
  197TTP    C36 3979   1.334  -5.527  -1.745  0.0000  0.0000  0.0000
  197TTP    C37 3980   1.214  -5.463  -1.822  0.0000  0.0000  0.0000
  197TTP    C38 3981   1.134  -5.331  -1.834  0.0000  0.0000  0.0000
  197TTP    C39 3982   1.052  -5.281  -1.712  0.0000  0.0000  0.0000
  197TTP    C40 3983   0.993  -5.384  -1.611  0.0000  0.0000  0.0000
  197TTP    C41 3984   1.006  -5.357  -1.458  0.0000  0.0000  0.0000
  197TTP    C42 3985   0.987  -5.479  -1.363  0.0000  0.0000  0.0000
  198TTP     S1 3986   1.798  -4.335  -0.762  0.0000  0.0000  0.0000
  198TTP     S5 3987   2.000  -4.538  -0.453  0.0000  0.0000  0.0000
  198TTP     C1 3988   2.031  -4.365  -0.432  0.0000  0.0000  0.0000
  198TTP     C2 3989   1.967  -4.291  -0.533  0.0000  0.0000  0.0000
  198TTP     C3 3990   1.890  -4.371  -0.617  0.0000  0.0000  0.0000
  198TTP     C4 3991   1.775  -4.506  -0.783  0.0000  0.0000  0.0000
  198TTP    C17 3992   1.829  -4.581  -0.679  0.0000  0.0000  0.0000
  198TTP    C18 3993   1.900  -4.504  -0.583  0.0000  0.0000  0.0000
  198TTP    C32 3994   1.959  -4.136  -0.539  0.0000  0.0000  0.0000
  198TTP    C33 3995   1.854  -4.069  -0.446  0.0000  0.0000  0.0000
  198TTP    C34 3996   1.847  -3.915  -0.461  0.0000  0.0000  0.0000
  198TTP    C35 3997   1.738  -3.864  -0.363  0.0000  0.0000  0.0000
  198TTP    C36 3998   1.754  -3.710  -0.358  0.0000  0.0000  0.0000
  198TTP    C37 3999   1.721  -3.672  -0.505  0.0000  0.0000  0.0000
  198TTP    C38 4000   1.716  -3.518  -0.535  0.0000  0.0000  0.0000
  198TTP    C39 4001   1.654  -3.468  -0.667  0.0000  0.0000  0.0000
  198TTP    C40 4002   1.745  -3.400  -0.774  0.0000  0.0000  0.0000
  198TTP    C41 4003   1.820  -3.269  -0.739  0.0000  0.0000  0.0000
  198TTP    C42 4004   1.842  -3.161  -0.848  0.0000  0.0000  0.0000
  199FIC     F1 4005   1.525  -6.012  -0.557  0.0000  0.0000  0.0000
  199FIC     F2 4006   1.416  -6.166  -0.748  0.0000  0.0000  0.0000
  199FIC     O1 4007   1.580  -5.553  -0.817  0.0000  0.0000  0.0000
  199FIC     N5 4008   1.264  -6.054  -1.193  0.0000  0.0000  0.0000
  199FIC     N6 4009   1.312  -5.673  -1.372  0.0000  0.0000  0.0000
  199FIC    C19 4010   1.452  -5.523  -1.090  0.0000  0.0000  0.0000
  199FIC    C20 4011   1.461  -5.634  -1.010  0.0000  0.0000  0.0000
  199FIC    C21 4012   1.523  -5.641  -0.882  0.0000  0.0000  0.0000
  199FIC    C22 4013   1.499  -5.776  -0.828  0.0000  0.0000  0.0000
  199FIC    C23 4014   1.528  -5.825  -0.698  0.0000  0.0000  0.0000
  199FIC    C24 4015   1.500  -5.954  -0.673  0.0000  0.0000  0.0000
  199FIC    C25 4016   1.440  -6.033  -0.783  0.0000  0.0000  0.0000
  199FIC    C26 4017   1.404  -5.989  -0.899  0.0000  0.0000  0.0000
  199FIC    C27 4018   1.439  -5.854  -0.927  0.0000  0.0000  0.0000
  199FIC    C28 4019   1.415  -5.767  -1.043  0.0000  0.0000  0.0000
  199FIC    C29 4020   1.355  -5.810  -1.160  0.0000  0.0000  0.0000
  199FIC    C30 4021   1.307  -5.954  -1.172  0.0000  0.0000  0.0000
  199FIC    C31 4022   1.337  -5.733  -1.279  0.0000  0.0000  0.0000
  200FIC     F1 4023   2.488  -4.687   0.160  0.0000  0.0000  0.0000
  200FIC     F2 4024   2.535  -4.445   0.241  0.0000  0.0000  0.0000
  200FIC     O1 4025   2.176  -4.593  -0.263  0.0000  0.0000  0.0000
  200FIC     N5 4026   2.358  -4.024   0.091  0.0000  0.0000  0.0000
  200FIC     N6 4027   2.167  -3.969  -0.287  0.0000  0.0000  0.0000
  200FIC    C19 4028   2.108  -4.307  -0.330  0.0000  0.0000  0.0000
  200FIC    C20 4029   2.187  -4.353  -0.231  0.0000  0.0000  0.0000
  200FIC    C21 4030   2.219  -4.499  -0.199  0.0000  0.0000  0.0000
  200FIC    C22 4031   2.298  -4.501  -0.083  0.0000  0.0000  0.0000
  200FIC    C23 4032   2.354  -4.612  -0.017  0.0000  0.0000  0.0000
  200FIC    C24 4033   2.430  -4.595   0.093  0.0000  0.0000  0.0000
  200FIC    C25 4034   2.459  -4.466   0.135  0.0000  0.0000  0.0000
  200FIC    C26 4035   2.404  -4.347   0.077  0.0000  0.0000  0.0000
  200FIC    C27 4036   2.321  -4.368  -0.036  0.0000  0.0000  0.0000
  200FIC    C28 4037   2.254  -4.279  -0.128  0.0000  0.0000  0.0000
  200FIC    C29 4038   2.259  -4.139  -0.116  0.0000  0.0000  0.0000
  200FIC    C30 4039   2.316  -4.075   0.003  0.0000  0.0000  0.0000
  200FIC    C31 4040   2.203  -4.045  -0.209  0.0000  0.0000  0.0000
  201BTD     S2 4041   2.371   1.605   4.192  0.0000  0.0000  0.0000
  201BTD     N1 4042   2.358   1.769   4.187  0.0000  0.0000  0.0000
  201BTD     N2 4043   2.306   1.565   4.049  0.0000  0.0000  0.0000
  201BTD     N3 4044   2.105   1.812   3.700  0.0000  0.0000  0.0000
  201BTD     N4 4045   2.161   2.084   3.892  0.0000  0.0000  0.0000
  201BTD     C5 4046   2.262   1.925   4.031  0.0000  0.0000  0.0000
  201BTD     C6 4047   2.302   1.797   4.075  0.0000  0.0000  0.0000
  201BTD     C7 4048   2.273   1.682   3.995  0.0000  0.0000  0.0000
  201BTD     C8 4049   2.206   1.699   3.870  0.0000  0.0000  0.0000
  201BTD    C15 4050   2.170   1.827   3.820  0.0000  0.0000  0.0000
  201BTD    C16 4051   2.189   1.948   3.906  0.0000  0.0000  0.0000
  201BTD    C43 4052   2.058   2.149   3.815  0.0000  0.0000  0.0000
  201BTD    C44 4053   1.916   2.097   3.852  0.0000  0.0000  0.0000
  201BTD    C45 4054   1.878   2.072   4.001  0.0000  0.0000  0.0000
  201BTD    C46 4055   1.872   2.204   4.083  0.0000  0.0000  0.0000
  201BTD    C47 4056   1.800   2.177   3.786  0.0000  0.0000  0.0000
  201BTD    C48 4057   1.783   2.171   3.632  0.0000  0.0000  0.0000
  201BTD    C49 4058   1.694   2.277   3.560  0.0000  0.0000  0.0000
  201BTD    C50 4059   1.715   2.302   3.408  0.0000  0.0000  0.0000
  201BTD    C75 4060   2.093   1.910   3.581  0.0000  0.0000  0.0000
  201BTD    C76 4061   2.231   1.974   3.546  0.0000  0.0000  0.0000
  201BTD    C77 4062   2.230   2.060   3.417  0.0000  0.0000  0.0000
  201BTD    C78 4063   2.085   2.028   3.372  0.0000  0.0000  0.0000
  201BTD    C79 4064   2.352   1.880   3.528  0.0000  0.0000  0.0000
  201BTD    C80 4065   2.331   1.748   3.449  0.0000  0.0000  0.0000
  201BTD    C81 4066   2.427   1.629   3.473  0.0000  0.0000  0.0000
  201BTD    C82 4067   2.559   1.624   3.390  0.0000  0.0000  0.0000
  202TTP     S1 4068   2.337   2.124   4.230  0.0000  0.0000  0.0000
  202TTP     S5 4069   2.154   2.431   4.011  0.0000  0.0000  0.0000
  202TTP     C1 4070   2.213   2.501   4.157  0.0000  0.0000  0.0000
  202TTP     C2 4071   2.274   2.410   4.235  0.0000  0.0000  0.0000
  202TTP     C3 4072   2.276   2.279   4.183  0.0000  0.0000  0.0000
  202TTP     C4 4073   2.271   2.053   4.088  0.0000  0.0000  0.0000
  202TTP    C17 4074   2.211   2.145   4.003  0.0000  0.0000  0.0000
  202TTP    C18 4075   2.210   2.278   4.055  0.0000  0.0000  0.0000
  202TTP    C32 4076   2.332   2.434   4.376  0.0000  0.0000  0.0000
  202TTP    C33 4077   2.484   2.419   4.399  0.0000  0.0000  0.0000
  202TTP    C34 4078   2.542   2.454   4.538  0.0000  0.0000  0.0000
  202TTP    C35 4079   2.695   2.448   4.509  0.0000  0.0000  0.0000
  202TTP    C36 4080   2.741   2.595   4.485  0.0000  0.0000  0.0000
  202TTP    C37 4081   2.673   2.708   4.567  0.0000  0.0000  0.0000
  202TTP    C38 4082   2.757   2.828   4.619  0.0000  0.0000  0.0000
  202TTP    C39 4083   2.647   2.873   4.717  0.0000  0.0000  0.0000
  202TTP    C40 4084   2.692   2.914   4.861  0.0000  0.0000  0.0000
  202TTP    C41 4085   2.611   3.022   4.938  0.0000  0.0000  0.0000
  202TTP    C42 4086   2.673   3.088   5.064  0.0000  0.0000  0.0000
  203TTP     S1 4087   2.173   1.434   3.746  0.0000  0.0000  0.0000
  203TTP     S5 4088   1.951   1.609   3.435  0.0000  0.0000  0.0000
  203TTP     C1 4089   1.945   1.434   3.418  0.0000  0.0000  0.0000
  203TTP     C2 4090   2.016   1.369   3.514  0.0000  0.0000  0.0000
  203TTP     C3 4091   2.077   1.457   3.603  0.0000  0.0000  0.0000
  203TTP     C4 4092   2.171   1.604   3.772  0.0000  0.0000  0.0000
  203TTP    C17 4093   2.108   1.676   3.669  0.0000  0.0000  0.0000
  203TTP    C18 4094   2.049   1.591   3.574  0.0000  0.0000  0.0000
  203TTP    C32 4095   2.034   1.215   3.523  0.0000  0.0000  0.0000
  203TTP    C33 4096   2.152   1.162   3.435  0.0000  0.0000  0.0000
  203TTP    C34 4097   2.170   1.009   3.440  0.0000  0.0000  0.0000
  203TTP    C35 4098   2.198   0.966   3.587  0.0000  0.0000  0.0000
  203TTP    C36 4099   2.212   0.815   3.619  0.0000  0.0000  0.0000
  203TTP    C37 4100   2.089   0.721   3.605  0.0000  0.0000  0.0000
  203TTP    C38 4101   2.175   0.594   3.633  0.0000  0.0000  0.0000
  203TTP    C39 4102   2.081   0.494   3.562  0.0000  0.0000  0.0000
  203TTP    C40 4103   2.075   0.496   3.406  0.0000  0.0000  0.0000
  203TTP    C41 4104   1.968   0.583   3.335  0.0000  0.0000  0.0000
  203TTP    C42 4105   2.003   0.727   3.285  0.0000  0.0000  0.0000
  204FIC     F1 4106   1.881   3.150   3.785  0.0000  0.0000  0.0000
  204FIC     F2 4107   1.922   3.286   4.014  0.0000  0.0000  0.0000
  204FIC     O1 4108   2.091   2.674   3.922  0.0000  0.0000  0.0000
  204FIC     N5 4109   2.130   3.157   4.423  0.0000  0.0000  0.0000
  204FIC     N6 4110   2.301   2.760   4.512  0.0000  0.0000  0.0000
  204FIC    C19 4111   2.196   2.636   4.199  0.0000  0.0000  0.0000
  204FIC    C20 4112   2.144   2.750   4.147  0.0000  0.0000  0.0000
  204FIC    C21 4113   2.089   2.761   4.013  0.0000  0.0000  0.0000
  204FIC    C22 4114   2.043   2.900   3.998  0.0000  0.0000  0.0000
  204FIC    C23 4115   1.982   2.954   3.881  0.0000  0.0000  0.0000
  204FIC    C24 4116   1.940   3.087   3.902  0.0000  0.0000  0.0000
  204FIC    C25 4117   1.960   3.155   4.014  0.0000  0.0000  0.0000
  204FIC    C26 4118   2.017   3.101   4.119  0.0000  0.0000  0.0000
  204FIC    C27 4119   2.060   2.973   4.106  0.0000  0.0000  0.0000
  204FIC    C28 4120   2.128   2.881   4.207  0.0000  0.0000  0.0000
  204FIC    C29 4121   2.170   2.909   4.348  0.0000  0.0000  0.0000
  204FIC    C30 4122   2.150   3.053   4.387  0.0000  0.0000  0.0000
  204FIC    C31 4123   2.237   2.823   4.443  0.0000  0.0000  0.0000
  205FIC     F1 4124   1.486   1.706   2.805  0.0000  0.0000  0.0000
  205FIC     F2 4125   1.432   1.455   2.742  0.0000  0.0000  0.0000
  205FIC     O1 4126   1.807   1.643   3.221  0.0000  0.0000  0.0000
  205FIC     N5 4127   1.581   1.041   2.948  0.0000  0.0000  0.0000
  205FIC     N6 4128   1.775   1.024   3.322  0.0000  0.0000  0.0000
  205FIC    C19 4129   1.868   1.363   3.320  0.0000  0.0000  0.0000
  205FIC    C20 4130   1.787   1.400   3.218  0.0000  0.0000  0.0000
  205FIC    C21 4131   1.762   1.541   3.175  0.0000  0.0000  0.0000
  205FIC    C22 4132   1.677   1.532   3.055  0.0000  0.0000  0.0000
  205FIC    C23 4133   1.625   1.639   2.982  0.0000  0.0000  0.0000
  205FIC    C24 4134   1.549   1.608   2.878  0.0000  0.0000  0.0000
  205FIC    C25 4135   1.517   1.475   2.845  0.0000  0.0000  0.0000
  205FIC    C26 4136   1.565   1.372   2.919  0.0000  0.0000  0.0000
  205FIC    C27 4137   1.647   1.401   3.024  0.0000  0.0000  0.0000
  205FIC    C28 4138   1.711   1.315   3.128  0.0000  0.0000  0.0000
  205FIC    C29 4139   1.698   1.177   3.133  0.0000  0.0000  0.0000
  205FIC    C30 4140   1.633   1.103   3.031  0.0000  0.0000  0.0000
  205FIC    C31 4141   1.742   1.094   3.242  0.0000  0.0000  0.0000
  206BTD     S2 4142   1.245   1.597   1.797  0.0000  0.0000  0.0000
  206BTD     N1 4143   1.234   1.758   1.808  0.0000  0.0000  0.0000
  206BTD     N2 4144   1.324   1.565   1.934  0.0000  0.0000  0.0000
  206BTD     N3 4145   1.493   1.827   2.296  0.0000  0.0000  0.0000
  206BTD     N4 4146   1.380   2.087   2.118  0.0000  0.0000  0.0000
  206BTD     C5 4147   1.310   1.923   1.977  0.0000  0.0000  0.0000
  206BTD     C6 4148   1.293   1.793   1.921  0.0000  0.0000  0.0000
  206BTD     C7 4149   1.344   1.682   1.994  0.0000  0.0000  0.0000
  206BTD     C8 4150   1.405   1.703   2.119  0.0000  0.0000  0.0000
  206BTD    C15 4151   1.424   1.836   2.172  0.0000  0.0000  0.0000
  206BTD    C16 4152   1.376   1.948   2.095  0.0000  0.0000  0.0000
  206BTD    C43 4153   1.468   2.164   2.207  0.0000  0.0000  0.0000
  206BTD    C44 4154   1.621   2.154   2.177  0.0000  0.0000  0.0000
  206BTD    C45 4155   1.693   2.253   2.271  0.0000  0.0000  0.0000
  206BTD    C46 4156   1.843   2.211   2.270  0.0000  0.0000  0.0000
  206BTD    C47 4157   1.654   2.181   2.027  0.0000  0.0000  0.0000
  206BTD    C48 4158   1.668   2.322   1.964  0.0000  0.0000  0.0000
  206BTD    C49 4159   1.682   2.290   1.813  0.0000  0.0000  0.0000
  206BTD    C50 4160   1.779   2.244   1.699  0.0000  0.0000  0.0000
  206BTD    C75 4161   1.480   1.915   2.412  0.0000  0.0000  0.0000
  206BTD    C76 4162   1.331   1.945   2.448  0.0000  0.0000  0.0000
  206BTD    C77 4163   1.322   2.033   2.575  0.0000  0.0000  0.0000
  206BTD    C78 4164   1.181   2.086   2.610  0.0000  0.0000  0.0000
  206BTD    C79 4165   1.246   1.818   2.468  0.0000  0.0000  0.0000
  206BTD    C80 4166   1.273   1.729   2.592  0.0000  0.0000  0.0000
  206BTD    C81 4167   1.181   1.604   2.587  0.0000  0.0000  0.0000
  206BTD    C82 4168   1.212   1.478   2.500  0.0000  0.0000  0.0000
  207TTP     S1 4169   1.183   2.113   1.790  0.0000  0.0000  0.0000
  207TTP     S5 4170   1.282   2.432   2.047  0.0000  0.0000  0.0000
  207TTP     C1 4171   1.185   2.495   1.915  0.0000  0.0000  0.0000
  207TTP     C2 4172   1.147   2.398   1.827  0.0000  0.0000  0.0000
  207TTP     C3 4173   1.203   2.275   1.860  0.0000  0.0000  0.0000
  207TTP     C4 4174   1.268   2.052   1.921  0.0000  0.0000  0.0000
  207TTP    C17 4175   1.319   2.143   2.012  0.0000  0.0000  0.0000
  207TTP    C18 4176   1.275   2.277   1.972  0.0000  0.0000  0.0000
  207TTP    C32 4177   1.062   2.415   1.699  0.0000  0.0000  0.0000
  207TTP    C33 4178   1.152   2.449   1.577  0.0000  0.0000  0.0000
  207TTP    C34 4179   1.059   2.472   1.456  0.0000  0.0000  0.0000
  207TTP    C35 4180   1.118   2.543   1.331  0.0000  0.0000  0.0000
  207TTP    C36 4181   1.023   2.637   1.250  0.0000  0.0000  0.0000
  207TTP    C37 4182   0.904   2.573   1.173  0.0000  0.0000  0.0000
  207TTP    C38 4183   0.823   2.441   1.161  0.0000  0.0000  0.0000
  207TTP    C39 4184   0.741   2.391   1.284  0.0000  0.0000  0.0000
  207TTP    C40 4185   0.682   2.493   1.384  0.0000  0.0000  0.0000
  207TTP    C41 4186   0.695   2.467   1.537  0.0000  0.0000  0.0000
  207TTP    C42 4187   0.677   2.588   1.632  0.0000  0.0000  0.0000
  208TTP     S1 4188   1.488   1.444   2.234  0.0000  0.0000  0.0000
  208TTP     S5 4189   1.690   1.647   2.542  0.0000  0.0000  0.0000
  208TTP     C1 4190   1.721   1.474   2.564  0.0000  0.0000  0.0000
  208TTP     C2 4191   1.656   1.400   2.463  0.0000  0.0000  0.0000
  208TTP     C3 4192   1.579   1.480   2.379  0.0000  0.0000  0.0000
  208TTP     C4 4193   1.465   1.616   2.213  0.0000  0.0000  0.0000
  208TTP    C17 4194   1.519   1.691   2.317  0.0000  0.0000  0.0000
  208TTP    C18 4195   1.589   1.614   2.412  0.0000  0.0000  0.0000
  208TTP    C32 4196   1.649   1.246   2.456  0.0000  0.0000  0.0000
  208TTP    C33 4197   1.544   1.179   2.550  0.0000  0.0000  0.0000
  208TTP    C34 4198   1.537   1.024   2.534  0.0000  0.0000  0.0000
  208TTP    C35 4199   1.428   0.974   2.632  0.0000  0.0000  0.0000
  208TTP    C36 4200   1.444   0.820   2.638  0.0000  0.0000  0.0000
  208TTP    C37 4201   1.411   0.782   2.490  0.0000  0.0000  0.0000
  208TTP    C38 4202   1.405   0.628   2.461  0.0000  0.0000  0.0000
  208TTP    C39 4203   1.343   0.577   2.329  0.0000  0.0000  0.0000
  208TTP    C40 4204   1.434   0.509   2.222  0.0000  0.0000  0.0000
  208TTP    C41 4205   1.509   0.378   2.256  0.0000  0.0000  0.0000
  208TTP    C42 4206   1.531   0.271   2.147  0.0000  0.0000  0.0000
  209FIC     F1 4207   1.215   3.122   2.439  0.0000  0.0000  0.0000
  209FIC     F2 4208   1.106   3.276   2.247  0.0000  0.0000  0.0000
  209FIC     O1 4209   1.269   2.663   2.178  0.0000  0.0000  0.0000
  209FIC     N5 4210   0.953   3.163   1.802  0.0000  0.0000  0.0000
  209FIC     N6 4211   1.001   2.782   1.623  0.0000  0.0000  0.0000
  209FIC    C19 4212   1.141   2.632   1.905  0.0000  0.0000  0.0000
  209FIC    C20 4213   1.150   2.743   1.986  0.0000  0.0000  0.0000
  209FIC    C21 4214   1.213   2.751   2.113  0.0000  0.0000  0.0000
  209FIC    C22 4215   1.188   2.885   2.167  0.0000  0.0000  0.0000
  209FIC    C23 4216   1.218   2.935   2.298  0.0000  0.0000  0.0000
  209FIC    C24 4217   1.189   3.064   2.322  0.0000  0.0000  0.0000
  209FIC    C25 4218   1.129   3.143   2.213  0.0000  0.0000  0.0000
  209FIC    C26 4219   1.093   3.098   2.096  0.0000  0.0000  0.0000
  209FIC    C27 4220   1.128   2.963   2.068  0.0000  0.0000  0.0000
  209FIC    C28 4221   1.104   2.877   1.952  0.0000  0.0000  0.0000
  209FIC    C29 4222   1.044   2.920   1.836  0.0000  0.0000  0.0000
  209FIC    C30 4223   0.996   3.063   1.823  0.0000  0.0000  0.0000
  209FIC    C31 4224   1.027   2.842   1.717  0.0000  0.0000  0.0000
  210FIC     F1 4225   2.177   1.797   3.155  0.0000  0.0000  0.0000
  210FIC     F2 4226   2.224   1.554   3.236  0.0000  0.0000  0.0000
  210FIC     O1 4227   1.865   1.703   2.733  0.0000  0.0000  0.0000
  210FIC     N5 4228   2.047   1.134   3.086  0.0000  0.0000  0.0000
  210FIC     N6 4229   1.857   1.079   2.708  0.0000  0.0000  0.0000
  210FIC    C19 4230   1.797   1.416   2.665  0.0000  0.0000  0.0000
  210FIC    C20 4231   1.877   1.462   2.764  0.0000  0.0000  0.0000
  210FIC    C21 4232   1.908   1.609   2.797  0.0000  0.0000  0.0000
  210FIC    C22 4233   1.987   1.611   2.912  0.0000  0.0000  0.0000
  210FIC    C23 4234   2.044   1.721   2.979  0.0000  0.0000  0.0000
  210FIC    C24 4235   2.120   1.704   3.088  0.0000  0.0000  0.0000
  210FIC    C25 4236   2.149   1.575   3.131  0.0000  0.0000  0.0000
  210FIC    C26 4237   2.093   1.456   3.072  0.0000  0.0000  0.0000
  210FIC    C27 4238   2.010   1.478   2.960  0.0000  0.0000  0.0000
  210FIC    C28 4239   1.944   1.388   2.867  0.0000  0.0000  0.0000
  210FIC    C29 4240   1.948   1.249   2.879  0.0000  0.0000  0.0000
  210FIC    C30 4241   2.005   1.184   2.998  0.0000  0.0000  0.0000
  210FIC    C31 4242   1.892   1.155   2.786  0.0000  0.0000  0.0000
  211BTD     S2 4243   0.239  -1.605  -0.198  0.0000  0.0000  0.0000
  211BTD     N1 4244   0.252  -1.769  -0.193  0.0000  0.0000  0.0000
  211BTD     N2 4245   0.304  -1.565  -0.055  0.0000  0.0000  0.0000
  211BTD     N3 4246   0.505  -1.812   0.294  0.0000  0.0000  0.0000
  211BTD     N4 4247   0.449  -2.084   0.102  0.0000  0.0000  0.0000
  211BTD     C5 4248   0.348  -1.925  -0.037  0.0000  0.0000  0.0000
  211BTD     C6 4249   0.308  -1.797  -0.081  0.0000  0.0000  0.0000
  211BTD     C7 4250   0.337  -1.682  -0.001  0.0000  0.0000  0.0000
  211BTD     C8 4251   0.404  -1.699   0.124  0.0000  0.0000  0.0000
  211BTD    C15 4252   0.440  -1.827   0.174  0.0000  0.0000  0.0000
  211BTD    C16 4253   0.421  -1.948   0.088  0.0000  0.0000  0.0000
  211BTD    C43 4254   0.552  -2.149   0.179  0.0000  0.0000  0.0000
  211BTD    C44 4255   0.694  -2.097   0.142  0.0000  0.0000  0.0000
  211BTD    C45 4256   0.732  -2.072  -0.007  0.0000  0.0000  0.0000
  211BTD    C46 4257   0.738  -2.204  -0.089  0.0000  0.0000  0.0000
  211BTD    C47 4258   0.810  -2.177   0.208  0.0000  0.0000  0.0000
  211BTD    C48 4259   0.827  -2.171   0.362  0.0000  0.0000  0.0000
  211BTD    C49 4260   0.916  -2.277   0.434  0.0000  0.0000  0.0000
  211BTD    C50 4261   0.895  -2.302   0.586  0.0000  0.0000  0.0000
  211BTD    C75 4262   0.517  -1.910   0.413  0.0000  0.0000  0.0000
  211BTD    C76 4263   0.379  -1.974   0.448  0.0000  0.0000  0.0000
  211BTD    C77 4264   0.380  -2.060   0.577  0.0000  0.0000  0.0000
  211BTD    C78 4265   0.525  -2.028   0.622  0.0000  0.0000  0.0000
  211BTD    C79 4266   0.258  -1.880   0.466  0.0000  0.0000  0.0000
  211BTD    C80 4267   0.279  -1.748   0.545  0.0000  0.0000  0.0000
  211BTD    C81 4268   0.183  -1.629   0.521  0.0000  0.0000  0.0000
  211BTD    C82 4269   0.051  -1.624   0.604  0.0000  0.0000  0.0000
  212TTP     S1 4270   0.273  -2.124  -0.236  0.0000  0.0000  0.0000
  212TTP     S5 4271   0.456  -2.431  -0.017  0.0000  0.0000  0.0000
  212TTP     C1 4272   0.397  -2.501  -0.163  0.0000  0.0000  0.0000
  212TTP     C2 4273   0.336  -2.410  -0.241  0.0000  0.0000  0.0000
  212TTP     C3 4274   0.334  -2.279  -0.189  0.0000  0.0000  0.0000
  212TTP     C4 4275   0.339  -2.053  -0.094  0.0000  0.0000  0.0000
  212TTP    C17 4276   0.399  -2.145  -0.009  0.0000  0.0000  0.0000
  212TTP    C18 4277   0.400  -2.278  -0.061  0.0000  0.0000  0.0000
  212TTP    C32 4278   0.278  -2.434  -0.382  0.0000  0.0000  0.0000
  212TTP    C33 4279   0.126  -2.419  -0.405  0.0000  0.0000  0.0000
  212TTP    C34 4280   0.068  -2.454  -0.544  0.0000  0.0000  0.0000
  212TTP    C35 4281  -0.085  -2.448  -0.515  0.0000  0.0000  0.0000
  212TTP    C36 4282  -0.131  -2.595  -0.491  0.0000  0.0000  0.0000
  212TTP    C37 4283  -0.063  -2.708  -0.573  0.0000  0.0000  0.0000
  212TTP    C38 4284  -0.147  -2.828  -0.625  0.0000  0.0000  0.0000
  212TTP    C39 4285  -0.037  -2.873  -0.723  0.0000  0.0000  0.0000
  212TTP    C40 4286  -0.082  -2.914  -0.867  0.0000  0.0000  0.0000
  212TTP    C41 4287  -0.001  -3.022  -0.944  0.0000  0.0000  0.0000
  212TTP    C42 4288  -0.063  -3.088  -1.070  0.0000  0.0000  0.0000
  213TTP     S1 4289   0.437  -1.434   0.248  0.0000  0.0000  0.0000
  213TTP     S5 4290   0.659  -1.609   0.559  0.0000  0.0000  0.0000
  213TTP     C1 4291   0.665  -1.434   0.576  0.0000  0.0000  0.0000
  213TTP     C2 4292   0.594  -1.369   0.480  0.0000  0.0000  0.0000
  213TTP     C3 4293   0.533  -1.457   0.391  0.0000  0.0000  0.0000
  213TTP     C4 4294   0.439  -1.604   0.222  0.0000  0.0000  0.0000
  213TTP    C17 4295   0.502  -1.676   0.325  0.0000  0.0000  0.0000
  213TTP    C18 4296   0.561  -1.591   0.420  0.0000  0.0000  0.0000
  213TTP    C32 4297   0.576  -1.215   0.471  0.0000  0.0000  0.0000
  213TTP    C33 4298   0.458  -1.162   0.559  0.0000  0.0000  0.0000
  213TTP    C34 4299   0.440  -1.009   0.554  0.0000  0.0000  0.0000
  213TTP    C35 4300   0.412  -0.966   0.407  0.0000  0.0000  0.0000
  213TTP    C36 4301   0.398  -0.815   0.375  0.0000  0.0000  0.0000
  213TTP    C37 4302   0.521  -0.721   0.389  0.0000  0.0000  0.0000
  213TTP    C38 4303   0.435  -0.594   0.361  0.0000  0.0000  0.0000
  213TTP    C39 4304   0.529  -0.494   0.432  0.0000  0.0000  0.0000
  213TTP    C40 4305   0.535  -0.496   0.588  0.0000  0.0000  0.0000
  213TTP    C41 4306   0.642  -0.583   0.659  0.0000  0.0000  0.0000
  213TTP    C42 4307   0.607  -0.727   0.709  0.0000  0.0000  0.0000
  214FIC     F1 4308   0.729  -3.150   0.209  0.0000  0.0000  0.0000
  214FIC     F2 4309   0.688  -3.286  -0.020  0.0000  0.0000  0.0000
  214FIC     O1 4310   0.519  -2.674   0.072  0.0000  0.0000  0.0000
  214FIC     N5 4311   0.480  -3.157  -0.429  0.0000  0.0000  0.0000
  214FIC     N6 4312   0.309  -2.760  -0.518  0.0000  0.0000  0.0000
  214FIC    C19 4313   0.414  -2.636  -0.205  0.0000  0.0000  0.0000
  214FIC    C20 4314   0.466  -2.750  -0.153  0.0000  0.0000  0.0000
  214FIC    C21 4315   0.521  -2.761  -0.019  0.0000  0.0000  0.0000
  214FIC    C22 4316   0.567  -2.900  -0.004  0.0000  0.0000  0.0000
  214FIC    C23 4317   0.628  -2.954   0.113  0.0000  0.0000  0.0000
  214FIC    C24 4318   0.670  -3.087   0.092  0.0000  0.0000  0.0000
  214FIC    C25 4319   0.650  -3.155  -0.020  0.0000  0.0000  0.0000
  214FIC    C26 4320   0.593  -3.101  -0.125  0.0000  0.0000  0.0000
  214FIC    C27 4321   0.550  -2.973  -0.112  0.0000  0.0000  0.0000
  214FIC    C28 4322   0.482  -2.881  -0.213  0.0000  0.0000  0.0000
  214FIC    C29 4323   0.440  -2.909  -0.354  0.0000  0.0000  0.0000
  214FIC    C30 4324   0.461  -3.053  -0.393  0.0000  0.0000  0.0000
  214FIC    C31 4325   0.373  -2.823  -0.449  0.0000  0.0000  0.0000
  215FIC     F1 4326   1.124  -1.706   1.189  0.0000  0.0000  0.0000
  215FIC     F2 4327   1.178  -1.455   1.252  0.0000  0.0000  0.0000
  215FIC     O1 4328   0.803  -1.643   0.773  0.0000  0.0000  0.0000
  215FIC     N5 4329   1.029  -1.041   1.046  0.0000  0.0000  0.0000
  215FIC     N6 4330   0.835  -1.024   0.672  0.0000  0.0000  0.0000
  215FIC    C19 4331   0.742  -1.363   0.674  0.0000  0.0000  0.0000
  215FIC    C20 4332   0.823  -1.400   0.776  0.0000  0.0000  0.0000
  215FIC    C21 4333   0.848  -1.541   0.819  0.0000  0.0000  0.0000
  215FIC    C22 4334   0.933  -1.532   0.939  0.0000  0.0000  0.0000
  215FIC    C23 4335   0.985  -1.639   1.012  0.0000  0.0000  0.0000
  215FIC    C24 4336   1.061  -1.608   1.116  0.0000  0.0000  0.0000
  215FIC    C25 4337   1.093  -1.475   1.149  0.0000  0.0000  0.0000
  215FIC    C26 4338   1.045  -1.372   1.075  0.0000  0.0000  0.0000
  215FIC    C27 4339   0.963  -1.401   0.970  0.0000  0.0000  0.0000
  215FIC    C28 4340   0.899  -1.315   0.866  0.0000  0.0000  0.0000
  215FIC    C29 4341   0.912  -1.177   0.861  0.0000  0.0000  0.0000
  215FIC    C30 4342   0.977  -1.103   0.963  0.0000  0.0000  0.0000
  215FIC    C31 4343   0.868  -1.094   0.752  0.0000  0.0000  0.0000
  216BTD     S2 4344   1.365  -1.597   2.197  0.0000  0.0000  0.0000
  216BTD     N1 4345   1.376  -1.758   2.186  0.0000  0.0000  0.0000
  216BTD     N2 4346   1.286  -1.565   2.060  0.0000  0.0000  0.0000
  216BTD     N3 4347   1.117  -1.827   1.698  0.0000  0.0000  0.0000
  216BTD     N4 4348   1.230  -2.087   1.876  0.0000  0.0000  0.0000
  216BTD     C5 4349   1.300  -1.923   2.017  0.0000  0.0000  0.0000
  216BTD     C6 4350   1.317  -1.793   2.073  0.0000  0.0000  0.0000
  216BTD     C7 4351   1.266  -1.682   2.000  0.0000  0.0000  0.0000
  216BTD     C8 4352   1.205  -1.703   1.875  0.0000  0.0000  0.0000
  216BTD    C15 4353   1.186  -1.836   1.822  0.0000  0.0000  0.0000
  216BTD    C16 4354   1.234  -1.948   1.899  0.0000  0.0000  0.0000
  216BTD    C43 4355   1.142  -2.164   1.787  0.0000  0.0000  0.0000
  216BTD    C44 4356   0.989  -2.154   1.817  0.0000  0.0000  0.0000
  216BTD    C45 4357   0.917  -2.253   1.723  0.0000  0.0000  0.0000
  216BTD    C46 4358   0.767  -2.211   1.724  0.0000  0.0000  0.0000
  216BTD    C47 4359   0.956  -2.181   1.967  0.0000  0.0000  0.0000
  216BTD    C48 4360   0.942  -2.322   2.030  0.0000  0.0000  0.0000
  216BTD    C49 4361   0.928  -2.290   2.181  0.0000  0.0000  0.0000
  216BTD    C50 4362   0.831  -2.244   2.295  0.0000  0.0000  0.0000
  216BTD    C75 4363   1.130  -1.915   1.582  0.0000  0.0000  0.0000
  216BTD    C76 4364   1.279  -1.945   1.546  0.0000  0.0000  0.0000
  216BTD    C77 4365   1.288  -2.033   1.419  0.0000  0.0000  0.0000
  216BTD    C78 4366   1.429  -2.086   1.384  0.0000  0.0000  0.0000
  216BTD    C79 4367   1.364  -1.818   1.526  0.0000  0.0000  0.0000
  216BTD    C80 4368   1.337  -1.729   1.402  0.0000  0.0000  0.0000
  216BTD    C81 4369   1.429  -1.604   1.407  0.0000  0.0000  0.0000
  216BTD    C82 4370   1.398  -1.478   1.494  0.0000  0.0000  0.0000
  217TTP     S1 4371   1.427  -2.113   2.204  0.0000  0.0000  0.0000
  217TTP     S5 4372   1.328  -2.432   1.947  0.0000  0.0000  0.0000
  217TTP     C1 4373   1.425  -2.495   2.079  0.0000  0.0000  0.0000
  217TTP     C2 4374   1.463  -2.398   2.167  0.0000  0.0000  0.0000
  217TTP     C3 4375   1.407  -2.275   2.134  0.0000  0.0000  0.0000
  217TTP     C4 4376   1.342  -2.052   2.073  0.0000  0.0000  0.0000
  217TTP    C17 4377   1.291  -2.143   1.982  0.0000  0.0000  0.0000
  217TTP    C18 4378   1.335  -2.277   2.022  0.0000  0.0000  0.0000
  217TTP    C32 4379   1.548  -2.415   2.295  0.0000  0.0000  0.0000
  217TTP    C33 4380   1.458  -2.449   2.417  0.0000  0.0000  0.0000
  217TTP    C34 4381   1.551  -2.472   2.538  0.0000  0.0000  0.0000
  217TTP    C35 4382   1.492  -2.543   2.663  0.0000  0.0000  0.0000
  217TTP    C36 4383   1.587  -2.637   2.744  0.0000  0.0000  0.0000
  217TTP    C37 4384   1.706  -2.573   2.821  0.0000  0.0000  0.0000
  217TTP    C38 4385   1.787  -2.441   2.833  0.0000  0.0000  0.0000
  217TTP    C39 4386   1.869  -2.391   2.710  0.0000  0.0000  0.0000
  217TTP    C40 4387   1.928  -2.493   2.610  0.0000  0.0000  0.0000
  217TTP    C41 4388   1.915  -2.467   2.457  0.0000  0.0000  0.0000
  217TTP    C42 4389   1.933  -2.588   2.362  0.0000  0.0000  0.0000
  218TTP     S1 4390   1.122  -1.444   1.760  0.0000  0.0000  0.0000
  218TTP     S5 4391   0.920  -1.647   1.452  0.0000  0.0000  0.0000
  218TTP     C1 4392   0.889  -1.474   1.430  0.0000  0.0000  0.0000
  218TTP     C2 4393   0.954  -1.400   1.531  0.0000  0.0000  0.0000
  218TTP     C3 4394   1.031  -1.480   1.615  0.0000  0.0000  0.0000
  218TTP     C4 4395   1.145  -1.616   1.781  0.0000  0.0000  0.0000
  218TTP    C17 4396   1.091  -1.691   1.677  0.0000  0.0000  0.0000
  218TTP    C18 4397   1.021  -1.614   1.582  0.0000  0.0000  0.0000
  218TTP    C32 4398   0.961  -1.246   1.538  0.0000  0.0000  0.0000
  218TTP    C33 4399   1.067  -1.179   1.444  0.0000  0.0000  0.0000
  218TTP    C34 4400   1.073  -1.024   1.460  0.0000  0.0000  0.0000
  218TTP    C35 4401   1.182  -0.974   1.362  0.0000  0.0000  0.0000
  218TTP    C36 4402   1.166  -0.820   1.356  0.0000  0.0000  0.0000
  218TTP    C37 4403   1.199  -0.782   1.504  0.0000  0.0000  0.0000
  218TTP    C38 4404   1.205  -0.628   1.533  0.0000  0.0000  0.0000
  218TTP    C39 4405   1.267  -0.577   1.665  0.0000  0.0000  0.0000
  218TTP    C40 4406   1.176  -0.509   1.772  0.0000  0.0000  0.0000
  218TTP    C41 4407   1.101  -0.378   1.738  0.0000  0.0000  0.0000
  218TTP    C42 4408   1.079  -0.271   1.847  0.0000  0.0000  0.0000
  219FIC     F1 4409   1.395  -3.122   1.555  0.0000  0.0000  0.0000
  219FIC     F2 4410   1.504  -3.276   1.747  0.0000  0.0000  0.0000
  219FIC     O1 4411   1.341  -2.663   1.816  0.0000  0.0000  0.0000
  219FIC     N5 4412   1.657  -3.163   2.192  0.0000  0.0000  0.0000
  219FIC     N6 4413   1.609  -2.782   2.371  0.0000  0.0000  0.0000
  219FIC    C19 4414   1.469  -2.632   2.089  0.0000  0.0000  0.0000
  219FIC    C20 4415   1.460  -2.743   2.008  0.0000  0.0000  0.0000
  219FIC    C21 4416   1.397  -2.751   1.881  0.0000  0.0000  0.0000
  219FIC    C22 4417   1.422  -2.885   1.827  0.0000  0.0000  0.0000
  219FIC    C23 4418   1.392  -2.935   1.696  0.0000  0.0000  0.0000
  219FIC    C24 4419   1.421  -3.064   1.672  0.0000  0.0000  0.0000
  219FIC    C25 4420   1.481  -3.143   1.781  0.0000  0.0000  0.0000
  219FIC    C26 4421   1.517  -3.098   1.898  0.0000  0.0000  0.0000
  219FIC    C27 4422   1.482  -2.963   1.926  0.0000  0.0000  0.0000
  219FIC    C28 4423   1.506  -2.877   2.042  0.0000  0.0000  0.0000
  219FIC    C29 4424   1.566  -2.920   2.158  0.0000  0.0000  0.0000
  219FIC    C30 4425   1.614  -3.063   2.171  0.0000  0.0000  0.0000
  219FIC    C31 4426   1.583  -2.842   2.277  0.0000  0.0000  0.0000
  220FIC     F1 4427   0.433  -1.797   0.839  0.0000  0.0000  0.0000
  220FIC     F2 4428   0.386  -1.554   0.758  0.0000  0.0000  0.0000
  220FIC     O1 4429   0.745  -1.703   1.261  0.0000  0.0000  0.0000
  220FIC     N5 4430   0.563  -1.134   0.908  0.0000  0.0000  0.0000
  220FIC     N6 4431   0.753  -1.079   1.286  0.0000  0.0000  0.0000
  220FIC    C19 4432   0.813  -1.416   1.329  0.0000  0.0000  0.0000
  220FIC    C20 4433   0.733  -1.462   1.230  0.0000  0.0000  0.0000
  220FIC    C21 4434   0.702  -1.609   1.197  0.0000  0.0000  0.0000
  220FIC    C22 4435   0.623  -1.611   1.082  0.0000  0.0000  0.0000
  220FIC    C23 4436   0.566  -1.721   1.015  0.0000  0.0000  0.0000
  220FIC    C24 4437   0.490  -1.704   0.906  0.0000  0.0000  0.0000
  220FIC    C25 4438   0.461  -1.575   0.863  0.0000  0.0000  0.0000
  220FIC    C26 4439   0.517  -1.456   0.922  0.0000  0.0000  0.0000
  220FIC    C27 4440   0.600  -1.478   1.034  0.0000  0.0000  0.0000
  220FIC    C28 4441   0.666  -1.388   1.127  0.0000  0.0000  0.0000
  220FIC    C29 4442   0.662  -1.249   1.115  0.0000  0.0000  0.0000
  220FIC    C30 4443   0.605  -1.184   0.996  0.0000  0.0000  0.0000
  220FIC    C31 4444   0.718  -1.155   1.208  0.0000  0.0000  0.0000
  221BTD     S2 4445   0.135   4.495   0.801  0.0000  0.0000  0.0000
  221BTD     N1 4446   0.149   4.660   0.805  0.0000  0.0000  0.0000
  221BTD     N2 4447   0.200   4.456   0.943  0.0000  0.0000  0.0000
  221BTD     N3 4448   0.402   4.703   1.293  0.0000  0.0000  0.0000
  221BTD     N4 4449   0.345   4.974   1.100  0.0000  0.0000  0.0000
  221BTD     C5 4450   0.245   4.815   0.962  0.0000  0.0000  0.0000
  221BTD     C6 4451   0.205   4.687   0.918  0.0000  0.0000  0.0000
  221BTD     C7 4452   0.234   4.573   0.998  0.0000  0.0000  0.0000
  221BTD     C8 4453   0.300   4.590   1.122  0.0000  0.0000  0.0000
  221BTD    C15 4454   0.336   4.717   1.172  0.0000  0.0000  0.0000
  221BTD    C16 4455   0.318   4.839   1.087  0.0000  0.0000  0.0000
  221BTD    C43 4456   0.449   5.040   1.177  0.0000  0.0000  0.0000
  221BTD    C44 4457   0.591   4.988   1.141  0.0000  0.0000  0.0000
  221BTD    C45 4458   0.629   4.963   0.991  0.0000  0.0000  0.0000
  221BTD    C46 4459   0.634   5.094   0.910  0.0000  0.0000  0.0000
  221BTD    C47 4460   0.706   5.068   1.207  0.0000  0.0000  0.0000
  221BTD    C48 4461   0.724   5.062   1.360  0.0000  0.0000  0.0000
  221BTD    C49 4462   0.812   5.168   1.432  0.0000  0.0000  0.0000
  221BTD    C50 4463   0.792   5.192   1.584  0.0000  0.0000  0.0000
  221BTD    C75 4464   0.413   4.801   1.411  0.0000  0.0000  0.0000
  221BTD    C76 4465   0.275   4.864   1.446  0.0000  0.0000  0.0000
  221BTD    C77 4466   0.277   4.950   1.575  0.0000  0.0000  0.0000
  221BTD    C78 4467   0.421   4.919   1.621  0.0000  0.0000  0.0000
  221BTD    C79 4468   0.154   4.770   1.465  0.0000  0.0000  0.0000
  221BTD    C80 4469   0.175   4.639   1.544  0.0000  0.0000  0.0000
  221BTD    C81 4470   0.079   4.519   1.519  0.0000  0.0000  0.0000
  221BTD    C82 4471  -0.052   4.515   1.603  0.0000  0.0000  0.0000
  222TTP     S1 4472   0.170   5.015   0.763  0.0000  0.0000  0.0000
  222TTP     S5 4473   0.353   5.322   0.981  0.0000  0.0000  0.0000
  222TTP     C1 4474   0.293   5.392   0.835  0.0000  0.0000  0.0000
  222TTP     C2 4475   0.233   5.300   0.758  0.0000  0.0000  0.0000
  222TTP     C3 4476   0.231   5.170   0.809  0.0000  0.0000  0.0000
  222TTP     C4 4477   0.235   4.944   0.905  0.0000  0.0000  0.0000
  222TTP    C17 4478   0.296   5.036   0.989  0.0000  0.0000  0.0000
  222TTP    C18 4479   0.297   5.168   0.937  0.0000  0.0000  0.0000
  222TTP    C32 4480   0.175   5.325   0.616  0.0000  0.0000  0.0000
  222TTP    C33 4481   0.022   5.310   0.594  0.0000  0.0000  0.0000
  222TTP    C34 4482  -0.036   5.345   0.454  0.0000  0.0000  0.0000
  222TTP    C35 4483  -0.188   5.339   0.483  0.0000  0.0000  0.0000
  222TTP    C36 4484  -0.235   5.485   0.508  0.0000  0.0000  0.0000
  222TTP    C37 4485  -0.166   5.599   0.425  0.0000  0.0000  0.0000
  222TTP    C38 4486  -0.251   5.718   0.374  0.0000  0.0000  0.0000
  222TTP    C39 4487  -0.141   5.763   0.276  0.0000  0.0000  0.0000
  222TTP    C40 4488  -0.185   5.805   0.132  0.0000  0.0000  0.0000
  222TTP    C41 4489  -0.104   5.913   0.054  0.0000  0.0000  0.0000
  222TTP    C42 4490  -0.167   5.978  -0.072  0.0000  0.0000  0.0000
  223TTP     S1 4491   0.334   4.324   1.247  0.0000  0.0000  0.0000
  223TTP     S5 4492   0.556   4.500   1.557  0.0000  0.0000  0.0000
  223TTP     C1 4493   0.562   4.324   1.575  0.0000  0.0000  0.0000
  223TTP     C2 4494   0.491   4.259   1.479  0.0000  0.0000  0.0000
  223TTP     C3 4495   0.430   4.347   1.390  0.0000  0.0000  0.0000
  223TTP     C4 4496   0.336   4.495   1.221  0.0000  0.0000  0.0000
  223TTP    C17 4497   0.399   4.566   1.323  0.0000  0.0000  0.0000
  223TTP    C18 4498   0.457   4.482   1.419  0.0000  0.0000  0.0000
  223TTP    C32 4499   0.472   4.105   1.469  0.0000  0.0000  0.0000
  223TTP    C33 4500   0.355   4.052   1.557  0.0000  0.0000  0.0000
  223TTP    C34 4501   0.337   3.899   1.552  0.0000  0.0000  0.0000
  223TTP    C35 4502   0.308   3.856   1.406  0.0000  0.0000  0.0000
  223TTP    C36 4503   0.295   3.705   1.373  0.0000  0.0000  0.0000
  223TTP    C37 4504   0.418   3.612   1.388  0.0000  0.0000  0.0000
  223TTP    C38 4505   0.332   3.485   1.359  0.0000  0.0000  0.0000
  223TTP    C39 4506   0.425   3.384   1.431  0.0000  0.0000  0.0000
  223TTP    C40 4507   0.432   3.387   1.586  0.0000  0.0000  0.0000
  223TTP    C41 4508   0.538   3.474   1.658  0.0000  0.0000  0.0000
  223TTP    C42 4509   0.504   3.617   1.707  0.0000  0.0000  0.0000
  224FIC     F1 4510   0.626   6.041   1.208  0.0000  0.0000  0.0000
  224FIC     F2 4511   0.585   6.176   0.979  0.0000  0.0000  0.0000
  224FIC     O1 4512   0.416   5.565   1.071  0.0000  0.0000  0.0000
  224FIC     N5 4513   0.377   6.048   0.569  0.0000  0.0000  0.0000
  224FIC     N6 4514   0.205   5.651   0.481  0.0000  0.0000  0.0000
  224FIC    C19 4515   0.310   5.526   0.793  0.0000  0.0000  0.0000
  224FIC    C20 4516   0.362   5.640   0.845  0.0000  0.0000  0.0000
  224FIC    C21 4517   0.417   5.651   0.979  0.0000  0.0000  0.0000
  224FIC    C22 4518   0.464   5.790   0.995  0.0000  0.0000  0.0000
  224FIC    C23 4519   0.525   5.844   1.112  0.0000  0.0000  0.0000
  224FIC    C24 4520   0.566   5.978   1.090  0.0000  0.0000  0.0000
  224FIC    C25 4521   0.547   6.045   0.978  0.0000  0.0000  0.0000
  224FIC    C26 4522   0.489   5.991   0.873  0.0000  0.0000  0.0000
  224FIC    C27 4523   0.446   5.863   0.886  0.0000  0.0000  0.0000
  224FIC    C28 4524   0.378   5.772   0.786  0.0000  0.0000  0.0000
  224FIC    C29 4525   0.336   5.800   0.644  0.0000  0.0000  0.0000
  224FIC    C30 4526   0.357   5.944   0.605  0.0000  0.0000  0.0000
  224FIC    C31 4527   0.270   5.714   0.549  0.0000  0.0000  0.0000
  225FIC     F1 4528   1.020   4.597   2.188  0.0000  0.0000  0.0000
  225FIC     F2 4529   1.075   4.345   2.250  0.0000  0.0000  0.0000
  225FIC     O1 4530   0.700   4.533   1.771  0.0000  0.0000  0.0000
  225FIC     N5 4531   0.926   3.931   2.044  0.0000  0.0000  0.0000
  225FIC     N6 4532   0.731   3.915   1.671  0.0000  0.0000  0.0000
  225FIC    C19 4533   0.638   4.254   1.673  0.0000  0.0000  0.0000
  225FIC    C20 4534   0.720   4.291   1.775  0.0000  0.0000  0.0000
  225FIC    C21 4535   0.745   4.431   1.817  0.0000  0.0000  0.0000
  225FIC    C22 4536   0.829   4.423   1.937  0.0000  0.0000  0.0000
  225FIC    C23 4537   0.882   4.529   2.010  0.0000  0.0000  0.0000
  225FIC    C24 4538   0.957   4.499   2.115  0.0000  0.0000  0.0000
  225FIC    C25 4539   0.990   4.366   2.147  0.0000  0.0000  0.0000
  225FIC    C26 4540   0.941   4.262   2.073  0.0000  0.0000  0.0000
  225FIC    C27 4541   0.860   4.291   1.969  0.0000  0.0000  0.0000
  225FIC    C28 4542   0.795   4.205   1.864  0.0000  0.0000  0.0000
  225FIC    C29 4543   0.809   4.067   1.860  0.0000  0.0000  0.0000
  225FIC    C30 4544   0.873   3.993   1.961  0.0000  0.0000  0.0000
  225FIC    C31 4545   0.764   3.985   1.751  0.0000  0.0000  0.0000
  226BTD     S2 4546   1.262   4.487   3.196  0.0000  0.0000  0.0000
  226BTD     N1 4547   1.272   4.648   3.185  0.0000  0.0000  0.0000
  226BTD     N2 4548   1.183   4.456   3.058  0.0000  0.0000  0.0000
  226BTD     N3 4549   1.013   4.718   2.697  0.0000  0.0000  0.0000
  226BTD     N4 4550   1.127   4.978   2.874  0.0000  0.0000  0.0000
  226BTD     C5 4551   1.197   4.814   3.016  0.0000  0.0000  0.0000
  226BTD     C6 4552   1.214   4.683   3.072  0.0000  0.0000  0.0000
  226BTD     C7 4553   1.163   4.573   2.998  0.0000  0.0000  0.0000
  226BTD     C8 4554   1.101   4.594   2.874  0.0000  0.0000  0.0000
  226BTD    C15 4555   1.082   4.727   2.821  0.0000  0.0000  0.0000
  226BTD    C16 4556   1.130   4.838   2.897  0.0000  0.0000  0.0000
  226BTD    C43 4557   1.038   5.055   2.786  0.0000  0.0000  0.0000
  226BTD    C44 4558   0.886   5.045   2.816  0.0000  0.0000  0.0000
  226BTD    C45 4559   0.813   5.144   2.721  0.0000  0.0000  0.0000
  226BTD    C46 4560   0.663   5.102   2.723  0.0000  0.0000  0.0000
  226BTD    C47 4561   0.853   5.071   2.965  0.0000  0.0000  0.0000
  226BTD    C48 4562   0.838   5.212   3.029  0.0000  0.0000  0.0000
  226BTD    C49 4563   0.824   5.181   3.180  0.0000  0.0000  0.0000
  226BTD    C50 4564   0.728   5.135   3.293  0.0000  0.0000  0.0000
  226BTD    C75 4565   1.027   4.805   2.580  0.0000  0.0000  0.0000
  226BTD    C76 4566   1.175   4.835   2.545  0.0000  0.0000  0.0000
  226BTD    C77 4567   1.184   4.923   2.418  0.0000  0.0000  0.0000
  226BTD    C78 4568   1.325   4.977   2.382  0.0000  0.0000  0.0000
  226BTD    C79 4569   1.261   4.708   2.524  0.0000  0.0000  0.0000
  226BTD    C80 4570   1.233   4.620   2.400  0.0000  0.0000  0.0000
  226BTD    C81 4571   1.325   4.494   2.406  0.0000  0.0000  0.0000
  226BTD    C82 4572   1.294   4.369   2.493  0.0000  0.0000  0.0000
  227TTP     S1 4573   1.323   5.004   3.202  0.0000  0.0000  0.0000
  227TTP     S5 4574   1.225   5.322   2.946  0.0000  0.0000  0.0000
  227TTP     C1 4575   1.321   5.386   3.077  0.0000  0.0000  0.0000
  227TTP     C2 4576   1.359   5.288   3.166  0.0000  0.0000  0.0000
  227TTP     C3 4577   1.304   5.166   3.132  0.0000  0.0000  0.0000
  227TTP     C4 4578   1.239   4.943   3.071  0.0000  0.0000  0.0000
  227TTP    C17 4579   1.188   5.033   2.980  0.0000  0.0000  0.0000
  227TTP    C18 4580   1.232   5.168   3.020  0.0000  0.0000  0.0000
  227TTP    C32 4581   1.445   5.306   3.294  0.0000  0.0000  0.0000
  227TTP    C33 4582   1.354   5.340   3.415  0.0000  0.0000  0.0000
  227TTP    C34 4583   1.447   5.363   3.537  0.0000  0.0000  0.0000
  227TTP    C35 4584   1.389   5.433   3.661  0.0000  0.0000  0.0000
  227TTP    C36 4585   1.483   5.527   3.742  0.0000  0.0000  0.0000
  227TTP    C37 4586   1.603   5.463   3.819  0.0000  0.0000  0.0000
  227TTP    C38 4587   1.683   5.331   3.831  0.0000  0.0000  0.0000
  227TTP    C39 4588   1.765   5.281   3.709  0.0000  0.0000  0.0000
  227TTP    C40 4589   1.824   5.384   3.608  0.0000  0.0000  0.0000
  227TTP    C41 4590   1.811   5.357   3.455  0.0000  0.0000  0.0000
  227TTP    C42 4591   1.830   5.479   3.360  0.0000  0.0000  0.0000
  228TTP     S1 4592   1.019   4.335   2.759  0.0000  0.0000  0.0000
  228TTP     S5 4593   0.817   4.538   2.450  0.0000  0.0000  0.0000
  228TTP     C1 4594   0.786   4.365   2.429  0.0000  0.0000  0.0000
  228TTP     C2 4595   0.850   4.291   2.530  0.0000  0.0000  0.0000
  228TTP     C3 4596   0.927   4.371   2.614  0.0000  0.0000  0.0000
  228TTP     C4 4597   1.042   4.506   2.780  0.0000  0.0000  0.0000
  228TTP    C17 4598   0.988   4.581   2.676  0.0000  0.0000  0.0000
  228TTP    C18 4599   0.917   4.504   2.580  0.0000  0.0000  0.0000
  228TTP    C32 4600   0.858   4.136   2.536  0.0000  0.0000  0.0000
  228TTP    C33 4601   0.963   4.069   2.443  0.0000  0.0000  0.0000
  228TTP    C34 4602   0.970   3.915   2.458  0.0000  0.0000  0.0000
  228TTP    C35 4603   1.079   3.864   2.360  0.0000  0.0000  0.0000
  228TTP    C36 4604   1.063   3.710   2.355  0.0000  0.0000  0.0000
  228TTP    C37 4605   1.096   3.672   2.502  0.0000  0.0000  0.0000
  228TTP    C38 4606   1.101   3.518   2.532  0.0000  0.0000  0.0000
  228TTP    C39 4607   1.163   3.468   2.664  0.0000  0.0000  0.0000
  228TTP    C40 4608   1.072   3.400   2.771  0.0000  0.0000  0.0000
  228TTP    C41 4609   0.997   3.269   2.736  0.0000  0.0000  0.0000
  228TTP    C42 4610   0.975   3.161   2.845  0.0000  0.0000  0.0000
  229FIC     F1 4611   1.292   6.012   2.554  0.0000  0.0000  0.0000
  229FIC     F2 4612   1.401   6.166   2.745  0.0000  0.0000  0.0000
  229FIC     O1 4613   1.237   5.553   2.814  0.0000  0.0000  0.0000
  229FIC     N5 4614   1.553   6.054   3.190  0.0000  0.0000  0.0000
  229FIC     N6 4615   1.505   5.673   3.369  0.0000  0.0000  0.0000
  229FIC    C19 4616   1.365   5.523   3.087  0.0000  0.0000  0.0000
  229FIC    C20 4617   1.356   5.634   3.007  0.0000  0.0000  0.0000
  229FIC    C21 4618   1.294   5.641   2.879  0.0000  0.0000  0.0000
  229FIC    C22 4619   1.318   5.776   2.825  0.0000  0.0000  0.0000
  229FIC    C23 4620   1.289   5.825   2.695  0.0000  0.0000  0.0000
  229FIC    C24 4621   1.317   5.954   2.670  0.0000  0.0000  0.0000
  229FIC    C25 4622   1.377   6.033   2.780  0.0000  0.0000  0.0000
  229FIC    C26 4623   1.413   5.989   2.896  0.0000  0.0000  0.0000
  229FIC    C27 4624   1.378   5.854   2.924  0.0000  0.0000  0.0000
  229FIC    C28 4625   1.402   5.767   3.040  0.0000  0.0000  0.0000
  229FIC    C29 4626   1.462   5.810   3.157  0.0000  0.0000  0.0000
  229FIC    C30 4627   1.510   5.954   3.169  0.0000  0.0000  0.0000
  229FIC    C31 4628   1.480   5.733   3.276  0.0000  0.0000  0.0000
  230FIC     F1 4629   0.329   4.687   1.837  0.0000  0.0000  0.0000
  230FIC     F2 4630   0.282   4.445   1.756  0.0000  0.0000  0.0000
  230FIC     O1 4631   0.641   4.593   2.260  0.0000  0.0000  0.0000
  230FIC     N5 4632   0.459   4.024   1.906  0.0000  0.0000  0.0000
  230FIC     N6 4633   0.650   3.969   2.284  0.0000  0.0000  0.0000
  230FIC    C19 4634   0.709   4.307   2.327  0.0000  0.0000  0.0000
  230FIC    C20 4635   0.630   4.353   2.228  0.0000  0.0000  0.0000
  230FIC    C21 4636   0.598   4.499   2.196  0.0000  0.0000  0.0000
  230FIC    C22 4637   0.519   4.501   2.080  0.0000  0.0000  0.0000
  230FIC    C23 4638   0.463   4.612   2.014  0.0000  0.0000  0.0000
  230FIC    C24 4639   0.387   4.595   1.904  0.0000  0.0000  0.0000
  230FIC    C25 4640   0.358   4.466   1.862  0.0000  0.0000  0.0000
  230FIC    C26 4641   0.413   4.347   1.920  0.0000  0.0000  0.0000
  230FIC    C27 4642   0.496   4.368   2.033  0.0000  0.0000  0.0000
  230FIC    C28 4643   0.563   4.279   2.125  0.0000  0.0000  0.0000
  230FIC    C29 4644   0.558   4.139   2.113  0.0000  0.0000  0.0000
  230FIC    C30 4645   0.501   4.075   1.994  0.0000  0.0000  0.0000
  230FIC    C31 4646   0.614   4.045   2.206  0.0000  0.0000  0.0000
  231BTD     S2 4647   2.475  -4.495   3.193  0.0000  0.0000  0.0000
  231BTD     N1 4648   2.461  -4.660   3.189  0.0000  0.0000  0.0000
  231BTD     N2 4649   2.410  -4.456   3.051  0.0000  0.0000  0.0000
  231BTD     N3 4650   2.208  -4.703   2.701  0.0000  0.0000  0.0000
  231BTD     N4 4651   2.265  -4.974   2.894  0.0000  0.0000  0.0000
  231BTD     C5 4652   2.365  -4.815   3.032  0.0000  0.0000  0.0000
  231BTD     C6 4653   2.405  -4.687   3.076  0.0000  0.0000  0.0000
  231BTD     C7 4654   2.376  -4.573   2.996  0.0000  0.0000  0.0000
  231BTD     C8 4655   2.310  -4.590   2.872  0.0000  0.0000  0.0000
  231BTD    C15 4656   2.274  -4.717   2.822  0.0000  0.0000  0.0000
  231BTD    C16 4657   2.292  -4.839   2.907  0.0000  0.0000  0.0000
  231BTD    C43 4658   2.161  -5.040   2.817  0.0000  0.0000  0.0000
  231BTD    C44 4659   2.019  -4.988   2.853  0.0000  0.0000  0.0000
  231BTD    C45 4660   1.981  -4.963   3.003  0.0000  0.0000  0.0000
  231BTD    C46 4661   1.976  -5.094   3.084  0.0000  0.0000  0.0000
  231BTD    C47 4662   1.904  -5.068   2.787  0.0000  0.0000  0.0000
  231BTD    C48 4663   1.886  -5.062   2.634  0.0000  0.0000  0.0000
  231BTD    C49 4664   1.798  -5.168   2.562  0.0000  0.0000  0.0000
  231BTD    C50 4665   1.818  -5.192   2.410  0.0000  0.0000  0.0000
  231BTD    C75 4666   2.197  -4.801   2.583  0.0000  0.0000  0.0000
  231BTD    C76 4667   2.335  -4.864   2.548  0.0000  0.0000  0.0000
  231BTD    C77 4668   2.333  -4.950   2.419  0.0000  0.0000  0.0000
  231BTD    C78 4669   2.189  -4.919   2.373  0.0000  0.0000  0.0000
  231BTD    C79 4670   2.456  -4.770   2.529  0.0000  0.0000  0.0000
  231BTD    C80 4671   2.435  -4.639   2.450  0.0000  0.0000  0.0000
  231BTD    C81 4672   2.531  -4.519   2.475  0.0000  0.0000  0.0000
  231BTD    C82 4673   2.662  -4.515   2.391  0.0000  0.0000  0.0000
  232TTP     S1 4674   2.440  -5.015   3.231  0.0000  0.0000  0.0000
  232TTP     S5 4675   2.257  -5.322   3.013  0.0000  0.0000  0.0000
  232TTP     C1 4676   2.317  -5.392   3.159  0.0000  0.0000  0.0000
  232TTP     C2 4677   2.377  -5.300   3.236  0.0000  0.0000  0.0000
  232TTP     C3 4678   2.379  -5.170   3.185  0.0000  0.0000  0.0000
  232TTP     C4 4679   2.375  -4.944   3.089  0.0000  0.0000  0.0000
  232TTP    C17 4680   2.314  -5.036   3.005  0.0000  0.0000  0.0000
  232TTP    C18 4681   2.313  -5.168   3.057  0.0000  0.0000  0.0000
  232TTP    C32 4682   2.435  -5.325   3.378  0.0000  0.0000  0.0000
  232TTP    C33 4683   2.588  -5.310   3.400  0.0000  0.0000  0.0000
  232TTP    C34 4684   2.646  -5.345   3.540  0.0000  0.0000  0.0000
  232TTP    C35 4685   2.798  -5.339   3.511  0.0000  0.0000  0.0000
  232TTP    C36 4686   2.845  -5.485   3.486  0.0000  0.0000  0.0000
  232TTP    C37 4687   2.776  -5.599   3.569  0.0000  0.0000  0.0000
  232TTP    C38 4688   2.861  -5.718   3.620  0.0000  0.0000  0.0000
  232TTP    C39 4689   2.751  -5.763   3.718  0.0000  0.0000  0.0000
  232TTP    C40 4690   2.795  -5.805   3.862  0.0000  0.0000  0.0000
  232TTP    C41 4691   2.714  -5.913   3.940  0.0000  0.0000  0.0000
  232TTP    C42 4692   2.777  -5.978   4.066  0.0000  0.0000  0.0000
  233TTP     S1 4693   2.276  -4.324   2.747  0.0000  0.0000  0.0000
  233TTP     S5 4694   2.054  -4.500   2.437  0.0000  0.0000  0.0000
  233TTP     C1 4695   2.048  -4.324   2.419  0.0000  0.0000  0.0000
  233TTP     C2 4696   2.119  -4.259   2.515  0.0000  0.0000  0.0000
  233TTP     C3 4697   2.180  -4.347   2.604  0.0000  0.0000  0.0000
  233TTP     C4 4698   2.274  -4.495   2.773  0.0000  0.0000  0.0000
  233TTP    C17 4699   2.211  -4.566   2.671  0.0000  0.0000  0.0000
  233TTP    C18 4700   2.153  -4.482   2.575  0.0000  0.0000  0.0000
  233TTP    C32 4701   2.138  -4.105   2.525  0.0000  0.0000  0.0000
  233TTP    C33 4702   2.255  -4.052   2.437  0.0000  0.0000  0.0000
  233TTP    C34 4703   2.273  -3.899   2.442  0.0000  0.0000  0.0000
  233TTP    C35 4704   2.302  -3.856   2.588  0.0000  0.0000  0.0000
  233TTP    C36 4705   2.315  -3.705   2.621  0.0000  0.0000  0.0000
  233TTP    C37 4706   2.192  -3.612   2.606  0.0000  0.0000  0.0000
  233TTP    C38 4707   2.278  -3.485   2.635  0.0000  0.0000  0.0000
  233TTP    C39 4708   2.185  -3.384   2.563  0.0000  0.0000  0.0000
  233TTP    C40 4709   2.178  -3.387   2.408  0.0000  0.0000  0.0000
  233TTP    C41 4710   2.072  -3.474   2.336  0.0000  0.0000  0.0000
  233TTP    C42 4711   2.106  -3.617   2.287  0.0000  0.0000  0.0000
  234FIC     F1 4712   1.984  -6.041   2.786  0.0000  0.0000  0.0000
  234FIC     F2 4713   2.025  -6.176   3.015  0.0000  0.0000  0.0000
  234FIC     O1 4714   2.194  -5.565   2.923  0.0000  0.0000  0.0000
  234FIC     N5 4715   2.233  -6.048   3.425  0.0000  0.0000  0.0000
  234FIC     N6 4716   2.405  -5.651   3.513  0.0000  0.0000  0.0000
  234FIC    C19 4717   2.300  -5.526   3.201  0.0000  0.0000  0.0000
  234FIC    C20 4718   2.248  -5.640   3.149  0.0000  0.0000  0.0000
  234FIC    C21 4719   2.193  -5.651   3.015  0.0000  0.0000  0.0000
  234FIC    C22 4720   2.146  -5.790   2.999  0.0000  0.0000  0.0000
  234FIC    C23 4721   2.085  -5.844   2.882  0.0000  0.0000  0.0000
  234FIC    C24 4722   2.044  -5.978   2.904  0.0000  0.0000  0.0000
  234FIC    C25 4723   2.063  -6.045   3.016  0.0000  0.0000  0.0000
  234FIC    C26 4724   2.121  -5.991   3.121  0.0000  0.0000  0.0000
  234FIC    C27 4725   2.164  -5.863   3.108  0.0000  0.0000  0.0000
  234FIC    C28 4726   2.232  -5.772   3.208  0.0000  0.0000  0.0000
  234FIC    C29 4727   2.274  -5.800   3.350  0.0000  0.0000  0.0000
  234FIC    C30 4728   2.253  -5.944   3.389  0.0000  0.0000  0.0000
  234FIC    C31 4729   2.340  -5.714   3.445  0.0000  0.0000  0.0000
  235FIC     F1 4730   1.590  -4.597   1.806  0.0000  0.0000  0.0000
  235FIC     F2 4731   1.535  -4.345   1.744  0.0000  0.0000  0.0000
  235FIC     O1 4732   1.910  -4.533   2.223  0.0000  0.0000  0.0000
  235FIC     N5 4733   1.684  -3.931   1.950  0.0000  0.0000  0.0000
  235FIC     N6 4734   1.879  -3.915   2.323  0.0000  0.0000  0.0000
  235FIC    C19 4735   1.972  -4.254   2.321  0.0000  0.0000  0.0000
  235FIC    C20 4736   1.890  -4.291   2.219  0.0000  0.0000  0.0000
  235FIC    C21 4737   1.865  -4.431   2.177  0.0000  0.0000  0.0000
  235FIC    C22 4738   1.781  -4.423   2.057  0.0000  0.0000  0.0000
  235FIC    C23 4739   1.728  -4.529   1.984  0.0000  0.0000  0.0000
  235FIC    C24 4740   1.653  -4.499   1.879  0.0000  0.0000  0.0000
  235FIC    C25 4741   1.620  -4.366   1.847  0.0000  0.0000  0.0000
  235FIC    C26 4742   1.669  -4.262   1.921  0.0000  0.0000  0.0000
  235FIC    C27 4743   1.750  -4.291   2.025  0.0000  0.0000  0.0000
  235FIC    C28 4744   1.815  -4.205   2.130  0.0000  0.0000  0.0000
  235FIC    C29 4745   1.801  -4.067   2.134  0.0000  0.0000  0.0000
  235FIC    C30 4746   1.737  -3.993   2.033  0.0000  0.0000  0.0000
  235FIC    C31 4747   1.846  -3.985   2.243  0.0000  0.0000  0.0000
  236BTD     S2 4748   1.348  -4.487   0.798  0.0000  0.0000  0.0000
  236BTD     N1 4749   1.338  -4.648   0.809  0.0000  0.0000  0.0000
  236BTD     N2 4750   1.427  -4.456   0.936  0.0000  0.0000  0.0000
  236BTD     N3 4751   1.597  -4.718   1.297  0.0000  0.0000  0.0000
  236BTD     N4 4752   1.483  -4.978   1.120  0.0000  0.0000  0.0000
  236BTD     C5 4753   1.413  -4.814   0.978  0.0000  0.0000  0.0000
  236BTD     C6 4754   1.396  -4.683   0.922  0.0000  0.0000  0.0000
  236BTD     C7 4755   1.447  -4.573   0.996  0.0000  0.0000  0.0000
  236BTD     C8 4756   1.509  -4.594   1.120  0.0000  0.0000  0.0000
  236BTD    C15 4757   1.528  -4.727   1.173  0.0000  0.0000  0.0000
  236BTD    C16 4758   1.480  -4.838   1.097  0.0000  0.0000  0.0000
  236BTD    C43 4759   1.572  -5.055   1.208  0.0000  0.0000  0.0000
  236BTD    C44 4760   1.724  -5.045   1.178  0.0000  0.0000  0.0000
  236BTD    C45 4761   1.797  -5.144   1.273  0.0000  0.0000  0.0000
  236BTD    C46 4762   1.947  -5.102   1.271  0.0000  0.0000  0.0000
  236BTD    C47 4763   1.757  -5.071   1.029  0.0000  0.0000  0.0000
  236BTD    C48 4764   1.772  -5.212   0.965  0.0000  0.0000  0.0000
  236BTD    C49 4765   1.786  -5.181   0.814  0.0000  0.0000  0.0000
  236BTD    C50 4766   1.882  -5.135   0.701  0.0000  0.0000  0.0000
  236BTD    C75 4767   1.583  -4.805   1.414  0.0000  0.0000  0.0000
  236BTD    C76 4768   1.435  -4.835   1.449  0.0000  0.0000  0.0000
  236BTD    C77 4769   1.426  -4.923   1.576  0.0000  0.0000  0.0000
  236BTD    C78 4770   1.285  -4.977   1.612  0.0000  0.0000  0.0000
  236BTD    C79 4771   1.349  -4.708   1.470  0.0000  0.0000  0.0000
  236BTD    C80 4772   1.377  -4.620   1.594  0.0000  0.0000  0.0000
  236BTD    C81 4773   1.285  -4.494   1.588  0.0000  0.0000  0.0000
  236BTD    C82 4774   1.316  -4.369   1.501  0.0000  0.0000  0.0000
  237TTP     S1 4775   1.287  -5.004   0.792  0.0000  0.0000  0.0000
  237TTP     S5 4776   1.385  -5.322   1.048  0.0000  0.0000  0.0000
  237TTP     C1 4777   1.289  -5.386   0.917  0.0000  0.0000  0.0000
  237TTP     C2 4778   1.251  -5.288   0.828  0.0000  0.0000  0.0000
  237TTP     C3 4779   1.306  -5.166   0.862  0.0000  0.0000  0.0000
  237TTP     C4 4780   1.371  -4.943   0.923  0.0000  0.0000  0.0000
  237TTP    C17 4781   1.422  -5.033   1.014  0.0000  0.0000  0.0000
  237TTP    C18 4782   1.378  -5.168   0.974  0.0000  0.0000  0.0000
  237TTP    C32 4783   1.165  -5.306   0.700  0.0000  0.0000  0.0000
  237TTP    C33 4784   1.256  -5.340   0.579  0.0000  0.0000  0.0000
  237TTP    C34 4785   1.163  -5.363   0.457  0.0000  0.0000  0.0000
  237TTP    C35 4786   1.221  -5.433   0.333  0.0000  0.0000  0.0000
  237TTP    C36 4787   1.127  -5.527   0.252  0.0000  0.0000  0.0000
  237TTP    C37 4788   1.007  -5.463   0.175  0.0000  0.0000  0.0000
  237TTP    C38 4789   0.927  -5.331   0.163  0.0000  0.0000  0.0000
  237TTP    C39 4790   0.845  -5.281   0.285  0.0000  0.0000  0.0000
  237TTP    C40 4791   0.786  -5.384   0.386  0.0000  0.0000  0.0000
  237TTP    C41 4792   0.799  -5.357   0.539  0.0000  0.0000  0.0000
  237TTP    C42 4793   0.780  -5.479   0.634  0.0000  0.0000  0.0000
  238TTP     S1 4794   1.591  -4.335   1.235  0.0000  0.0000  0.0000
  238TTP     S5 4795   1.793  -4.538   1.544  0.0000  0.0000  0.0000
  238TTP     C1 4796   1.824  -4.365   1.565  0.0000  0.0000  0.0000
  238TTP     C2 4797   1.760  -4.291   1.464  0.0000  0.0000  0.0000
  238TTP     C3 4798   1.683  -4.371   1.380  0.0000  0.0000  0.0000
  238TTP     C4 4799   1.568  -4.506   1.214  0.0000  0.0000  0.0000
  238TTP    C17 4800   1.622  -4.581   1.318  0.0000  0.0000  0.0000
  238TTP    C18 4801   1.693  -4.504   1.414  0.0000  0.0000  0.0000
  238TTP    C32 4802   1.752  -4.136   1.458  0.0000  0.0000  0.0000
  238TTP    C33 4803   1.647  -4.069   1.551  0.0000  0.0000  0.0000
  238TTP    C34 4804   1.640  -3.915   1.536  0.0000  0.0000  0.0000
  238TTP    C35 4805   1.531  -3.864   1.634  0.0000  0.0000  0.0000
  238TTP    C36 4806   1.547  -3.710   1.639  0.0000  0.0000  0.0000
  238TTP    C37 4807   1.514  -3.672   1.492  0.0000  0.0000  0.0000
  238TTP    C38 4808   1.509  -3.518   1.462  0.0000  0.0000  0.0000
  238TTP    C39 4809   1.447  -3.468   1.330  0.0000  0.0000  0.0000
  238TTP    C40 4810   1.538  -3.400   1.223  0.0000  0.0000  0.0000
  238TTP    C41 4811   1.613  -3.269   1.258  0.0000  0.0000  0.0000
  238TTP    C42 4812   1.635  -3.161   1.149  0.0000  0.0000  0.0000
  239FIC     F1 4813   1.318  -6.012   1.440  0.0000  0.0000  0.0000
  239FIC     F2 4814   1.209  -6.166   1.249  0.0000  0.0000  0.0000
  239FIC     O1 4815   1.373  -5.553   1.180  0.0000  0.0000  0.0000
  239FIC     N5 4816   1.057  -6.054   0.804  0.0000  0.0000  0.0000
  239FIC     N6 4817   1.105  -5.673   0.625  0.0000  0.0000  0.0000
  239FIC    C19 4818   1.245  -5.523   0.907  0.0000  0.0000  0.0000
  239FIC    C20 4819   1.254  -5.634   0.987  0.0000  0.0000  0.0000
  239FIC    C21 4820   1.316  -5.641   1.115  0.0000  0.0000  0.0000
  239FIC    C22 4821   1.292  -5.776   1.169  0.0000  0.0000  0.0000
  239FIC    C23 4822   1.321  -5.825   1.299  0.0000  0.0000  0.0000
  239FIC    C24 4823   1.293  -5.954   1.324  0.0000  0.0000  0.0000
  239FIC    C25 4824   1.233  -6.033   1.214  0.0000  0.0000  0.0000
  239FIC    C26 4825   1.197  -5.989   1.098  0.0000  0.0000  0.0000
  239FIC    C27 4826   1.232  -5.854   1.070  0.0000  0.0000  0.0000
  239FIC    C28 4827   1.208  -5.767   0.954  0.0000  0.0000  0.0000
  239FIC    C29 4828   1.148  -5.810   0.837  0.0000  0.0000  0.0000
  239FIC    C30 4829   1.100  -5.954   0.825  0.0000  0.0000  0.0000
  239FIC    C31 4830   1.130  -5.733   0.718  0.0000  0.0000  0.0000
  240FIC     F1 4831   2.281  -4.687   2.157  0.0000  0.0000  0.0000
  240FIC     F2 4832   2.328  -4.445   2.238  0.0000  0.0000  0.0000
  240FIC     O1 4833   1.969  -4.593   1.734  0.0000  0.0000  0.0000
  240FIC     N5 4834   2.151  -4.024   2.088  0.0000  0.0000  0.0000
  240FIC     N6 4835   1.960  -3.969   1.710  0.0000  0.0000  0.0000
  240FIC    C19 4836   1.901  -4.307   1.667  0.0000  0.0000  0.0000
  240FIC    C20 4837   1.980  -4.353   1.766  0.0000  0.0000  0.0000
  240FIC    C21 4838   2.012  -4.499   1.798  0.0000  0.0000  0.0000
  240FIC    C22 4839   2.091  -4.501   1.914  0.0000  0.0000  0.0000
  240FIC    C23 4840   2.147  -4.612   1.980  0.0000  0.0000  0.0000
  240FIC    C24 4841   2.223  -4.595   2.090  0.0000  0.0000  0.0000
  240FIC    C25 4842   2.252  -4.466   2.132  0.0000  0.0000  0.0000
  240FIC    C26 4843   2.197  -4.347   2.074  0.0000  0.0000  0.0000
  240FIC    C27 4844   2.114  -4.368   1.961  0.0000  0.0000  0.0000
  240FIC    C28 4845   2.047  -4.279   1.869  0.0000  0.0000  0.0000
  240FIC    C29 4846   2.052  -4.139   1.881  0.0000  0.0000  0.0000
  240FIC    C30 4847   2.109  -4.075   2.000  0.0000  0.0000  0.0000
  240FIC    C31 4848   1.996  -4.045   1.788  0.0000  0.0000  0.0000
  241BTD     S2 4849   2.578   7.386   2.195  0.0000  0.0000  0.0000
  241BTD     N1 4850   2.565   7.550   2.190  0.0000  0.0000  0.0000
  241BTD     N2 4851   2.513   7.346   2.052  0.0000  0.0000  0.0000
  241BTD     N3 4852   2.312   7.593   1.703  0.0000  0.0000  0.0000
  241BTD     N4 4853   2.368   7.865   1.895  0.0000  0.0000  0.0000
  241BTD     C5 4854   2.469   7.706   2.034  0.0000  0.0000  0.0000
  241BTD     C6 4855   2.509   7.578   2.078  0.0000  0.0000  0.0000
  241BTD     C7 4856   2.480   7.463   1.998  0.0000  0.0000  0.0000
  241BTD     C8 4857   2.413   7.480   1.873  0.0000  0.0000  0.0000
  241BTD    C15 4858   2.377   7.608   1.823  0.0000  0.0000  0.0000
  241BTD    C16 4859   2.396   7.729   1.909  0.0000  0.0000  0.0000
  241BTD    C43 4860   2.265   7.930   1.818  0.0000  0.0000  0.0000
  241BTD    C44 4861   2.123   7.878   1.855  0.0000  0.0000  0.0000
  241BTD    C45 4862   2.085   7.853   2.004  0.0000  0.0000  0.0000
  241BTD    C46 4863   2.079   7.985   2.086  0.0000  0.0000  0.0000
  241BTD    C47 4864   2.007   7.958   1.789  0.0000  0.0000  0.0000
  241BTD    C48 4865   1.990   7.952   1.635  0.0000  0.0000  0.0000
  241BTD    C49 4866   1.901   8.058   1.563  0.0000  0.0000  0.0000
  241BTD    C50 4867   1.922   8.083   1.411  0.0000  0.0000  0.0000
  241BTD    C75 4868   2.300   7.691   1.584  0.0000  0.0000  0.0000
  241BTD    C76 4869   2.438   7.755   1.549  0.0000  0.0000  0.0000
  241BTD    C77 4870   2.437   7.841   1.420  0.0000  0.0000  0.0000
  241BTD    C78 4871   2.292   7.809   1.375  0.0000  0.0000  0.0000
  241BTD    C79 4872   2.559   7.661   1.531  0.0000  0.0000  0.0000
  241BTD    C80 4873   2.538   7.529   1.452  0.0000  0.0000  0.0000
  241BTD    C81 4874   2.634   7.410   1.476  0.0000  0.0000  0.0000
  241BTD    C82 4875   2.766   7.405   1.393  0.0000  0.0000  0.0000
  242TTP     S1 4876   2.544   7.905   2.233  0.0000  0.0000  0.0000
  242TTP     S5 4877   2.361   8.212   2.014  0.0000  0.0000  0.0000
  242TTP     C1 4878   2.420   8.282   2.160  0.0000  0.0000  0.0000
  242TTP     C2 4879   2.481   8.191   2.238  0.0000  0.0000  0.0000
  242TTP     C3 4880   2.483   8.060   2.186  0.0000  0.0000  0.0000
  242TTP     C4 4881   2.478   7.834   2.091  0.0000  0.0000  0.0000
  242TTP    C17 4882   2.418   7.926   2.006  0.0000  0.0000  0.0000
  242TTP    C18 4883   2.417   8.059   2.058  0.0000  0.0000  0.0000
  242TTP    C32 4884   2.539   8.215   2.379  0.0000  0.0000  0.0000
  242TTP    C33 4885   2.691   8.200   2.402  0.0000  0.0000  0.0000
  242TTP    C34 4886   2.749   8.235   2.541  0.0000  0.0000  0.0000
  242TTP    C35 4887   2.902   8.229   2.512  0.0000  0.0000  0.0000
  242TTP    C36 4888   2.948   8.376   2.488  0.0000  0.0000  0.0000
  242TTP    C37 4889   2.880   8.489   2.570  0.0000  0.0000  0.0000
  242TTP    C38 4890   2.964   8.609   2.622  0.0000  0.0000  0.0000
  242TTP    C39 4891   2.854   8.654   2.720  0.0000  0.0000  0.0000
  242TTP    C40 4892   2.899   8.695   2.864  0.0000  0.0000  0.0000
  242TTP    C41 4893   2.818   8.803   2.941  0.0000  0.0000  0.0000
  242TTP    C42 4894   2.880   8.869   3.067  0.0000  0.0000  0.0000
  243TTP     S1 4895   2.380   7.215   1.749  0.0000  0.0000  0.0000
  243TTP     S5 4896   2.158   7.390   1.438  0.0000  0.0000  0.0000
  243TTP     C1 4897   2.152   7.215   1.421  0.0000  0.0000  0.0000
  243TTP     C2 4898   2.223   7.150   1.517  0.0000  0.0000  0.0000
  243TTP     C3 4899   2.284   7.238   1.606  0.0000  0.0000  0.0000
  243TTP     C4 4900   2.378   7.385   1.775  0.0000  0.0000  0.0000
  243TTP    C17 4901   2.315   7.457   1.672  0.0000  0.0000  0.0000
  243TTP    C18 4902   2.256   7.372   1.577  0.0000  0.0000  0.0000
  243TTP    C32 4903   2.241   6.996   1.526  0.0000  0.0000  0.0000
  243TTP    C33 4904   2.359   6.943   1.438  0.0000  0.0000  0.0000
  243TTP    C34 4905   2.377   6.790   1.443  0.0000  0.0000  0.0000
  243TTP    C35 4906   2.405   6.747   1.590  0.0000  0.0000  0.0000
  243TTP    C36 4907   2.419   6.596   1.622  0.0000  0.0000  0.0000
  243TTP    C37 4908   2.296   6.502   1.608  0.0000  0.0000  0.0000
  243TTP    C38 4909   2.382   6.375   1.636  0.0000  0.0000  0.0000
  243TTP    C39 4910   2.288   6.275   1.565  0.0000  0.0000  0.0000
  243TTP    C40 4911   2.282   6.277   1.409  0.0000  0.0000  0.0000
  243TTP    C41 4912   2.175   6.364   1.338  0.0000  0.0000  0.0000
  243TTP    C42 4913   2.210   6.508   1.288  0.0000  0.0000  0.0000
  244FIC     F1 4914   2.088   8.931   1.788  0.0000  0.0000  0.0000
  244FIC     F2 4915   2.129   9.067   2.017  0.0000  0.0000  0.0000
  244FIC     O1 4916   2.298   8.455   1.925  0.0000  0.0000  0.0000
  244FIC     N5 4917   2.337   8.938   2.426  0.0000  0.0000  0.0000
  244FIC     N6 4918   2.508   8.541   2.515  0.0000  0.0000  0.0000
  244FIC    C19 4919   2.403   8.417   2.202  0.0000  0.0000  0.0000
  244FIC    C20 4920   2.351   8.531   2.150  0.0000  0.0000  0.0000
  244FIC    C21 4921   2.296   8.542   2.016  0.0000  0.0000  0.0000
  244FIC    C22 4922   2.250   8.681   2.001  0.0000  0.0000  0.0000
  244FIC    C23 4923   2.189   8.735   1.884  0.0000  0.0000  0.0000
  244FIC    C24 4924   2.147   8.868   1.905  0.0000  0.0000  0.0000
  244FIC    C25 4925   2.167   8.936   2.017  0.0000  0.0000  0.0000
  244FIC    C26 4926   2.224   8.882   2.122  0.0000  0.0000  0.0000
  244FIC    C27 4927   2.267   8.754   2.109  0.0000  0.0000  0.0000
  244FIC    C28 4928   2.335   8.662   2.210  0.0000  0.0000  0.0000
  244FIC    C29 4929   2.377   8.690   2.351  0.0000  0.0000  0.0000
  244FIC    C30 4930   2.357   8.834   2.390  0.0000  0.0000  0.0000
  244FIC    C31 4931   2.444   8.604   2.446  0.0000  0.0000  0.0000
  245FIC     F1 4932   1.693   7.487   0.808  0.0000  0.0000  0.0000
  245FIC     F2 4933   1.639   7.236   0.745  0.0000  0.0000  0.0000
  245FIC     O1 4934   2.014   7.424   1.224  0.0000  0.0000  0.0000
  245FIC     N5 4935   1.788   6.822   0.951  0.0000  0.0000  0.0000
  245FIC     N6 4936   1.982   6.805   1.325  0.0000  0.0000  0.0000
  245FIC    C19 4937   2.075   7.144   1.323  0.0000  0.0000  0.0000
  245FIC    C20 4938   1.994   7.181   1.221  0.0000  0.0000  0.0000
  245FIC    C21 4939   1.969   7.322   1.178  0.0000  0.0000  0.0000
  245FIC    C22 4940   1.884   7.313   1.058  0.0000  0.0000  0.0000
  245FIC    C23 4941   1.832   7.420   0.985  0.0000  0.0000  0.0000
  245FIC    C24 4942   1.756   7.389   0.881  0.0000  0.0000  0.0000
  245FIC    C25 4943   1.724   7.256   0.848  0.0000  0.0000  0.0000
  245FIC    C26 4944   1.772   7.153   0.922  0.0000  0.0000  0.0000
  245FIC    C27 4945   1.854   7.182   1.027  0.0000  0.0000  0.0000
  245FIC    C28 4946   1.918   7.096   1.131  0.0000  0.0000  0.0000
  245FIC    C29 4947   1.905   6.958   1.136  0.0000  0.0000  0.0000
  245FIC    C30 4948   1.840   6.884   1.034  0.0000  0.0000  0.0000
  245FIC    C31 4949   1.949   6.875   1.245  0.0000  0.0000  0.0000
  246BTD     S2 4950   1.452   7.378  -0.200  0.0000  0.0000  0.0000
  246BTD     N1 4951   1.441   7.539  -0.189  0.0000  0.0000  0.0000
  246BTD     N2 4952   1.531   7.346  -0.063  0.0000  0.0000  0.0000
  246BTD     N3 4953   1.700   7.608   0.299  0.0000  0.0000  0.0000
  246BTD     N4 4954   1.587   7.868   0.121  0.0000  0.0000  0.0000
  246BTD     C5 4955   1.517   7.704  -0.020  0.0000  0.0000  0.0000
  246BTD     C6 4956   1.500   7.574  -0.076  0.0000  0.0000  0.0000
  246BTD     C7 4957   1.551   7.463  -0.003  0.0000  0.0000  0.0000
  246BTD     C8 4958   1.612   7.484   0.122  0.0000  0.0000  0.0000
  246BTD    C15 4959   1.631   7.617   0.175  0.0000  0.0000  0.0000
  246BTD    C16 4960   1.583   7.729   0.098  0.0000  0.0000  0.0000
  246BTD    C43 4961   1.675   7.945   0.210  0.0000  0.0000  0.0000
  246BTD    C44 4962   1.828   7.935   0.180  0.0000  0.0000  0.0000
  246BTD    C45 4963   1.900   8.034   0.274  0.0000  0.0000  0.0000
  246BTD    C46 4964   2.050   7.992   0.273  0.0000  0.0000  0.0000
  246BTD    C47 4965   1.861   7.962   0.030  0.0000  0.0000  0.0000
  246BTD    C48 4966   1.875   8.103  -0.033  0.0000  0.0000  0.0000
  246BTD    C49 4967   1.889   8.071  -0.184  0.0000  0.0000  0.0000
  246BTD    C50 4968   1.986   8.025  -0.298  0.0000  0.0000  0.0000
  246BTD    C75 4969   1.687   7.696   0.415  0.0000  0.0000  0.0000
  246BTD    C76 4970   1.538   7.726   0.451  0.0000  0.0000  0.0000
  246BTD    C77 4971   1.529   7.814   0.578  0.0000  0.0000  0.0000
  246BTD    C78 4972   1.388   7.867   0.613  0.0000  0.0000  0.0000
  246BTD    C79 4973   1.453   7.599   0.471  0.0000  0.0000  0.0000
  246BTD    C80 4974   1.480   7.510   0.595  0.0000  0.0000  0.0000
  246BTD    C81 4975   1.388   7.385   0.590  0.0000  0.0000  0.0000
  246BTD    C82 4976   1.419   7.259   0.503  0.0000  0.0000  0.0000
  247TTP     S1 4977   1.390   7.894  -0.207  0.0000  0.0000  0.0000
  247TTP     S5 4978   1.489   8.213   0.050  0.0000  0.0000  0.0000
  247TTP     C1 4979   1.392   8.276  -0.082  0.0000  0.0000  0.0000
  247TTP     C2 4980   1.354   8.179  -0.170  0.0000  0.0000  0.0000
  247TTP     C3 4981   1.410   8.056  -0.137  0.0000  0.0000  0.0000
  247TTP     C4 4982   1.475   7.833  -0.076  0.0000  0.0000  0.0000
  247TTP    C17 4983   1.526   7.924   0.015  0.0000  0.0000  0.0000
  247TTP    C18 4984   1.482   8.058  -0.025  0.0000  0.0000  0.0000
  247TTP    C32 4985   1.269   8.196  -0.298  0.0000  0.0000  0.0000
  247TTP    C33 4986   1.359   8.230  -0.420  0.0000  0.0000  0.0000
  247TTP    C34 4987   1.266   8.253  -0.541  0.0000  0.0000  0.0000
  247TTP    C35 4988   1.325   8.324  -0.666  0.0000  0.0000  0.0000
  247TTP    C36 4989   1.230   8.418  -0.747  0.0000  0.0000  0.0000
  247TTP    C37 4990   1.111   8.354  -0.824  0.0000  0.0000  0.0000
  247TTP    C38 4991   1.030   8.222  -0.836  0.0000  0.0000  0.0000
  247TTP    C39 4992   0.948   8.172  -0.713  0.0000  0.0000  0.0000
  247TTP    C40 4993   0.889   8.274  -0.613  0.0000  0.0000  0.0000
  247TTP    C41 4994   0.902   8.248  -0.460  0.0000  0.0000  0.0000
  247TTP    C42 4995   0.884   8.369  -0.365  0.0000  0.0000  0.0000
  248TTP     S1 4996   1.695   7.225   0.237  0.0000  0.0000  0.0000
  248TTP     S5 4997   1.897   7.428   0.545  0.0000  0.0000  0.0000
  248TTP     C1 4998   1.928   7.255   0.567  0.0000  0.0000  0.0000
  248TTP     C2 4999   1.863   7.181   0.466  0.0000  0.0000  0.0000
  248TTP     C3 5000   1.786   7.261   0.382  0.0000  0.0000  0.0000
  248TTP     C4 5001   1.672   7.397   0.216  0.0000  0.0000  0.0000
  248TTP    C17 5002   1.726   7.472   0.320  0.0000  0.0000  0.0000
  248TTP    C18 5003   1.796   7.395   0.415  0.0000  0.0000  0.0000
  248TTP    C32 5004   1.856   7.027   0.459  0.0000  0.0000  0.0000
  248TTP    C33 5005   1.751   6.960   0.553  0.0000  0.0000  0.0000
  248TTP    C34 5006   1.744   6.805   0.537  0.0000  0.0000  0.0000
  248TTP    C35 5007   1.635   6.755   0.635  0.0000  0.0000  0.0000
  248TTP    C36 5008   1.651   6.601   0.641  0.0000  0.0000  0.0000
  248TTP    C37 5009   1.618   6.563   0.493  0.0000  0.0000  0.0000
  248TTP    C38 5010   1.612   6.409   0.464  0.0000  0.0000  0.0000
  248TTP    C39 5011   1.550   6.358   0.332  0.0000  0.0000  0.0000
  248TTP    C40 5012   1.641   6.290   0.225  0.0000  0.0000  0.0000
  248TTP    C41 5013   1.716   6.159   0.259  0.0000  0.0000  0.0000
  248TTP    C42 5014   1.738   6.052   0.150  0.0000  0.0000  0.0000
  249FIC     F1 5015   1.422   8.903   0.442  0.0000  0.0000  0.0000
  249FIC     F2 5016   1.313   9.057   0.250  0.0000  0.0000  0.0000
  249FIC     O1 5017   1.476   8.444   0.181  0.0000  0.0000  0.0000
  249FIC     N5 5018   1.160   8.944  -0.195  0.0000  0.0000  0.0000
  249FIC     N6 5019   1.208   8.563  -0.374  0.0000  0.0000  0.0000
  249FIC    C19 5020   1.348   8.413  -0.092  0.0000  0.0000  0.0000
  249FIC    C20 5021   1.357   8.524  -0.011  0.0000  0.0000  0.0000
  249FIC    C21 5022   1.420   8.532   0.116  0.0000  0.0000  0.0000
  249FIC    C22 5023   1.395   8.666   0.170  0.0000  0.0000  0.0000
  249FIC    C23 5024   1.425   8.716   0.301  0.0000  0.0000  0.0000
  249FIC    C24 5025   1.396   8.845   0.325  0.0000  0.0000  0.0000
  249FIC    C25 5026   1.336   8.924   0.216  0.0000  0.0000  0.0000
  249FIC    C26 5027   1.300   8.879   0.099  0.0000  0.0000  0.0000
  249FIC    C27 5028   1.335   8.744   0.071  0.0000  0.0000  0.0000
  249FIC    C28 5029   1.311   8.658  -0.045  0.0000  0.0000  0.0000
  249FIC    C29 5030   1.251   8.701  -0.161  0.0000  0.0000  0.0000
  249FIC    C30 5031   1.203   8.844  -0.174  0.0000  0.0000  0.0000
  249FIC    C31 5032   1.234   8.623  -0.280  0.0000  0.0000  0.0000
  250FIC     F1 5033   2.384   7.578   1.158  0.0000  0.0000  0.0000
  250FIC     F2 5034   2.431   7.335   1.239  0.0000  0.0000  0.0000
  250FIC     O1 5035   2.072   7.484   0.736  0.0000  0.0000  0.0000
  250FIC     N5 5036   2.254   6.915   1.089  0.0000  0.0000  0.0000
  250FIC     N6 5037   2.064   6.860   0.711  0.0000  0.0000  0.0000
  250FIC    C19 5038   2.004   7.197   0.668  0.0000  0.0000  0.0000
  250FIC    C20 5039   2.084   7.243   0.767  0.0000  0.0000  0.0000
  250FIC    C21 5040   2.115   7.390   0.800  0.0000  0.0000  0.0000
  250FIC    C22 5041   2.194   7.392   0.915  0.0000  0.0000  0.0000
  250FIC    C23 5042   2.251   7.502   0.982  0.0000  0.0000  0.0000
  250FIC    C24 5043   2.327   7.485   1.091  0.0000  0.0000  0.0000
  250FIC    C25 5044   2.356   7.356   1.134  0.0000  0.0000  0.0000
  250FIC    C26 5045   2.300   7.237   1.075  0.0000  0.0000  0.0000
  250FIC    C27 5046   2.217   7.259   0.963  0.0000  0.0000  0.0000
  250FIC    C28 5047   2.151   7.169   0.870  0.0000  0.0000  0.0000
  250FIC    C29 5048   2.155   7.030   0.882  0.0000  0.0000  0.0000
  250FIC    C30 5049   2.212   6.965   1.001  0.0000  0.0000  0.0000
  250FIC    C31 5050   2.099   6.936   0.789  0.0000  0.0000  0.0000
  251BTD     S2 5051   0.446   4.176  -2.195  0.0000  0.0000  0.0000
  251BTD     N1 5052   0.459   4.012  -2.190  0.0000  0.0000  0.0000
  251BTD     N2 5053   0.511   4.216  -2.052  0.0000  0.0000  0.0000
  251BTD     N3 5054   0.712   3.969  -1.703  0.0000  0.0000  0.0000
  251BTD     N4 5055   0.656   3.697  -1.895  0.0000  0.0000  0.0000
  251BTD     C5 5056   0.555   3.856  -2.034  0.0000  0.0000  0.0000
  251BTD     C6 5057   0.515   3.984  -2.078  0.0000  0.0000  0.0000
  251BTD     C7 5058   0.544   4.099  -1.998  0.0000  0.0000  0.0000
  251BTD     C8 5059   0.611   4.082  -1.873  0.0000  0.0000  0.0000
  251BTD    C15 5060   0.647   3.954  -1.823  0.0000  0.0000  0.0000
  251BTD    C16 5061   0.628   3.833  -1.909  0.0000  0.0000  0.0000
  251BTD    C43 5062   0.759   3.632  -1.818  0.0000  0.0000  0.0000
  251BTD    C44 5063   0.901   3.684  -1.855  0.0000  0.0000  0.0000
  251BTD    C45 5064   0.939   3.709  -2.004  0.0000  0.0000  0.0000
  251BTD    C46 5065   0.945   3.577  -2.086  0.0000  0.0000  0.0000
  251BTD    C47 5066   1.017   3.604  -1.789  0.0000  0.0000  0.0000
  251BTD    C48 5067   1.034   3.610  -1.635  0.0000  0.0000  0.0000
  251BTD    C49 5068   1.123   3.504  -1.563  0.0000  0.0000  0.0000
  251BTD    C50 5069   1.102   3.479  -1.411  0.0000  0.0000  0.0000
  251BTD    C75 5070   0.724   3.871  -1.584  0.0000  0.0000  0.0000
  251BTD    C76 5071   0.586   3.807  -1.549  0.0000  0.0000  0.0000
  251BTD    C77 5072   0.587   3.721  -1.420  0.0000  0.0000  0.0000
  251BTD    C78 5073   0.732   3.753  -1.375  0.0000  0.0000  0.0000
  251BTD    C79 5074   0.465   3.901  -1.531  0.0000  0.0000  0.0000
  251BTD    C80 5075   0.486   4.033  -1.452  0.0000  0.0000  0.0000
  251BTD    C81 5076   0.390   4.152  -1.476  0.0000  0.0000  0.0000
  251BTD    C82 5077   0.258   4.157  -1.393  0.0000  0.0000  0.0000
  252TTP     S1 5078   0.480   3.657  -2.233  0.0000  0.0000  0.0000
  252TTP     S5 5079   0.663   3.350  -2.014  0.0000  0.0000  0.0000
  252TTP     C1 5080   0.604   3.280  -2.160  0.0000  0.0000  0.0000
  252TTP     C2 5081   0.543   3.371  -2.238  0.0000  0.0000  0.0000
  252TTP     C3 5082   0.541   3.502  -2.186  0.0000  0.0000  0.0000
  252TTP     C4 5083   0.546   3.728  -2.091  0.0000  0.0000  0.0000
  252TTP    C17 5084   0.606   3.636  -2.006  0.0000  0.0000  0.0000
  252TTP    C18 5085   0.607   3.503  -2.058  0.0000  0.0000  0.0000
  252TTP    C32 5086   0.485   3.347  -2.379  0.0000  0.0000  0.0000
  252TTP    C33 5087   0.333   3.362  -2.402  0.0000  0.0000  0.0000
  252TTP    C34 5088   0.275   3.327  -2.541  0.0000  0.0000  0.0000
  252TTP    C35 5089   0.122   3.333  -2.512  0.0000  0.0000  0.0000
  252TTP    C36 5090   0.076   3.186  -2.488  0.0000  0.0000  0.0000
  252TTP    C37 5091   0.144   3.073  -2.570  0.0000  0.0000  0.0000
  252TTP    C38 5092   0.060   2.953  -2.622  0.0000  0.0000  0.0000
  252TTP    C39 5093   0.170   2.908  -2.720  0.0000  0.0000  0.0000
  252TTP    C40 5094   0.125   2.867  -2.864  0.0000  0.0000  0.0000
  252TTP    C41 5095   0.206   2.759  -2.941  0.0000  0.0000  0.0000
  252TTP    C42 5096   0.144   2.693  -3.067  0.0000  0.0000  0.0000
  253TTP     S1 5097   0.644   4.347  -1.749  0.0000  0.0000  0.0000
  253TTP     S5 5098   0.866   4.172  -1.438  0.0000  0.0000  0.0000
  253TTP     C1 5099   0.872   4.347  -1.421  0.0000  0.0000  0.0000
  253TTP     C2 5100   0.801   4.412  -1.517  0.0000  0.0000  0.0000
  253TTP     C3 5101   0.740   4.324  -1.606  0.0000  0.0000  0.0000
  253TTP     C4 5102   0.646   4.177  -1.775  0.0000  0.0000  0.0000
  253TTP    C17 5103   0.709   4.105  -1.672  0.0000  0.0000  0.0000
  253TTP    C18 5104   0.768   4.190  -1.577  0.0000  0.0000  0.0000
  253TTP    C32 5105   0.783   4.566  -1.526  0.0000  0.0000  0.0000
  253TTP    C33 5106   0.665   4.619  -1.438  0.0000  0.0000  0.0000
  253TTP    C34 5107   0.647   4.772  -1.443  0.0000  0.0000  0.0000
  253TTP    C35 5108   0.619   4.815  -1.590  0.0000  0.0000  0.0000
  253TTP    C36 5109   0.605   4.966  -1.622  0.0000  0.0000  0.0000
  253TTP    C37 5110   0.728   5.060  -1.608  0.0000  0.0000  0.0000
  253TTP    C38 5111   0.642   5.187  -1.636  0.0000  0.0000  0.0000
  253TTP    C39 5112   0.736   5.287  -1.565  0.0000  0.0000  0.0000
  253TTP    C40 5113   0.742   5.285  -1.409  0.0000  0.0000  0.0000
  253TTP    C41 5114   0.849   5.198  -1.338  0.0000  0.0000  0.0000
  253TTP    C42 5115   0.814   5.054  -1.288  0.0000  0.0000  0.0000
  254FIC     F1 5116   0.936   2.631  -1.788  0.0000  0.0000  0.0000
  254FIC     F2 5117   0.895   2.495  -2.017  0.0000  0.0000  0.0000
  254FIC     O1 5118   0.726   3.107  -1.925  0.0000  0.0000  0.0000
  254FIC     N5 5119   0.687   2.624  -2.426  0.0000  0.0000  0.0000
  254FIC     N6 5120   0.516   3.021  -2.515  0.0000  0.0000  0.0000
  254FIC    C19 5121   0.621   3.145  -2.202  0.0000  0.0000  0.0000
  254FIC    C20 5122   0.673   3.031  -2.150  0.0000  0.0000  0.0000
  254FIC    C21 5123   0.728   3.020  -2.016  0.0000  0.0000  0.0000
  254FIC    C22 5124   0.774   2.881  -2.001  0.0000  0.0000  0.0000
  254FIC    C23 5125   0.835   2.827  -1.884  0.0000  0.0000  0.0000
  254FIC    C24 5126   0.877   2.694  -1.905  0.0000  0.0000  0.0000
  254FIC    C25 5127   0.857   2.626  -2.017  0.0000  0.0000  0.0000
  254FIC    C26 5128   0.800   2.680  -2.122  0.0000  0.0000  0.0000
  254FIC    C27 5129   0.757   2.808  -2.109  0.0000  0.0000  0.0000
  254FIC    C28 5130   0.689   2.900  -2.210  0.0000  0.0000  0.0000
  254FIC    C29 5131   0.647   2.872  -2.351  0.0000  0.0000  0.0000
  254FIC    C30 5132   0.668   2.728  -2.390  0.0000  0.0000  0.0000
  254FIC    C31 5133   0.580   2.958  -2.446  0.0000  0.0000  0.0000
  255FIC     F1 5134   1.331   4.075  -0.808  0.0000  0.0000  0.0000
  255FIC     F2 5135   1.385   4.326  -0.745  0.0000  0.0000  0.0000
  255FIC     O1 5136   1.010   4.138  -1.224  0.0000  0.0000  0.0000
  255FIC     N5 5137   1.236   4.740  -0.951  0.0000  0.0000  0.0000
  255FIC     N6 5138   1.042   4.757  -1.325  0.0000  0.0000  0.0000
  255FIC    C19 5139   0.949   4.418  -1.323  0.0000  0.0000  0.0000
  255FIC    C20 5140   1.030   4.381  -1.221  0.0000  0.0000  0.0000
  255FIC    C21 5141   1.055   4.240  -1.178  0.0000  0.0000  0.0000
  255FIC    C22 5142   1.140   4.249  -1.058  0.0000  0.0000  0.0000
  255FIC    C23 5143   1.192   4.142  -0.985  0.0000  0.0000  0.0000
  255FIC    C24 5144   1.268   4.173  -0.881  0.0000  0.0000  0.0000
  255FIC    C25 5145   1.300   4.306  -0.848  0.0000  0.0000  0.0000
  255FIC    C26 5146   1.252   4.409  -0.922  0.0000  0.0000  0.0000
  255FIC    C27 5147   1.170   4.380  -1.027  0.0000  0.0000  0.0000
  255FIC    C28 5148   1.106   4.466  -1.131  0.0000  0.0000  0.0000
  255FIC    C29 5149   1.119   4.604  -1.136  0.0000  0.0000  0.0000
  255FIC    C30 5150   1.184   4.678  -1.034  0.0000  0.0000  0.0000
  255FIC    C31 5151   1.075   4.687  -1.245  0.0000  0.0000  0.0000
  256BTD     S2 5152   1.572   4.184   0.200  0.0000  0.0000  0.0000
  256BTD     N1 5153   1.583   4.023   0.189  0.0000  0.0000  0.0000
  256BTD     N2 5154   1.493   4.216   0.063  0.0000  0.0000  0.0000
  256BTD     N3 5155   1.324   3.954  -0.299  0.0000  0.0000  0.0000
  256BTD     N4 5156   1.437   3.694  -0.121  0.0000  0.0000  0.0000
  256BTD     C5 5157   1.507   3.858   0.020  0.0000  0.0000  0.0000
  256BTD     C6 5158   1.524   3.988   0.076  0.0000  0.0000  0.0000
  256BTD     C7 5159   1.473   4.099   0.003  0.0000  0.0000  0.0000
  256BTD     C8 5160   1.412   4.078  -0.122  0.0000  0.0000  0.0000
  256BTD    C15 5161   1.393   3.945  -0.175  0.0000  0.0000  0.0000
  256BTD    C16 5162   1.441   3.833  -0.098  0.0000  0.0000  0.0000
  256BTD    C43 5163   1.349   3.617  -0.210  0.0000  0.0000  0.0000
  256BTD    C44 5164   1.196   3.627  -0.180  0.0000  0.0000  0.0000
  256BTD    C45 5165   1.124   3.528  -0.274  0.0000  0.0000  0.0000
  256BTD    C46 5166   0.974   3.570  -0.273  0.0000  0.0000  0.0000
  256BTD    C47 5167   1.163   3.600  -0.030  0.0000  0.0000  0.0000
  256BTD    C48 5168   1.149   3.459   0.033  0.0000  0.0000  0.0000
  256BTD    C49 5169   1.135   3.491   0.184  0.0000  0.0000  0.0000
  256BTD    C50 5170   1.038   3.537   0.298  0.0000  0.0000  0.0000
  256BTD    C75 5171   1.337   3.866  -0.415  0.0000  0.0000  0.0000
  256BTD    C76 5172   1.486   3.836  -0.451  0.0000  0.0000  0.0000
  256BTD    C77 5173   1.495   3.748  -0.578  0.0000  0.0000  0.0000
  256BTD    C78 5174   1.636   3.695  -0.613  0.0000  0.0000  0.0000
  256BTD    C79 5175   1.571   3.963  -0.471  0.0000  0.0000  0.0000
  256BTD    C80 5176   1.544   4.052  -0.595  0.0000  0.0000  0.0000
  256BTD    C81 5177   1.636   4.177  -0.590  0.0000  0.0000  0.0000
  256BTD    C82 5178   1.605   4.303  -0.503  0.0000  0.0000  0.0000
  257TTP     S1 5179   1.634   3.668   0.207  0.0000  0.0000  0.0000
  257TTP     S5 5180   1.535   3.349  -0.050  0.0000  0.0000  0.0000
  257TTP     C1 5181   1.632   3.286   0.082  0.0000  0.0000  0.0000
  257TTP     C2 5182   1.670   3.383   0.170  0.0000  0.0000  0.0000
  257TTP     C3 5183   1.614   3.506   0.137  0.0000  0.0000  0.0000
  257TTP     C4 5184   1.549   3.729   0.076  0.0000  0.0000  0.0000
  257TTP    C17 5185   1.498   3.638  -0.015  0.0000  0.0000  0.0000
  257TTP    C18 5186   1.542   3.504   0.025  0.0000  0.0000  0.0000
  257TTP    C32 5187   1.755   3.366   0.298  0.0000  0.0000  0.0000
  257TTP    C33 5188   1.665   3.332   0.420  0.0000  0.0000  0.0000
  257TTP    C34 5189   1.758   3.309   0.541  0.0000  0.0000  0.0000
  257TTP    C35 5190   1.699   3.238   0.666  0.0000  0.0000  0.0000
  257TTP    C36 5191   1.794   3.144   0.747  0.0000  0.0000  0.0000
  257TTP    C37 5192   1.913   3.208   0.824  0.0000  0.0000  0.0000
  257TTP    C38 5193   1.994   3.340   0.836  0.0000  0.0000  0.0000
  257TTP    C39 5194   2.076   3.390   0.713  0.0000  0.0000  0.0000
  257TTP    C40 5195   2.135   3.288   0.613  0.0000  0.0000  0.0000
  257TTP    C41 5196   2.122   3.314   0.460  0.0000  0.0000  0.0000
  257TTP    C42 5197   2.140   3.193   0.365  0.0000  0.0000  0.0000
  258TTP     S1 5198   1.329   4.337  -0.237  0.0000  0.0000  0.0000
  258TTP     S5 5199   1.127   4.134  -0.545  0.0000  0.0000  0.0000
  258TTP     C1 5200   1.096   4.307  -0.567  0.0000  0.0000  0.0000
  258TTP     C2 5201   1.161   4.381  -0.466  0.0000  0.0000  0.0000
  258TTP     C3 5202   1.238   4.301  -0.382  0.0000  0.0000  0.0000
  258TTP     C4 5203   1.352   4.165  -0.216  0.0000  0.0000  0.0000
  258TTP    C17 5204   1.298   4.090  -0.320  0.0000  0.0000  0.0000
  258TTP    C18 5205   1.228   4.167  -0.415  0.0000  0.0000  0.0000
  258TTP    C32 5206   1.168   4.535  -0.459  0.0000  0.0000  0.0000
  258TTP    C33 5207   1.274   4.602  -0.553  0.0000  0.0000  0.0000
  258TTP    C34 5208   1.280   4.757  -0.537  0.0000  0.0000  0.0000
  258TTP    C35 5209   1.389   4.807  -0.635  0.0000  0.0000  0.0000
  258TTP    C36 5210   1.373   4.961  -0.641  0.0000  0.0000  0.0000
  258TTP    C37 5211   1.406   4.999  -0.493  0.0000  0.0000  0.0000
  258TTP    C38 5212   1.412   5.153  -0.464  0.0000  0.0000  0.0000
  258TTP    C39 5213   1.474   5.204  -0.332  0.0000  0.0000  0.0000
  258TTP    C40 5214   1.383   5.272  -0.225  0.0000  0.0000  0.0000
  258TTP    C41 5215   1.308   5.403  -0.259  0.0000  0.0000  0.0000
  258TTP    C42 5216   1.286   5.510  -0.150  0.0000  0.0000  0.0000
  259FIC     F1 5217   1.602   2.659  -0.442  0.0000  0.0000  0.0000
  259FIC     F2 5218   1.711   2.505  -0.250  0.0000  0.0000  0.0000
  259FIC     O1 5219   1.548   3.118  -0.181  0.0000  0.0000  0.0000
  259FIC     N5 5220   1.864   2.618   0.195  0.0000  0.0000  0.0000
  259FIC     N6 5221   1.816   2.999   0.374  0.0000  0.0000  0.0000
  259FIC    C19 5222   1.676   3.149   0.092  0.0000  0.0000  0.0000
  259FIC    C20 5223   1.667   3.038   0.011  0.0000  0.0000  0.0000
  259FIC    C21 5224   1.604   3.030  -0.116  0.0000  0.0000  0.0000
  259FIC    C22 5225   1.629   2.896  -0.170  0.0000  0.0000  0.0000
  259FIC    C23 5226   1.599   2.846  -0.301  0.0000  0.0000  0.0000
  259FIC    C24 5227   1.628   2.717  -0.325  0.0000  0.0000  0.0000
  259FIC    C25 5228   1.688   2.638  -0.216  0.0000  0.0000  0.0000
  259FIC    C26 5229   1.724   2.683  -0.099  0.0000  0.0000  0.0000
  259FIC    C27 5230   1.689   2.818  -0.071  0.0000  0.0000  0.0000
  259FIC    C28 5231   1.713   2.904   0.045  0.0000  0.0000  0.0000
  259FIC    C29 5232   1.773   2.861   0.161  0.0000  0.0000  0.0000
  259FIC    C30 5233   1.821   2.718   0.174  0.0000  0.0000  0.0000
  259FIC    C31 5234   1.790   2.939   0.280  0.0000  0.0000  0.0000
  260FIC     F1 5235   0.640   3.984  -1.158  0.0000  0.0000  0.0000
  260FIC     F2 5236   0.593   4.227  -1.239  0.0000  0.0000  0.0000
  260FIC     O1 5237   0.952   4.078  -0.736  0.0000  0.0000  0.0000
  260FIC     N5 5238   0.770   4.647  -1.089  0.0000  0.0000  0.0000
  260FIC     N6 5239   0.960   4.702  -0.711  0.0000  0.0000  0.0000
  260FIC    C19 5240   1.020   4.365  -0.668  0.0000  0.0000  0.0000
  260FIC    C20 5241   0.940   4.319  -0.767  0.0000  0.0000  0.0000
  260FIC    C21 5242   0.909   4.172  -0.800  0.0000  0.0000  0.0000
  260FIC    C22 5243   0.830   4.170  -0.915  0.0000  0.0000  0.0000
  260FIC    C23 5244   0.773   4.060  -0.982  0.0000  0.0000  0.0000
  260FIC    C24 5245   0.697   4.077  -1.091  0.0000  0.0000  0.0000
  260FIC    C25 5246   0.668   4.206  -1.134  0.0000  0.0000  0.0000
  260FIC    C26 5247   0.724   4.325  -1.075  0.0000  0.0000  0.0000
  260FIC    C27 5248   0.807   4.303  -0.963  0.0000  0.0000  0.0000
  260FIC    C28 5249   0.873   4.393  -0.870  0.0000  0.0000  0.0000
  260FIC    C29 5250   0.869   4.532  -0.882  0.0000  0.0000  0.0000
  260FIC    C30 5251   0.812   4.597  -1.001  0.0000  0.0000  0.0000
  260FIC    C31 5252   0.925   4.626  -0.789  0.0000  0.0000  0.0000
  261BTD     S2 5253   0.342  10.276  -1.196  0.0000  0.0000  0.0000
  261BTD     N1 5254   0.356  10.441  -1.192  0.0000  0.0000  0.0000
  261BTD     N2 5255   0.407  10.237  -1.054  0.0000  0.0000  0.0000
  261BTD     N3 5256   0.609  10.484  -0.704  0.0000  0.0000  0.0000
  261BTD     N4 5257   0.552  10.755  -0.897  0.0000  0.0000  0.0000
  261BTD     C5 5258   0.452  10.596  -1.035  0.0000  0.0000  0.0000
  261BTD     C6 5259   0.412  10.468  -1.079  0.0000  0.0000  0.0000
  261BTD     C7 5260   0.441  10.354  -0.999  0.0000  0.0000  0.0000
  261BTD     C8 5261   0.507  10.371  -0.875  0.0000  0.0000  0.0000
  261BTD    C15 5262   0.543  10.498  -0.825  0.0000  0.0000  0.0000
  261BTD    C16 5263   0.525  10.620  -0.910  0.0000  0.0000  0.0000
  261BTD    C43 5264   0.656  10.821  -0.820  0.0000  0.0000  0.0000
  261BTD    C44 5265   0.798  10.769  -0.856  0.0000  0.0000  0.0000
  261BTD    C45 5266   0.836  10.744  -1.006  0.0000  0.0000  0.0000
  261BTD    C46 5267   0.841  10.875  -1.087  0.0000  0.0000  0.0000
  261BTD    C47 5268   0.913  10.849  -0.790  0.0000  0.0000  0.0000
  261BTD    C48 5269   0.931  10.843  -0.637  0.0000  0.0000  0.0000
  261BTD    C49 5270   1.019  10.949  -0.565  0.0000  0.0000  0.0000
  261BTD    C50 5271   0.999  10.973  -0.413  0.0000  0.0000  0.0000
  261BTD    C75 5272   0.620  10.582  -0.586  0.0000  0.0000  0.0000
  261BTD    C76 5273   0.482  10.645  -0.551  0.0000  0.0000  0.0000
  261BTD    C77 5274   0.484  10.731  -0.422  0.0000  0.0000  0.0000
  261BTD    C78 5275   0.628  10.700  -0.376  0.0000  0.0000  0.0000
  261BTD    C79 5276   0.361  10.551  -0.532  0.0000  0.0000  0.0000
  261BTD    C80 5277   0.382  10.420  -0.453  0.0000  0.0000  0.0000
  261BTD    C81 5278   0.286  10.300  -0.478  0.0000  0.0000  0.0000
  261BTD    C82 5279   0.155  10.296  -0.394  0.0000  0.0000  0.0000
  262TTP     S1 5280   0.377  10.796  -1.234  0.0000  0.0000  0.0000
  262TTP     S5 5281   0.560  11.103  -1.016  0.0000  0.0000  0.0000
  262TTP     C1 5282   0.500  11.173  -1.162  0.0000  0.0000  0.0000
  262TTP     C2 5283   0.440  11.081  -1.239  0.0000  0.0000  0.0000
  262TTP     C3 5284   0.438  10.951  -1.188  0.0000  0.0000  0.0000
  262TTP     C4 5285   0.442  10.725  -1.092  0.0000  0.0000  0.0000
  262TTP    C17 5286   0.503  10.817  -1.008  0.0000  0.0000  0.0000
  262TTP    C18 5287   0.504  10.949  -1.060  0.0000  0.0000  0.0000
  262TTP    C32 5288   0.382  11.106  -1.381  0.0000  0.0000  0.0000
  262TTP    C33 5289   0.229  11.091  -1.403  0.0000  0.0000  0.0000
  262TTP    C34 5290   0.171  11.126  -1.543  0.0000  0.0000  0.0000
  262TTP    C35 5291   0.019  11.120  -1.514  0.0000  0.0000  0.0000
  262TTP    C36 5292  -0.028  11.266  -1.489  0.0000  0.0000  0.0000
  262TTP    C37 5293   0.041  11.380  -1.572  0.0000  0.0000  0.0000
  262TTP    C38 5294  -0.044  11.499  -1.623  0.0000  0.0000  0.0000
  262TTP    C39 5295   0.066  11.544  -1.721  0.0000  0.0000  0.0000
  262TTP    C40 5296   0.022  11.586  -1.865  0.0000  0.0000  0.0000
  262TTP    C41 5297   0.103  11.694  -1.943  0.0000  0.0000  0.0000
  262TTP    C42 5298   0.040  11.759  -2.069  0.0000  0.0000  0.0000
  263TTP     S1 5299   0.541  10.105  -0.750  0.0000  0.0000  0.0000
  263TTP     S5 5300   0.763  10.281  -0.440  0.0000  0.0000  0.0000
  263TTP     C1 5301   0.769  10.105  -0.422  0.0000  0.0000  0.0000
  263TTP     C2 5302   0.698  10.040  -0.518  0.0000  0.0000  0.0000
  263TTP     C3 5303   0.637  10.128  -0.607  0.0000  0.0000  0.0000
  263TTP     C4 5304   0.543  10.276  -0.776  0.0000  0.0000  0.0000
  263TTP    C17 5305   0.606  10.347  -0.674  0.0000  0.0000  0.0000
  263TTP    C18 5306   0.664  10.263  -0.578  0.0000  0.0000  0.0000
  263TTP    C32 5307   0.679   9.886  -0.528  0.0000  0.0000  0.0000
  263TTP    C33 5308   0.562   9.833  -0.440  0.0000  0.0000  0.0000
  263TTP    C34 5309   0.544   9.680  -0.445  0.0000  0.0000  0.0000
  263TTP    C35 5310   0.515   9.637  -0.591  0.0000  0.0000  0.0000
  263TTP    C36 5311   0.502   9.486  -0.624  0.0000  0.0000  0.0000
  263TTP    C37 5312   0.625   9.393  -0.609  0.0000  0.0000  0.0000
  263TTP    C38 5313   0.539   9.266  -0.638  0.0000  0.0000  0.0000
  263TTP    C39 5314   0.632   9.165  -0.566  0.0000  0.0000  0.0000
  263TTP    C40 5315   0.639   9.168  -0.411  0.0000  0.0000  0.0000
  263TTP    C41 5316   0.745   9.255  -0.339  0.0000  0.0000  0.0000
  263TTP    C42 5317   0.711   9.398  -0.290  0.0000  0.0000  0.0000
  264FIC     F1 5318   0.833  11.822  -0.789  0.0000  0.0000  0.0000
  264FIC     F2 5319   0.792  11.957  -1.018  0.0000  0.0000  0.0000
  264FIC     O1 5320   0.623  11.346  -0.926  0.0000  0.0000  0.0000
  264FIC     N5 5321   0.584  11.829  -1.428  0.0000  0.0000  0.0000
  264FIC     N6 5322   0.412  11.432  -1.516  0.0000  0.0000  0.0000
  264FIC    C19 5323   0.517  11.307  -1.204  0.0000  0.0000  0.0000
  264FIC    C20 5324   0.569  11.421  -1.152  0.0000  0.0000  0.0000
  264FIC    C21 5325   0.624  11.432  -1.018  0.0000  0.0000  0.0000
  264FIC    C22 5326   0.671  11.571  -1.002  0.0000  0.0000  0.0000
  264FIC    C23 5327   0.732  11.625  -0.885  0.0000  0.0000  0.0000
  264FIC    C24 5328   0.773  11.759  -0.907  0.0000  0.0000  0.0000
  264FIC    C25 5329   0.754  11.826  -1.019  0.0000  0.0000  0.0000
  264FIC    C26 5330   0.696  11.772  -1.124  0.0000  0.0000  0.0000
  264FIC    C27 5331   0.653  11.644  -1.111  0.0000  0.0000  0.0000
  264FIC    C28 5332   0.585  11.553  -1.211  0.0000  0.0000  0.0000
  264FIC    C29 5333   0.543  11.581  -1.353  0.0000  0.0000  0.0000
  264FIC    C30 5334   0.564  11.725  -1.392  0.0000  0.0000  0.0000
  264FIC    C31 5335   0.477  11.495  -1.448  0.0000  0.0000  0.0000
  265FIC     F1 5336   1.227  10.378   0.191  0.0000  0.0000  0.0000
  265FIC     F2 5337   1.282  10.126   0.253  0.0000  0.0000  0.0000
  265FIC     O1 5338   0.907  10.314  -0.226  0.0000  0.0000  0.0000
  265FIC     N5 5339   1.133   9.712   0.047  0.0000  0.0000  0.0000
  265FIC     N6 5340   0.938   9.696  -0.326  0.0000  0.0000  0.0000
  265FIC    C19 5341   0.845  10.035  -0.324  0.0000  0.0000  0.0000
  265FIC    C20 5342   0.927  10.072  -0.222  0.0000  0.0000  0.0000
  265FIC    C21 5343   0.952  10.212  -0.180  0.0000  0.0000  0.0000
  265FIC    C22 5344   1.036  10.204  -0.060  0.0000  0.0000  0.0000
  265FIC    C23 5345   1.089  10.310   0.013  0.0000  0.0000  0.0000
  265FIC    C24 5346   1.164  10.280   0.118  0.0000  0.0000  0.0000
  265FIC    C25 5347   1.197  10.147   0.150  0.0000  0.0000  0.0000
  265FIC    C26 5348   1.148  10.043   0.076  0.0000  0.0000  0.0000
  265FIC    C27 5349   1.067  10.072  -0.028  0.0000  0.0000  0.0000
  265FIC    C28 5350   1.002   9.986  -0.133  0.0000  0.0000  0.0000
  265FIC    C29 5351   1.016   9.848  -0.137  0.0000  0.0000  0.0000
  265FIC    C30 5352   1.080   9.774  -0.036  0.0000  0.0000  0.0000
  265FIC    C31 5353   0.971   9.766  -0.246  0.0000  0.0000  0.0000
  266BTD     S2 5354   1.469  10.268   1.199  0.0000  0.0000  0.0000
  266BTD     N1 5355   1.479  10.429   1.188  0.0000  0.0000  0.0000
  266BTD     N2 5356   1.390  10.237   1.061  0.0000  0.0000  0.0000
  266BTD     N3 5357   1.220  10.499   0.700  0.0000  0.0000  0.0000
  266BTD     N4 5358   1.334  10.759   0.877  0.0000  0.0000  0.0000
  266BTD     C5 5359   1.404  10.595   1.019  0.0000  0.0000  0.0000
  266BTD     C6 5360   1.421  10.464   1.075  0.0000  0.0000  0.0000
  266BTD     C7 5361   1.370  10.354   1.001  0.0000  0.0000  0.0000
  266BTD     C8 5362   1.308  10.375   0.877  0.0000  0.0000  0.0000
  266BTD    C15 5363   1.289  10.508   0.824  0.0000  0.0000  0.0000
  266BTD    C16 5364   1.337  10.619   0.900  0.0000  0.0000  0.0000
  266BTD    C43 5365   1.245  10.836   0.789  0.0000  0.0000  0.0000
  266BTD    C44 5366   1.093  10.826   0.819  0.0000  0.0000  0.0000
  266BTD    C45 5367   1.020  10.925   0.724  0.0000  0.0000  0.0000
  266BTD    C46 5368   0.870  10.883   0.726  0.0000  0.0000  0.0000
  266BTD    C47 5369   1.060  10.852   0.968  0.0000  0.0000  0.0000
  266BTD    C48 5370   1.045  10.993   1.032  0.0000  0.0000  0.0000
  266BTD    C49 5371   1.031  10.962   1.183  0.0000  0.0000  0.0000
  266BTD    C50 5372   0.935  10.916   1.296  0.0000  0.0000  0.0000
  266BTD    C75 5373   1.234  10.586   0.583  0.0000  0.0000  0.0000
  266BTD    C76 5374   1.382  10.616   0.548  0.0000  0.0000  0.0000
  266BTD    C77 5375   1.391  10.704   0.421  0.0000  0.0000  0.0000
  266BTD    C78 5376   1.532  10.758   0.385  0.0000  0.0000  0.0000
  266BTD    C79 5377   1.468  10.489   0.527  0.0000  0.0000  0.0000
  266BTD    C80 5378   1.440  10.401   0.403  0.0000  0.0000  0.0000
  266BTD    C81 5379   1.532  10.275   0.409  0.0000  0.0000  0.0000
  266BTD    C82 5380   1.501  10.150   0.496  0.0000  0.0000  0.0000
  267TTP     S1 5381   1.530  10.785   1.205  0.0000  0.0000  0.0000
  267TTP     S5 5382   1.432  11.103   0.949  0.0000  0.0000  0.0000
  267TTP     C1 5383   1.528  11.167   1.080  0.0000  0.0000  0.0000
  267TTP     C2 5384   1.566  11.069   1.169  0.0000  0.0000  0.0000
  267TTP     C3 5385   1.511  10.947   1.135  0.0000  0.0000  0.0000
  267TTP     C4 5386   1.446  10.724   1.074  0.0000  0.0000  0.0000
  267TTP    C17 5387   1.395  10.814   0.983  0.0000  0.0000  0.0000
  267TTP    C18 5388   1.439  10.949   1.023  0.0000  0.0000  0.0000
  267TTP    C32 5389   1.652  11.087   1.297  0.0000  0.0000  0.0000
  267TTP    C33 5390   1.561  11.121   1.418  0.0000  0.0000  0.0000
  267TTP    C34 5391   1.654  11.144   1.540  0.0000  0.0000  0.0000
  267TTP    C35 5392   1.596  11.214   1.664  0.0000  0.0000  0.0000
  267TTP    C36 5393   1.690  11.308   1.745  0.0000  0.0000  0.0000
  267TTP    C37 5394   1.810  11.244   1.822  0.0000  0.0000  0.0000
  267TTP    C38 5395   1.890  11.112   1.834  0.0000  0.0000  0.0000
  267TTP    C39 5396   1.972  11.062   1.712  0.0000  0.0000  0.0000
  267TTP    C40 5397   2.031  11.165   1.611  0.0000  0.0000  0.0000
  267TTP    C41 5398   2.018  11.138   1.458  0.0000  0.0000  0.0000
  267TTP    C42 5399   2.037  11.260   1.363  0.0000  0.0000  0.0000
  268TTP     S1 5400   1.226  10.116   0.762  0.0000  0.0000  0.0000
  268TTP     S5 5401   1.024  10.319   0.453  0.0000  0.0000  0.0000
  268TTP     C1 5402   0.993  10.146   0.432  0.0000  0.0000  0.0000
  268TTP     C2 5403   1.057  10.072   0.533  0.0000  0.0000  0.0000
  268TTP     C3 5404   1.134  10.152   0.617  0.0000  0.0000  0.0000
  268TTP     C4 5405   1.249  10.287   0.783  0.0000  0.0000  0.0000
  268TTP    C17 5406   1.195  10.362   0.679  0.0000  0.0000  0.0000
  268TTP    C18 5407   1.124  10.285   0.583  0.0000  0.0000  0.0000
  268TTP    C32 5408   1.065   9.917   0.539  0.0000  0.0000  0.0000
  268TTP    C33 5409   1.170   9.850   0.446  0.0000  0.0000  0.0000
  268TTP    C34 5410   1.177   9.696   0.461  0.0000  0.0000  0.0000
  268TTP    C35 5411   1.286   9.645   0.363  0.0000  0.0000  0.0000
  268TTP    C36 5412   1.270   9.491   0.358  0.0000  0.0000  0.0000
  268TTP    C37 5413   1.303   9.453   0.505  0.0000  0.0000  0.0000
  268TTP    C38 5414   1.308   9.299   0.535  0.0000  0.0000  0.0000
  268TTP    C39 5415   1.370   9.249   0.667  0.0000  0.0000  0.0000
  268TTP    C40 5416   1.279   9.181   0.774  0.0000  0.0000  0.0000
  268TTP    C41 5417   1.204   9.050   0.739  0.0000  0.0000  0.0000
  268TTP    C42 5418   1.182   8.942   0.848  0.0000  0.0000  0.0000
  269FIC     F1 5419   1.499  11.793   0.557  0.0000  0.0000  0.0000
  269FIC     F2 5420   1.608  11.947   0.748  0.0000  0.0000  0.0000
  269FIC     O1 5421   1.444  11.334   0.817  0.0000  0.0000  0.0000
  269FIC     N5 5422   1.760  11.835   1.193  0.0000  0.0000  0.0000
  269FIC     N6 5423   1.712  11.454   1.372  0.0000  0.0000  0.0000
  269FIC    C19 5424   1.572  11.304   1.090  0.0000  0.0000  0.0000
  269FIC    C20 5425   1.563  11.415   1.010  0.0000  0.0000  0.0000
  269FIC    C21 5426   1.501  11.422   0.882  0.0000  0.0000  0.0000
  269FIC    C22 5427   1.525  11.557   0.828  0.0000  0.0000  0.0000
  269FIC    C23 5428   1.496  11.606   0.698  0.0000  0.0000  0.0000
  269FIC    C24 5429   1.524  11.735   0.673  0.0000  0.0000  0.0000
  269FIC    C25 5430   1.584  11.814   0.783  0.0000  0.0000  0.0000
  269FIC    C26 5431   1.620  11.770   0.899  0.0000  0.0000  0.0000
  269FIC    C27 5432   1.585  11.635   0.927  0.0000  0.0000  0.0000
  269FIC    C28 5433   1.609  11.548   1.043  0.0000  0.0000  0.0000
  269FIC    C29 5434   1.669  11.591   1.160  0.0000  0.0000  0.0000
  269FIC    C30 5435   1.717  11.735   1.172  0.0000  0.0000  0.0000
  269FIC    C31 5436   1.687  11.514   1.279  0.0000  0.0000  0.0000
  270FIC     F1 5437   0.536  10.468  -0.160  0.0000  0.0000  0.0000
  270FIC     F2 5438   0.489  10.226  -0.241  0.0000  0.0000  0.0000
  270FIC     O1 5439   0.848  10.374   0.263  0.0000  0.0000  0.0000
  270FIC     N5 5440   0.666   9.805  -0.091  0.0000  0.0000  0.0000
  270FIC     N6 5441   0.857   9.750   0.287  0.0000  0.0000  0.0000
  270FIC    C19 5442   0.916  10.088   0.330  0.0000  0.0000  0.0000
  270FIC    C20 5443   0.837  10.134   0.231  0.0000  0.0000  0.0000
  270FIC    C21 5444   0.805  10.280   0.199  0.0000  0.0000  0.0000
  270FIC    C22 5445   0.726  10.282   0.083  0.0000  0.0000  0.0000
  270FIC    C23 5446   0.670  10.393   0.017  0.0000  0.0000  0.0000
  270FIC    C24 5447   0.594  10.376  -0.093  0.0000  0.0000  0.0000
  270FIC    C25 5448   0.565  10.247  -0.135  0.0000  0.0000  0.0000
  270FIC    C26 5449   0.620  10.128  -0.077  0.0000  0.0000  0.0000
  270FIC    C27 5450   0.703  10.149   0.036  0.0000  0.0000  0.0000
  270FIC    C28 5451   0.770  10.060   0.128  0.0000  0.0000  0.0000
  270FIC    C29 5452   0.765   9.920   0.116  0.0000  0.0000  0.0000
  270FIC    C30 5453   0.708   9.856  -0.003  0.0000  0.0000  0.0000
  270FIC    C31 5454   0.821   9.826   0.209  0.0000  0.0000  0.0000
  271BTD     S2 5455   2.682   1.286   1.196  0.0000  0.0000  0.0000
  271BTD     N1 5456   2.668   1.121   1.192  0.0000  0.0000  0.0000
  271BTD     N2 5457   2.617   1.325   1.054  0.0000  0.0000  0.0000
  271BTD     N3 5458   2.415   1.078   0.704  0.0000  0.0000  0.0000
  271BTD     N4 5459   2.472   0.807   0.897  0.0000  0.0000  0.0000
  271BTD     C5 5460   2.572   0.966   1.035  0.0000  0.0000  0.0000
  271BTD     C6 5461   2.612   1.094   1.079  0.0000  0.0000  0.0000
  271BTD     C7 5462   2.583   1.208   0.999  0.0000  0.0000  0.0000
  271BTD     C8 5463   2.517   1.191   0.875  0.0000  0.0000  0.0000
  271BTD    C15 5464   2.481   1.064   0.825  0.0000  0.0000  0.0000
  271BTD    C16 5465   2.499   0.942   0.910  0.0000  0.0000  0.0000
  271BTD    C43 5466   2.368   0.741   0.820  0.0000  0.0000  0.0000
  271BTD    C44 5467   2.226   0.793   0.856  0.0000  0.0000  0.0000
  271BTD    C45 5468   2.188   0.818   1.006  0.0000  0.0000  0.0000
  271BTD    C46 5469   2.183   0.687   1.087  0.0000  0.0000  0.0000
  271BTD    C47 5470   2.111   0.713   0.790  0.0000  0.0000  0.0000
  271BTD    C48 5471   2.093   0.719   0.637  0.0000  0.0000  0.0000
  271BTD    C49 5472   2.005   0.613   0.565  0.0000  0.0000  0.0000
  271BTD    C50 5473   2.025   0.589   0.413  0.0000  0.0000  0.0000
  271BTD    C75 5474   2.404   0.980   0.586  0.0000  0.0000  0.0000
  271BTD    C76 5475   2.542   0.917   0.551  0.0000  0.0000  0.0000
  271BTD    C77 5476   2.540   0.831   0.422  0.0000  0.0000  0.0000
  271BTD    C78 5477   2.396   0.862   0.376  0.0000  0.0000  0.0000
  271BTD    C79 5478   2.663   1.011   0.532  0.0000  0.0000  0.0000
  271BTD    C80 5479   2.642   1.142   0.453  0.0000  0.0000  0.0000
  271BTD    C81 5480   2.738   1.262   0.478  0.0000  0.0000  0.0000
  271BTD    C82 5481   2.869   1.266   0.394  0.0000  0.0000  0.0000
  272TTP     S1 5482   2.647   0.766   1.234  0.0000  0.0000  0.0000
  272TTP     S5 5483   2.464   0.459   1.016  0.0000  0.0000  0.0000
  272TTP     C1 5484   2.524   0.389   1.162  0.0000  0.0000  0.0000
  272TTP     C2 5485   2.584   0.481   1.239  0.0000  0.0000  0.0000
  272TTP     C3 5486   2.586   0.611   1.188  0.0000  0.0000  0.0000
  272TTP     C4 5487   2.582   0.837   1.092  0.0000  0.0000  0.0000
  272TTP    C17 5488   2.521   0.745   1.008  0.0000  0.0000  0.0000
  272TTP    C18 5489   2.520   0.613   1.060  0.0000  0.0000  0.0000
  272TTP    C32 5490   2.642   0.456   1.381  0.0000  0.0000  0.0000
  272TTP    C33 5491   2.795   0.471   1.403  0.0000  0.0000  0.0000
  272TTP    C34 5492   2.853   0.436   1.543  0.0000  0.0000  0.0000
  272TTP    C35 5493   3.005   0.442   1.514  0.0000  0.0000  0.0000
  272TTP    C36 5494   3.052   0.296   1.489  0.0000  0.0000  0.0000
  272TTP    C37 5495   2.983   0.182   1.572  0.0000  0.0000  0.0000
  272TTP    C38 5496   3.068   0.063   1.623  0.0000  0.0000  0.0000
  272TTP    C39 5497   2.958   0.018   1.721  0.0000  0.0000  0.0000
  272TTP    C40 5498   3.002  -0.024   1.865  0.0000  0.0000  0.0000
  272TTP    C41 5499   2.921  -0.132   1.943  0.0000  0.0000  0.0000
  272TTP    C42 5500   2.984  -0.197   2.069  0.0000  0.0000  0.0000
  273TTP     S1 5501   2.483   1.457   0.750  0.0000  0.0000  0.0000
  273TTP     S5 5502   2.261   1.281   0.440  0.0000  0.0000  0.0000
  273TTP     C1 5503   2.255   1.457   0.422  0.0000  0.0000  0.0000
  273TTP     C2 5504   2.326   1.522   0.518  0.0000  0.0000  0.0000
  273TTP     C3 5505   2.387   1.434   0.607  0.0000  0.0000  0.0000
  273TTP     C4 5506   2.481   1.286   0.776  0.0000  0.0000  0.0000
  273TTP    C17 5507   2.418   1.215   0.674  0.0000  0.0000  0.0000
  273TTP    C18 5508   2.360   1.299   0.578  0.0000  0.0000  0.0000
  273TTP    C32 5509   2.345   1.676   0.528  0.0000  0.0000  0.0000
  273TTP    C33 5510   2.462   1.729   0.440  0.0000  0.0000  0.0000
  273TTP    C34 5511   2.480   1.882   0.445  0.0000  0.0000  0.0000
  273TTP    C35 5512   2.509   1.925   0.591  0.0000  0.0000  0.0000
  273TTP    C36 5513   2.522   2.076   0.624  0.0000  0.0000  0.0000
  273TTP    C37 5514   2.399   2.169   0.609  0.0000  0.0000  0.0000
  273TTP    C38 5515   2.485   2.296   0.638  0.0000  0.0000  0.0000
  273TTP    C39 5516   2.392   2.397   0.566  0.0000  0.0000  0.0000
  273TTP    C40 5517   2.385   2.394   0.411  0.0000  0.0000  0.0000
  273TTP    C41 5518   2.279   2.307   0.339  0.0000  0.0000  0.0000
  273TTP    C42 5519   2.313   2.164   0.290  0.0000  0.0000  0.0000
  274FIC     F1 5520   2.191  -0.260   0.789  0.0000  0.0000  0.0000
  274FIC     F2 5521   2.232  -0.395   1.018  0.0000  0.0000  0.0000
  274FIC     O1 5522   2.401   0.216   0.926  0.0000  0.0000  0.0000
  274FIC     N5 5523   2.440  -0.267   1.428  0.0000  0.0000  0.0000
  274FIC     N6 5524   2.612   0.130   1.516  0.0000  0.0000  0.0000
  274FIC    C19 5525   2.507   0.255   1.204  0.0000  0.0000  0.0000
  274FIC    C20 5526   2.455   0.141   1.152  0.0000  0.0000  0.0000
  274FIC    C21 5527   2.400   0.130   1.018  0.0000  0.0000  0.0000
  274FIC    C22 5528   2.353  -0.009   1.002  0.0000  0.0000  0.0000
  274FIC    C23 5529   2.292  -0.063   0.885  0.0000  0.0000  0.0000
  274FIC    C24 5530   2.251  -0.197   0.907  0.0000  0.0000  0.0000
  274FIC    C25 5531   2.270  -0.264   1.019  0.0000  0.0000  0.0000
  274FIC    C26 5532   2.328  -0.210   1.124  0.0000  0.0000  0.0000
  274FIC    C27 5533   2.371  -0.082   1.111  0.0000  0.0000  0.0000
  274FIC    C28 5534   2.439   0.009   1.211  0.0000  0.0000  0.0000
  274FIC    C29 5535   2.481  -0.019   1.353  0.0000  0.0000  0.0000
  274FIC    C30 5536   2.460  -0.163   1.392  0.0000  0.0000  0.0000
  274FIC    C31 5537   2.547   0.067   1.448  0.0000  0.0000  0.0000
  275FIC     F1 5538   1.797   1.184  -0.191  0.0000  0.0000  0.0000
  275FIC     F2 5539   1.742   1.436  -0.253  0.0000  0.0000  0.0000
  275FIC     O1 5540   2.117   1.248   0.226  0.0000  0.0000  0.0000
  275FIC     N5 5541   1.891   1.850  -0.047  0.0000  0.0000  0.0000
  275FIC     N6 5542   2.086   1.866   0.326  0.0000  0.0000  0.0000
  275FIC    C19 5543   2.179   1.527   0.324  0.0000  0.0000  0.0000
  275FIC    C20 5544   2.097   1.490   0.222  0.0000  0.0000  0.0000
  275FIC    C21 5545   2.072   1.350   0.180  0.0000  0.0000  0.0000
  275FIC    C22 5546   1.988   1.358   0.060  0.0000  0.0000  0.0000
  275FIC    C23 5547   1.935   1.252  -0.013  0.0000  0.0000  0.0000
  275FIC    C24 5548   1.860   1.282  -0.118  0.0000  0.0000  0.0000
  275FIC    C25 5549   1.827   1.415  -0.150  0.0000  0.0000  0.0000
  275FIC    C26 5550   1.876   1.519  -0.076  0.0000  0.0000  0.0000
  275FIC    C27 5551   1.957   1.490   0.028  0.0000  0.0000  0.0000
  275FIC    C28 5552   2.022   1.576   0.133  0.0000  0.0000  0.0000
  275FIC    C29 5553   2.008   1.714   0.137  0.0000  0.0000  0.0000
  275FIC    C30 5554   1.944   1.788   0.036  0.0000  0.0000  0.0000
  275FIC    C31 5555   2.053   1.796   0.246  0.0000  0.0000  0.0000
  276BTD     S2 5556   1.555   1.294  -1.199  0.0000  0.0000  0.0000
  276BTD     N1 5557   1.545   1.133  -1.188  0.0000  0.0000  0.0000
  276BTD     N2 5558   1.634   1.325  -1.061  0.0000  0.0000  0.0000
  276BTD     N3 5559   1.804   1.063  -0.700  0.0000  0.0000  0.0000
  276BTD     N4 5560   1.690   0.803  -0.877  0.0000  0.0000  0.0000
  276BTD     C5 5561   1.620   0.967  -1.019  0.0000  0.0000  0.0000
  276BTD     C6 5562   1.603   1.098  -1.075  0.0000  0.0000  0.0000
  276BTD     C7 5563   1.654   1.208  -1.001  0.0000  0.0000  0.0000
  276BTD     C8 5564   1.716   1.187  -0.877  0.0000  0.0000  0.0000
  276BTD    C15 5565   1.735   1.054  -0.824  0.0000  0.0000  0.0000
  276BTD    C16 5566   1.687   0.943  -0.900  0.0000  0.0000  0.0000
  276BTD    C43 5567   1.779   0.726  -0.789  0.0000  0.0000  0.0000
  276BTD    C44 5568   1.931   0.736  -0.819  0.0000  0.0000  0.0000
  276BTD    C45 5569   2.004   0.637  -0.724  0.0000  0.0000  0.0000
  276BTD    C46 5570   2.154   0.679  -0.726  0.0000  0.0000  0.0000
  276BTD    C47 5571   1.964   0.710  -0.968  0.0000  0.0000  0.0000
  276BTD    C48 5572   1.979   0.569  -1.032  0.0000  0.0000  0.0000
  276BTD    C49 5573   1.993   0.600  -1.183  0.0000  0.0000  0.0000
  276BTD    C50 5574   2.089   0.646  -1.296  0.0000  0.0000  0.0000
  276BTD    C75 5575   1.790   0.976  -0.583  0.0000  0.0000  0.0000
  276BTD    C76 5576   1.642   0.946  -0.548  0.0000  0.0000  0.0000
  276BTD    C77 5577   1.633   0.858  -0.421  0.0000  0.0000  0.0000
  276BTD    C78 5578   1.492   0.804  -0.385  0.0000  0.0000  0.0000
  276BTD    C79 5579   1.556   1.073  -0.527  0.0000  0.0000  0.0000
  276BTD    C80 5580   1.584   1.161  -0.403  0.0000  0.0000  0.0000
  276BTD    C81 5581   1.492   1.287  -0.409  0.0000  0.0000  0.0000
  276BTD    C82 5582   1.523   1.412  -0.496  0.0000  0.0000  0.0000
  277TTP     S1 5583   1.494   0.777  -1.205  0.0000  0.0000  0.0000
  277TTP     S5 5584   1.592   0.459  -0.949  0.0000  0.0000  0.0000
  277TTP     C1 5585   1.496   0.395  -1.080  0.0000  0.0000  0.0000
  277TTP     C2 5586   1.458   0.493  -1.169  0.0000  0.0000  0.0000
  277TTP     C3 5587   1.513   0.615  -1.135  0.0000  0.0000  0.0000
  277TTP     C4 5588   1.578   0.838  -1.074  0.0000  0.0000  0.0000
  277TTP    C17 5589   1.629   0.748  -0.983  0.0000  0.0000  0.0000
  277TTP    C18 5590   1.585   0.613  -1.023  0.0000  0.0000  0.0000
  277TTP    C32 5591   1.372   0.475  -1.297  0.0000  0.0000  0.0000
  277TTP    C33 5592   1.463   0.441  -1.418  0.0000  0.0000  0.0000
  277TTP    C34 5593   1.370   0.418  -1.540  0.0000  0.0000  0.0000
  277TTP    C35 5594   1.428   0.348  -1.664  0.0000  0.0000  0.0000
  277TTP    C36 5595   1.334   0.254  -1.745  0.0000  0.0000  0.0000
  277TTP    C37 5596   1.214   0.318  -1.822  0.0000  0.0000  0.0000
  277TTP    C38 5597   1.134   0.450  -1.834  0.0000  0.0000  0.0000
  277TTP    C39 5598   1.052   0.500  -1.712  0.0000  0.0000  0.0000
  277TTP    C40 5599   0.993   0.397  -1.611  0.0000  0.0000  0.0000
  277TTP    C41 5600   1.006   0.424  -1.458  0.0000  0.0000  0.0000
  277TTP    C42 5601   0.987   0.302  -1.363  0.0000  0.0000  0.0000
  278TTP     S1 5602   1.798   1.446  -0.762  0.0000  0.0000  0.0000
  278TTP     S5 5603   2.000   1.243  -0.453  0.0000  0.0000  0.0000
  278TTP     C1 5604   2.031   1.416  -0.432  0.0000  0.0000  0.0000
  278TTP     C2 5605   1.967   1.490  -0.533  0.0000  0.0000  0.0000
  278TTP     C3 5606   1.890   1.410  -0.617  0.0000  0.0000  0.0000
  278TTP     C4 5607   1.775   1.275  -0.783  0.0000  0.0000  0.0000
  278TTP    C17 5608   1.829   1.200  -0.679  0.0000  0.0000  0.0000
  278TTP    C18 5609   1.900   1.277  -0.583  0.0000  0.0000  0.0000
  278TTP    C32 5610   1.959   1.645  -0.539  0.0000  0.0000  0.0000
  278TTP    C33 5611   1.854   1.712  -0.446  0.0000  0.0000  0.0000
  278TTP    C34 5612   1.847   1.866  -0.461  0.0000  0.0000  0.0000
  278TTP    C35 5613   1.738   1.917  -0.363  0.0000  0.0000  0.0000
  278TTP    C36 5614   1.754   2.071  -0.358  0.0000  0.0000  0.0000
  278TTP    C37 5615   1.721   2.109  -0.505  0.0000  0.0000  0.0000
  278TTP    C38 5616   1.716   2.263  -0.535  0.0000  0.0000  0.0000
  278TTP    C39 5617   1.654   2.313  -0.667  0.0000  0.0000  0.0000
  278TTP    C40 5618   1.745   2.381  -0.774  0.0000  0.0000  0.0000
  278TTP    C41 5619   1.820   2.512  -0.739  0.0000  0.0000  0.0000
  278TTP    C42 5620   1.842   2.620  -0.848  0.0000  0.0000  0.0000
  279FIC     F1 5621   1.525  -0.231  -0.557  0.0000  0.0000  0.0000
  279FIC     F2 5622   1.416  -0.385  -0.748  0.0000  0.0000  0.0000
  279FIC     O1 5623   1.580   0.228  -0.817  0.0000  0.0000  0.0000
  279FIC     N5 5624   1.264  -0.273  -1.193  0.0000  0.0000  0.0000
  279FIC     N6 5625   1.312   0.108  -1.372  0.0000  0.0000  0.0000
  279FIC    C19 5626   1.452   0.258  -1.090  0.0000  0.0000  0.0000
  279FIC    C20 5627   1.461   0.147  -1.010  0.0000  0.0000  0.0000
  279FIC    C21 5628   1.523   0.140  -0.882  0.0000  0.0000  0.0000
  279FIC    C22 5629   1.499   0.005  -0.828  0.0000  0.0000  0.0000
  279FIC    C23 5630   1.528  -0.044  -0.698  0.0000  0.0000  0.0000
  279FIC    C24 5631   1.500  -0.173  -0.673  0.0000  0.0000  0.0000
  279FIC    C25 5632   1.440  -0.252  -0.783  0.0000  0.0000  0.0000
  279FIC    C26 5633   1.404  -0.208  -0.899  0.0000  0.0000  0.0000
  279FIC    C27 5634   1.439  -0.073  -0.927  0.0000  0.0000  0.0000
  279FIC    C28 5635   1.415   0.014  -1.043  0.0000  0.0000  0.0000
  279FIC    C29 5636   1.355  -0.029  -1.160  0.0000  0.0000  0.0000
  279FIC    C30 5637   1.307  -0.173  -1.172  0.0000  0.0000  0.0000
  279FIC    C31 5638   1.337   0.048  -1.279  0.0000  0.0000  0.0000
  280FIC     F1 5639   2.488   1.094   0.160  0.0000  0.0000  0.0000
  280FIC     F2 5640   2.535   1.336   0.241  0.0000  0.0000  0.0000
  280FIC     O1 5641   2.176   1.188  -0.263  0.0000  0.0000  0.0000
  280FIC     N5 5642   2.358   1.757   0.091  0.0000  0.0000  0.0000
  280FIC     N6 5643   2.167   1.812  -0.287  0.0000  0.0000  0.0000
  280FIC    C19 5644   2.108   1.474  -0.330  0.0000  0.0000  0.0000
  280FIC    C20 5645   2.187   1.428  -0.231  0.0000  0.0000  0.0000
  280FIC    C21 5646   2.219   1.282  -0.199  0.0000  0.0000  0.0000
  280FIC    C22 5647   2.298   1.280  -0.083  0.0000  0.0000  0.0000
  280FIC    C23 5648   2.354   1.169  -0.017  0.0000  0.0000  0.0000
  280FIC    C24 5649   2.430   1.186   0.093  0.0000  0.0000  0.0000
  280FIC    C25 5650   2.459   1.315   0.135  0.0000  0.0000  0.0000
  280FIC    C26 5651   2.404   1.434   0.077  0.0000  0.0000  0.0000
  280FIC    C27 5652   2.321   1.413  -0.036  0.0000  0.0000  0.0000
  280FIC    C28 5653   2.254   1.502  -0.128  0.0000  0.0000  0.0000
  280FIC    C29 5654   2.259   1.642  -0.116  0.0000  0.0000  0.0000
  280FIC    C30 5655   2.316   1.706   0.003  0.0000  0.0000  0.0000
  280FIC    C31 5656   2.203   1.736  -0.209  0.0000  0.0000  0.0000
  281BTD     S2 5657   2.371   7.386   4.192  0.0000  0.0000  0.0000
  281BTD     N1 5658   2.358   7.550   4.187  0.0000  0.0000  0.0000
  281BTD     N2 5659   2.306   7.346   4.049  0.0000  0.0000  0.0000
  281BTD     N3 5660   2.105   7.593   3.700  0.0000  0.0000  0.0000
  281BTD     N4 5661   2.161   7.865   3.892  0.0000  0.0000  0.0000
  281BTD     C5 5662   2.262   7.706   4.031  0.0000  0.0000  0.0000
  281BTD     C6 5663   2.302   7.578   4.075  0.0000  0.0000  0.0000
  281BTD     C7 5664   2.273   7.463   3.995  0.0000  0.0000  0.0000
  281BTD     C8 5665   2.206   7.480   3.870  0.0000  0.0000  0.0000
  281BTD    C15 5666   2.170   7.608   3.820  0.0000  0.0000  0.0000
  281BTD    C16 5667   2.189   7.729   3.906  0.0000  0.0000  0.0000
  281BTD    C43 5668   2.058   7.930   3.815  0.0000  0.0000  0.0000
  281BTD    C44 5669   1.916   7.878   3.852  0.0000  0.0000  0.0000
  281BTD    C45 5670   1.878   7.853   4.001  0.0000  0.0000  0.0000
  281BTD    C46 5671   1.872   7.985   4.083  0.0000  0.0000  0.0000
  281BTD    C47 5672   1.800   7.958   3.786  0.0000  0.0000  0.0000
  281BTD    C48 5673   1.783   7.952   3.632  0.0000  0.0000  0.0000
  281BTD    C49 5674   1.694   8.058   3.560  0.0000  0.0000  0.0000
  281BTD    C50 5675   1.715   8.083   3.408  0.0000  0.0000  0.0000
  281BTD    C75 5676   2.093   7.691   3.581  0.0000  0.0000  0.0000
  281BTD    C76 5677   2.231   7.755   3.546  0.0000  0.0000  0.0000
  281BTD    C77 5678   2.230   7.841   3.417  0.0000  0.0000  0.0000
  281BTD    C78 5679   2.085   7.809   3.372  0.0000  0.0000  0.0000
  281BTD    C79 5680   2.352   7.661   3.528  0.0000  0.0000  0.0000
  281BTD    C80 5681   2.331   7.529   3.449  0.0000  0.0000  0.0000
  281BTD    C81 5682   2.427   7.410   3.473  0.0000  0.0000  0.0000
  281BTD    C82 5683   2.559   7.405   3.390  0.0000  0.0000  0.0000
  282TTP     S1 5684   2.337   7.905   4.230  0.0000  0.0000  0.0000
  282TTP     S5 5685   2.154   8.212   4.011  0.0000  0.0000  0.0000
  282TTP     C1 5686   2.213   8.282   4.157  0.0000  0.0000  0.0000
  282TTP     C2 5687   2.274   8.191   4.235  0.0000  0.0000  0.0000
  282TTP     C3 5688   2.276   8.060   4.183  0.0000  0.0000  0.0000
  282TTP     C4 5689   2.271   7.834   4.088  0.0000  0.0000  0.0000
  282TTP    C17 5690   2.211   7.926   4.003  0.0000  0.0000  0.0000
  282TTP    C18 5691   2.210   8.059   4.055  0.0000  0.0000  0.0000
  282TTP    C32 5692   2.332   8.215   4.376  0.0000  0.0000  0.0000
  282TTP    C33 5693   2.484   8.200   4.399  0.0000  0.0000  0.0000
  282TTP    C34 5694   2.542   8.235   4.538  0.0000  0.0000  0.0000
  282TTP    C35 5695   2.695   8.229   4.509  0.0000  0.0000  0.0000
  282TTP    C36 5696   2.741   8.376   4.485  0.0000  0.0000  0.0000
  282TTP    C37 5697   2.673   8.489   4.567  0.0000  0.0000  0.0000
  282TTP    C38 5698   2.757   8.609   4.619  0.0000  0.0000  0.0000
  282TTP    C39 5699   2.647   8.654   4.717  0.0000  0.0000  0.0000
  282TTP    C40 5700   2.692   8.695   4.861  0.0000  0.0000  0.0000
  282TTP    C41 5701   2.611   8.803   4.938  0.0000  0.0000  0.0000
  282TTP    C42 5702   2.673   8.869   5.064  0.0000  0.0000  0.0000
  283TTP     S1 5703   2.173   7.215   3.746  0.0000  0.0000  0.0000
  283TTP     S5 5704   1.951   7.390   3.435  0.0000  0.0000  0.0000
  283TTP     C1 5705   1.945   7.215   3.418  0.0000  0.0000  0.0000
  283TTP     C2 5706   2.016   7.150   3.514  0.0000  0.0000  0.0000
  283TTP     C3 5707   2.077   7.238   3.603  0.0000  0.0000  0.0000
  283TTP     C4 5708   2.171   7.385   3.772  0.0000  0.0000  0.0000
  283TTP    C17 5709   2.108   7.457   3.669  0.0000  0.0000  0.0000
  283TTP    C18 5710   2.049   7.372   3.574  0.0000  0.0000  0.0000
  283TTP    C32 5711   2.034   6.996   3.523  0.0000  0.0000  0.0000
  283TTP    C33 5712   2.152   6.943   3.435  0.0000  0.0000  0.0000
  283TTP    C34 5713   2.170   6.790   3.440  0.0000  0.0000  0.0000
  283TTP    C35 5714   2.198   6.747   3.587  0.0000  0.0000  0.0000
  283TTP    C36 5715   2.212   6.596   3.619  0.0000  0.0000  0.0000
  283TTP    C37 5716   2.089   6.502   3.605  0.0000  0.0000  0.0000
  283TTP    C38 5717   2.175   6.375   3.633  0.0000  0.0000  0.0000
  283TTP    C39 5718   2.081   6.275   3.562  0.0000  0.0000  0.0000
  283TTP    C40 5719   2.075   6.277   3.406  0.0000  0.0000  0.0000
  283TTP    C41 5720   1.968   6.364   3.335  0.0000  0.0000  0.0000
  283TTP    C42 5721   2.003   6.508   3.285  0.0000  0.0000  0.0000
  284FIC     F1 5722   1.881   8.931   3.785  0.0000  0.0000  0.0000
  284FIC     F2 5723   1.922   9.067   4.014  0.0000  0.0000  0.0000
  284FIC     O1 5724   2.091   8.455   3.922  0.0000  0.0000  0.0000
  284FIC     N5 5725   2.130   8.938   4.423  0.0000  0.0000  0.0000
  284FIC     N6 5726   2.301   8.541   4.512  0.0000  0.0000  0.0000
  284FIC    C19 5727   2.196   8.417   4.199  0.0000  0.0000  0.0000
  284FIC    C20 5728   2.144   8.531   4.147  0.0000  0.0000  0.0000
  284FIC    C21 5729   2.089   8.542   4.013  0.0000  0.0000  0.0000
  284FIC    C22 5730   2.043   8.681   3.998  0.0000  0.0000  0.0000
  284FIC    C23 5731   1.982   8.735   3.881  0.0000  0.0000  0.0000
  284FIC    C24 5732   1.940   8.868   3.902  0.0000  0.0000  0.0000
  284FIC    C25 5733   1.960   8.936   4.014  0.0000  0.0000  0.0000
  284FIC    C26 5734   2.017   8.882   4.119  0.0000  0.0000  0.0000
  284FIC    C27 5735   2.060   8.754   4.106  0.0000  0.0000  0.0000
  284FIC    C28 5736   2.128   8.662   4.207  0.0000  0.0000  0.0000
  284FIC    C29 5737   2.170   8.690   4.348  0.0000  0.0000  0.0000
  284FIC    C30 5738   2.150   8.834   4.387  0.0000  0.0000  0.0000
  284FIC    C31 5739   2.237   8.604   4.443  0.0000  0.0000  0.0000
  285FIC     F1 5740   1.486   7.487   2.805  0.0000  0.0000  0.0000
  285FIC     F2 5741   1.432   7.236   2.742  0.0000  0.0000  0.0000
  285FIC     O1 5742   1.807   7.424   3.221  0.0000  0.0000  0.0000
  285FIC     N5 5743   1.581   6.822   2.948  0.0000  0.0000  0.0000
  285FIC     N6 5744   1.775   6.805   3.322  0.0000  0.0000  0.0000
  285FIC    C19 5745   1.868   7.144   3.320  0.0000  0.0000  0.0000
  285FIC    C20 5746   1.787   7.181   3.218  0.0000  0.0000  0.0000
  285FIC    C21 5747   1.762   7.322   3.175  0.0000  0.0000  0.0000
  285FIC    C22 5748   1.677   7.313   3.055  0.0000  0.0000  0.0000
  285FIC    C23 5749   1.625   7.420   2.982  0.0000  0.0000  0.0000
  285FIC    C24 5750   1.549   7.389   2.878  0.0000  0.0000  0.0000
  285FIC    C25 5751   1.517   7.256   2.845  0.0000  0.0000  0.0000
  285FIC    C26 5752   1.565   7.153   2.919  0.0000  0.0000  0.0000
  285FIC    C27 5753   1.647   7.182   3.024  0.0000  0.0000  0.0000
  285FIC    C28 5754   1.711   7.096   3.128  0.0000  0.0000  0.0000
  285FIC    C29 5755   1.698   6.958   3.133  0.0000  0.0000  0.0000
  285FIC    C30 5756   1.633   6.884   3.031  0.0000  0.0000  0.0000
  285FIC    C31 5757   1.742   6.875   3.242  0.0000  0.0000  0.0000
  286BTD     S2 5758   1.245   7.378   1.797  0.0000  0.0000  0.0000
  286BTD     N1 5759   1.234   7.539   1.808  0.0000  0.0000  0.0000
  286BTD     N2 5760   1.324   7.346   1.934  0.0000  0.0000  0.0000
  286BTD     N3 5761   1.493   7.608   2.296  0.0000  0.0000  0.0000
  286BTD     N4 5762   1.380   7.868   2.118  0.0000  0.0000  0.0000
  286BTD     C5 5763   1.310   7.704   1.977  0.0000  0.0000  0.0000
  286BTD     C6 5764   1.293   7.574   1.921  0.0000  0.0000  0.0000
  286BTD     C7 5765   1.344   7.463   1.994  0.0000  0.0000  0.0000
  286BTD     C8 5766   1.405   7.484   2.119  0.0000  0.0000  0.0000
  286BTD    C15 5767   1.424   7.617   2.172  0.0000  0.0000  0.0000
  286BTD    C16 5768   1.376   7.729   2.095  0.0000  0.0000  0.0000
  286BTD    C43 5769   1.468   7.945   2.207  0.0000  0.0000  0.0000
  286BTD    C44 5770   1.621   7.935   2.177  0.0000  0.0000  0.0000
  286BTD    C45 5771   1.693   8.034   2.271  0.0000  0.0000  0.0000
  286BTD    C46 5772   1.843   7.992   2.270  0.0000  0.0000  0.0000
  286BTD    C47 5773   1.654   7.962   2.027  0.0000  0.0000  0.0000
  286BTD    C48 5774   1.668   8.103   1.964  0.0000  0.0000  0.0000
  286BTD    C49 5775   1.682   8.071   1.813  0.0000  0.0000  0.0000
  286BTD    C50 5776   1.779   8.025   1.699  0.0000  0.0000  0.0000
  286BTD    C75 5777   1.480   7.696   2.412  0.0000  0.0000  0.0000
  286BTD    C76 5778   1.331   7.726   2.448  0.0000  0.0000  0.0000
  286BTD    C77 5779   1.322   7.814   2.575  0.0000  0.0000  0.0000
  286BTD    C78 5780   1.181   7.867   2.610  0.0000  0.0000  0.0000
  286BTD    C79 5781   1.246   7.599   2.468  0.0000  0.0000  0.0000
  286BTD    C80 5782   1.273   7.510   2.592  0.0000  0.0000  0.0000
  286BTD    C81 5783   1.181   7.385   2.587  0.0000  0.0000  0.0000
  286BTD    C82 5784   1.212   7.259   2.500  0.0000  0.0000  0.0000
  287TTP     S1 5785   1.183   7.894   1.790  0.0000  0.0000  0.0000
  287TTP     S5 5786   1.282   8.213   2.047  0.0000  0.0000  0.0000
  287TTP     C1 5787   1.185   8.276   1.915  0.0000  0.0000  0.0000
  287TTP     C2 5788   1.147   8.179   1.827  0.0000  0.0000  0.0000
  287TTP     C3 5789   1.203   8.056   1.860  0.0000  0.0000  0.0000
  287TTP     C4 5790   1.268   7.833   1.921  0.0000  0.0000  0.0000
  287TTP    C17 5791   1.319   7.924   2.012  0.0000  0.0000  0.0000
  287TTP    C18 5792   1.275   8.058   1.972  0.0000  0.0000  0.0000
  287TTP    C32 5793   1.062   8.196   1.699  0.0000  0.0000  0.0000
  287TTP    C33 5794   1.152   8.230   1.577  0.0000  0.0000  0.0000
  287TTP    C34 5795   1.059   8.253   1.456  0.0000  0.0000  0.0000
  287TTP    C35 5796   1.118   8.324   1.331  0.0000  0.0000  0.0000
  287TTP    C36 5797   1.023   8.418   1.250  0.0000  0.0000  0.0000
  287TTP    C37 5798   0.904   8.354   1.173  0.0000  0.0000  0.0000
  287TTP    C38 5799   0.823   8.222   1.161  0.0000  0.0000  0.0000
  287TTP    C39 5800   0.741   8.172   1.284  0.0000  0.0000  0.0000
  287TTP    C40 5801   0.682   8.274   1.384  0.0000  0.0000  0.0000
  287TTP    C41 5802   0.695   8.248   1.537  0.0000  0.0000  0.0000
  287TTP    C42 5803   0.677   8.369   1.632  0.0000  0.0000  0.0000
  288TTP     S1 5804   1.488   7.225   2.234  0.0000  0.0000  0.0000
  288TTP     S5 5805   1.690   7.428   2.542  0.0000  0.0000  0.0000
  288TTP     C1 5806   1.721   7.255   2.564  0.0000  0.0000  0.0000
  288TTP     C2 5807   1.656   7.181   2.463  0.0000  0.0000  0.0000
  288TTP     C3 5808   1.579   7.261   2.379  0.0000  0.0000  0.0000
  288TTP     C4 5809   1.465   7.397   2.213  0.0000  0.0000  0.0000
  288TTP    C17 5810   1.519   7.472   2.317  0.0000  0.0000  0.0000
  288TTP    C18 5811   1.589   7.395   2.412  0.0000  0.0000  0.0000
  288TTP    C32 5812   1.649   7.027   2.456  0.0000  0.0000  0.0000
  288TTP    C33 5813   1.544   6.960   2.550  0.0000  0.0000  0.0000
  288TTP    C34 5814   1.537   6.805   2.534  0.0000  0.0000  0.0000
  288TTP    C35 5815   1.428   6.755   2.632  0.0000  0.0000  0.0000
  288TTP    C36 5816   1.444   6.601   2.638  0.0000  0.0000  0.0000
  288TTP    C37 5817   1.411   6.563   2.490  0.0000  0.0000  0.0000
  288TTP    C38 5818   1.405   6.409   2.461  0.0000  0.0000  0.0000
  288TTP    C39 5819   1.343   6.358   2.329  0.0000  0.0000  0.0000
  288TTP    C40 5820   1.434   6.290   2.222  0.0000  0.0000  0.0000
  288TTP    C41 5821   1.509   6.159   2.256  0.0000  0.0000  0.0000
  288TTP    C42 5822   1.531   6.052   2.147  0.0000  0.0000  0.0000
  289FIC     F1 5823   1.215   8.903   2.439  0.0000  0.0000  0.0000
  289FIC     F2 5824   1.106   9.057   2.247  0.0000  0.0000  0.0000
  289FIC     O1 5825   1.269   8.444   2.178  0.0000  0.0000  0.0000
  289FIC     N5 5826   0.953   8.944   1.802  0.0000  0.0000  0.0000
  289FIC     N6 5827   1.001   8.563   1.623  0.0000  0.0000  0.0000
  289FIC    C19 5828   1.141   8.413   1.905  0.0000  0.0000  0.0000
  289FIC    C20 5829   1.150   8.524   1.986  0.0000  0.0000  0.0000
  289FIC    C21 5830   1.213   8.532   2.113  0.0000  0.0000  0.0000
  289FIC    C22 5831   1.188   8.666   2.167  0.0000  0.0000  0.0000
  289FIC    C23 5832   1.218   8.716   2.298  0.0000  0.0000  0.0000
  289FIC    C24 5833   1.189   8.845   2.322  0.0000  0.0000  0.0000
  289FIC    C25 5834   1.129   8.924   2.213  0.0000  0.0000  0.0000
  289FIC    C26 5835   1.093   8.879   2.096  0.0000  0.0000  0.0000
  289FIC    C27 5836   1.128   8.744   2.068  0.0000  0.0000  0.0000
  289FIC    C28 5837   1.104   8.658   1.952  0.0000  0.0000  0.0000
  289FIC    C29 5838   1.044   8.701   1.836  0.0000  0.0000  0.0000
  289FIC    C30 5839   0.996   8.844   1.823  0.0000  0.0000  0.0000
  289FIC    C31 5840   1.027   8.623   1.717  0.0000  0.0000  0.0000
  290FIC     F1 5841   2.177   7.578   3.155  0.0000  0.0000  0.0000
  290FIC     F2 5842   2.224   7.335   3.236  0.0000  0.0000  0.0000
  290FIC     O1 5843   1.865   7.484   2.733  0.0000  0.0000  0.0000
  290FIC     N5 5844   2.047   6.915   3.086  0.0000  0.0000  0.0000
  290FIC     N6 5845   1.857   6.860   2.708  0.0000  0.0000  0.0000
  290FIC    C19 5846   1.797   7.197   2.665  0.0000  0.0000  0.0000
  290FIC    C20 5847   1.877   7.243   2.764  0.0000  0.0000  0.0000
  290FIC    C21 5848   1.908   7.390   2.797  0.0000  0.0000  0.0000
  290FIC    C22 5849   1.987   7.392   2.912  0.0000  0.0000  0.0000
  290FIC    C23 5850   2.044   7.502   2.979  0.0000  0.0000  0.0000
  290FIC    C24 5851   2.120   7.485   3.088  0.0000  0.0000  0.0000
  290FIC    C25 5852   2.149   7.356   3.131  0.0000  0.0000  0.0000
  290FIC    C26 5853   2.093   7.237   3.072  0.0000  0.0000  0.0000
  290FIC    C27 5854   2.010   7.259   2.960  0.0000  0.0000  0.0000
  290FIC    C28 5855   1.944   7.169   2.867  0.0000  0.0000  0.0000
  290FIC    C29 5856   1.948   7.030   2.879  0.0000  0.0000  0.0000
  290FIC    C30 5857   2.005   6.965   2.998  0.0000  0.0000  0.0000
  290FIC    C31 5858   1.892   6.936   2.786  0.0000  0.0000  0.0000
  291BTD     S2 5859   0.239   4.176  -0.198  0.0000  0.0000  0.0000
  291BTD     N1 5860   0.252   4.012  -0.193  0.0000  0.0000  0.0000
  291BTD     N2 5861   0.304   4.216  -0.055  0.0000  0.0000  0.0000
  291BTD     N3 5862   0.505   3.969   0.294  0.0000  0.0000  0.0000
  291BTD     N4 5863   0.449   3.697   0.102  0.0000  0.0000  0.0000
  291BTD     C5 5864   0.348   3.856  -0.037  0.0000  0.0000  0.0000
  291BTD     C6 5865   0.308   3.984  -0.081  0.0000  0.0000  0.0000
  291BTD     C7 5866   0.337   4.099  -0.001  0.0000  0.0000  0.0000
  291BTD     C8 5867   0.404   4.082   0.124  0.0000  0.0000  0.0000
  291BTD    C15 5868   0.440   3.954   0.174  0.0000  0.0000  0.0000
  291BTD    C16 5869   0.421   3.833   0.088  0.0000  0.0000  0.0000
  291BTD    C43 5870   0.552   3.632   0.179  0.0000  0.0000  0.0000
  291BTD    C44 5871   0.694   3.684   0.142  0.0000  0.0000  0.0000
  291BTD    C45 5872   0.732   3.709  -0.007  0.0000  0.0000  0.0000
  291BTD    C46 5873   0.738   3.577  -0.089  0.0000  0.0000  0.0000
  291BTD    C47 5874   0.810   3.604   0.208  0.0000  0.0000  0.0000
  291BTD    C48 5875   0.827   3.610   0.362  0.0000  0.0000  0.0000
  291BTD    C49 5876   0.916   3.504   0.434  0.0000  0.0000  0.0000
  291BTD    C50 5877   0.895   3.479   0.586  0.0000  0.0000  0.0000
  291BTD    C75 5878   0.517   3.871   0.413  0.0000  0.0000  0.0000
  291BTD    C76 5879   0.379   3.807   0.448  0.0000  0.0000  0.0000
  291BTD    C77 5880   0.380   3.721   0.577  0.0000  0.0000  0.0000
  291BTD    C78 5881   0.525   3.753   0.622  0.0000  0.0000  0.0000
  291BTD    C79 5882   0.258   3.901   0.466  0.0000  0.0000  0.0000
  291BTD    C80 5883   0.279   4.033   0.545  0.0000  0.0000  0.0000
  291BTD    C81 5884   0.183   4.152   0.521  0.0000  0.0000  0.0000
  291BTD    C82 5885   0.051   4.157   0.604  0.0000  0.0000  0.0000
  292TTP     S1 5886   0.273   3.657  -0.236  0.0000  0.0000  0.0000
  292TTP     S5 5887   0.456   3.350  -0.017  0.0000  0.0000  0.0000
  292TTP     C1 5888   0.397   3.280  -0.163  0.0000  0.0000  0.0000
  292TTP     C2 5889   0.336   3.371  -0.241  0.0000  0.0000  0.0000
  292TTP     C3 5890   0.334   3.502  -0.189  0.0000  0.0000  0.0000
  292TTP     C4 5891   0.339   3.728  -0.094  0.0000  0.0000  0.0000
  292TTP    C17 5892   0.399   3.636  -0.009  0.0000  0.0000  0.0000
  292TTP    C18 5893   0.400   3.503  -0.061  0.0000  0.0000  0.0000
  292TTP    C32 5894   0.278   3.347  -0.382  0.0000  0.0000  0.0000
  292TTP    C33 5895   0.126   3.362  -0.405  0.0000  0.0000  0.0000
  292TTP    C34 5896   0.068   3.327  -0.544  0.0000  0.0000  0.0000
  292TTP    C35 5897  -0.085   3.333  -0.515  0.0000  0.0000  0.0000
  292TTP    C36 5898  -0.131   3.186  -0.491  0.0000  0.0000  0.0000
  292TTP    C37 5899  -0.063   3.073  -0.573  0.0000  0.0000  0.0000
  292TTP    C38 5900  -0.147   2.953  -0.625  0.0000  0.0000  0.0000
  292TTP    C39 5901  -0.037   2.908  -0.723  0.0000  0.0000  0.0000
  292TTP    C40 5902  -0.082   2.867  -0.867  0.0000  0.0000  0.0000
  292TTP    C41 5903  -0.001   2.759  -0.944  0.0000  0.0000  0.0000
  292TTP    C42 5904  -0.063   2.693  -1.070  0.0000  0.0000  0.0000
  293TTP     S1 5905   0.437   4.347   0.248  0.0000  0.0000  0.0000
  293TTP     S5 5906   0.659   4.172   0.559  0.0000  0.0000  0.0000
  293TTP     C1 5907   0.665   4.347   0.576  0.0000  0.0000  0.0000
  293TTP     C2 5908   0.594   4.412   0.480  0.0000  0.0000  0.0000
  293TTP     C3 5909   0.533   4.324   0.391  0.0000  0.0000  0.0000
  293TTP     C4 5910   0.439   4.177   0.222  0.0000  0.0000  0.0000
  293TTP    C17 5911   0.502   4.105   0.325  0.0000  0.0000  0.0000
  293TTP    C18 5912   0.561   4.190   0.420  0.0000  0.0000  0.0000
  293TTP    C32 5913   0.576   4.566   0.471  0.0000  0.0000  0.0000
  293TTP    C33 5914   0.458   4.619   0.559  0.0000  0.0000  0.0000
  293TTP    C34 5915   0.440   4.772   0.554  0.0000  0.0000  0.0000
  293TTP    C35 5916   0.412   4.815   0.407  0.0000  0.0000  0.0000
  293TTP    C36 5917   0.398   4.966   0.375  0.0000  0.0000  0.0000
  293TTP    C37 5918   0.521   5.060   0.389  0.0000  0.0000  0.0000
  293TTP    C38 5919   0.435   5.187   0.361  0.0000  0.0000  0.0000
  293TTP    C39 5920   0.529   5.287   0.432  0.0000  0.0000  0.0000
  293TTP    C40 5921   0.535   5.285   0.588  0.0000  0.0000  0.0000
  293TTP    C41 5922   0.642   5.198   0.659  0.0000  0.0000  0.0000
  293TTP    C42 5923   0.607   5.054   0.709  0.0000  0.0000  0.0000
  294FIC     F1 5924   0.729   2.631   0.209  0.0000  0.0000  0.0000
  294FIC     F2 5925   0.688   2.495  -0.020  0.0000  0.0000  0.0000
  294FIC     O1 5926   0.519   3.107   0.072  0.0000  0.0000  0.0000
  294FIC     N5 5927   0.480   2.624  -0.429  0.0000  0.0000  0.0000
  294FIC     N6 5928   0.309   3.021  -0.518  0.0000  0.0000  0.0000
  294FIC    C19 5929   0.414   3.145  -0.205  0.0000  0.0000  0.0000
  294FIC    C20 5930   0.466   3.031  -0.153  0.0000  0.0000  0.0000
  294FIC    C21 5931   0.521   3.020  -0.019  0.0000  0.0000  0.0000
  294FIC    C22 5932   0.567   2.881  -0.004  0.0000  0.0000  0.0000
  294FIC    C23 5933   0.628   2.827   0.113  0.0000  0.0000  0.0000
  294FIC    C24 5934   0.670   2.694   0.092  0.0000  0.0000  0.0000
  294FIC    C25 5935   0.650   2.626  -0.020  0.0000  0.0000  0.0000
  294FIC    C26 5936   0.593   2.680  -0.125  0.0000  0.0000  0.0000
  294FIC    C27 5937   0.550   2.808  -0.112  0.0000  0.0000  0.0000
  294FIC    C28 5938   0.482   2.900  -0.213  0.0000  0.0000  0.0000
  294FIC    C29 5939   0.440   2.872  -0.354  0.0000  0.0000  0.0000
  294FIC    C30 5940   0.461   2.728  -0.393  0.0000  0.0000  0.0000
  294FIC    C31 5941   0.373   2.958  -0.449  0.0000  0.0000  0.0000
  295FIC     F1 5942   1.124   4.075   1.189  0.0000  0.0000  0.0000
  295FIC     F2 5943   1.178   4.326   1.252  0.0000  0.0000  0.0000
  295FIC     O1 5944   0.803   4.138   0.773  0.0000  0.0000  0.0000
  295FIC     N5 5945   1.029   4.740   1.046  0.0000  0.0000  0.0000
  295FIC     N6 5946   0.835   4.757   0.672  0.0000  0.0000  0.0000
  295FIC    C19 5947   0.742   4.418   0.674  0.0000  0.0000  0.0000
  295FIC    C20 5948   0.823   4.381   0.776  0.0000  0.0000  0.0000
  295FIC    C21 5949   0.848   4.240   0.819  0.0000  0.0000  0.0000
  295FIC    C22 5950   0.933   4.249   0.939  0.0000  0.0000  0.0000
  295FIC    C23 5951   0.985   4.142   1.012  0.0000  0.0000  0.0000
  295FIC    C24 5952   1.061   4.173   1.116  0.0000  0.0000  0.0000
  295FIC    C25 5953   1.093   4.306   1.149  0.0000  0.0000  0.0000
  295FIC    C26 5954   1.045   4.409   1.075  0.0000  0.0000  0.0000
  295FIC    C27 5955   0.963   4.380   0.970  0.0000  0.0000  0.0000
  295FIC    C28 5956   0.899   4.466   0.866  0.0000  0.0000  0.0000
  295FIC    C29 5957   0.912   4.604   0.861  0.0000  0.0000  0.0000
  295FIC    C30 5958   0.977   4.678   0.963  0.0000  0.0000  0.0000
  295FIC    C31 5959   0.868   4.687   0.752  0.0000  0.0000  0.0000
  296BTD     S2 5960   1.365   4.184   2.197  0.0000  0.0000  0.0000
  296BTD     N1 5961   1.376   4.023   2.186  0.0000  0.0000  0.0000
  296BTD     N2 5962   1.286   4.216   2.060  0.0000  0.0000  0.0000
  296BTD     N3 5963   1.117   3.954   1.698  0.0000  0.0000  0.0000
  296BTD     N4 5964   1.230   3.694   1.876  0.0000  0.0000  0.0000
  296BTD     C5 5965   1.300   3.858   2.017  0.0000  0.0000  0.0000
  296BTD     C6 5966   1.317   3.988   2.073  0.0000  0.0000  0.0000
  296BTD     C7 5967   1.266   4.099   2.000  0.0000  0.0000  0.0000
  296BTD     C8 5968   1.205   4.078   1.875  0.0000  0.0000  0.0000
  296BTD    C15 5969   1.186   3.945   1.822  0.0000  0.0000  0.0000
  296BTD    C16 5970   1.234   3.833   1.899  0.0000  0.0000  0.0000
  296BTD    C43 5971   1.142   3.617   1.787  0.0000  0.0000  0.0000
  296BTD    C44 5972   0.989   3.627   1.817  0.0000  0.0000  0.0000
  296BTD    C45 5973   0.917   3.528   1.723  0.0000  0.0000  0.0000
  296BTD    C46 5974   0.767   3.570   1.724  0.0000  0.0000  0.0000
  296BTD    C47 5975   0.956   3.600   1.967  0.0000  0.0000  0.0000
  296BTD    C48 5976   0.942   3.459   2.030  0.0000  0.0000  0.0000
  296BTD    C49 5977   0.928   3.491   2.181  0.0000  0.0000  0.0000
  296BTD    C50 5978   0.831   3.537   2.295  0.0000  0.0000  0.0000
  296BTD    C75 5979   1.130   3.866   1.582  0.0000  0.0000  0.0000
  296BTD    C76 5980   1.279   3.836   1.546  0.0000  0.0000  0.0000
  296BTD    C77 5981   1.288   3.748   1.419  0.0000  0.0000  0.0000
  296BTD    C78 5982   1.429   3.695   1.384  0.0000  0.0000  0.0000
  296BTD    C79 5983   1.364   3.963   1.526  0.0000  0.0000  0.0000
  296BTD    C80 5984   1.337   4.052   1.402  0.0000  0.0000  0.0000
  296BTD    C81 5985   1.429   4.177   1.407  0.0000  0.0000  0.0000
  296BTD    C82 5986   1.398   4.303   1.494  0.0000  0.0000  0.0000
  297TTP     S1 5987   1.427   3.668   2.204  0.0000  0.0000  0.0000
  297TTP     S5 5988   1.328   3.349   1.947  0.0000  0.0000  0.0000
  297TTP     C1 5989   1.425   3.286   2.079  0.0000  0.0000  0.0000
  297TTP     C2 5990   1.463   3.383   2.167  0.0000  0.0000  0.0000
  297TTP     C3 5991   1.407   3.506   2.134  0.0000  0.0000  0.0000
  297TTP     C4 5992   1.342   3.729   2.073  0.0000  0.0000  0.0000
  297TTP    C17 5993   1.291   3.638   1.982  0.0000  0.0000  0.0000
  297TTP    C18 5994   1.335   3.504   2.022  0.0000  0.0000  0.0000
  297TTP    C32 5995   1.548   3.366   2.295  0.0000  0.0000  0.0000
  297TTP    C33 5996   1.458   3.332   2.417  0.0000  0.0000  0.0000
  297TTP    C34 5997   1.551   3.309   2.538  0.0000  0.0000  0.0000
  297TTP    C35 5998   1.492   3.238   2.663  0.0000  0.0000  0.0000
  297TTP    C36 5999   1.587   3.144   2.744  0.0000  0.0000  0.0000
  297TTP    C37 6000   1.706   3.208   2.821  0.0000  0.0000  0.0000
  297TTP    C38 6001   1.787   3.340   2.833  0.0000  0.0000  0.0000
  297TTP    C39 6002   1.869   3.390   2.710  0.0000  0.0000  0.0000
  297TTP    C40 6003   1.928   3.288   2.610  0.0000  0.0000  0.0000
  297TTP    C41 6004   1.915   3.314   2.457  0.0000  0.0000  0.0000
  297TTP    C42 6005   1.933   3.193   2.362  0.0000  0.0000  0.0000
  298TTP     S1 6006   1.122   4.337   1.760  0.0000  0.0000  0.0000
  298TTP     S5 6007   0.920   4.134   1.452  0.0000  0.0000  0.0000
  298TTP     C1 6008   0.889   4.307   1.430  0.0000  0.0000  0.0000
  298TTP     C2 6009   0.954   4.381   1.531  0.0000  0.0000  0.0000
  298TTP     C3 6010   1.031   4.301   1.615  0.0000  0.0000  0.0000
  298TTP     C4 6011   1.145   4.165   1.781  0.0000  0.0000  0.0000
  298TTP    C17 6012   1.091   4.090   1.677  0.0000  0.0000  0.0000
  298TTP    C18 6013   1.021   4.167   1.582  0.0000  0.0000  0.0000
  298TTP    C32 6014   0.961   4.535   1.538  0.0000  0.0000  0.0000
  298TTP    C33 6015   1.067   4.602   1.444  0.0000  0.0000  0.0000
  298TTP    C34 6016   1.073   4.757   1.460  0.0000  0.0000  0.0000
  298TTP    C35 6017   1.182   4.807   1.362  0.0000  0.0000  0.0000
  298TTP    C36 6018   1.166   4.961   1.356  0.0000  0.0000  0.0000
  298TTP    C37 6019   1.199   4.999   1.504  0.0000  0.0000  0.0000
  298TTP    C38 6020   1.205   5.153   1.533  0.0000  0.0000  0.0000
  298TTP    C39 6021   1.267   5.204   1.665  0.0000  0.0000  0.0000
  298TTP    C40 6022   1.176   5.272   1.772  0.0000  0.0000  0.0000
  298TTP    C41 6023   1.101   5.403   1.738  0.0000  0.0000  0.0000
  298TTP    C42 6024   1.079   5.510   1.847  0.0000  0.0000  0.0000
  299FIC     F1 6025   1.395   2.659   1.555  0.0000  0.0000  0.0000
  299FIC     F2 6026   1.504   2.505   1.747  0.0000  0.0000  0.0000
  299FIC     O1 6027   1.341   3.118   1.816  0.0000  0.0000  0.0000
  299FIC     N5 6028   1.657   2.618   2.192  0.0000  0.0000  0.0000
  299FIC     N6 6029   1.609   2.999   2.371  0.0000  0.0000  0.0000
  299FIC    C19 6030   1.469   3.149   2.089  0.0000  0.0000  0.0000
  299FIC    C20 6031   1.460   3.038   2.008  0.0000  0.0000  0.0000
  299FIC    C21 6032   1.397   3.030   1.881  0.0000  0.0000  0.0000
  299FIC    C22 6033   1.422   2.896   1.827  0.0000  0.0000  0.0000
  299FIC    C23 6034   1.392   2.846   1.696  0.0000  0.0000  0.0000
  299FIC    C24 6035   1.421   2.717   1.672  0.0000  0.0000  0.0000
  299FIC    C25 6036   1.481   2.638   1.781  0.0000  0.0000  0.0000
  299FIC    C26 6037   1.517   2.683   1.898  0.0000  0.0000  0.0000
  299FIC    C27 6038   1.482   2.818   1.926  0.0000  0.0000  0.0000
  299FIC    C28 6039   1.506   2.904   2.042  0.0000  0.0000  0.0000
  299FIC    C29 6040   1.566   2.861   2.158  0.0000  0.0000  0.0000
  299FIC    C30 6041   1.614   2.718   2.171  0.0000  0.0000  0.0000
  299FIC    C31 6042   1.583   2.939   2.277  0.0000  0.0000  0.0000
  300FIC     F1 6043   0.433   3.984   0.839  0.0000  0.0000  0.0000
  300FIC     F2 6044   0.386   4.227   0.758  0.0000  0.0000  0.0000
  300FIC     O1 6045   0.745   4.078   1.261  0.0000  0.0000  0.0000
  300FIC     N5 6046   0.563   4.647   0.908  0.0000  0.0000  0.0000
  300FIC     N6 6047   0.753   4.702   1.286  0.0000  0.0000  0.0000
  300FIC    C19 6048   0.813   4.365   1.329  0.0000  0.0000  0.0000
  300FIC    C20 6049   0.733   4.319   1.230  0.0000  0.0000  0.0000
  300FIC    C21 6050   0.702   4.172   1.197  0.0000  0.0000  0.0000
  300FIC    C22 6051   0.623   4.170   1.082  0.0000  0.0000  0.0000
  300FIC    C23 6052   0.566   4.060   1.015  0.0000  0.0000  0.0000
  300FIC    C24 6053   0.490   4.077   0.906  0.0000  0.0000  0.0000
  300FIC    C25 6054   0.461   4.206   0.863  0.0000  0.0000  0.0000
  300FIC    C26 6055   0.517   4.325   0.922  0.0000  0.0000  0.0000
  300FIC    C27 6056   0.600   4.303   1.034  0.0000  0.0000  0.0000
  300FIC    C28 6057   0.666   4.393   1.127  0.0000  0.0000  0.0000
  300FIC    C29 6058   0.662   4.532   1.115  0.0000  0.0000  0.0000
  300FIC    C30 6059   0.605   4.597   0.996  0.0000  0.0000  0.0000
  300FIC    C31 6060   0.718   4.626   1.208  0.0000  0.0000  0.0000
  301BTD     S2 6061   0.135  10.276   0.801  0.0000  0.0000  0.0000
  301BTD     N1 6062   0.149  10.441   0.805  0.0000  0.0000  0.0000
  301BTD     N2 6063   0.200  10.237   0.943  0.0000  0.0000  0.0000
  301BTD     N3 6064   0.402  10.484   1.293  0.0000  0.0000  0.0000
  301BTD     N4 6065   0.345  10.755   1.100  0.0000  0.0000  0.0000
  301BTD     C5 6066   0.245  10.596   0.962  0.0000  0.0000  0.0000
  301BTD     C6 6067   0.205  10.468   0.918  0.0000  0.0000  0.0000
  301BTD     C7 6068   0.234  10.354   0.998  0.0000  0.0000  0.0000
  301BTD     C8 6069   0.300  10.371   1.122  0.0000  0.0000  0.0000
  301BTD    C15 6070   0.336  10.498   1.172  0.0000  0.0000  0.0000
  301BTD    C16 6071   0.318  10.620   1.087  0.0000  0.0000  0.0000
  301BTD    C43 6072   0.449  10.821   1.177  0.0000  0.0000  0.0000
  301BTD    C44 6073   0.591  10.769   1.141  0.0000  0.0000  0.0000
  301BTD    C45 6074   0.629  10.744   0.991  0.0000  0.0000  0.0000
  301BTD    C46 6075   0.634  10.875   0.910  0.0000  0.0000  0.0000
  301BTD    C47 6076   0.706  10.849   1.207  0.0000  0.0000  0.0000
  301BTD    C48 6077   0.724  10.843   1.360  0.0000  0.0000  0.0000
  301BTD    C49 6078   0.812  10.949   1.432  0.0000  0.0000  0.0000
  301BTD    C50 6079   0.792  10.973   1.584  0.0000  0.0000  0.0000
  301BTD    C75 6080   0.413  10.582   1.411  0.0000  0.0000  0.0000
  301BTD    C76 6081   0.275  10.645   1.446  0.0000  0.0000  0.0000
  301BTD    C77 6082   0.277  10.731   1.575  0.0000  0.0000  0.0000
  301BTD    C78 6083   0.421  10.700   1.621  0.0000  0.0000  0.0000
  301BTD    C79 6084   0.154  10.551   1.465  0.0000  0.0000  0.0000
  301BTD    C80 6085   0.175  10.420   1.544  0.0000  0.0000  0.0000
  301BTD    C81 6086   0.079  10.300   1.519  0.0000  0.0000  0.0000
  301BTD    C82 6087  -0.052  10.296   1.603  0.0000  0.0000  0.0000
  302TTP     S1 6088   0.170  10.796   0.763  0.0000  0.0000  0.0000
  302TTP     S5 6089   0.353  11.103   0.981  0.0000  0.0000  0.0000
  302TTP     C1 6090   0.293  11.173   0.835  0.0000  0.0000  0.0000
  302TTP     C2 6091   0.233  11.081   0.758  0.0000  0.0000  0.0000
  302TTP     C3 6092   0.231  10.951   0.809  0.0000  0.0000  0.0000
  302TTP     C4 6093   0.235  10.725   0.905  0.0000  0.0000  0.0000
  302TTP    C17 6094   0.296  10.817   0.989  0.0000  0.0000  0.0000
  302TTP    C18 6095   0.297  10.949   0.937  0.0000  0.0000  0.0000
  302TTP    C32 6096   0.175  11.106   0.616  0.0000  0.0000  0.0000
  302TTP    C33 6097   0.022  11.091   0.594  0.0000  0.0000  0.0000
  302TTP    C34 6098  -0.036  11.126   0.454  0.0000  0.0000  0.0000
  302TTP    C35 6099  -0.188  11.120   0.483  0.0000  0.0000  0.0000
  302TTP    C36 6100  -0.235  11.266   0.508  0.0000  0.0000  0.0000
  302TTP    C37 6101  -0.166  11.380   0.425  0.0000  0.0000  0.0000
  302TTP    C38 6102  -0.251  11.499   0.374  0.0000  0.0000  0.0000
  302TTP    C39 6103  -0.141  11.544   0.276  0.0000  0.0000  0.0000
  302TTP    C40 6104  -0.185  11.586   0.132  0.0000  0.0000  0.0000
  302TTP    C41 6105  -0.104  11.694   0.054  0.0000  0.0000  0.0000
  302TTP    C42 6106  -0.167  11.759  -0.072  0.0000  0.0000  0.0000
  303TTP     S1 6107   0.334  10.105   1.247  0.0000  0.0000  0.0000
  303TTP     S5 6108   0.556  10.281   1.557  0.0000  0.0000  0.0000
  303TTP     C1 6109   0.562  10.105   1.575  0.0000  0.0000  0.0000
  303TTP     C2 6110   0.491  10.040   1.479  0.0000  0.0000  0.0000
  303TTP     C3 6111   0.430  10.128   1.390  0.0000  0.0000  0.0000
  303TTP     C4 6112   0.336  10.276   1.221  0.0000  0.0000  0.0000
  303TTP    C17 6113   0.399  10.347   1.323  0.0000  0.0000  0.0000
  303TTP    C18 6114   0.457  10.263   1.419  0.0000  0.0000  0.0000
  303TTP    C32 6115   0.472   9.886   1.469  0.0000  0.0000  0.0000
  303TTP    C33 6116   0.355   9.833   1.557  0.0000  0.0000  0.0000
  303TTP    C34 6117   0.337   9.680   1.552  0.0000  0.0000  0.0000
  303TTP    C35 6118   0.308   9.637   1.406  0.0000  0.0000  0.0000
  303TTP    C36 6119   0.295   9.486   1.373  0.0000  0.0000  0.0000
  303TTP    C37 6120   0.418   9.393   1.388  0.0000  0.0000  0.0000
  303TTP    C38 6121   0.332   9.266   1.359  0.0000  0.0000  0.0000
  303TTP    C39 6122   0.425   9.165   1.431  0.0000  0.0000  0.0000
  303TTP    C40 6123   0.432   9.168   1.586  0.0000  0.0000  0.0000
  303TTP    C41 6124   0.538   9.255   1.658  0.0000  0.0000  0.0000
  303TTP    C42 6125   0.504   9.398   1.707  0.0000  0.0000  0.0000
  304FIC     F1 6126   0.626  11.822   1.208  0.0000  0.0000  0.0000
  304FIC     F2 6127   0.585  11.957   0.979  0.0000  0.0000  0.0000
  304FIC     O1 6128   0.416  11.346   1.071  0.0000  0.0000  0.0000
  304FIC     N5 6129   0.377  11.829   0.569  0.0000  0.0000  0.0000
  304FIC     N6 6130   0.205  11.432   0.481  0.0000  0.0000  0.0000
  304FIC    C19 6131   0.310  11.307   0.793  0.0000  0.0000  0.0000
  304FIC    C20 6132   0.362  11.421   0.845  0.0000  0.0000  0.0000
  304FIC    C21 6133   0.417  11.432   0.979  0.0000  0.0000  0.0000
  304FIC    C22 6134   0.464  11.571   0.995  0.0000  0.0000  0.0000
  304FIC    C23 6135   0.525  11.625   1.112  0.0000  0.0000  0.0000
  304FIC    C24 6136   0.566  11.759   1.090  0.0000  0.0000  0.0000
  304FIC    C25 6137   0.547  11.826   0.978  0.0000  0.0000  0.0000
  304FIC    C26 6138   0.489  11.772   0.873  0.0000  0.0000  0.0000
  304FIC    C27 6139   0.446  11.644   0.886  0.0000  0.0000  0.0000
  304FIC    C28 6140   0.378  11.553   0.786  0.0000  0.0000  0.0000
  304FIC    C29 6141   0.336  11.581   0.644  0.0000  0.0000  0.0000
  304FIC    C30 6142   0.357  11.725   0.605  0.0000  0.0000  0.0000
  304FIC    C31 6143   0.270  11.495   0.549  0.0000  0.0000  0.0000
  305FIC     F1 6144   1.020  10.378   2.188  0.0000  0.0000  0.0000
  305FIC     F2 6145   1.075  10.126   2.250  0.0000  0.0000  0.0000
  305FIC     O1 6146   0.700  10.314   1.771  0.0000  0.0000  0.0000
  305FIC     N5 6147   0.926   9.712   2.044  0.0000  0.0000  0.0000
  305FIC     N6 6148   0.731   9.696   1.671  0.0000  0.0000  0.0000
  305FIC    C19 6149   0.638  10.035   1.673  0.0000  0.0000  0.0000
  305FIC    C20 6150   0.720  10.072   1.775  0.0000  0.0000  0.0000
  305FIC    C21 6151   0.745  10.212   1.817  0.0000  0.0000  0.0000
  305FIC    C22 6152   0.829  10.204   1.937  0.0000  0.0000  0.0000
  305FIC    C23 6153   0.882  10.310   2.010  0.0000  0.0000  0.0000
  305FIC    C24 6154   0.957  10.280   2.115  0.0000  0.0000  0.0000
  305FIC    C25 6155   0.990  10.147   2.147  0.0000  0.0000  0.0000
  305FIC    C26 6156   0.941  10.043   2.073  0.0000  0.0000  0.0000
  305FIC    C27 6157   0.860  10.072   1.969  0.0000  0.0000  0.0000
  305FIC    C28 6158   0.795   9.986   1.864  0.0000  0.0000  0.0000
  305FIC    C29 6159   0.809   9.848   1.860  0.0000  0.0000  0.0000
  305FIC    C30 6160   0.873   9.774   1.961  0.0000  0.0000  0.0000
  305FIC    C31 6161   0.764   9.766   1.751  0.0000  0.0000  0.0000
  306BTD     S2 6162   1.262  10.268   3.196  0.0000  0.0000  0.0000
  306BTD     N1 6163   1.272  10.429   3.185  0.0000  0.0000  0.0000
  306BTD     N2 6164   1.183  10.237   3.058  0.0000  0.0000  0.0000
  306BTD     N3 6165   1.013  10.499   2.697  0.0000  0.0000  0.0000
  306BTD     N4 6166   1.127  10.759   2.874  0.0000  0.0000  0.0000
  306BTD     C5 6167   1.197  10.595   3.016  0.0000  0.0000  0.0000
  306BTD     C6 6168   1.214  10.464   3.072  0.0000  0.0000  0.0000
  306BTD     C7 6169   1.163  10.354   2.998  0.0000  0.0000  0.0000
  306BTD     C8 6170   1.101  10.375   2.874  0.0000  0.0000  0.0000
  306BTD    C15 6171   1.082  10.508   2.821  0.0000  0.0000  0.0000
  306BTD    C16 6172   1.130  10.619   2.897  0.0000  0.0000  0.0000
  306BTD    C43 6173   1.038  10.836   2.786  0.0000  0.0000  0.0000
  306BTD    C44 6174   0.886  10.826   2.816  0.0000  0.0000  0.0000
  306BTD    C45 6175   0.813  10.925   2.721  0.0000  0.0000  0.0000
  306BTD    C46 6176   0.663  10.883   2.723  0.0000  0.0000  0.0000
  306BTD    C47 6177   0.853  10.852   2.965  0.0000  0.0000  0.0000
  306BTD    C48 6178   0.838  10.993   3.029  0.0000  0.0000  0.0000
  306BTD    C49 6179   0.824  10.962   3.180  0.0000  0.0000  0.0000
  306BTD    C50 6180   0.728  10.916   3.293  0.0000  0.0000  0.0000
  306BTD    C75 6181   1.027  10.586   2.580  0.0000  0.0000  0.0000
  306BTD    C76 6182   1.175  10.616   2.545  0.0000  0.0000  0.0000
  306BTD    C77 6183   1.184  10.704   2.418  0.0000  0.0000  0.0000
  306BTD    C78 6184   1.325  10.758   2.382  0.0000  0.0000  0.0000
  306BTD    C79 6185   1.261  10.489   2.524  0.0000  0.0000  0.0000
  306BTD    C80 6186   1.233  10.401   2.400  0.0000  0.0000  0.0000
  306BTD    C81 6187   1.325  10.275   2.406  0.0000  0.0000  0.0000
  306BTD    C82 6188   1.294  10.150   2.493  0.0000  0.0000  0.0000
  307TTP     S1 6189   1.323  10.785   3.202  0.0000  0.0000  0.0000
  307TTP     S5 6190   1.225  11.103   2.946  0.0000  0.0000  0.0000
  307TTP     C1 6191   1.321  11.167   3.077  0.0000  0.0000  0.0000
  307TTP     C2 6192   1.359  11.069   3.166  0.0000  0.0000  0.0000
  307TTP     C3 6193   1.304  10.947   3.132  0.0000  0.0000  0.0000
  307TTP     C4 6194   1.239  10.724   3.071  0.0000  0.0000  0.0000
  307TTP    C17 6195   1.188  10.814   2.980  0.0000  0.0000  0.0000
  307TTP    C18 6196   1.232  10.949   3.020  0.0000  0.0000  0.0000
  307TTP    C32 6197   1.445  11.087   3.294  0.0000  0.0000  0.0000
  307TTP    C33 6198   1.354  11.121   3.415  0.0000  0.0000  0.0000
  307TTP    C34 6199   1.447  11.144   3.537  0.0000  0.0000  0.0000
  307TTP    C35 6200   1.389  11.214   3.661  0.0000  0.0000  0.0000
  307TTP    C36 6201   1.483  11.308   3.742  0.0000  0.0000  0.0000
  307TTP    C37 6202   1.603  11.244   3.819  0.0000  0.0000  0.0000
  307TTP    C38 6203   1.683  11.112   3.831  0.0000  0.0000  0.0000
  307TTP    C39 6204   1.765  11.062   3.709  0.0000  0.0000  0.0000
  307TTP    C40 6205   1.824  11.165   3.608  0.0000  0.0000  0.0000
  307TTP    C41 6206   1.811  11.138   3.455  0.0000  0.0000  0.0000
  307TTP    C42 6207   1.830  11.260   3.360  0.0000  0.0000  0.0000
  308TTP     S1 6208   1.019  10.116   2.759  0.0000  0.0000  0.0000
  308TTP     S5 6209   0.817  10.319   2.450  0.0000  0.0000  0.0000
  308TTP     C1 6210   0.786  10.146   2.429  0.0000  0.0000  0.0000
  308TTP     C2 6211   0.850  10.072   2.530  0.0000  0.0000  0.0000
  308TTP     C3 6212   0.927  10.152   2.614  0.0000  0.0000  0.0000
  308TTP     C4 6213   1.042  10.287   2.780  0.0000  0.0000  0.0000
  308TTP    C17 6214   0.988  10.362   2.676  0.0000  0.0000  0.0000
  308TTP    C18 6215   0.917  10.285   2.580  0.0000  0.0000  0.0000
  308TTP    C32 6216   0.858   9.917   2.536  0.0000  0.0000  0.0000
  308TTP    C33 6217   0.963   9.850   2.443  0.0000  0.0000  0.0000
  308TTP    C34 6218   0.970   9.696   2.458  0.0000  0.0000  0.0000
  308TTP    C35 6219   1.079   9.645   2.360  0.0000  0.0000  0.0000
  308TTP    C36 6220   1.063   9.491   2.355  0.0000  0.0000  0.0000
  308TTP    C37 6221   1.096   9.453   2.502  0.0000  0.0000  0.0000
  308TTP    C38 6222   1.101   9.299   2.532  0.0000  0.0000  0.0000
  308TTP    C39 6223   1.163   9.249   2.664  0.0000  0.0000  0.0000
  308TTP    C40 6224   1.072   9.181   2.771  0.0000  0.0000  0.0000
  308TTP    C41 6225   0.997   9.050   2.736  0.0000  0.0000  0.0000
  308TTP    C42 6226   0.975   8.942   2.845  0.0000  0.0000  0.0000
  309FIC     F1 6227   1.292  11.793   2.554  0.0000  0.0000  0.0000
  309FIC     F2 6228   1.401  11.947   2.745  0.0000  0.0000  0.0000
  309FIC     O1 6229   1.237  11.334   2.814  0.0000  0.0000  0.0000
  309FIC     N5 6230   1.553  11.835   3.190  0.0000  0.0000  0.0000
  309FIC     N6 6231   1.505  11.454   3.369  0.0000  0.0000  0.0000
  309FIC    C19 6232   1.365  11.304   3.087  0.0000  0.0000  0.0000
  309FIC    C20 6233   1.356  11.415   3.007  0.0000  0.0000  0.0000
  309FIC    C21 6234   1.294  11.422   2.879  0.0000  0.0000  0.0000
  309FIC    C22 6235   1.318  11.557   2.825  0.0000  0.0000  0.0000
  309FIC    C23 6236   1.289  11.606   2.695  0.0000  0.0000  0.0000
  309FIC    C24 6237   1.317  11.735   2.670  0.0000  0.0000  0.0000
  309FIC    C25 6238   1.377  11.814   2.780  0.0000  0.0000  0.0000
  309FIC    C26 6239   1.413  11.770   2.896  0.0000  0.0000  0.0000
  309FIC    C27 6240   1.378  11.635   2.924  0.0000  0.0000  0.0000
  309FIC    C28 6241   1.402  11.548   3.040  0.0000  0.0000  0.0000
  309FIC    C29 6242   1.462  11.591   3.157  0.0000  0.0000  0.0000
  309FIC    C30 6243   1.510  11.735   3.169  0.0000  0.0000  0.0000
  309FIC    C31 6244   1.480  11.514   3.276  0.0000  0.0000  0.0000
  310FIC     F1 6245   0.329  10.468   1.837  0.0000  0.0000  0.0000
  310FIC     F2 6246   0.282  10.226   1.756  0.0000  0.0000  0.0000
  310FIC     O1 6247   0.641  10.374   2.260  0.0000  0.0000  0.0000
  310FIC     N5 6248   0.459   9.805   1.906  0.0000  0.0000  0.0000
  310FIC     N6 6249   0.650   9.750   2.284  0.0000  0.0000  0.0000
  310FIC    C19 6250   0.709  10.088   2.327  0.0000  0.0000  0.0000
  310FIC    C20 6251   0.630  10.134   2.228  0.0000  0.0000  0.0000
  310FIC    C21 6252   0.598  10.280   2.196  0.0000  0.0000  0.0000
  310FIC    C22 6253   0.519  10.282   2.080  0.0000  0.0000  0.0000
  310FIC    C23 6254   0.463  10.393   2.014  0.0000  0.0000  0.0000
  310FIC    C24 6255   0.387  10.376   1.904  0.0000  0.0000  0.0000
  310FIC    C25 6256   0.358  10.247   1.862  0.0000  0.0000  0.0000
  310FIC    C26 6257   0.413  10.128   1.920  0.0000  0.0000  0.0000
  310FIC    C27 6258   0.496  10.149   2.033  0.0000  0.0000  0.0000
  310FIC    C28 6259   0.563  10.060   2.125  0.0000  0.0000  0.0000
  310FIC    C29 6260   0.558   9.920   2.113  0.0000  0.0000  0.0000
  310FIC    C30 6261   0.501   9.856   1.994  0.0000  0.0000  0.0000
  310FIC    C31 6262   0.614   9.826   2.206  0.0000  0.0000  0.0000
  311BTD     S2 6263   2.475   1.286   3.193  0.0000  0.0000  0.0000
  311BTD     N1 6264   2.461   1.121   3.189  0.0000  0.0000  0.0000
  311BTD     N2 6265   2.410   1.325   3.051  0.0000  0.0000  0.0000
  311BTD     N3 6266   2.208   1.078   2.701  0.0000  0.0000  0.0000
  311BTD     N4 6267   2.265   0.807   2.894  0.0000  0.0000  0.0000
  311BTD     C5 6268   2.365   0.966   3.032  0.0000  0.0000  0.0000
  311BTD     C6 6269   2.405   1.094   3.076  0.0000  0.0000  0.0000
  311BTD     C7 6270   2.376   1.208   2.996  0.0000  0.0000  0.0000
  311BTD     C8 6271   2.310   1.191   2.872  0.0000  0.0000  0.0000
  311BTD    C15 6272   2.274   1.064   2.822  0.0000  0.0000  0.0000
  311BTD    C16 6273   2.292   0.942   2.907  0.0000  0.0000  0.0000
  311BTD    C43 6274   2.161   0.741   2.817  0.0000  0.0000  0.0000
  311BTD    C44 6275   2.019   0.793   2.853  0.0000  0.0000  0.0000
  311BTD    C45 6276   1.981   0.818   3.003  0.0000  0.0000  0.0000
  311BTD    C46 6277   1.976   0.687   3.084  0.0000  0.0000  0.0000
  311BTD    C47 6278   1.904   0.713   2.787  0.0000  0.0000  0.0000
  311BTD    C48 6279   1.886   0.719   2.634  0.0000  0.0000  0.0000
  311BTD    C49 6280   1.798   0.613   2.562  0.0000  0.0000  0.0000
  311BTD    C50 6281   1.818   0.589   2.410  0.0000  0.0000  0.0000
  311BTD    C75 6282   2.197   0.980   2.583  0.0000  0.0000  0.0000
  311BTD    C76 6283   2.335   0.917   2.548  0.0000  0.0000  0.0000
  311BTD    C77 6284   2.333   0.831   2.419  0.0000  0.0000  0.0000
  311BTD    C78 6285   2.189   0.862   2.373  0.0000  0.0000  0.0000
  311BTD    C79 6286   2.456   1.011   2.529  0.0000  0.0000  0.0000
  311BTD    C80 6287   2.435   1.142   2.450  0.0000  0.0000  0.0000
  311BTD    C81 6288   2.531   1.262   2.475  0.0000  0.0000  0.0000
  311BTD    C82 6289   2.662   1.266   2.391  0.0000  0.0000  0.0000
  312TTP     S1 6290   2.440   0.766   3.231  0.0000  0.0000  0.0000
  312TTP     S5 6291   2.257   0.459   3.013  0.0000  0.0000  0.0000
  312TTP     C1 6292   2.317   0.389   3.159  0.0000  0.0000  0.0000
  312TTP     C2 6293   2.377   0.481   3.236  0.0000  0.0000  0.0000
  312TTP     C3 6294   2.379   0.611   3.185  0.0000  0.0000  0.0000
  312TTP     C4 6295   2.375   0.837   3.089  0.0000  0.0000  0.0000
  312TTP    C17 6296   2.314   0.745   3.005  0.0000  0.0000  0.0000
  312TTP    C18 6297   2.313   0.613   3.057  0.0000  0.0000  0.0000
  312TTP    C32 6298   2.435   0.456   3.378  0.0000  0.0000  0.0000
  312TTP    C33 6299   2.588   0.471   3.400  0.0000  0.0000  0.0000
  312TTP    C34 6300   2.646   0.436   3.540  0.0000  0.0000  0.0000
  312TTP    C35 6301   2.798   0.442   3.511  0.0000  0.0000  0.0000
  312TTP    C36 6302   2.845   0.296   3.486  0.0000  0.0000  0.0000
  312TTP    C37 6303   2.776   0.182   3.569  0.0000  0.0000  0.0000
  312TTP    C38 6304   2.861   0.063   3.620  0.0000  0.0000  0.0000
  312TTP    C39 6305   2.751   0.018   3.718  0.0000  0.0000  0.0000
  312TTP    C40 6306   2.795  -0.024   3.862  0.0000  0.0000  0.0000
  312TTP    C41 6307   2.714  -0.132   3.940  0.0000  0.0000  0.0000
  312TTP    C42 6308   2.777  -0.197   4.066  0.0000  0.0000  0.0000
  313TTP     S1 6309   2.276   1.457   2.747  0.0000  0.0000  0.0000
  313TTP     S5 6310   2.054   1.281   2.437  0.0000  0.0000  0.0000
  313TTP     C1 6311   2.048   1.457   2.419  0.0000  0.0000  0.0000
  313TTP     C2 6312   2.119   1.522   2.515  0.0000  0.0000  0.0000
  313TTP     C3 6313   2.180   1.434   2.604  0.0000  0.0000  0.0000
  313TTP     C4 6314   2.274   1.286   2.773  0.0000  0.0000  0.0000
  313TTP    C17 6315   2.211   1.215   2.671  0.0000  0.0000  0.0000
  313TTP    C18 6316   2.153   1.299   2.575  0.0000  0.0000  0.0000
  313TTP    C32 6317   2.138   1.676   2.525  0.0000  0.0000  0.0000
  313TTP    C33 6318   2.255   1.729   2.437  0.0000  0.0000  0.0000
  313TTP    C34 6319   2.273   1.882   2.442  0.0000  0.0000  0.0000
  313TTP    C35 6320   2.302   1.925   2.588  0.0000  0.0000  0.0000
  313TTP    C36 6321   2.315   2.076   2.621  0.0000  0.0000  0.0000
  313TTP    C37 6322   2.192   2.169   2.606  0.0000  0.0000  0.0000
  313TTP    C38 6323   2.278   2.296   2.635  0.0000  0.0000  0.0000
  313TTP    C39 6324   2.185   2.397   2.563  0.0000  0.0000  0.0000
  313TTP    C40 6325   2.178   2.394   2.408  0.0000  0.0000  0.0000
  313TTP    C41 6326   2.072   2.307   2.336  0.0000  0.0000  0.0000
  313TTP    C42 6327   2.106   2.164   2.287  0.0000  0.0000  0.0000
  314FIC     F1 6328   1.984  -0.260   2.786  0.0000  0.0000  0.0000
  314FIC     F2 6329   2.025  -0.395   3.015  0.0000  0.0000  0.0000
  314FIC     O1 6330   2.194   0.216   2.923  0.0000  0.0000  0.0000
  314FIC     N5 6331   2.233  -0.267   3.425  0.0000  0.0000  0.0000
  314FIC     N6 6332   2.405   0.130   3.513  0.0000  0.0000  0.0000
  314FIC    C19 6333   2.300   0.255   3.201  0.0000  0.0000  0.0000
  314FIC    C20 6334   2.248   0.141   3.149  0.0000  0.0000  0.0000
  314FIC    C21 6335   2.193   0.130   3.015  0.0000  0.0000  0.0000
  314FIC    C22 6336   2.146  -0.009   2.999  0.0000  0.0000  0.0000
  314FIC    C23 6337   2.085  -0.063   2.882  0.0000  0.0000  0.0000
  314FIC    C24 6338   2.044  -0.197   2.904  0.0000  0.0000  0.0000
  314FIC    C25 6339   2.063  -0.264   3.016  0.0000  0.0000  0.0000
  314FIC    C26 6340   2.121  -0.210   3.121  0.0000  0.0000  0.0000
  314FIC    C27 6341   2.164  -0.082   3.108  0.0000  0.0000  0.0000
  314FIC    C28 6342   2.232   0.009   3.208  0.0000  0.0000  0.0000
  314FIC    C29 6343   2.274  -0.019   3.350  0.0000  0.0000  0.0000
  314FIC    C30 6344   2.253  -0.163   3.389  0.0000  0.0000  0.0000
  314FIC    C31 6345   2.340   0.067   3.445  0.0000  0.0000  0.0000
  315FIC     F1 6346   1.590   1.184   1.806  0.0000  0.0000  0.0000
  315FIC     F2 6347   1.535   1.436   1.744  0.0000  0.0000  0.0000
  315FIC     O1 6348   1.910   1.248   2.223  0.0000  0.0000  0.0000
  315FIC     N5 6349   1.684   1.850   1.950  0.0000  0.0000  0.0000
  315FIC     N6 6350   1.879   1.866   2.323  0.0000  0.0000  0.0000
  315FIC    C19 6351   1.972   1.527   2.321  0.0000  0.0000  0.0000
  315FIC    C20 6352   1.890   1.490   2.219  0.0000  0.0000  0.0000
  315FIC    C21 6353   1.865   1.350   2.177  0.0000  0.0000  0.0000
  315FIC    C22 6354   1.781   1.358   2.057  0.0000  0.0000  0.0000
  315FIC    C23 6355   1.728   1.252   1.984  0.0000  0.0000  0.0000
  315FIC    C24 6356   1.653   1.282   1.879  0.0000  0.0000  0.0000
  315FIC    C25 6357   1.620   1.415   1.847  0.0000  0.0000  0.0000
  315FIC    C26 6358   1.669   1.519   1.921  0.0000  0.0000  0.0000
  315FIC    C27 6359   1.750   1.490   2.025  0.0000  0.0000  0.0000
  315FIC    C28 6360   1.815   1.576   2.130  0.0000  0.0000  0.0000
  315FIC    C29 6361   1.801   1.714   2.134  0.0000  0.0000  0.0000
  315FIC    C30 6362   1.737   1.788   2.033  0.0000  0.0000  0.0000
  315FIC    C31 6363   1.846   1.796   2.243  0.0000  0.0000  0.0000
  316BTD     S2 6364   1.348   1.294   0.798  0.0000  0.0000  0.0000
  316BTD     N1 6365   1.338   1.133   0.809  0.0000  0.0000  0.0000
  316BTD     N2 6366   1.427   1.325   0.936  0.0000  0.0000  0.0000
  316BTD     N3 6367   1.597   1.063   1.297  0.0000  0.0000  0.0000
  316BTD     N4 6368   1.483   0.803   1.120  0.0000  0.0000  0.0000
  316BTD     C5 6369   1.413   0.967   0.978  0.0000  0.0000  0.0000
  316BTD     C6 6370   1.396   1.098   0.922  0.0000  0.0000  0.0000
  316BTD     C7 6371   1.447   1.208   0.996  0.0000  0.0000  0.0000
  316BTD     C8 6372   1.509   1.187   1.120  0.0000  0.0000  0.0000
  316BTD    C15 6373   1.528   1.054   1.173  0.0000  0.0000  0.0000
  316BTD    C16 6374   1.480   0.943   1.097  0.0000  0.0000  0.0000
  316BTD    C43 6375   1.572   0.726   1.208  0.0000  0.0000  0.0000
  316BTD    C44 6376   1.724   0.736   1.178  0.0000  0.0000  0.0000
  316BTD    C45 6377   1.797   0.637   1.273  0.0000  0.0000  0.0000
  316BTD    C46 6378   1.947   0.679   1.271  0.0000  0.0000  0.0000
  316BTD    C47 6379   1.757   0.710   1.029  0.0000  0.0000  0.0000
  316BTD    C48 6380   1.772   0.569   0.965  0.0000  0.0000  0.0000
  316BTD    C49 6381   1.786   0.600   0.814  0.0000  0.0000  0.0000
  316BTD    C50 6382   1.882   0.646   0.701  0.0000  0.0000  0.0000
  316BTD    C75 6383   1.583   0.976   1.414  0.0000  0.0000  0.0000
  316BTD    C76 6384   1.435   0.946   1.449  0.0000  0.0000  0.0000
  316BTD    C77 6385   1.426   0.858   1.576  0.0000  0.0000  0.0000
  316BTD    C78 6386   1.285   0.804   1.612  0.0000  0.0000  0.0000
  316BTD    C79 6387   1.349   1.073   1.470  0.0000  0.0000  0.0000
  316BTD    C80 6388   1.377   1.161   1.594  0.0000  0.0000  0.0000
  316BTD    C81 6389   1.285   1.287   1.588  0.0000  0.0000  0.0000
  316BTD    C82 6390   1.316   1.412   1.501  0.0000  0.0000  0.0000
  317TTP     S1 6391   1.287   0.777   0.792  0.0000  0.0000  0.0000
  317TTP     S5 6392   1.385   0.459   1.048  0.0000  0.0000  0.0000
  317TTP     C1 6393   1.289   0.395   0.917  0.0000  0.0000  0.0000
  317TTP     C2 6394   1.251   0.493   0.828  0.0000  0.0000  0.0000
  317TTP     C3 6395   1.306   0.615   0.862  0.0000  0.0000  0.0000
  317TTP     C4 6396   1.371   0.838   0.923  0.0000  0.0000  0.0000
  317TTP    C17 6397   1.422   0.748   1.014  0.0000  0.0000  0.0000
  317TTP    C18 6398   1.378   0.613   0.974  0.0000  0.0000  0.0000
  317TTP    C32 6399   1.165   0.475   0.700  0.0000  0.0000  0.0000
  317TTP    C33 6400   1.256   0.441   0.579  0.0000  0.0000  0.0000
  317TTP    C34 6401   1.163   0.418   0.457  0.0000  0.0000  0.0000
  317TTP    C35 6402   1.221   0.348   0.333  0.0000  0.0000  0.0000
  317TTP    C36 6403   1.127   0.254   0.252  0.0000  0.0000  0.0000
  317TTP    C37 6404   1.007   0.318   0.175  0.0000  0.0000  0.0000
  317TTP    C38 6405   0.927   0.450   0.163  0.0000  0.0000  0.0000
  317TTP    C39 6406   0.845   0.500   0.285  0.0000  0.0000  0.0000
  317TTP    C40 6407   0.786   0.397   0.386  0.0000  0.0000  0.0000
  317TTP    C41 6408   0.799   0.424   0.539  0.0000  0.0000  0.0000
  317TTP    C42 6409   0.780   0.302   0.634  0.0000  0.0000  0.0000
  318TTP     S1 6410   1.591   1.446   1.235  0.0000  0.0000  0.0000
  318TTP     S5 6411   1.793   1.243   1.544  0.0000  0.0000  0.0000
  318TTP     C1 6412   1.824   1.416   1.565  0.0000  0.0000  0.0000
  318TTP     C2 6413   1.760   1.490   1.464  0.0000  0.0000  0.0000
  318TTP     C3 6414   1.683   1.410   1.380  0.0000  0.0000  0.0000
  318TTP     C4 6415   1.568   1.275   1.214  0.0000  0.0000  0.0000
  318TTP    C17 6416   1.622   1.200   1.318  0.0000  0.0000  0.0000
  318TTP    C18 6417   1.693   1.277   1.414  0.0000  0.0000  0.0000
  318TTP    C32 6418   1.752   1.645   1.458  0.0000  0.0000  0.0000
  318TTP    C33 6419   1.647   1.712   1.551  0.0000  0.0000  0.0000
  318TTP    C34 6420   1.640   1.866   1.536  0.0000  0.0000  0.0000
  318TTP    C35 6421   1.531   1.917   1.634  0.0000  0.0000  0.0000
  318TTP    C36 6422   1.547   2.071   1.639  0.0000  0.0000  0.0000
  318TTP    C37 6423   1.514   2.109   1.492  0.0000  0.0000  0.0000
  318TTP    C38 6424   1.509   2.263   1.462  0.0000  0.0000  0.0000
  318TTP    C39 6425   1.447   2.313   1.330  0.0000  0.0000  0.0000
  318TTP    C40 6426   1.538   2.381   1.223  0.0000  0.0000  0.0000
  318TTP    C41 6427   1.613   2.512   1.258  0.0000  0.0000  0.0000
  318TTP    C42 6428   1.635   2.620   1.149  0.0000  0.0000  0.0000
  319FIC     F1 6429   1.318  -0.231   1.440  0.0000  0.0000  0.0000
  319FIC     F2 6430   1.209  -0.385   1.249  0.0000  0.0000  0.0000
  319FIC     O1 6431   1.373   0.228   1.180  0.0000  0.0000  0.0000
  319FIC     N5 6432   1.057  -0.273   0.804  0.0000  0.0000  0.0000
  319FIC     N6 6433   1.105   0.108   0.625  0.0000  0.0000  0.0000
  319FIC    C19 6434   1.245   0.258   0.907  0.0000  0.0000  0.0000
  319FIC    C20 6435   1.254   0.147   0.987  0.0000  0.0000  0.0000
  319FIC    C21 6436   1.316   0.140   1.115  0.0000  0.0000  0.0000
  319FIC    C22 6437   1.292   0.005   1.169  0.0000  0.0000  0.0000
  319FIC    C23 6438   1.321  -0.044   1.299  0.0000  0.0000  0.0000
  319FIC    C24 6439   1.293  -0.173   1.324  0.0000  0.0000  0.0000
  319FIC    C25 6440   1.233  -0.252   1.214  0.0000  0.0000  0.0000
  319FIC    C26 6441   1.197  -0.208   1.098  0.0000  0.0000  0.0000
  319FIC    C27 6442   1.232  -0.073   1.070  0.0000  0.0000  0.0000
  319FIC    C28 6443   1.208   0.014   0.954  0.0000  0.0000  0.0000
  319FIC    C29 6444   1.148  -0.029   0.837  0.0000  0.0000  0.0000
  319FIC    C30 6445   1.100  -0.173   0.825  0.0000  0.0000  0.0000
  319FIC    C31 6446   1.130   0.048   0.718  0.0000  0.0000  0.0000
  320FIC     F1 6447   2.281   1.094   2.157  0.0000  0.0000  0.0000
  320FIC     F2 6448   2.328   1.336   2.238  0.0000  0.0000  0.0000
  320FIC     O1 6449   1.969   1.188   1.734  0.0000  0.0000  0.0000
  320FIC     N5 6450   2.151   1.757   2.088  0.0000  0.0000  0.0000
  320FIC     N6 6451   1.960   1.812   1.710  0.0000  0.0000  0.0000
  320FIC    C19 6452   1.901   1.474   1.667  0.0000  0.0000  0.0000
  320FIC    C20 6453   1.980   1.428   1.766  0.0000  0.0000  0.0000
  320FIC    C21 6454   2.012   1.282   1.798  0.0000  0.0000  0.0000
  320FIC    C22 6455   2.091   1.280   1.914  0.0000  0.0000  0.0000
  320FIC    C23 6456   2.147   1.169   1.980  0.0000  0.0000  0.0000
  320FIC    C24 6457   2.223   1.186   2.090  0.0000  0.0000  0.0000
  320FIC    C25 6458   2.252   1.315   2.132  0.0000  0.0000  0.0000
  320FIC    C26 6459   2.197   1.434   2.074  0.0000  0.0000  0.0000
  320FIC    C27 6460   2.114   1.413   1.961  0.0000  0.0000  0.0000
  320FIC    C28 6461   2.047   1.502   1.869  0.0000  0.0000  0.0000
  320FIC    C29 6462   2.052   1.642   1.881  0.0000  0.0000  0.0000
  320FIC    C30 6463   2.109   1.706   2.000  0.0000  0.0000  0.0000
  320FIC    C31 6464   1.996   1.736   1.788  0.0000  0.0000  0.0000
  321BTD     S2 6465   4.089   1.605   2.195  0.0000  0.0000  0.0000
  321BTD     N1 6466   4.076   1.769   2.190  0.0000  0.0000  0.0000
  321BTD     N2 6467   4.024   1.565   2.052  0.0000  0.0000  0.0000
  321BTD     N3 6468   3.823   1.812   1.703  0.0000  0.0000  0.0000
  321BTD     N4 6469   3.879   2.084   1.895  0.0000  0.0000  0.0000
  321BTD     C5 6470   3.980   1.925   2.034  0.0000  0.0000  0.0000
  321BTD     C6 6471   4.020   1.797   2.078  0.0000  0.0000  0.0000
  321BTD     C7 6472   3.991   1.682   1.998  0.0000  0.0000  0.0000
  321BTD     C8 6473   3.924   1.699   1.873  0.0000  0.0000  0.0000
  321BTD    C15 6474   3.888   1.827   1.823  0.0000  0.0000  0.0000
  321BTD    C16 6475   3.907   1.948   1.909  0.0000  0.0000  0.0000
  321BTD    C43 6476   3.776   2.149   1.818  0.0000  0.0000  0.0000
  321BTD    C44 6477   3.634   2.097   1.855  0.0000  0.0000  0.0000
  321BTD    C45 6478   3.596   2.072   2.004  0.0000  0.0000  0.0000
  321BTD    C46 6479   3.590   2.204   2.086  0.0000  0.0000  0.0000
  321BTD    C47 6480   3.518   2.177   1.789  0.0000  0.0000  0.0000
  321BTD    C48 6481   3.501   2.171   1.635  0.0000  0.0000  0.0000
  321BTD    C49 6482   3.412   2.277   1.563  0.0000  0.0000  0.0000
  321BTD    C50 6483   3.433   2.302   1.411  0.0000  0.0000  0.0000
  321BTD    C75 6484   3.811   1.910   1.584  0.0000  0.0000  0.0000
  321BTD    C76 6485   3.949   1.974   1.549  0.0000  0.0000  0.0000
  321BTD    C77 6486   3.948   2.060   1.420  0.0000  0.0000  0.0000
  321BTD    C78 6487   3.803   2.028   1.375  0.0000  0.0000  0.0000
  321BTD    C79 6488   4.070   1.880   1.531  0.0000  0.0000  0.0000
  321BTD    C80 6489   4.049   1.748   1.452  0.0000  0.0000  0.0000
  321BTD    C81 6490   4.145   1.629   1.476  0.0000  0.0000  0.0000
  321BTD    C82 6491   4.277   1.624   1.393  0.0000  0.0000  0.0000
  322TTP     S1 6492   4.055   2.124   2.233  0.0000  0.0000  0.0000
  322TTP     S5 6493   3.872   2.431   2.014  0.0000  0.0000  0.0000
  322TTP     C1 6494   3.931   2.501   2.160  0.0000  0.0000  0.0000
  322TTP     C2 6495   3.992   2.410   2.238  0.0000  0.0000  0.0000
  322TTP     C3 6496   3.994   2.279   2.186  0.0000  0.0000  0.0000
  322TTP     C4 6497   3.989   2.053   2.091  0.0000  0.0000  0.0000
  322TTP    C17 6498   3.929   2.145   2.006  0.0000  0.0000  0.0000
  322TTP    C18 6499   3.928   2.278   2.058  0.0000  0.0000  0.0000
  322TTP    C32 6500   4.050   2.434   2.379  0.0000  0.0000  0.0000
  322TTP    C33 6501   4.202   2.419   2.402  0.0000  0.0000  0.0000
  322TTP    C34 6502   4.260   2.454   2.541  0.0000  0.0000  0.0000
  322TTP    C35 6503   4.413   2.448   2.512  0.0000  0.0000  0.0000
  322TTP    C36 6504   4.459   2.595   2.488  0.0000  0.0000  0.0000
  322TTP    C37 6505   4.391   2.708   2.570  0.0000  0.0000  0.0000
  322TTP    C38 6506   4.475   2.828   2.622  0.0000  0.0000  0.0000
  322TTP    C39 6507   4.365   2.873   2.720  0.0000  0.0000  0.0000
  322TTP    C40 6508   4.410   2.914   2.864  0.0000  0.0000  0.0000
  322TTP    C41 6509   4.329   3.022   2.941  0.0000  0.0000  0.0000
  322TTP    C42 6510   4.391   3.088   3.067  0.0000  0.0000  0.0000
  323TTP     S1 6511   3.891   1.434   1.749  0.0000  0.0000  0.0000
  323TTP     S5 6512   3.669   1.609   1.438  0.0000  0.0000  0.0000
  323TTP     C1 6513   3.663   1.434   1.421  0.0000  0.0000  0.0000
  323TTP     C2 6514   3.734   1.369   1.517  0.0000  0.0000  0.0000
  323TTP     C3 6515   3.795   1.457   1.606  0.0000  0.0000  0.0000
  323TTP     C4 6516   3.889   1.604   1.775  0.0000  0.0000  0.0000
  323TTP    C17 6517   3.826   1.676   1.672  0.0000  0.0000  0.0000
  323TTP    C18 6518   3.767   1.591   1.577  0.0000  0.0000  0.0000
  323TTP    C32 6519   3.752   1.215   1.526  0.0000  0.0000  0.0000
  323TTP    C33 6520   3.870   1.162   1.438  0.0000  0.0000  0.0000
  323TTP    C34 6521   3.888   1.009   1.443  0.0000  0.0000  0.0000
  323TTP    C35 6522   3.916   0.966   1.590  0.0000  0.0000  0.0000
  323TTP    C36 6523   3.930   0.815   1.622  0.0000  0.0000  0.0000
  323TTP    C37 6524   3.807   0.721   1.608  0.0000  0.0000  0.0000
  323TTP    C38 6525   3.893   0.594   1.636  0.0000  0.0000  0.0000
  323TTP    C39 6526   3.799   0.494   1.565  0.0000  0.0000  0.0000
  323TTP    C40 6527   3.793   0.496   1.409  0.0000  0.0000  0.0000
  323TTP    C41 6528   3.686   0.583   1.338  0.0000  0.0000  0.0000
  323TTP    C42 6529   3.721   0.727   1.288  0.0000  0.0000  0.0000
  324FIC     F1 6530   3.599   3.150   1.788  0.0000  0.0000  0.0000
  324FIC     F2 6531   3.640   3.286   2.017  0.0000  0.0000  0.0000
  324FIC     O1 6532   3.809   2.674   1.925  0.0000  0.0000  0.0000
  324FIC     N5 6533   3.848   3.157   2.426  0.0000  0.0000  0.0000
  324FIC     N6 6534   4.019   2.760   2.515  0.0000  0.0000  0.0000
  324FIC    C19 6535   3.914   2.636   2.202  0.0000  0.0000  0.0000
  324FIC    C20 6536   3.862   2.750   2.150  0.0000  0.0000  0.0000
  324FIC    C21 6537   3.807   2.761   2.016  0.0000  0.0000  0.0000
  324FIC    C22 6538   3.761   2.900   2.001  0.0000  0.0000  0.0000
  324FIC    C23 6539   3.700   2.954   1.884  0.0000  0.0000  0.0000
  324FIC    C24 6540   3.658   3.087   1.905  0.0000  0.0000  0.0000
  324FIC    C25 6541   3.678   3.155   2.017  0.0000  0.0000  0.0000
  324FIC    C26 6542   3.735   3.101   2.122  0.0000  0.0000  0.0000
  324FIC    C27 6543   3.778   2.973   2.109  0.0000  0.0000  0.0000
  324FIC    C28 6544   3.846   2.881   2.210  0.0000  0.0000  0.0000
  324FIC    C29 6545   3.888   2.909   2.351  0.0000  0.0000  0.0000
  324FIC    C30 6546   3.868   3.053   2.390  0.0000  0.0000  0.0000
  324FIC    C31 6547   3.955   2.823   2.446  0.0000  0.0000  0.0000
  325FIC     F1 6548   3.204   1.706   0.808  0.0000  0.0000  0.0000
  325FIC     F2 6549   3.150   1.455   0.745  0.0000  0.0000  0.0000
  325FIC     O1 6550   3.525   1.643   1.224  0.0000  0.0000  0.0000
  325FIC     N5 6551   3.299   1.041   0.951  0.0000  0.0000  0.0000
  325FIC     N6 6552   3.493   1.024   1.325  0.0000  0.0000  0.0000
  325FIC    C19 6553   3.586   1.363   1.323  0.0000  0.0000  0.0000
  325FIC    C20 6554   3.505   1.400   1.221  0.0000  0.0000  0.0000
  325FIC    C21 6555   3.480   1.541   1.178  0.0000  0.0000  0.0000
  325FIC    C22 6556   3.395   1.532   1.058  0.0000  0.0000  0.0000
  325FIC    C23 6557   3.343   1.639   0.985  0.0000  0.0000  0.0000
  325FIC    C24 6558   3.267   1.608   0.881  0.0000  0.0000  0.0000
  325FIC    C25 6559   3.235   1.475   0.848  0.0000  0.0000  0.0000
  325FIC    C26 6560   3.283   1.372   0.922  0.0000  0.0000  0.0000
  325FIC    C27 6561   3.365   1.401   1.027  0.0000  0.0000  0.0000
  325FIC    C28 6562   3.429   1.315   1.131  0.0000  0.0000  0.0000
  325FIC    C29 6563   3.416   1.177   1.136  0.0000  0.0000  0.0000
  325FIC    C30 6564   3.351   1.103   1.034  0.0000  0.0000  0.0000
  325FIC    C31 6565   3.460   1.094   1.245  0.0000  0.0000  0.0000
  326BTD     S2 6566   2.963   1.597  -0.200  0.0000  0.0000  0.0000
  326BTD     N1 6567   2.952   1.758  -0.189  0.0000  0.0000  0.0000
  326BTD     N2 6568   3.042   1.565  -0.063  0.0000  0.0000  0.0000
  326BTD     N3 6569   3.211   1.827   0.299  0.0000  0.0000  0.0000
  326BTD     N4 6570   3.098   2.087   0.121  0.0000  0.0000  0.0000
  326BTD     C5 6571   3.028   1.923  -0.020  0.0000  0.0000  0.0000
  326BTD     C6 6572   3.011   1.793  -0.076  0.0000  0.0000  0.0000
  326BTD     C7 6573   3.062   1.682  -0.003  0.0000  0.0000  0.0000
  326BTD     C8 6574   3.123   1.703   0.122  0.0000  0.0000  0.0000
  326BTD    C15 6575   3.142   1.836   0.175  0.0000  0.0000  0.0000
  326BTD    C16 6576   3.094   1.948   0.098  0.0000  0.0000  0.0000
  326BTD    C43 6577   3.186   2.164   0.210  0.0000  0.0000  0.0000
  326BTD    C44 6578   3.339   2.154   0.180  0.0000  0.0000  0.0000
  326BTD    C45 6579   3.411   2.253   0.274  0.0000  0.0000  0.0000
  326BTD    C46 6580   3.561   2.211   0.273  0.0000  0.0000  0.0000
  326BTD    C47 6581   3.372   2.181   0.030  0.0000  0.0000  0.0000
  326BTD    C48 6582   3.386   2.322  -0.033  0.0000  0.0000  0.0000
  326BTD    C49 6583   3.400   2.290  -0.184  0.0000  0.0000  0.0000
  326BTD    C50 6584   3.497   2.244  -0.298  0.0000  0.0000  0.0000
  326BTD    C75 6585   3.198   1.915   0.415  0.0000  0.0000  0.0000
  326BTD    C76 6586   3.049   1.945   0.451  0.0000  0.0000  0.0000
  326BTD    C77 6587   3.040   2.033   0.578  0.0000  0.0000  0.0000
  326BTD    C78 6588   2.899   2.086   0.613  0.0000  0.0000  0.0000
  326BTD    C79 6589   2.964   1.818   0.471  0.0000  0.0000  0.0000
  326BTD    C80 6590   2.991   1.729   0.595  0.0000  0.0000  0.0000
  326BTD    C81 6591   2.899   1.604   0.590  0.0000  0.0000  0.0000
  326BTD    C82 6592   2.930   1.478   0.503  0.0000  0.0000  0.0000
  327TTP     S1 6593   2.901   2.113  -0.207  0.0000  0.0000  0.0000
  327TTP     S5 6594   3.000   2.432   0.050  0.0000  0.0000  0.0000
  327TTP     C1 6595   2.903   2.495  -0.082  0.0000  0.0000  0.0000
  327TTP     C2 6596   2.865   2.398  -0.170  0.0000  0.0000  0.0000
  327TTP     C3 6597   2.921   2.275  -0.137  0.0000  0.0000  0.0000
  327TTP     C4 6598   2.986   2.052  -0.076  0.0000  0.0000  0.0000
  327TTP    C17 6599   3.037   2.143   0.015  0.0000  0.0000  0.0000
  327TTP    C18 6600   2.993   2.277  -0.025  0.0000  0.0000  0.0000
  327TTP    C32 6601   2.780   2.415  -0.298  0.0000  0.0000  0.0000
  327TTP    C33 6602   2.870   2.449  -0.420  0.0000  0.0000  0.0000
  327TTP    C34 6603   2.777   2.472  -0.541  0.0000  0.0000  0.0000
  327TTP    C35 6604   2.836   2.543  -0.666  0.0000  0.0000  0.0000
  327TTP    C36 6605   2.741   2.637  -0.747  0.0000  0.0000  0.0000
  327TTP    C37 6606   2.622   2.573  -0.824  0.0000  0.0000  0.0000
  327TTP    C38 6607   2.541   2.441  -0.836  0.0000  0.0000  0.0000
  327TTP    C39 6608   2.459   2.391  -0.713  0.0000  0.0000  0.0000
  327TTP    C40 6609   2.400   2.493  -0.613  0.0000  0.0000  0.0000
  327TTP    C41 6610   2.413   2.467  -0.460  0.0000  0.0000  0.0000
  327TTP    C42 6611   2.395   2.588  -0.365  0.0000  0.0000  0.0000
  328TTP     S1 6612   3.206   1.444   0.237  0.0000  0.0000  0.0000
  328TTP     S5 6613   3.408   1.647   0.545  0.0000  0.0000  0.0000
  328TTP     C1 6614   3.439   1.474   0.567  0.0000  0.0000  0.0000
  328TTP     C2 6615   3.374   1.400   0.466  0.0000  0.0000  0.0000
  328TTP     C3 6616   3.297   1.480   0.382  0.0000  0.0000  0.0000
  328TTP     C4 6617   3.183   1.616   0.216  0.0000  0.0000  0.0000
  328TTP    C17 6618   3.237   1.691   0.320  0.0000  0.0000  0.0000
  328TTP    C18 6619   3.307   1.614   0.415  0.0000  0.0000  0.0000
  328TTP    C32 6620   3.367   1.246   0.459  0.0000  0.0000  0.0000
  328TTP    C33 6621   3.262   1.179   0.553  0.0000  0.0000  0.0000
  328TTP    C34 6622   3.255   1.024   0.537  0.0000  0.0000  0.0000
  328TTP    C35 6623   3.146   0.974   0.635  0.0000  0.0000  0.0000
  328TTP    C36 6624   3.162   0.820   0.641  0.0000  0.0000  0.0000
  328TTP    C37 6625   3.129   0.782   0.493  0.0000  0.0000  0.0000
  328TTP    C38 6626   3.123   0.628   0.464  0.0000  0.0000  0.0000
  328TTP    C39 6627   3.061   0.577   0.332  0.0000  0.0000  0.0000
  328TTP    C40 6628   3.152   0.509   0.225  0.0000  0.0000  0.0000
  328TTP    C41 6629   3.227   0.378   0.259  0.0000  0.0000  0.0000
  328TTP    C42 6630   3.249   0.271   0.150  0.0000  0.0000  0.0000
  329FIC     F1 6631   2.933   3.122   0.442  0.0000  0.0000  0.0000
  329FIC     F2 6632   2.824   3.276   0.250  0.0000  0.0000  0.0000
  329FIC     O1 6633   2.987   2.663   0.181  0.0000  0.0000  0.0000
  329FIC     N5 6634   2.671   3.163  -0.195  0.0000  0.0000  0.0000
  329FIC     N6 6635   2.719   2.782  -0.374  0.0000  0.0000  0.0000
  329FIC    C19 6636   2.859   2.632  -0.092  0.0000  0.0000  0.0000
  329FIC    C20 6637   2.868   2.743  -0.011  0.0000  0.0000  0.0000
  329FIC    C21 6638   2.931   2.751   0.116  0.0000  0.0000  0.0000
  329FIC    C22 6639   2.906   2.885   0.170  0.0000  0.0000  0.0000
  329FIC    C23 6640   2.936   2.935   0.301  0.0000  0.0000  0.0000
  329FIC    C24 6641   2.907   3.064   0.325  0.0000  0.0000  0.0000
  329FIC    C25 6642   2.847   3.143   0.216  0.0000  0.0000  0.0000
  329FIC    C26 6643   2.811   3.098   0.099  0.0000  0.0000  0.0000
  329FIC    C27 6644   2.846   2.963   0.071  0.0000  0.0000  0.0000
  329FIC    C28 6645   2.822   2.877  -0.045  0.0000  0.0000  0.0000
  329FIC    C29 6646   2.762   2.920  -0.161  0.0000  0.0000  0.0000
  329FIC    C30 6647   2.714   3.063  -0.174  0.0000  0.0000  0.0000
  329FIC    C31 6648   2.745   2.842  -0.280  0.0000  0.0000  0.0000
  330FIC     F1 6649   3.895   1.797   1.158  0.0000  0.0000  0.0000
  330FIC     F2 6650   3.942   1.554   1.239  0.0000  0.0000  0.0000
  330FIC     O1 6651   3.583   1.703   0.736  0.0000  0.0000  0.0000
  330FIC     N5 6652   3.765   1.134   1.089  0.0000  0.0000  0.0000
  330FIC     N6 6653   3.575   1.079   0.711  0.0000  0.0000  0.0000
  330FIC    C19 6654   3.515   1.416   0.668  0.0000  0.0000  0.0000
  330FIC    C20 6655   3.595   1.462   0.767  0.0000  0.0000  0.0000
  330FIC    C21 6656   3.626   1.609   0.800  0.0000  0.0000  0.0000
  330FIC    C22 6657   3.705   1.611   0.915  0.0000  0.0000  0.0000
  330FIC    C23 6658   3.762   1.721   0.982  0.0000  0.0000  0.0000
  330FIC    C24 6659   3.838   1.704   1.091  0.0000  0.0000  0.0000
  330FIC    C25 6660   3.867   1.575   1.134  0.0000  0.0000  0.0000
  330FIC    C26 6661   3.811   1.456   1.075  0.0000  0.0000  0.0000
  330FIC    C27 6662   3.728   1.478   0.963  0.0000  0.0000  0.0000
  330FIC    C28 6663   3.662   1.388   0.870  0.0000  0.0000  0.0000
  330FIC    C29 6664   3.666   1.249   0.882  0.0000  0.0000  0.0000
  330FIC    C30 6665   3.723   1.184   1.001  0.0000  0.0000  0.0000
  330FIC    C31 6666   3.610   1.155   0.789  0.0000  0.0000  0.0000
  331BTD     S2 6667   1.957  -1.605  -2.195  0.0000  0.0000  0.0000
  331BTD     N1 6668   1.970  -1.769  -2.190  0.0000  0.0000  0.0000
  331BTD     N2 6669   2.022  -1.565  -2.052  0.0000  0.0000  0.0000
  331BTD     N3 6670   2.223  -1.812  -1.703  0.0000  0.0000  0.0000
  331BTD     N4 6671   2.167  -2.084  -1.895  0.0000  0.0000  0.0000
  331BTD     C5 6672   2.066  -1.925  -2.034  0.0000  0.0000  0.0000
  331BTD     C6 6673   2.026  -1.797  -2.078  0.0000  0.0000  0.0000
  331BTD     C7 6674   2.055  -1.682  -1.998  0.0000  0.0000  0.0000
  331BTD     C8 6675   2.122  -1.699  -1.873  0.0000  0.0000  0.0000
  331BTD    C15 6676   2.158  -1.827  -1.823  0.0000  0.0000  0.0000
  331BTD    C16 6677   2.139  -1.948  -1.909  0.0000  0.0000  0.0000
  331BTD    C43 6678   2.270  -2.149  -1.818  0.0000  0.0000  0.0000
  331BTD    C44 6679   2.412  -2.097  -1.855  0.0000  0.0000  0.0000
  331BTD    C45 6680   2.450  -2.072  -2.004  0.0000  0.0000  0.0000
  331BTD    C46 6681   2.456  -2.204  -2.086  0.0000  0.0000  0.0000
  331BTD    C47 6682   2.528  -2.177  -1.789  0.0000  0.0000  0.0000
  331BTD    C48 6683   2.545  -2.171  -1.635  0.0000  0.0000  0.0000
  331BTD    C49 6684   2.634  -2.277  -1.563  0.0000  0.0000  0.0000
  331BTD    C50 6685   2.613  -2.302  -1.411  0.0000  0.0000  0.0000
  331BTD    C75 6686   2.235  -1.910  -1.584  0.0000  0.0000  0.0000
  331BTD    C76 6687   2.097  -1.974  -1.549  0.0000  0.0000  0.0000
  331BTD    C77 6688   2.098  -2.060  -1.420  0.0000  0.0000  0.0000
  331BTD    C78 6689   2.243  -2.028  -1.375  0.0000  0.0000  0.0000
  331BTD    C79 6690   1.976  -1.880  -1.531  0.0000  0.0000  0.0000
  331BTD    C80 6691   1.997  -1.748  -1.452  0.0000  0.0000  0.0000
  331BTD    C81 6692   1.901  -1.629  -1.476  0.0000  0.0000  0.0000
  331BTD    C82 6693   1.769  -1.624  -1.393  0.0000  0.0000  0.0000
  332TTP     S1 6694   1.991  -2.124  -2.233  0.0000  0.0000  0.0000
  332TTP     S5 6695   2.174  -2.431  -2.014  0.0000  0.0000  0.0000
  332TTP     C1 6696   2.115  -2.501  -2.160  0.0000  0.0000  0.0000
  332TTP     C2 6697   2.054  -2.410  -2.238  0.0000  0.0000  0.0000
  332TTP     C3 6698   2.052  -2.279  -2.186  0.0000  0.0000  0.0000
  332TTP     C4 6699   2.057  -2.053  -2.091  0.0000  0.0000  0.0000
  332TTP    C17 6700   2.117  -2.145  -2.006  0.0000  0.0000  0.0000
  332TTP    C18 6701   2.118  -2.278  -2.058  0.0000  0.0000  0.0000
  332TTP    C32 6702   1.996  -2.434  -2.379  0.0000  0.0000  0.0000
  332TTP    C33 6703   1.844  -2.419  -2.402  0.0000  0.0000  0.0000
  332TTP    C34 6704   1.786  -2.454  -2.541  0.0000  0.0000  0.0000
  332TTP    C35 6705   1.633  -2.448  -2.512  0.0000  0.0000  0.0000
  332TTP    C36 6706   1.587  -2.595  -2.488  0.0000  0.0000  0.0000
  332TTP    C37 6707   1.655  -2.708  -2.570  0.0000  0.0000  0.0000
  332TTP    C38 6708   1.571  -2.828  -2.622  0.0000  0.0000  0.0000
  332TTP    C39 6709   1.681  -2.873  -2.720  0.0000  0.0000  0.0000
  332TTP    C40 6710   1.636  -2.914  -2.864  0.0000  0.0000  0.0000
  332TTP    C41 6711   1.717  -3.022  -2.941  0.0000  0.0000  0.0000
  332TTP    C42 6712   1.655  -3.088  -3.067  0.0000  0.0000  0.0000
  333TTP     S1 6713   2.155  -1.434  -1.749  0.0000  0.0000  0.0000
  333TTP     S5 6714   2.377  -1.609  -1.438  0.0000  0.0000  0.0000
  333TTP     C1 6715   2.383  -1.434  -1.421  0.0000  0.0000  0.0000
  333TTP     C2 6716   2.312  -1.369  -1.517  0.0000  0.0000  0.0000
  333TTP     C3 6717   2.251  -1.457  -1.606  0.0000  0.0000  0.0000
  333TTP     C4 6718   2.157  -1.604  -1.775  0.0000  0.0000  0.0000
  333TTP    C17 6719   2.220  -1.676  -1.672  0.0000  0.0000  0.0000
  333TTP    C18 6720   2.279  -1.591  -1.577  0.0000  0.0000  0.0000
  333TTP    C32 6721   2.294  -1.215  -1.526  0.0000  0.0000  0.0000
  333TTP    C33 6722   2.176  -1.162  -1.438  0.0000  0.0000  0.0000
  333TTP    C34 6723   2.158  -1.009  -1.443  0.0000  0.0000  0.0000
  333TTP    C35 6724   2.130  -0.966  -1.590  0.0000  0.0000  0.0000
  333TTP    C36 6725   2.116  -0.815  -1.622  0.0000  0.0000  0.0000
  333TTP    C37 6726   2.239  -0.721  -1.608  0.0000  0.0000  0.0000
  333TTP    C38 6727   2.153  -0.594  -1.636  0.0000  0.0000  0.0000
  333TTP    C39 6728   2.247  -0.494  -1.565  0.0000  0.0000  0.0000
  333TTP    C40 6729   2.253  -0.496  -1.409  0.0000  0.0000  0.0000
  333TTP    C41 6730   2.360  -0.583  -1.338  0.0000  0.0000  0.0000
  333TTP    C42 6731   2.325  -0.727  -1.288  0.0000  0.0000  0.0000
  334FIC     F1 6732   2.447  -3.150  -1.788  0.0000  0.0000  0.0000
  334FIC     F2 6733   2.406  -3.286  -2.017  0.0000  0.0000  0.0000
  334FIC     O1 6734   2.237  -2.674  -1.925  0.0000  0.0000  0.0000
  334FIC     N5 6735   2.198  -3.157  -2.426  0.0000  0.0000  0.0000
  334FIC     N6 6736   2.027  -2.760  -2.515  0.0000  0.0000  0.0000
  334FIC    C19 6737   2.132  -2.636  -2.202  0.0000  0.0000  0.0000
  334FIC    C20 6738   2.184  -2.750  -2.150  0.0000  0.0000  0.0000
  334FIC    C21 6739   2.239  -2.761  -2.016  0.0000  0.0000  0.0000
  334FIC    C22 6740   2.285  -2.900  -2.001  0.0000  0.0000  0.0000
  334FIC    C23 6741   2.346  -2.954  -1.884  0.0000  0.0000  0.0000
  334FIC    C24 6742   2.388  -3.087  -1.905  0.0000  0.0000  0.0000
  334FIC    C25 6743   2.368  -3.155  -2.017  0.0000  0.0000  0.0000
  334FIC    C26 6744   2.311  -3.101  -2.122  0.0000  0.0000  0.0000
  334FIC    C27 6745   2.268  -2.973  -2.109  0.0000  0.0000  0.0000
  334FIC    C28 6746   2.200  -2.881  -2.210  0.0000  0.0000  0.0000
  334FIC    C29 6747   2.158  -2.909  -2.351  0.0000  0.0000  0.0000
  334FIC    C30 6748   2.179  -3.053  -2.390  0.0000  0.0000  0.0000
  334FIC    C31 6749   2.091  -2.823  -2.446  0.0000  0.0000  0.0000
  335FIC     F1 6750   2.842  -1.706  -0.808  0.0000  0.0000  0.0000
  335FIC     F2 6751   2.896  -1.455  -0.745  0.0000  0.0000  0.0000
  335FIC     O1 6752   2.521  -1.643  -1.224  0.0000  0.0000  0.0000
  335FIC     N5 6753   2.747  -1.041  -0.951  0.0000  0.0000  0.0000
  335FIC     N6 6754   2.553  -1.024  -1.325  0.0000  0.0000  0.0000
  335FIC    C19 6755   2.460  -1.363  -1.323  0.0000  0.0000  0.0000
  335FIC    C20 6756   2.541  -1.400  -1.221  0.0000  0.0000  0.0000
  335FIC    C21 6757   2.566  -1.541  -1.178  0.0000  0.0000  0.0000
  335FIC    C22 6758   2.651  -1.532  -1.058  0.0000  0.0000  0.0000
  335FIC    C23 6759   2.703  -1.639  -0.985  0.0000  0.0000  0.0000
  335FIC    C24 6760   2.779  -1.608  -0.881  0.0000  0.0000  0.0000
  335FIC    C25 6761   2.811  -1.475  -0.848  0.0000  0.0000  0.0000
  335FIC    C26 6762   2.763  -1.372  -0.922  0.0000  0.0000  0.0000
  335FIC    C27 6763   2.681  -1.401  -1.027  0.0000  0.0000  0.0000
  335FIC    C28 6764   2.617  -1.315  -1.131  0.0000  0.0000  0.0000
  335FIC    C29 6765   2.630  -1.177  -1.136  0.0000  0.0000  0.0000
  335FIC    C30 6766   2.695  -1.103  -1.034  0.0000  0.0000  0.0000
  335FIC    C31 6767   2.586  -1.094  -1.245  0.0000  0.0000  0.0000
  336BTD     S2 6768   3.083  -1.597   0.200  0.0000  0.0000  0.0000
  336BTD     N1 6769   3.094  -1.758   0.189  0.0000  0.0000  0.0000
  336BTD     N2 6770   3.004  -1.565   0.063  0.0000  0.0000  0.0000
  336BTD     N3 6771   2.835  -1.827  -0.299  0.0000  0.0000  0.0000
  336BTD     N4 6772   2.948  -2.087  -0.121  0.0000  0.0000  0.0000
  336BTD     C5 6773   3.018  -1.923   0.020  0.0000  0.0000  0.0000
  336BTD     C6 6774   3.035  -1.793   0.076  0.0000  0.0000  0.0000
  336BTD     C7 6775   2.984  -1.682   0.003  0.0000  0.0000  0.0000
  336BTD     C8 6776   2.923  -1.703  -0.122  0.0000  0.0000  0.0000
  336BTD    C15 6777   2.904  -1.836  -0.175  0.0000  0.0000  0.0000
  336BTD    C16 6778   2.952  -1.948  -0.098  0.0000  0.0000  0.0000
  336BTD    C43 6779   2.860  -2.164  -0.210  0.0000  0.0000  0.0000
  336BTD    C44 6780   2.707  -2.154  -0.180  0.0000  0.0000  0.0000
  336BTD    C45 6781   2.635  -2.253  -0.274  0.0000  0.0000  0.0000
  336BTD    C46 6782   2.485  -2.211  -0.273  0.0000  0.0000  0.0000
  336BTD    C47 6783   2.674  -2.181  -0.030  0.0000  0.0000  0.0000
  336BTD    C48 6784   2.660  -2.322   0.033  0.0000  0.0000  0.0000
  336BTD    C49 6785   2.646  -2.290   0.184  0.0000  0.0000  0.0000
  336BTD    C50 6786   2.549  -2.244   0.298  0.0000  0.0000  0.0000
  336BTD    C75 6787   2.848  -1.915  -0.415  0.0000  0.0000  0.0000
  336BTD    C76 6788   2.997  -1.945  -0.451  0.0000  0.0000  0.0000
  336BTD    C77 6789   3.006  -2.033  -0.578  0.0000  0.0000  0.0000
  336BTD    C78 6790   3.147  -2.086  -0.613  0.0000  0.0000  0.0000
  336BTD    C79 6791   3.082  -1.818  -0.471  0.0000  0.0000  0.0000
  336BTD    C80 6792   3.055  -1.729  -0.595  0.0000  0.0000  0.0000
  336BTD    C81 6793   3.147  -1.604  -0.590  0.0000  0.0000  0.0000
  336BTD    C82 6794   3.116  -1.478  -0.503  0.0000  0.0000  0.0000
  337TTP     S1 6795   3.145  -2.113   0.207  0.0000  0.0000  0.0000
  337TTP     S5 6796   3.046  -2.432  -0.050  0.0000  0.0000  0.0000
  337TTP     C1 6797   3.143  -2.495   0.082  0.0000  0.0000  0.0000
  337TTP     C2 6798   3.181  -2.398   0.170  0.0000  0.0000  0.0000
  337TTP     C3 6799   3.125  -2.275   0.137  0.0000  0.0000  0.0000
  337TTP     C4 6800   3.060  -2.052   0.076  0.0000  0.0000  0.0000
  337TTP    C17 6801   3.009  -2.143  -0.015  0.0000  0.0000  0.0000
  337TTP    C18 6802   3.053  -2.277   0.025  0.0000  0.0000  0.0000
  337TTP    C32 6803   3.266  -2.415   0.298  0.0000  0.0000  0.0000
  337TTP    C33 6804   3.176  -2.449   0.420  0.0000  0.0000  0.0000
  337TTP    C34 6805   3.269  -2.472   0.541  0.0000  0.0000  0.0000
  337TTP    C35 6806   3.210  -2.543   0.666  0.0000  0.0000  0.0000
  337TTP    C36 6807   3.305  -2.637   0.747  0.0000  0.0000  0.0000
  337TTP    C37 6808   3.424  -2.573   0.824  0.0000  0.0000  0.0000
  337TTP    C38 6809   3.505  -2.441   0.836  0.0000  0.0000  0.0000
  337TTP    C39 6810   3.587  -2.391   0.713  0.0000  0.0000  0.0000
  337TTP    C40 6811   3.646  -2.493   0.613  0.0000  0.0000  0.0000
  337TTP    C41 6812   3.633  -2.467   0.460  0.0000  0.0000  0.0000
  337TTP    C42 6813   3.651  -2.588   0.365  0.0000  0.0000  0.0000
  338TTP     S1 6814   2.840  -1.444  -0.237  0.0000  0.0000  0.0000
  338TTP     S5 6815   2.638  -1.647  -0.545  0.0000  0.0000  0.0000
  338TTP     C1 6816   2.607  -1.474  -0.567  0.0000  0.0000  0.0000
  338TTP     C2 6817   2.672  -1.400  -0.466  0.0000  0.0000  0.0000
  338TTP     C3 6818   2.749  -1.480  -0.382  0.0000  0.0000  0.0000
  338TTP     C4 6819   2.863  -1.616  -0.216  0.0000  0.0000  0.0000
  338TTP    C17 6820   2.809  -1.691  -0.320  0.0000  0.0000  0.0000
  338TTP    C18 6821   2.739  -1.614  -0.415  0.0000  0.0000  0.0000
  338TTP    C32 6822   2.679  -1.246  -0.459  0.0000  0.0000  0.0000
  338TTP    C33 6823   2.785  -1.179  -0.553  0.0000  0.0000  0.0000
  338TTP    C34 6824   2.791  -1.024  -0.537  0.0000  0.0000  0.0000
  338TTP    C35 6825   2.900  -0.974  -0.635  0.0000  0.0000  0.0000
  338TTP    C36 6826   2.884  -0.820  -0.641  0.0000  0.0000  0.0000
  338TTP    C37 6827   2.917  -0.782  -0.493  0.0000  0.0000  0.0000
  338TTP    C38 6828   2.923  -0.628  -0.464  0.0000  0.0000  0.0000
  338TTP    C39 6829   2.985  -0.577  -0.332  0.0000  0.0000  0.0000
  338TTP    C40 6830   2.894  -0.509  -0.225  0.0000  0.0000  0.0000
  338TTP    C41 6831   2.819  -0.378  -0.259  0.0000  0.0000  0.0000
  338TTP    C42 6832   2.797  -0.271  -0.150  0.0000  0.0000  0.0000
  339FIC     F1 6833   3.113  -3.122  -0.442  0.0000  0.0000  0.0000
  339FIC     F2 6834   3.222  -3.276  -0.250  0.0000  0.0000  0.0000
  339FIC     O1 6835   3.059  -2.663  -0.181  0.0000  0.0000  0.0000
  339FIC     N5 6836   3.375  -3.163   0.195  0.0000  0.0000  0.0000
  339FIC     N6 6837   3.327  -2.782   0.374  0.0000  0.0000  0.0000
  339FIC    C19 6838   3.187  -2.632   0.092  0.0000  0.0000  0.0000
  339FIC    C20 6839   3.178  -2.743   0.011  0.0000  0.0000  0.0000
  339FIC    C21 6840   3.115  -2.751  -0.116  0.0000  0.0000  0.0000
  339FIC    C22 6841   3.140  -2.885  -0.170  0.0000  0.0000  0.0000
  339FIC    C23 6842   3.110  -2.935  -0.301  0.0000  0.0000  0.0000
  339FIC    C24 6843   3.139  -3.064  -0.325  0.0000  0.0000  0.0000
  339FIC    C25 6844   3.199  -3.143  -0.216  0.0000  0.0000  0.0000
  339FIC    C26 6845   3.235  -3.098  -0.099  0.0000  0.0000  0.0000
  339FIC    C27 6846   3.200  -2.963  -0.071  0.0000  0.0000  0.0000
  339FIC    C28 6847   3.224  -2.877   0.045  0.0000  0.0000  0.0000
  339FIC    C29 6848   3.284  -2.920   0.161  0.0000  0.0000  0.0000
  339FIC    C30 6849   3.332  -3.063   0.174  0.0000  0.0000  0.0000
  339FIC    C31 6850   3.301  -2.842   0.280  0.0000  0.0000  0.0000
  340FIC     F1 6851   2.151  -1.797  -1.158  0.0000  0.0000  0.0000
  340FIC     F2 6852   2.104  -1.554  -1.239  0.0000  0.0000  0.0000
  340FIC     O1 6853   2.463  -1.703  -0.736  0.0000  0.0000  0.0000
  340FIC     N5 6854   2.281  -1.134  -1.089  0.0000  0.0000  0.0000
  340FIC     N6 6855   2.471  -1.079  -0.711  0.0000  0.0000  0.0000
  340FIC    C19 6856   2.531  -1.416  -0.668  0.0000  0.0000  0.0000
  340FIC    C20 6857   2.451  -1.462  -0.767  0.0000  0.0000  0.0000
  340FIC    C21 6858   2.420  -1.609  -0.800  0.0000  0.0000  0.0000
  340FIC    C22 6859   2.341  -1.611  -0.915  0.0000  0.0000  0.0000
  340FIC    C23 6860   2.284  -1.721  -0.982  0.0000  0.0000  0.0000
  340FIC    C24 6861   2.208  -1.704  -1.091  0.0000  0.0000  0.0000
  340FIC    C25 6862   2.179  -1.575  -1.134  0.0000  0.0000  0.0000
  340FIC    C26 6863   2.235  -1.456  -1.075  0.0000  0.0000  0.0000
  340FIC    C27 6864   2.318  -1.478  -0.963  0.0000  0.0000  0.0000
  340FIC    C28 6865   2.384  -1.388  -0.870  0.0000  0.0000  0.0000
  340FIC    C29 6866   2.380  -1.249  -0.882  0.0000  0.0000  0.0000
  340FIC    C30 6867   2.323  -1.184  -1.001  0.0000  0.0000  0.0000
  340FIC    C31 6868   2.436  -1.155  -0.789  0.0000  0.0000  0.0000
  341BTD     S2 6869   1.853   4.495  -1.196  0.0000  0.0000  0.0000
  341BTD     N1 6870   1.867   4.660  -1.192  0.0000  0.0000  0.0000
  341BTD     N2 6871   1.918   4.456  -1.054  0.0000  0.0000  0.0000
  341BTD     N3 6872   2.120   4.703  -0.704  0.0000  0.0000  0.0000
  341BTD     N4 6873   2.063   4.974  -0.897  0.0000  0.0000  0.0000
  341BTD     C5 6874   1.963   4.815  -1.035  0.0000  0.0000  0.0000
  341BTD     C6 6875   1.923   4.687  -1.079  0.0000  0.0000  0.0000
  341BTD     C7 6876   1.952   4.573  -0.999  0.0000  0.0000  0.0000
  341BTD     C8 6877   2.018   4.590  -0.875  0.0000  0.0000  0.0000
  341BTD    C15 6878   2.054   4.717  -0.825  0.0000  0.0000  0.0000
  341BTD    C16 6879   2.036   4.839  -0.910  0.0000  0.0000  0.0000
  341BTD    C43 6880   2.167   5.040  -0.820  0.0000  0.0000  0.0000
  341BTD    C44 6881   2.309   4.988  -0.856  0.0000  0.0000  0.0000
  341BTD    C45 6882   2.347   4.963  -1.006  0.0000  0.0000  0.0000
  341BTD    C46 6883   2.352   5.094  -1.087  0.0000  0.0000  0.0000
  341BTD    C47 6884   2.424   5.068  -0.790  0.0000  0.0000  0.0000
  341BTD    C48 6885   2.442   5.062  -0.637  0.0000  0.0000  0.0000
  341BTD    C49 6886   2.530   5.168  -0.565  0.0000  0.0000  0.0000
  341BTD    C50 6887   2.510   5.192  -0.413  0.0000  0.0000  0.0000
  341BTD    C75 6888   2.131   4.801  -0.586  0.0000  0.0000  0.0000
  341BTD    C76 6889   1.993   4.864  -0.551  0.0000  0.0000  0.0000
  341BTD    C77 6890   1.995   4.950  -0.422  0.0000  0.0000  0.0000
  341BTD    C78 6891   2.139   4.919  -0.376  0.0000  0.0000  0.0000
  341BTD    C79 6892   1.872   4.770  -0.532  0.0000  0.0000  0.0000
  341BTD    C80 6893   1.893   4.639  -0.453  0.0000  0.0000  0.0000
  341BTD    C81 6894   1.797   4.519  -0.478  0.0000  0.0000  0.0000
  341BTD    C82 6895   1.666   4.515  -0.394  0.0000  0.0000  0.0000
  342TTP     S1 6896   1.888   5.015  -1.234  0.0000  0.0000  0.0000
  342TTP     S5 6897   2.071   5.322  -1.016  0.0000  0.0000  0.0000
  342TTP     C1 6898   2.011   5.392  -1.162  0.0000  0.0000  0.0000
  342TTP     C2 6899   1.951   5.300  -1.239  0.0000  0.0000  0.0000
  342TTP     C3 6900   1.949   5.170  -1.188  0.0000  0.0000  0.0000
  342TTP     C4 6901   1.953   4.944  -1.092  0.0000  0.0000  0.0000
  342TTP    C17 6902   2.014   5.036  -1.008  0.0000  0.0000  0.0000
  342TTP    C18 6903   2.015   5.168  -1.060  0.0000  0.0000  0.0000
  342TTP    C32 6904   1.893   5.325  -1.381  0.0000  0.0000  0.0000
  342TTP    C33 6905   1.740   5.310  -1.403  0.0000  0.0000  0.0000
  342TTP    C34 6906   1.682   5.345  -1.543  0.0000  0.0000  0.0000
  342TTP    C35 6907   1.530   5.339  -1.514  0.0000  0.0000  0.0000
  342TTP    C36 6908   1.483   5.485  -1.489  0.0000  0.0000  0.0000
  342TTP    C37 6909   1.552   5.599  -1.572  0.0000  0.0000  0.0000
  342TTP    C38 6910   1.467   5.718  -1.623  0.0000  0.0000  0.0000
  342TTP    C39 6911   1.577   5.763  -1.721  0.0000  0.0000  0.0000
  342TTP    C40 6912   1.533   5.805  -1.865  0.0000  0.0000  0.0000
  342TTP    C41 6913   1.614   5.913  -1.943  0.0000  0.0000  0.0000
  342TTP    C42 6914   1.551   5.978  -2.069  0.0000  0.0000  0.0000
  343TTP     S1 6915   2.052   4.324  -0.750  0.0000  0.0000  0.0000
  343TTP     S5 6916   2.274   4.500  -0.440  0.0000  0.0000  0.0000
  343TTP     C1 6917   2.280   4.324  -0.422  0.0000  0.0000  0.0000
  343TTP     C2 6918   2.209   4.259  -0.518  0.0000  0.0000  0.0000
  343TTP     C3 6919   2.148   4.347  -0.607  0.0000  0.0000  0.0000
  343TTP     C4 6920   2.054   4.495  -0.776  0.0000  0.0000  0.0000
  343TTP    C17 6921   2.117   4.566  -0.674  0.0000  0.0000  0.0000
  343TTP    C18 6922   2.175   4.482  -0.578  0.0000  0.0000  0.0000
  343TTP    C32 6923   2.190   4.105  -0.528  0.0000  0.0000  0.0000
  343TTP    C33 6924   2.073   4.052  -0.440  0.0000  0.0000  0.0000
  343TTP    C34 6925   2.055   3.899  -0.445  0.0000  0.0000  0.0000
  343TTP    C35 6926   2.026   3.856  -0.591  0.0000  0.0000  0.0000
  343TTP    C36 6927   2.013   3.705  -0.624  0.0000  0.0000  0.0000
  343TTP    C37 6928   2.136   3.612  -0.609  0.0000  0.0000  0.0000
  343TTP    C38 6929   2.050   3.485  -0.638  0.0000  0.0000  0.0000
  343TTP    C39 6930   2.143   3.384  -0.566  0.0000  0.0000  0.0000
  343TTP    C40 6931   2.150   3.387  -0.411  0.0000  0.0000  0.0000
  343TTP    C41 6932   2.256   3.474  -0.339  0.0000  0.0000  0.0000
  343TTP    C42 6933   2.222   3.617  -0.290  0.0000  0.0000  0.0000
  344FIC     F1 6934   2.344   6.041  -0.789  0.0000  0.0000  0.0000
  344FIC     F2 6935   2.303   6.176  -1.018  0.0000  0.0000  0.0000
  344FIC     O1 6936   2.134   5.565  -0.926  0.0000  0.0000  0.0000
  344FIC     N5 6937   2.095   6.048  -1.428  0.0000  0.0000  0.0000
  344FIC     N6 6938   1.923   5.651  -1.516  0.0000  0.0000  0.0000
  344FIC    C19 6939   2.028   5.526  -1.204  0.0000  0.0000  0.0000
  344FIC    C20 6940   2.080   5.640  -1.152  0.0000  0.0000  0.0000
  344FIC    C21 6941   2.135   5.651  -1.018  0.0000  0.0000  0.0000
  344FIC    C22 6942   2.182   5.790  -1.002  0.0000  0.0000  0.0000
  344FIC    C23 6943   2.243   5.844  -0.885  0.0000  0.0000  0.0000
  344FIC    C24 6944   2.284   5.978  -0.907  0.0000  0.0000  0.0000
  344FIC    C25 6945   2.265   6.045  -1.019  0.0000  0.0000  0.0000
  344FIC    C26 6946   2.207   5.991  -1.124  0.0000  0.0000  0.0000
  344FIC    C27 6947   2.164   5.863  -1.111  0.0000  0.0000  0.0000
  344FIC    C28 6948   2.096   5.772  -1.211  0.0000  0.0000  0.0000
  344FIC    C29 6949   2.054   5.800  -1.353  0.0000  0.0000  0.0000
  344FIC    C30 6950   2.075   5.944  -1.392  0.0000  0.0000  0.0000
  344FIC    C31 6951   1.988   5.714  -1.448  0.0000  0.0000  0.0000
  345FIC     F1 6952   2.738   4.597   0.191  0.0000  0.0000  0.0000
  345FIC     F2 6953   2.793   4.345   0.253  0.0000  0.0000  0.0000
  345FIC     O1 6954   2.418   4.533  -0.226  0.0000  0.0000  0.0000
  345FIC     N5 6955   2.644   3.931   0.047  0.0000  0.0000  0.0000
  345FIC     N6 6956   2.449   3.915  -0.326  0.0000  0.0000  0.0000
  345FIC    C19 6957   2.356   4.254  -0.324  0.0000  0.0000  0.0000
  345FIC    C20 6958   2.438   4.291  -0.222  0.0000  0.0000  0.0000
  345FIC    C21 6959   2.463   4.431  -0.180  0.0000  0.0000  0.0000
  345FIC    C22 6960   2.547   4.423  -0.060  0.0000  0.0000  0.0000
  345FIC    C23 6961   2.600   4.529   0.013  0.0000  0.0000  0.0000
  345FIC    C24 6962   2.675   4.499   0.118  0.0000  0.0000  0.0000
  345FIC    C25 6963   2.708   4.366   0.150  0.0000  0.0000  0.0000
  345FIC    C26 6964   2.659   4.262   0.076  0.0000  0.0000  0.0000
  345FIC    C27 6965   2.578   4.291  -0.028  0.0000  0.0000  0.0000
  345FIC    C28 6966   2.513   4.205  -0.133  0.0000  0.0000  0.0000
  345FIC    C29 6967   2.527   4.067  -0.137  0.0000  0.0000  0.0000
  345FIC    C30 6968   2.591   3.993  -0.036  0.0000  0.0000  0.0000
  345FIC    C31 6969   2.482   3.985  -0.246  0.0000  0.0000  0.0000
  346BTD     S2 6970   2.980   4.487   1.199  0.0000  0.0000  0.0000
  346BTD     N1 6971   2.990   4.648   1.188  0.0000  0.0000  0.0000
  346BTD     N2 6972   2.901   4.456   1.061  0.0000  0.0000  0.0000
  346BTD     N3 6973   2.731   4.718   0.700  0.0000  0.0000  0.0000
  346BTD     N4 6974   2.845   4.978   0.877  0.0000  0.0000  0.0000
  346BTD     C5 6975   2.915   4.814   1.019  0.0000  0.0000  0.0000
  346BTD     C6 6976   2.932   4.683   1.075  0.0000  0.0000  0.0000
  346BTD     C7 6977   2.881   4.573   1.001  0.0000  0.0000  0.0000
  346BTD     C8 6978   2.819   4.594   0.877  0.0000  0.0000  0.0000
  346BTD    C15 6979   2.800   4.727   0.824  0.0000  0.0000  0.0000
  346BTD    C16 6980   2.848   4.838   0.900  0.0000  0.0000  0.0000
  346BTD    C43 6981   2.756   5.055   0.789  0.0000  0.0000  0.0000
  346BTD    C44 6982   2.604   5.045   0.819  0.0000  0.0000  0.0000
  346BTD    C45 6983   2.531   5.144   0.724  0.0000  0.0000  0.0000
  346BTD    C46 6984   2.381   5.102   0.726  0.0000  0.0000  0.0000
  346BTD    C47 6985   2.571   5.071   0.968  0.0000  0.0000  0.0000
  346BTD    C48 6986   2.556   5.212   1.032  0.0000  0.0000  0.0000
  346BTD    C49 6987   2.542   5.181   1.183  0.0000  0.0000  0.0000
  346BTD    C50 6988   2.446   5.135   1.296  0.0000  0.0000  0.0000
  346BTD    C75 6989   2.745   4.805   0.583  0.0000  0.0000  0.0000
  346BTD    C76 6990   2.893   4.835   0.548  0.0000  0.0000  0.0000
  346BTD    C77 6991   2.902   4.923   0.421  0.0000  0.0000  0.0000
  346BTD    C78 6992   3.043   4.977   0.385  0.0000  0.0000  0.0000
  346BTD    C79 6993   2.979   4.708   0.527  0.0000  0.0000  0.0000
  346BTD    C80 6994   2.951   4.620   0.403  0.0000  0.0000  0.0000
  346BTD    C81 6995   3.043   4.494   0.409  0.0000  0.0000  0.0000
  346BTD    C82 6996   3.012   4.369   0.496  0.0000  0.0000  0.0000
  347TTP     S1 6997   3.041   5.004   1.205  0.0000  0.0000  0.0000
  347TTP     S5 6998   2.943   5.322   0.949  0.0000  0.0000  0.0000
  347TTP     C1 6999   3.039   5.386   1.080  0.0000  0.0000  0.0000
  347TTP     C2 7000   3.077   5.288   1.169  0.0000  0.0000  0.0000
  347TTP     C3 7001   3.022   5.166   1.135  0.0000  0.0000  0.0000
  347TTP     C4 7002   2.957   4.943   1.074  0.0000  0.0000  0.0000
  347TTP    C17 7003   2.906   5.033   0.983  0.0000  0.0000  0.0000
  347TTP    C18 7004   2.950   5.168   1.023  0.0000  0.0000  0.0000
  347TTP    C32 7005   3.163   5.306   1.297  0.0000  0.0000  0.0000
  347TTP    C33 7006   3.072   5.340   1.418  0.0000  0.0000  0.0000
  347TTP    C34 7007   3.165   5.363   1.540  0.0000  0.0000  0.0000
  347TTP    C35 7008   3.107   5.433   1.664  0.0000  0.0000  0.0000
  347TTP    C36 7009   3.201   5.527   1.745  0.0000  0.0000  0.0000
  347TTP    C37 7010   3.321   5.463   1.822  0.0000  0.0000  0.0000
  347TTP    C38 7011   3.401   5.331   1.834  0.0000  0.0000  0.0000
  347TTP    C39 7012   3.483   5.281   1.712  0.0000  0.0000  0.0000
  347TTP    C40 7013   3.542   5.384   1.611  0.0000  0.0000  0.0000
  347TTP    C41 7014   3.529   5.357   1.458  0.0000  0.0000  0.0000
  347TTP    C42 7015   3.548   5.479   1.363  0.0000  0.0000  0.0000
  348TTP     S1 7016   2.737   4.335   0.762  0.0000  0.0000  0.0000
  348TTP     S5 7017   2.535   4.538   0.453  0.0000  0.0000  0.0000
  348TTP     C1 7018   2.504   4.365   0.432  0.0000  0.0000  0.0000
  348TTP     C2 7019   2.568   4.291   0.533  0.0000  0.0000  0.0000
  348TTP     C3 7020   2.645   4.371   0.617  0.0000  0.0000  0.0000
  348TTP     C4 7021   2.760   4.506   0.783  0.0000  0.0000  0.0000
  348TTP    C17 7022   2.706   4.581   0.679  0.0000  0.0000  0.0000
  348TTP    C18 7023   2.635   4.504   0.583  0.0000  0.0000  0.0000
  348TTP    C32 7024   2.576   4.136   0.539  0.0000  0.0000  0.0000
  348TTP    C33 7025   2.681   4.069   0.446  0.0000  0.0000  0.0000
  348TTP    C34 7026   2.688   3.915   0.461  0.0000  0.0000  0.0000
  348TTP    C35 7027   2.797   3.864   0.363  0.0000  0.0000  0.0000
  348TTP    C36 7028   2.781   3.710   0.358  0.0000  0.0000  0.0000
  348TTP    C37 7029   2.814   3.672   0.505  0.0000  0.0000  0.0000
  348TTP    C38 7030   2.819   3.518   0.535  0.0000  0.0000  0.0000
  348TTP    C39 7031   2.881   3.468   0.667  0.0000  0.0000  0.0000
  348TTP    C40 7032   2.790   3.400   0.774  0.0000  0.0000  0.0000
  348TTP    C41 7033   2.715   3.269   0.739  0.0000  0.0000  0.0000
  348TTP    C42 7034   2.693   3.161   0.848  0.0000  0.0000  0.0000
  349FIC     F1 7035   3.010   6.012   0.557  0.0000  0.0000  0.0000
  349FIC     F2 7036   3.119   6.166   0.748  0.0000  0.0000  0.0000
  349FIC     O1 7037   2.955   5.553   0.817  0.0000  0.0000  0.0000
  349FIC     N5 7038   3.271   6.054   1.193  0.0000  0.0000  0.0000
  349FIC     N6 7039   3.223   5.673   1.372  0.0000  0.0000  0.0000
  349FIC    C19 7040   3.083   5.523   1.090  0.0000  0.0000  0.0000
  349FIC    C20 7041   3.074   5.634   1.010  0.0000  0.0000  0.0000
  349FIC    C21 7042   3.012   5.641   0.882  0.0000  0.0000  0.0000
  349FIC    C22 7043   3.036   5.776   0.828  0.0000  0.0000  0.0000
  349FIC    C23 7044   3.007   5.825   0.698  0.0000  0.0000  0.0000
  349FIC    C24 7045   3.035   5.954   0.673  0.0000  0.0000  0.0000
  349FIC    C25 7046   3.095   6.033   0.783  0.0000  0.0000  0.0000
  349FIC    C26 7047   3.131   5.989   0.899  0.0000  0.0000  0.0000
  349FIC    C27 7048   3.096   5.854   0.927  0.0000  0.0000  0.0000
  349FIC    C28 7049   3.120   5.767   1.043  0.0000  0.0000  0.0000
  349FIC    C29 7050   3.180   5.810   1.160  0.0000  0.0000  0.0000
  349FIC    C30 7051   3.228   5.954   1.172  0.0000  0.0000  0.0000
  349FIC    C31 7052   3.198   5.733   1.279  0.0000  0.0000  0.0000
  350FIC     F1 7053   2.047   4.687  -0.160  0.0000  0.0000  0.0000
  350FIC     F2 7054   2.000   4.445  -0.241  0.0000  0.0000  0.0000
  350FIC     O1 7055   2.359   4.593   0.263  0.0000  0.0000  0.0000
  350FIC     N5 7056   2.177   4.024  -0.091  0.0000  0.0000  0.0000
  350FIC     N6 7057   2.368   3.969   0.287  0.0000  0.0000  0.0000
  350FIC    C19 7058   2.427   4.307   0.330  0.0000  0.0000  0.0000
  350FIC    C20 7059   2.348   4.353   0.231  0.0000  0.0000  0.0000
  350FIC    C21 7060   2.316   4.499   0.199  0.0000  0.0000  0.0000
  350FIC    C22 7061   2.237   4.501   0.083  0.0000  0.0000  0.0000
  350FIC    C23 7062   2.181   4.612   0.017  0.0000  0.0000  0.0000
  350FIC    C24 7063   2.105   4.595  -0.093  0.0000  0.0000  0.0000
  350FIC    C25 7064   2.076   4.466  -0.135  0.0000  0.0000  0.0000
  350FIC    C26 7065   2.131   4.347  -0.077  0.0000  0.0000  0.0000
  350FIC    C27 7066   2.214   4.368   0.036  0.0000  0.0000  0.0000
  350FIC    C28 7067   2.281   4.279   0.128  0.0000  0.0000  0.0000
  350FIC    C29 7068   2.276   4.139   0.116  0.0000  0.0000  0.0000
  350FIC    C30 7069   2.219   4.075  -0.003  0.0000  0.0000  0.0000
  350FIC    C31 7070   2.332   4.045   0.209  0.0000  0.0000  0.0000
  351BTD     S2 7071   4.193  -4.495   1.196  0.0000  0.0000  0.0000
  351BTD     N1 7072   4.179  -4.660   1.192  0.0000  0.0000  0.0000
  351BTD     N2 7073   4.128  -4.456   1.054  0.0000  0.0000  0.0000
  351BTD     N3 7074   3.926  -4.703   0.704  0.0000  0.0000  0.0000
  351BTD     N4 7075   3.983  -4.974   0.897  0.0000  0.0000  0.0000
  351BTD     C5 7076   4.083  -4.815   1.035  0.0000  0.0000  0.0000
  351BTD     C6 7077   4.123  -4.687   1.079  0.0000  0.0000  0.0000
  351BTD     C7 7078   4.094  -4.573   0.999  0.0000  0.0000  0.0000
  351BTD     C8 7079   4.028  -4.590   0.875  0.0000  0.0000  0.0000
  351BTD    C15 7080   3.992  -4.717   0.825  0.0000  0.0000  0.0000
  351BTD    C16 7081   4.010  -4.839   0.910  0.0000  0.0000  0.0000
  351BTD    C43 7082   3.879  -5.040   0.820  0.0000  0.0000  0.0000
  351BTD    C44 7083   3.737  -4.988   0.856  0.0000  0.0000  0.0000
  351BTD    C45 7084   3.699  -4.963   1.006  0.0000  0.0000  0.0000
  351BTD    C46 7085   3.694  -5.094   1.087  0.0000  0.0000  0.0000
  351BTD    C47 7086   3.622  -5.068   0.790  0.0000  0.0000  0.0000
  351BTD    C48 7087   3.604  -5.062   0.637  0.0000  0.0000  0.0000
  351BTD    C49 7088   3.516  -5.168   0.565  0.0000  0.0000  0.0000
  351BTD    C50 7089   3.536  -5.192   0.413  0.0000  0.0000  0.0000
  351BTD    C75 7090   3.915  -4.801   0.586  0.0000  0.0000  0.0000
  351BTD    C76 7091   4.053  -4.864   0.551  0.0000  0.0000  0.0000
  351BTD    C77 7092   4.051  -4.950   0.422  0.0000  0.0000  0.0000
  351BTD    C78 7093   3.907  -4.919   0.376  0.0000  0.0000  0.0000
  351BTD    C79 7094   4.174  -4.770   0.532  0.0000  0.0000  0.0000
  351BTD    C80 7095   4.153  -4.639   0.453  0.0000  0.0000  0.0000
  351BTD    C81 7096   4.249  -4.519   0.478  0.0000  0.0000  0.0000
  351BTD    C82 7097   4.380  -4.515   0.394  0.0000  0.0000  0.0000
  352TTP     S1 7098   4.158  -5.015   1.234  0.0000  0.0000  0.0000
  352TTP     S5 7099   3.975  -5.322   1.016  0.0000  0.0000  0.0000
  352TTP     C1 7100   4.035  -5.392   1.162  0.0000  0.0000  0.0000
  352TTP     C2 7101   4.095  -5.300   1.239  0.0000  0.0000  0.0000
  352TTP     C3 7102   4.097  -5.170   1.188  0.0000  0.0000  0.0000
  352TTP     C4 7103   4.093  -4.944   1.092  0.0000  0.0000  0.0000
  352TTP    C17 7104   4.032  -5.036   1.008  0.0000  0.0000  0.0000
  352TTP    C18 7105   4.031  -5.168   1.060  0.0000  0.0000  0.0000
  352TTP    C32 7106   4.153  -5.325   1.381  0.0000  0.0000  0.0000
  352TTP    C33 7107   4.306  -5.310   1.403  0.0000  0.0000  0.0000
  352TTP    C34 7108   4.364  -5.345   1.543  0.0000  0.0000  0.0000
  352TTP    C35 7109   4.516  -5.339   1.514  0.0000  0.0000  0.0000
  352TTP    C36 7110   4.563  -5.485   1.489  0.0000  0.0000  0.0000
  352TTP    C37 7111   4.494  -5.599   1.572  0.0000  0.0000  0.0000
  352TTP    C38 7112   4.579  -5.718   1.623  0.0000  0.0000  0.0000
  352TTP    C39 7113   4.469  -5.763   1.721  0.0000  0.0000  0.0000
  352TTP    C40 7114   4.513  -5.805   1.865  0.0000  0.0000  0.0000
  352TTP    C41 7115   4.432  -5.913   1.943  0.0000  0.0000  0.0000
  352TTP    C42 7116   4.495  -5.978   2.069  0.0000  0.0000  0.0000
  353TTP     S1 7117   3.994  -4.324   0.750  0.0000  0.0000  0.0000
  353TTP     S5 7118   3.772  -4.500   0.440  0.0000  0.0000  0.0000
  353TTP     C1 7119   3.766  -4.324   0.422  0.0000  0.0000  0.0000
  353TTP     C2 7120   3.837  -4.259   0.518  0.0000  0.0000  0.0000
  353TTP     C3 7121   3.898  -4.347   0.607  0.0000  0.0000  0.0000
  353TTP     C4 7122   3.992  -4.495   0.776  0.0000  0.0000  0.0000
  353TTP    C17 7123   3.929  -4.566   0.674  0.0000  0.0000  0.0000
  353TTP    C18 7124   3.871  -4.482   0.578  0.0000  0.0000  0.0000
  353TTP    C32 7125   3.856  -4.105   0.528  0.0000  0.0000  0.0000
  353TTP    C33 7126   3.973  -4.052   0.440  0.0000  0.0000  0.0000
  353TTP    C34 7127   3.991  -3.899   0.445  0.0000  0.0000  0.0000
  353TTP    C35 7128   4.020  -3.856   0.591  0.0000  0.0000  0.0000
  353TTP    C36 7129   4.033  -3.705   0.624  0.0000  0.0000  0.0000
  353TTP    C37 7130   3.910  -3.612   0.609  0.0000  0.0000  0.0000
  353TTP    C38 7131   3.996  -3.485   0.638  0.0000  0.0000  0.0000
  353TTP    C39 7132   3.903  -3.384   0.566  0.0000  0.0000  0.0000
  353TTP    C40 7133   3.896  -3.387   0.411  0.0000  0.0000  0.0000
  353TTP    C41 7134   3.790  -3.474   0.339  0.0000  0.0000  0.0000
  353TTP    C42 7135   3.824  -3.617   0.290  0.0000  0.0000  0.0000
  354FIC     F1 7136   3.702  -6.041   0.789  0.0000  0.0000  0.0000
  354FIC     F2 7137   3.743  -6.176   1.018  0.0000  0.0000  0.0000
  354FIC     O1 7138   3.912  -5.565   0.926  0.0000  0.0000  0.0000
  354FIC     N5 7139   3.951  -6.048   1.428  0.0000  0.0000  0.0000
  354FIC     N6 7140   4.123  -5.651   1.516  0.0000  0.0000  0.0000
  354FIC    C19 7141   4.018  -5.526   1.204  0.0000  0.0000  0.0000
  354FIC    C20 7142   3.966  -5.640   1.152  0.0000  0.0000  0.0000
  354FIC    C21 7143   3.911  -5.651   1.018  0.0000  0.0000  0.0000
  354FIC    C22 7144   3.864  -5.790   1.002  0.0000  0.0000  0.0000
  354FIC    C23 7145   3.803  -5.844   0.885  0.0000  0.0000  0.0000
  354FIC    C24 7146   3.762  -5.978   0.907  0.0000  0.0000  0.0000
  354FIC    C25 7147   3.781  -6.045   1.019  0.0000  0.0000  0.0000
  354FIC    C26 7148   3.839  -5.991   1.124  0.0000  0.0000  0.0000
  354FIC    C27 7149   3.882  -5.863   1.111  0.0000  0.0000  0.0000
  354FIC    C28 7150   3.950  -5.772   1.211  0.0000  0.0000  0.0000
  354FIC    C29 7151   3.992  -5.800   1.353  0.0000  0.0000  0.0000
  354FIC    C30 7152   3.971  -5.944   1.392  0.0000  0.0000  0.0000
  354FIC    C31 7153   4.058  -5.714   1.448  0.0000  0.0000  0.0000
  355FIC     F1 7154   3.308  -4.597  -0.191  0.0000  0.0000  0.0000
  355FIC     F2 7155   3.253  -4.345  -0.253  0.0000  0.0000  0.0000
  355FIC     O1 7156   3.628  -4.533   0.226  0.0000  0.0000  0.0000
  355FIC     N5 7157   3.402  -3.931  -0.047  0.0000  0.0000  0.0000
  355FIC     N6 7158   3.597  -3.915   0.326  0.0000  0.0000  0.0000
  355FIC    C19 7159   3.690  -4.254   0.324  0.0000  0.0000  0.0000
  355FIC    C20 7160   3.608  -4.291   0.222  0.0000  0.0000  0.0000
  355FIC    C21 7161   3.583  -4.431   0.180  0.0000  0.0000  0.0000
  355FIC    C22 7162   3.499  -4.423   0.060  0.0000  0.0000  0.0000
  355FIC    C23 7163   3.446  -4.529  -0.013  0.0000  0.0000  0.0000
  355FIC    C24 7164   3.371  -4.499  -0.118  0.0000  0.0000  0.0000
  355FIC    C25 7165   3.338  -4.366  -0.150  0.0000  0.0000  0.0000
  355FIC    C26 7166   3.387  -4.262  -0.076  0.0000  0.0000  0.0000
  355FIC    C27 7167   3.468  -4.291   0.028  0.0000  0.0000  0.0000
  355FIC    C28 7168   3.533  -4.205   0.133  0.0000  0.0000  0.0000
  355FIC    C29 7169   3.519  -4.067   0.137  0.0000  0.0000  0.0000
  355FIC    C30 7170   3.455  -3.993   0.036  0.0000  0.0000  0.0000
  355FIC    C31 7171   3.564  -3.985   0.246  0.0000  0.0000  0.0000
  356BTD     S2 7172   3.066  -4.487  -1.199  0.0000  0.0000  0.0000
  356BTD     N1 7173   3.056  -4.648  -1.188  0.0000  0.0000  0.0000
  356BTD     N2 7174   3.145  -4.456  -1.061  0.0000  0.0000  0.0000
  356BTD     N3 7175   3.315  -4.718  -0.700  0.0000  0.0000  0.0000
  356BTD     N4 7176   3.201  -4.978  -0.877  0.0000  0.0000  0.0000
  356BTD     C5 7177   3.131  -4.814  -1.019  0.0000  0.0000  0.0000
  356BTD     C6 7178   3.114  -4.683  -1.075  0.0000  0.0000  0.0000
  356BTD     C7 7179   3.165  -4.573  -1.001  0.0000  0.0000  0.0000
  356BTD     C8 7180   3.227  -4.594  -0.877  0.0000  0.0000  0.0000
  356BTD    C15 7181   3.246  -4.727  -0.824  0.0000  0.0000  0.0000
  356BTD    C16 7182   3.198  -4.838  -0.900  0.0000  0.0000  0.0000
  356BTD    C43 7183   3.290  -5.055  -0.789  0.0000  0.0000  0.0000
  356BTD    C44 7184   3.442  -5.045  -0.819  0.0000  0.0000  0.0000
  356BTD    C45 7185   3.515  -5.144  -0.724  0.0000  0.0000  0.0000
  356BTD    C46 7186   3.665  -5.102  -0.726  0.0000  0.0000  0.0000
  356BTD    C47 7187   3.475  -5.071  -0.968  0.0000  0.0000  0.0000
  356BTD    C48 7188   3.490  -5.212  -1.032  0.0000  0.0000  0.0000
  356BTD    C49 7189   3.504  -5.181  -1.183  0.0000  0.0000  0.0000
  356BTD    C50 7190   3.600  -5.135  -1.296  0.0000  0.0000  0.0000
  356BTD    C75 7191   3.301  -4.805  -0.583  0.0000  0.0000  0.0000
  356BTD    C76 7192   3.153  -4.835  -0.548  0.0000  0.0000  0.0000
  356BTD    C77 7193   3.144  -4.923  -0.421  0.0000  0.0000  0.0000
  356BTD    C78 7194   3.003  -4.977  -0.385  0.0000  0.0000  0.0000
  356BTD    C79 7195   3.067  -4.708  -0.527  0.0000  0.0000  0.0000
  356BTD    C80 7196   3.095  -4.620  -0.403  0.0000  0.0000  0.0000
  356BTD    C81 7197   3.003  -4.494  -0.409  0.0000  0.0000  0.0000
  356BTD    C82 7198   3.034  -4.369  -0.496  0.0000  0.0000  0.0000
  357TTP     S1 7199   3.005  -5.004  -1.205  0.0000  0.0000  0.0000
  357TTP     S5 7200   3.103  -5.322  -0.949  0.0000  0.0000  0.0000
  357TTP     C1 7201   3.007  -5.386  -1.080  0.0000  0.0000  0.0000
  357TTP     C2 7202   2.969  -5.288  -1.169  0.0000  0.0000  0.0000
  357TTP     C3 7203   3.024  -5.166  -1.135  0.0000  0.0000  0.0000
  357TTP     C4 7204   3.089  -4.943  -1.074  0.0000  0.0000  0.0000
  357TTP    C17 7205   3.140  -5.033  -0.983  0.0000  0.0000  0.0000
  357TTP    C18 7206   3.096  -5.168  -1.023  0.0000  0.0000  0.0000
  357TTP    C32 7207   2.883  -5.306  -1.297  0.0000  0.0000  0.0000
  357TTP    C33 7208   2.974  -5.340  -1.418  0.0000  0.0000  0.0000
  357TTP    C34 7209   2.881  -5.363  -1.540  0.0000  0.0000  0.0000
  357TTP    C35 7210   2.939  -5.433  -1.664  0.0000  0.0000  0.0000
  357TTP    C36 7211   2.845  -5.527  -1.745  0.0000  0.0000  0.0000
  357TTP    C37 7212   2.725  -5.463  -1.822  0.0000  0.0000  0.0000
  357TTP    C38 7213   2.645  -5.331  -1.834  0.0000  0.0000  0.0000
  357TTP    C39 7214   2.563  -5.281  -1.712  0.0000  0.0000  0.0000
  357TTP    C40 7215   2.504  -5.384  -1.611  0.0000  0.0000  0.0000
  357TTP    C41 7216   2.517  -5.357  -1.458  0.0000  0.0000  0.0000
  357TTP    C42 7217   2.498  -5.479  -1.363  0.0000  0.0000  0.0000
  358TTP     S1 7218   3.309  -4.335  -0.762  0.0000  0.0000  0.0000
  358TTP     S5 7219   3.511  -4.538  -0.453  0.0000  0.0000  0.0000
  358TTP     C1 7220   3.542  -4.365  -0.432  0.0000  0.0000  0.0000
  358TTP     C2 7221   3.478  -4.291  -0.533  0.0000  0.0000  0.0000
  358TTP     C3 7222   3.401  -4.371  -0.617  0.0000  0.0000  0.0000
  358TTP     C4 7223   3.286  -4.506  -0.783  0.0000  0.0000  0.0000
  358TTP    C17 7224   3.340  -4.581  -0.679  0.0000  0.0000  0.0000
  358TTP    C18 7225   3.411  -4.504  -0.583  0.0000  0.0000  0.0000
  358TTP    C32 7226   3.470  -4.136  -0.539  0.0000  0.0000  0.0000
  358TTP    C33 7227   3.365  -4.069  -0.446  0.0000  0.0000  0.0000
  358TTP    C34 7228   3.358  -3.915  -0.461  0.0000  0.0000  0.0000
  358TTP    C35 7229   3.249  -3.864  -0.363  0.0000  0.0000  0.0000
  358TTP    C36 7230   3.265  -3.710  -0.358  0.0000  0.0000  0.0000
  358TTP    C37 7231   3.232  -3.672  -0.505  0.0000  0.0000  0.0000
  358TTP    C38 7232   3.227  -3.518  -0.535  0.0000  0.0000  0.0000
  358TTP    C39 7233   3.165  -3.468  -0.667  0.0000  0.0000  0.0000
  358TTP    C40 7234   3.256  -3.400  -0.774  0.0000  0.0000  0.0000
  358TTP    C41 7235   3.331  -3.269  -0.739  0.0000  0.0000  0.0000
  358TTP    C42 7236   3.353  -3.161  -0.848  0.0000  0.0000  0.0000
  359FIC     F1 7237   3.036  -6.012  -0.557  0.0000  0.0000  0.0000
  359FIC     F2 7238   2.927  -6.166  -0.748  0.0000  0.0000  0.0000
  359FIC     O1 7239   3.091  -5.553  -0.817  0.0000  0.0000  0.0000
  359FIC     N5 7240   2.775  -6.054  -1.193  0.0000  0.0000  0.0000
  359FIC     N6 7241   2.823  -5.673  -1.372  0.0000  0.0000  0.0000
  359FIC    C19 7242   2.963  -5.523  -1.090  0.0000  0.0000  0.0000
  359FIC    C20 7243   2.972  -5.634  -1.010  0.0000  0.0000  0.0000
  359FIC    C21 7244   3.034  -5.641  -0.882  0.0000  0.0000  0.0000
  359FIC    C22 7245   3.010  -5.776  -0.828  0.0000  0.0000  0.0000
  359FIC    C23 7246   3.039  -5.825  -0.698  0.0000  0.0000  0.0000
  359FIC    C24 7247   3.011  -5.954  -0.673  0.0000  0.0000  0.0000
  359FIC    C25 7248   2.951  -6.033  -0.783  0.0000  0.0000  0.0000
  359FIC    C26 7249   2.915  -5.989  -0.899  0.0000  0.0000  0.0000
  359FIC    C27 7250   2.950  -5.854  -0.927  0.0000  0.0000  0.0000
  359FIC    C28 7251   2.926  -5.767  -1.043  0.0000  0.0000  0.0000
  359FIC    C29 7252   2.866  -5.810  -1.160  0.0000  0.0000  0.0000
  359FIC    C30 7253   2.818  -5.954  -1.172  0.0000  0.0000  0.0000
  359FIC    C31 7254   2.848  -5.733  -1.279  0.0000  0.0000  0.0000
  360FIC     F1 7255   3.999  -4.687   0.160  0.0000  0.0000  0.0000
  360FIC     F2 7256   4.046  -4.445   0.241  0.0000  0.0000  0.0000
  360FIC     O1 7257   3.687  -4.593  -0.263  0.0000  0.0000  0.0000
  360FIC     N5 7258   3.869  -4.024   0.091  0.0000  0.0000  0.0000
  360FIC     N6 7259   3.678  -3.969  -0.287  0.0000  0.0000  0.0000
  360FIC    C19 7260   3.619  -4.307  -0.330  0.0000  0.0000  0.0000
  360FIC    C20 7261   3.698  -4.353  -0.231  0.0000  0.0000  0.0000
  360FIC    C21 7262   3.730  -4.499  -0.199  0.0000  0.0000  0.0000
  360FIC    C22 7263   3.809  -4.501  -0.083  0.0000  0.0000  0.0000
  360FIC    C23 7264   3.865  -4.612  -0.017  0.0000  0.0000  0.0000
  360FIC    C24 7265   3.941  -4.595   0.093  0.0000  0.0000  0.0000
  360FIC    C25 7266   3.970  -4.466   0.135  0.0000  0.0000  0.0000
  360FIC    C26 7267   3.915  -4.347   0.077  0.0000  0.0000  0.0000
  360FIC    C27 7268   3.832  -4.368  -0.036  0.0000  0.0000  0.0000
  360FIC    C28 7269   3.765  -4.279  -0.128  0.0000  0.0000  0.0000
  360FIC    C29 7270   3.770  -4.139  -0.116  0.0000  0.0000  0.0000
  360FIC    C30 7271   3.827  -4.075   0.003  0.0000  0.0000  0.0000
  360FIC    C31 7272   3.714  -4.045  -0.209  0.0000  0.0000  0.0000
  361BTD     S2 7273   3.882   1.605   4.192  0.0000  0.0000  0.0000
  361BTD     N1 7274   3.869   1.769   4.187  0.0000  0.0000  0.0000
  361BTD     N2 7275   3.817   1.565   4.049  0.0000  0.0000  0.0000
  361BTD     N3 7276   3.616   1.812   3.700  0.0000  0.0000  0.0000
  361BTD     N4 7277   3.672   2.084   3.892  0.0000  0.0000  0.0000
  361BTD     C5 7278   3.773   1.925   4.031  0.0000  0.0000  0.0000
  361BTD     C6 7279   3.813   1.797   4.075  0.0000  0.0000  0.0000
  361BTD     C7 7280   3.784   1.682   3.995  0.0000  0.0000  0.0000
  361BTD     C8 7281   3.717   1.699   3.870  0.0000  0.0000  0.0000
  361BTD    C15 7282   3.681   1.827   3.820  0.0000  0.0000  0.0000
  361BTD    C16 7283   3.700   1.948   3.906  0.0000  0.0000  0.0000
  361BTD    C43 7284   3.569   2.149   3.815  0.0000  0.0000  0.0000
  361BTD    C44 7285   3.427   2.097   3.852  0.0000  0.0000  0.0000
  361BTD    C45 7286   3.389   2.072   4.001  0.0000  0.0000  0.0000
  361BTD    C46 7287   3.383   2.204   4.083  0.0000  0.0000  0.0000
  361BTD    C47 7288   3.311   2.177   3.786  0.0000  0.0000  0.0000
  361BTD    C48 7289   3.294   2.171   3.632  0.0000  0.0000  0.0000
  361BTD    C49 7290   3.205   2.277   3.560  0.0000  0.0000  0.0000
  361BTD    C50 7291   3.226   2.302   3.408  0.0000  0.0000  0.0000
  361BTD    C75 7292   3.604   1.910   3.581  0.0000  0.0000  0.0000
  361BTD    C76 7293   3.742   1.974   3.546  0.0000  0.0000  0.0000
  361BTD    C77 7294   3.741   2.060   3.417  0.0000  0.0000  0.0000
  361BTD    C78 7295   3.596   2.028   3.372  0.0000  0.0000  0.0000
  361BTD    C79 7296   3.863   1.880   3.528  0.0000  0.0000  0.0000
  361BTD    C80 7297   3.842   1.748   3.449  0.0000  0.0000  0.0000
  361BTD    C81 7298   3.938   1.629   3.473  0.0000  0.0000  0.0000
  361BTD    C82 7299   4.070   1.624   3.390  0.0000  0.0000  0.0000
  362TTP     S1 7300   3.848   2.124   4.230  0.0000  0.0000  0.0000
  362TTP     S5 7301   3.665   2.431   4.011  0.0000  0.0000  0.0000
  362TTP     C1 7302   3.724   2.501   4.157  0.0000  0.0000  0.0000
  362TTP     C2 7303   3.785   2.410   4.235  0.0000  0.0000  0.0000
  362TTP     C3 7304   3.787   2.279   4.183  0.0000  0.0000  0.0000
  362TTP     C4 7305   3.782   2.053   4.088  0.0000  0.0000  0.0000
  362TTP    C17 7306   3.722   2.145   4.003  0.0000  0.0000  0.0000
  362TTP    C18 7307   3.721   2.278   4.055  0.0000  0.0000  0.0000
  362TTP    C32 7308   3.843   2.434   4.376  0.0000  0.0000  0.0000
  362TTP    C33 7309   3.995   2.419   4.399  0.0000  0.0000  0.0000
  362TTP    C34 7310   4.053   2.454   4.538  0.0000  0.0000  0.0000
  362TTP    C35 7311   4.206   2.448   4.509  0.0000  0.0000  0.0000
  362TTP    C36 7312   4.252   2.595   4.485  0.0000  0.0000  0.0000
  362TTP    C37 7313   4.184   2.708   4.567  0.0000  0.0000  0.0000
  362TTP    C38 7314   4.268   2.828   4.619  0.0000  0.0000  0.0000
  362TTP    C39 7315   4.158   2.873   4.717  0.0000  0.0000  0.0000
  362TTP    C40 7316   4.203   2.914   4.861  0.0000  0.0000  0.0000
  362TTP    C41 7317   4.122   3.022   4.938  0.0000  0.0000  0.0000
  362TTP    C42 7318   4.184   3.088   5.064  0.0000  0.0000  0.0000
  363TTP     S1 7319   3.684   1.434   3.746  0.0000  0.0000  0.0000
  363TTP     S5 7320   3.462   1.609   3.435  0.0000  0.0000  0.0000
  363TTP     C1 7321   3.456   1.434   3.418  0.0000  0.0000  0.0000
  363TTP     C2 7322   3.527   1.369   3.514  0.0000  0.0000  0.0000
  363TTP     C3 7323   3.588   1.457   3.603  0.0000  0.0000  0.0000
  363TTP     C4 7324   3.682   1.604   3.772  0.0000  0.0000  0.0000
  363TTP    C17 7325   3.619   1.676   3.669  0.0000  0.0000  0.0000
  363TTP    C18 7326   3.560   1.591   3.574  0.0000  0.0000  0.0000
  363TTP    C32 7327   3.545   1.215   3.523  0.0000  0.0000  0.0000
  363TTP    C33 7328   3.663   1.162   3.435  0.0000  0.0000  0.0000
  363TTP    C34 7329   3.681   1.009   3.440  0.0000  0.0000  0.0000
  363TTP    C35 7330   3.709   0.966   3.587  0.0000  0.0000  0.0000
  363TTP    C36 7331   3.723   0.815   3.619  0.0000  0.0000  0.0000
  363TTP    C37 7332   3.600   0.721   3.605  0.0000  0.0000  0.0000
  363TTP    C38 7333   3.686   0.594   3.633  0.0000  0.0000  0.0000
  363TTP    C39 7334   3.592   0.494   3.562  0.0000  0.0000  0.0000
  363TTP    C40 7335   3.586   0.496   3.406  0.0000  0.0000  0.0000
  363TTP    C41 7336   3.479   0.583   3.335  0.0000  0.0000  0.0000
  363TTP    C42 7337   3.514   0.727   3.285  0.0000  0.0000  0.0000
  364FIC     F1 7338   3.392   3.150   3.785  0.0000  0.0000  0.0000
  364FIC     F2 7339   3.433   3.286   4.014  0.0000  0.0000  0.0000
  364FIC     O1 7340   3.602   2.674   3.922  0.0000  0.0000  0.0000
  364FIC     N5 7341   3.641   3.157   4.423  0.0000  0.0000  0.0000
  364FIC     N6 7342   3.812   2.760   4.512  0.0000  0.0000  0.0000
  364FIC    C19 7343   3.707   2.636   4.199  0.0000  0.0000  0.0000
  364FIC    C20 7344   3.655   2.750   4.147  0.0000  0.0000  0.0000
  364FIC    C21 7345   3.600   2.761   4.013  0.0000  0.0000  0.0000
  364FIC    C22 7346   3.554   2.900   3.998  0.0000  0.0000  0.0000
  364FIC    C23 7347   3.493   2.954   3.881  0.0000  0.0000  0.0000
  364FIC    C24 7348   3.451   3.087   3.902  0.0000  0.0000  0.0000
  364FIC    C25 7349   3.471   3.155   4.014  0.0000  0.0000  0.0000
  364FIC    C26 7350   3.528   3.101   4.119  0.0000  0.0000  0.0000
  364FIC    C27 7351   3.571   2.973   4.106  0.0000  0.0000  0.0000
  364FIC    C28 7352   3.639   2.881   4.207  0.0000  0.0000  0.0000
  364FIC    C29 7353   3.681   2.909   4.348  0.0000  0.0000  0.0000
  364FIC    C30 7354   3.661   3.053   4.387  0.0000  0.0000  0.0000
  364FIC    C31 7355   3.748   2.823   4.443  0.0000  0.0000  0.0000
  365FIC     F1 7356   2.997   1.706   2.805  0.0000  0.0000  0.0000
  365FIC     F2 7357   2.943   1.455   2.742  0.0000  0.0000  0.0000
  365FIC     O1 7358   3.318   1.643   3.221  0.0000  0.0000  0.0000
  365FIC     N5 7359   3.092   1.041   2.948  0.0000  0.0000  0.0000
  365FIC     N6 7360   3.286   1.024   3.322  0.0000  0.0000  0.0000
  365FIC    C19 7361   3.379   1.363   3.320  0.0000  0.0000  0.0000
  365FIC    C20 7362   3.298   1.400   3.218  0.0000  0.0000  0.0000
  365FIC    C21 7363   3.273   1.541   3.175  0.0000  0.0000  0.0000
  365FIC    C22 7364   3.188   1.532   3.055  0.0000  0.0000  0.0000
  365FIC    C23 7365   3.136   1.639   2.982  0.0000  0.0000  0.0000
  365FIC    C24 7366   3.060   1.608   2.878  0.0000  0.0000  0.0000
  365FIC    C25 7367   3.028   1.475   2.845  0.0000  0.0000  0.0000
  365FIC    C26 7368   3.076   1.372   2.919  0.0000  0.0000  0.0000
  365FIC    C27 7369   3.158   1.401   3.024  0.0000  0.0000  0.0000
  365FIC    C28 7370   3.222   1.315   3.128  0.0000  0.0000  0.0000
  365FIC    C29 7371   3.209   1.177   3.133  0.0000  0.0000  0.0000
  365FIC    C30 7372   3.144   1.103   3.031  0.0000  0.0000  0.0000
  365FIC    C31 7373   3.253   1.094   3.242  0.0000  0.0000  0.0000
  366BTD     S2 7374   2.756   1.597   1.797  0.0000  0.0000  0.0000
  366BTD     N1 7375   2.745   1.758   1.808  0.0000  0.0000  0.0000
  366BTD     N2 7376   2.835   1.565   1.934  0.0000  0.0000  0.0000
  366BTD     N3 7377   3.004   1.827   2.296  0.0000  0.0000  0.0000
  366BTD     N4 7378   2.891   2.087   2.118  0.0000  0.0000  0.0000
  366BTD     C5 7379   2.821   1.923   1.977  0.0000  0.0000  0.0000
  366BTD     C6 7380   2.804   1.793   1.921  0.0000  0.0000  0.0000
  366BTD     C7 7381   2.855   1.682   1.994  0.0000  0.0000  0.0000
  366BTD     C8 7382   2.916   1.703   2.119  0.0000  0.0000  0.0000
  366BTD    C15 7383   2.935   1.836   2.172  0.0000  0.0000  0.0000
  366BTD    C16 7384   2.887   1.948   2.095  0.0000  0.0000  0.0000
  366BTD    C43 7385   2.979   2.164   2.207  0.0000  0.0000  0.0000
  366BTD    C44 7386   3.132   2.154   2.177  0.0000  0.0000  0.0000
  366BTD    C45 7387   3.204   2.253   2.271  0.0000  0.0000  0.0000
  366BTD    C46 7388   3.354   2.211   2.270  0.0000  0.0000  0.0000
  366BTD    C47 7389   3.165   2.181   2.027  0.0000  0.0000  0.0000
  366BTD    C48 7390   3.179   2.322   1.964  0.0000  0.0000  0.0000
  366BTD    C49 7391   3.193   2.290   1.813  0.0000  0.0000  0.0000
  366BTD    C50 7392   3.290   2.244   1.699  0.0000  0.0000  0.0000
  366BTD    C75 7393   2.991   1.915   2.412  0.0000  0.0000  0.0000
  366BTD    C76 7394   2.842   1.945   2.448  0.0000  0.0000  0.0000
  366BTD    C77 7395   2.833   2.033   2.575  0.0000  0.0000  0.0000
  366BTD    C78 7396   2.692   2.086   2.610  0.0000  0.0000  0.0000
  366BTD    C79 7397   2.757   1.818   2.468  0.0000  0.0000  0.0000
  366BTD    C80 7398   2.784   1.729   2.592  0.0000  0.0000  0.0000
  366BTD    C81 7399   2.692   1.604   2.587  0.0000  0.0000  0.0000
  366BTD    C82 7400   2.723   1.478   2.500  0.0000  0.0000  0.0000
  367TTP     S1 7401   2.694   2.113   1.790  0.0000  0.0000  0.0000
  367TTP     S5 7402   2.793   2.432   2.047  0.0000  0.0000  0.0000
  367TTP     C1 7403   2.696   2.495   1.915  0.0000  0.0000  0.0000
  367TTP     C2 7404   2.658   2.398   1.827  0.0000  0.0000  0.0000
  367TTP     C3 7405   2.714   2.275   1.860  0.0000  0.0000  0.0000
  367TTP     C4 7406   2.779   2.052   1.921  0.0000  0.0000  0.0000
  367TTP    C17 7407   2.830   2.143   2.012  0.0000  0.0000  0.0000
  367TTP    C18 7408   2.786   2.277   1.972  0.0000  0.0000  0.0000
  367TTP    C32 7409   2.573   2.415   1.699  0.0000  0.0000  0.0000
  367TTP    C33 7410   2.663   2.449   1.577  0.0000  0.0000  0.0000
  367TTP    C34 7411   2.570   2.472   1.456  0.0000  0.0000  0.0000
  367TTP    C35 7412   2.629   2.543   1.331  0.0000  0.0000  0.0000
  367TTP    C36 7413   2.534   2.637   1.250  0.0000  0.0000  0.0000
  367TTP    C37 7414   2.415   2.573   1.173  0.0000  0.0000  0.0000
  367TTP    C38 7415   2.334   2.441   1.161  0.0000  0.0000  0.0000
  367TTP    C39 7416   2.252   2.391   1.284  0.0000  0.0000  0.0000
  367TTP    C40 7417   2.193   2.493   1.384  0.0000  0.0000  0.0000
  367TTP    C41 7418   2.206   2.467   1.537  0.0000  0.0000  0.0000
  367TTP    C42 7419   2.188   2.588   1.632  0.0000  0.0000  0.0000
  368TTP     S1 7420   2.999   1.444   2.234  0.0000  0.0000  0.0000
  368TTP     S5 7421   3.201   1.647   2.542  0.0000  0.0000  0.0000
  368TTP     C1 7422   3.232   1.474   2.564  0.0000  0.0000  0.0000
  368TTP     C2 7423   3.167   1.400   2.463  0.0000  0.0000  0.0000
  368TTP     C3 7424   3.090   1.480   2.379  0.0000  0.0000  0.0000
  368TTP     C4 7425   2.976   1.616   2.213  0.0000  0.0000  0.0000
  368TTP    C17 7426   3.030   1.691   2.317  0.0000  0.0000  0.0000
  368TTP    C18 7427   3.100   1.614   2.412  0.0000  0.0000  0.0000
  368TTP    C32 7428   3.160   1.246   2.456  0.0000  0.0000  0.0000
  368TTP    C33 7429   3.055   1.179   2.550  0.0000  0.0000  0.0000
  368TTP    C34 7430   3.048   1.024   2.534  0.0000  0.0000  0.0000
  368TTP    C35 7431   2.939   0.974   2.632  0.0000  0.0000  0.0000
  368TTP    C36 7432   2.955   0.820   2.638  0.0000  0.0000  0.0000
  368TTP    C37 7433   2.922   0.782   2.490  0.0000  0.0000  0.0000
  368TTP    C38 7434   2.916   0.628   2.461  0.0000  0.0000  0.0000
  368TTP    C39 7435   2.854   0.577   2.329  0.0000  0.0000  0.0000
  368TTP    C40 7436   2.945   0.509   2.222  0.0000  0.0000  0.0000
  368TTP    C41 7437   3.020   0.378   2.256  0.0000  0.0000  0.0000
  368TTP    C42 7438   3.042   0.271   2.147  0.0000  0.0000  0.0000
  369FIC     F1 7439   2.726   3.122   2.439  0.0000  0.0000  0.0000
  369FIC     F2 7440   2.617   3.276   2.247  0.0000  0.0000  0.0000
  369FIC     O1 7441   2.780   2.663   2.178  0.0000  0.0000  0.0000
  369FIC     N5 7442   2.464   3.163   1.802  0.0000  0.0000  0.0000
  369FIC     N6 7443   2.512   2.782   1.623  0.0000  0.0000  0.0000
  369FIC    C19 7444   2.652   2.632   1.905  0.0000  0.0000  0.0000
  369FIC    C20 7445   2.661   2.743   1.986  0.0000  0.0000  0.0000
  369FIC    C21 7446   2.724   2.751   2.113  0.0000  0.0000  0.0000
  369FIC    C22 7447   2.699   2.885   2.167  0.0000  0.0000  0.0000
  369FIC    C23 7448   2.729   2.935   2.298  0.0000  0.0000  0.0000
  369FIC    C24 7449   2.700   3.064   2.322  0.0000  0.0000  0.0000
  369FIC    C25 7450   2.640   3.143   2.213  0.0000  0.0000  0.0000
  369FIC    C26 7451   2.604   3.098   2.096  0.0000  0.0000  0.0000
  369FIC    C27 7452   2.639   2.963   2.068  0.0000  0.0000  0.0000
  369FIC    C28 7453   2.615   2.877   1.952  0.0000  0.0000  0.0000
  369FIC    C29 7454   2.555   2.920   1.836  0.0000  0.0000  0.0000
  369FIC    C30 7455   2.507   3.063   1.823  0.0000  0.0000  0.0000
  369FIC    C31 7456   2.538   2.842   1.717  0.0000  0.0000  0.0000
  370FIC     F1 7457   3.688   1.797   3.155  0.0000  0.0000  0.0000
  370FIC     F2 7458   3.735   1.554   3.236  0.0000  0.0000  0.0000
  370FIC     O1 7459   3.376   1.703   2.733  0.0000  0.0000  0.0000
  370FIC     N5 7460   3.558   1.134   3.086  0.0000  0.0000  0.0000
  370FIC     N6 7461   3.368   1.079   2.708  0.0000  0.0000  0.0000
  370FIC    C19 7462   3.308   1.416   2.665  0.0000  0.0000  0.0000
  370FIC    C20 7463   3.388   1.462   2.764  0.0000  0.0000  0.0000
  370FIC    C21 7464   3.419   1.609   2.797  0.0000  0.0000  0.0000
  370FIC    C22 7465   3.498   1.611   2.912  0.0000  0.0000  0.0000
  370FIC    C23 7466   3.555   1.721   2.979  0.0000  0.0000  0.0000
  370FIC    C24 7467   3.631   1.704   3.088  0.0000  0.0000  0.0000
  370FIC    C25 7468   3.660   1.575   3.131  0.0000  0.0000  0.0000
  370FIC    C26 7469   3.604   1.456   3.072  0.0000  0.0000  0.0000
  370FIC    C27 7470   3.521   1.478   2.960  0.0000  0.0000  0.0000
  370FIC    C28 7471   3.455   1.388   2.867  0.0000  0.0000  0.0000
  370FIC    C29 7472   3.459   1.249   2.879  0.0000  0.0000  0.0000
  370FIC    C30 7473   3.516   1.184   2.998  0.0000  0.0000  0.0000
  370FIC    C31 7474   3.403   1.155   2.786  0.0000  0.0000  0.0000
  371BTD     S2 7475   1.750  -1.605  -0.198  0.0000  0.0000  0.0000
  371BTD     N1 7476   1.763  -1.769  -0.193  0.0000  0.0000  0.0000
  371BTD     N2 7477   1.815  -1.565  -0.055  0.0000  0.0000  0.0000
  371BTD     N3 7478   2.016  -1.812   0.294  0.0000  0.0000  0.0000
  371BTD     N4 7479   1.960  -2.084   0.102  0.0000  0.0000  0.0000
  371BTD     C5 7480   1.859  -1.925  -0.037  0.0000  0.0000  0.0000
  371BTD     C6 7481   1.819  -1.797  -0.081  0.0000  0.0000  0.0000
  371BTD     C7 7482   1.848  -1.682  -0.001  0.0000  0.0000  0.0000
  371BTD     C8 7483   1.915  -1.699   0.124  0.0000  0.0000  0.0000
  371BTD    C15 7484   1.951  -1.827   0.174  0.0000  0.0000  0.0000
  371BTD    C16 7485   1.932  -1.948   0.088  0.0000  0.0000  0.0000
  371BTD    C43 7486   2.063  -2.149   0.179  0.0000  0.0000  0.0000
  371BTD    C44 7487   2.205  -2.097   0.142  0.0000  0.0000  0.0000
  371BTD    C45 7488   2.243  -2.072  -0.007  0.0000  0.0000  0.0000
  371BTD    C46 7489   2.249  -2.204  -0.089  0.0000  0.0000  0.0000
  371BTD    C47 7490   2.321  -2.177   0.208  0.0000  0.0000  0.0000
  371BTD    C48 7491   2.338  -2.171   0.362  0.0000  0.0000  0.0000
  371BTD    C49 7492   2.427  -2.277   0.434  0.0000  0.0000  0.0000
  371BTD    C50 7493   2.406  -2.302   0.586  0.0000  0.0000  0.0000
  371BTD    C75 7494   2.028  -1.910   0.413  0.0000  0.0000  0.0000
  371BTD    C76 7495   1.890  -1.974   0.448  0.0000  0.0000  0.0000
  371BTD    C77 7496   1.891  -2.060   0.577  0.0000  0.0000  0.0000
  371BTD    C78 7497   2.036  -2.028   0.622  0.0000  0.0000  0.0000
  371BTD    C79 7498   1.769  -1.880   0.466  0.0000  0.0000  0.0000
  371BTD    C80 7499   1.790  -1.748   0.545  0.0000  0.0000  0.0000
  371BTD    C81 7500   1.694  -1.629   0.521  0.0000  0.0000  0.0000
  371BTD    C82 7501   1.562  -1.624   0.604  0.0000  0.0000  0.0000
  372TTP     S1 7502   1.784  -2.124  -0.236  0.0000  0.0000  0.0000
  372TTP     S5 7503   1.967  -2.431  -0.017  0.0000  0.0000  0.0000
  372TTP     C1 7504   1.908  -2.501  -0.163  0.0000  0.0000  0.0000
  372TTP     C2 7505   1.847  -2.410  -0.241  0.0000  0.0000  0.0000
  372TTP     C3 7506   1.845  -2.279  -0.189  0.0000  0.0000  0.0000
  372TTP     C4 7507   1.850  -2.053  -0.094  0.0000  0.0000  0.0000
  372TTP    C17 7508   1.910  -2.145  -0.009  0.0000  0.0000  0.0000
  372TTP    C18 7509   1.911  -2.278  -0.061  0.0000  0.0000  0.0000
  372TTP    C32 7510   1.789  -2.434  -0.382  0.0000  0.0000  0.0000
  372TTP    C33 7511   1.637  -2.419  -0.405  0.0000  0.0000  0.0000
  372TTP    C34 7512   1.579  -2.454  -0.544  0.0000  0.0000  0.0000
  372TTP    C35 7513   1.426  -2.448  -0.515  0.0000  0.0000  0.0000
  372TTP    C36 7514   1.380  -2.595  -0.491  0.0000  0.0000  0.0000
  372TTP    C37 7515   1.448  -2.708  -0.573  0.0000  0.0000  0.0000
  372TTP    C38 7516   1.364  -2.828  -0.625  0.0000  0.0000  0.0000
  372TTP    C39 7517   1.474  -2.873  -0.723  0.0000  0.0000  0.0000
  372TTP    C40 7518   1.429  -2.914  -0.867  0.0000  0.0000  0.0000
  372TTP    C41 7519   1.510  -3.022  -0.944  0.0000  0.0000  0.0000
  372TTP    C42 7520   1.448  -3.088  -1.070  0.0000  0.0000  0.0000
  373TTP     S1 7521   1.948  -1.434   0.248  0.0000  0.0000  0.0000
  373TTP     S5 7522   2.170  -1.609   0.559  0.0000  0.0000  0.0000
  373TTP     C1 7523   2.176  -1.434   0.576  0.0000  0.0000  0.0000
  373TTP     C2 7524   2.105  -1.369   0.480  0.0000  0.0000  0.0000
  373TTP     C3 7525   2.044  -1.457   0.391  0.0000  0.0000  0.0000
  373TTP     C4 7526   1.950  -1.604   0.222  0.0000  0.0000  0.0000
  373TTP    C17 7527   2.013  -1.676   0.325  0.0000  0.0000  0.0000
  373TTP    C18 7528   2.072  -1.591   0.420  0.0000  0.0000  0.0000
  373TTP    C32 7529   2.087  -1.215   0.471  0.0000  0.0000  0.0000
  373TTP    C33 7530   1.969  -1.162   0.559  0.0000  0.0000  0.0000
  373TTP    C34 7531   1.951  -1.009   0.554  0.0000  0.0000  0.0000
  373TTP    C35 7532   1.923  -0.966   0.407  0.0000  0.0000  0.0000
  373TTP    C36 7533   1.909  -0.815   0.375  0.0000  0.0000  0.0000
  373TTP    C37 7534   2.032  -0.721   0.389  0.0000  0.0000  0.0000
  373TTP    C38 7535   1.946  -0.594   0.361  0.0000  0.0000  0.0000
  373TTP    C39 7536   2.040  -0.494   0.432  0.0000  0.0000  0.0000
  373TTP    C40 7537   2.046  -0.496   0.588  0.0000  0.0000  0.0000
  373TTP    C41 7538   2.153  -0.583   0.659  0.0000  0.0000  0.0000
  373TTP    C42 7539   2.118  -0.727   0.709  0.0000  0.0000  0.0000
  374FIC     F1 7540   2.240  -3.150   0.209  0.0000  0.0000  0.0000
  374FIC     F2 7541   2.199  -3.286  -0.020  0.0000  0.0000  0.0000
  374FIC     O1 7542   2.030  -2.674   0.072  0.0000  0.0000  0.0000
  374FIC     N5 7543   1.991  -3.157  -0.429  0.0000  0.0000  0.0000
  374FIC     N6 7544   1.820  -2.760  -0.518  0.0000  0.0000  0.0000
  374FIC    C19 7545   1.925  -2.636  -0.205  0.0000  0.0000  0.0000
  374FIC    C20 7546   1.977  -2.750  -0.153  0.0000  0.0000  0.0000
  374FIC    C21 7547   2.032  -2.761  -0.019  0.0000  0.0000  0.0000
  374FIC    C22 7548   2.078  -2.900  -0.004  0.0000  0.0000  0.0000
  374FIC    C23 7549   2.139  -2.954   0.113  0.0000  0.0000  0.0000
  374FIC    C24 7550   2.181  -3.087   0.092  0.0000  0.0000  0.0000
  374FIC    C25 7551   2.161  -3.155  -0.020  0.0000  0.0000  0.0000
  374FIC    C26 7552   2.104  -3.101  -0.125  0.0000  0.0000  0.0000
  374FIC    C27 7553   2.061  -2.973  -0.112  0.0000  0.0000  0.0000
  374FIC    C28 7554   1.993  -2.881  -0.213  0.0000  0.0000  0.0000
  374FIC    C29 7555   1.951  -2.909  -0.354  0.0000  0.0000  0.0000
  374FIC    C30 7556   1.972  -3.053  -0.393  0.0000  0.0000  0.0000
  374FIC    C31 7557   1.884  -2.823  -0.449  0.0000  0.0000  0.0000
  375FIC     F1 7558   2.635  -1.706   1.189  0.0000  0.0000  0.0000
  375FIC     F2 7559   2.689  -1.455   1.252  0.0000  0.0000  0.0000
  375FIC     O1 7560   2.314  -1.643   0.773  0.0000  0.0000  0.0000
  375FIC     N5 7561   2.540  -1.041   1.046  0.0000  0.0000  0.0000
  375FIC     N6 7562   2.346  -1.024   0.672  0.0000  0.0000  0.0000
  375FIC    C19 7563   2.253  -1.363   0.674  0.0000  0.0000  0.0000
  375FIC    C20 7564   2.334  -1.400   0.776  0.0000  0.0000  0.0000
  375FIC    C21 7565   2.359  -1.541   0.819  0.0000  0.0000  0.0000
  375FIC    C22 7566   2.444  -1.532   0.939  0.0000  0.0000  0.0000
  375FIC    C23 7567   2.496  -1.639   1.012  0.0000  0.0000  0.0000
  375FIC    C24 7568   2.572  -1.608   1.116  0.0000  0.0000  0.0000
  375FIC    C25 7569   2.604  -1.475   1.149  0.0000  0.0000  0.0000
  375FIC    C26 7570   2.556  -1.372   1.075  0.0000  0.0000  0.0000
  375FIC    C27 7571   2.474  -1.401   0.970  0.0000  0.0000  0.0000
  375FIC    C28 7572   2.410  -1.315   0.866  0.0000  0.0000  0.0000
  375FIC    C29 7573   2.423  -1.177   0.861  0.0000  0.0000  0.0000
  375FIC    C30 7574   2.488  -1.103   0.963  0.0000  0.0000  0.0000
  375FIC    C31 7575   2.379  -1.094   0.752  0.0000  0.0000  0.0000
  376BTD     S2 7576   2.876  -1.597   2.197  0.0000  0.0000  0.0000
  376BTD     N1 7577   2.887  -1.758   2.186  0.0000  0.0000  0.0000
  376BTD     N2 7578   2.797  -1.565   2.060  0.0000  0.0000  0.0000
  376BTD     N3 7579   2.628  -1.827   1.698  0.0000  0.0000  0.0000
  376BTD     N4 7580   2.741  -2.087   1.876  0.0000  0.0000  0.0000
  376BTD     C5 7581   2.811  -1.923   2.017  0.0000  0.0000  0.0000
  376BTD     C6 7582   2.828  -1.793   2.073  0.0000  0.0000  0.0000
  376BTD     C7 7583   2.777  -1.682   2.000  0.0000  0.0000  0.0000
  376BTD     C8 7584   2.716  -1.703   1.875  0.0000  0.0000  0.0000
  376BTD    C15 7585   2.697  -1.836   1.822  0.0000  0.0000  0.0000
  376BTD    C16 7586   2.745  -1.948   1.899  0.0000  0.0000  0.0000
  376BTD    C43 7587   2.653  -2.164   1.787  0.0000  0.0000  0.0000
  376BTD    C44 7588   2.500  -2.154   1.817  0.0000  0.0000  0.0000
  376BTD    C45 7589   2.428  -2.253   1.723  0.0000  0.0000  0.0000
  376BTD    C46 7590   2.278  -2.211   1.724  0.0000  0.0000  0.0000
  376BTD    C47 7591   2.467  -2.181   1.967  0.0000  0.0000  0.0000
  376BTD    C48 7592   2.453  -2.322   2.030  0.0000  0.0000  0.0000
  376BTD    C49 7593   2.439  -2.290   2.181  0.0000  0.0000  0.0000
  376BTD    C50 7594   2.342  -2.244   2.295  0.0000  0.0000  0.0000
  376BTD    C75 7595   2.641  -1.915   1.582  0.0000  0.0000  0.0000
  376BTD    C76 7596   2.790  -1.945   1.546  0.0000  0.0000  0.0000
  376BTD    C77 7597   2.799  -2.033   1.419  0.0000  0.0000  0.0000
  376BTD    C78 7598   2.940  -2.086   1.384  0.0000  0.0000  0.0000
  376BTD    C79 7599   2.875  -1.818   1.526  0.0000  0.0000  0.0000
  376BTD    C80 7600   2.848  -1.729   1.402  0.0000  0.0000  0.0000
  376BTD    C81 7601   2.940  -1.604   1.407  0.0000  0.0000  0.0000
  376BTD    C82 7602   2.909  -1.478   1.494  0.0000  0.0000  0.0000
  377TTP     S1 7603   2.938  -2.113   2.204  0.0000  0.0000  0.0000
  377TTP     S5 7604   2.839  -2.432   1.947  0.0000  0.0000  0.0000
  377TTP     C1 7605   2.936  -2.495   2.079  0.0000  0.0000  0.0000
  377TTP     C2 7606   2.974  -2.398   2.167  0.0000  0.0000  0.0000
  377TTP     C3 7607   2.918  -2.275   2.134  0.0000  0.0000  0.0000
  377TTP     C4 7608   2.853  -2.052   2.073  0.0000  0.0000  0.0000
  377TTP    C17 7609   2.802  -2.143   1.982  0.0000  0.0000  0.0000
  377TTP    C18 7610   2.846  -2.277   2.022  0.0000  0.0000  0.0000
  377TTP    C32 7611   3.059  -2.415   2.295  0.0000  0.0000  0.0000
  377TTP    C33 7612   2.969  -2.449   2.417  0.0000  0.0000  0.0000
  377TTP    C34 7613   3.062  -2.472   2.538  0.0000  0.0000  0.0000
  377TTP    C35 7614   3.003  -2.543   2.663  0.0000  0.0000  0.0000
  377TTP    C36 7615   3.098  -2.637   2.744  0.0000  0.0000  0.0000
  377TTP    C37 7616   3.217  -2.573   2.821  0.0000  0.0000  0.0000
  377TTP    C38 7617   3.298  -2.441   2.833  0.0000  0.0000  0.0000
  377TTP    C39 7618   3.380  -2.391   2.710  0.0000  0.0000  0.0000
  377TTP    C40 7619   3.439  -2.493   2.610  0.0000  0.0000  0.0000
  377TTP    C41 7620   3.426  -2.467   2.457  0.0000  0.0000  0.0000
  377TTP    C42 7621   3.444  -2.588   2.362  0.0000  0.0000  0.0000
  378TTP     S1 7622   2.633  -1.444   1.760  0.0000  0.0000  0.0000
  378TTP     S5 7623   2.431  -1.647   1.452  0.0000  0.0000  0.0000
  378TTP     C1 7624   2.400  -1.474   1.430  0.0000  0.0000  0.0000
  378TTP     C2 7625   2.465  -1.400   1.531  0.0000  0.0000  0.0000
  378TTP     C3 7626   2.542  -1.480   1.615  0.0000  0.0000  0.0000
  378TTP     C4 7627   2.656  -1.616   1.781  0.0000  0.0000  0.0000
  378TTP    C17 7628   2.602  -1.691   1.677  0.0000  0.0000  0.0000
  378TTP    C18 7629   2.532  -1.614   1.582  0.0000  0.0000  0.0000
  378TTP    C32 7630   2.472  -1.246   1.538  0.0000  0.0000  0.0000
  378TTP    C33 7631   2.578  -1.179   1.444  0.0000  0.0000  0.0000
  378TTP    C34 7632   2.584  -1.024   1.460  0.0000  0.0000  0.0000
  378TTP    C35 7633   2.693  -0.974   1.362  0.0000  0.0000  0.0000
  378TTP    C36 7634   2.677  -0.820   1.356  0.0000  0.0000  0.0000
  378TTP    C37 7635   2.710  -0.782   1.504  0.0000  0.0000  0.0000
  378TTP    C38 7636   2.716  -0.628   1.533  0.0000  0.0000  0.0000
  378TTP    C39 7637   2.778  -0.577   1.665  0.0000  0.0000  0.0000
  378TTP    C40 7638   2.687  -0.509   1.772  0.0000  0.0000  0.0000
  378TTP    C41 7639   2.612  -0.378   1.738  0.0000  0.0000  0.0000
  378TTP    C42 7640   2.590  -0.271   1.847  0.0000  0.0000  0.0000
  379FIC     F1 7641   2.906  -3.122   1.555  0.0000  0.0000  0.0000
  379FIC     F2 7642   3.015  -3.276   1.747  0.0000  0.0000  0.0000
  379FIC     O1 7643   2.852  -2.663   1.816  0.0000  0.0000  0.0000
  379FIC     N5 7644   3.168  -3.163   2.192  0.0000  0.0000  0.0000
  379FIC     N6 7645   3.120  -2.782   2.371  0.0000  0.0000  0.0000
  379FIC    C19 7646   2.980  -2.632   2.089  0.0000  0.0000  0.0000
  379FIC    C20 7647   2.971  -2.743   2.008  0.0000  0.0000  0.0000
  379FIC    C21 7648   2.908  -2.751   1.881  0.0000  0.0000  0.0000
  379FIC    C22 7649   2.933  -2.885   1.827  0.0000  0.0000  0.0000
  379FIC    C23 7650   2.903  -2.935   1.696  0.0000  0.0000  0.0000
  379FIC    C24 7651   2.932  -3.064   1.672  0.0000  0.0000  0.0000
  379FIC    C25 7652   2.992  -3.143   1.781  0.0000  0.0000  0.0000
  379FIC    C26 7653   3.028  -3.098   1.898  0.0000  0.0000  0.0000
  379FIC    C27 7654   2.993  -2.963   1.926  0.0000  0.0000  0.0000
  379FIC    C28 7655   3.017  -2.877   2.042  0.0000  0.0000  0.0000
  379FIC    C29 7656   3.077  -2.920   2.158  0.0000  0.0000  0.0000
  379FIC    C30 7657   3.125  -3.063   2.171  0.0000  0.0000  0.0000
  379FIC    C31 7658   3.094  -2.842   2.277  0.0000  0.0000  0.0000
  380FIC     F1 7659   1.944  -1.797   0.839  0.0000  0.0000  0.0000
  380FIC     F2 7660   1.897  -1.554   0.758  0.0000  0.0000  0.0000
  380FIC     O1 7661   2.256  -1.703   1.261  0.0000  0.0000  0.0000
  380FIC     N5 7662   2.074  -1.134   0.908  0.0000  0.0000  0.0000
  380FIC     N6 7663   2.264  -1.079   1.286  0.0000  0.0000  0.0000
  380FIC    C19 7664   2.324  -1.416   1.329  0.0000  0.0000  0.0000
  380FIC    C20 7665   2.244  -1.462   1.230  0.0000  0.0000  0.0000
  380FIC    C21 7666   2.213  -1.609   1.197  0.0000  0.0000  0.0000
  380FIC    C22 7667   2.134  -1.611   1.082  0.0000  0.0000  0.0000
  380FIC    C23 7668   2.077  -1.721   1.015  0.0000  0.0000  0.0000
  380FIC    C24 7669   2.001  -1.704   0.906  0.0000  0.0000  0.0000
  380FIC    C25 7670   1.972  -1.575   0.863  0.0000  0.0000  0.0000
  380FIC    C26 7671   2.028  -1.456   0.922  0.0000  0.0000  0.0000
  380FIC    C27 7672   2.111  -1.478   1.034  0.0000  0.0000  0.0000
  380FIC    C28 7673   2.177  -1.388   1.127  0.0000  0.0000  0.0000
  380FIC    C29 7674   2.173  -1.249   1.115  0.0000  0.0000  0.0000
  380FIC    C30 7675   2.116  -1.184   0.996  0.0000  0.0000  0.0000
  380FIC    C31 7676   2.229  -1.155   1.208  0.0000  0.0000  0.0000
  381BTD     S2 7677   1.646   4.495   0.801  0.0000  0.0000  0.0000
  381BTD     N1 7678   1.660   4.660   0.805  0.0000  0.0000  0.0000
  381BTD     N2 7679   1.711   4.456   0.943  0.0000  0.0000  0.0000
  381BTD     N3 7680   1.913   4.703   1.293  0.0000  0.0000  0.0000
  381BTD     N4 7681   1.856   4.974   1.100  0.0000  0.0000  0.0000
  381BTD     C5 7682   1.756   4.815   0.962  0.0000  0.0000  0.0000
  381BTD     C6 7683   1.716   4.687   0.918  0.0000  0.0000  0.0000
  381BTD     C7 7684   1.745   4.573   0.998  0.0000  0.0000  0.0000
  381BTD     C8 7685   1.811   4.590   1.122  0.0000  0.0000  0.0000
  381BTD    C15 7686   1.847   4.717   1.172  0.0000  0.0000  0.0000
  381BTD    C16 7687   1.829   4.839   1.087  0.0000  0.0000  0.0000
  381BTD    C43 7688   1.960   5.040   1.177  0.0000  0.0000  0.0000
  381BTD    C44 7689   2.102   4.988   1.141  0.0000  0.0000  0.0000
  381BTD    C45 7690   2.140   4.963   0.991  0.0000  0.0000  0.0000
  381BTD    C46 7691   2.145   5.094   0.910  0.0000  0.0000  0.0000
  381BTD    C47 7692   2.217   5.068   1.207  0.0000  0.0000  0.0000
  381BTD    C48 7693   2.235   5.062   1.360  0.0000  0.0000  0.0000
  381BTD    C49 7694   2.323   5.168   1.432  0.0000  0.0000  0.0000
  381BTD    C50 7695   2.303   5.192   1.584  0.0000  0.0000  0.0000
  381BTD    C75 7696   1.924   4.801   1.411  0.0000  0.0000  0.0000
  381BTD    C76 7697   1.786   4.864   1.446  0.0000  0.0000  0.0000
  381BTD    C77 7698   1.788   4.950   1.575  0.0000  0.0000  0.0000
  381BTD    C78 7699   1.932   4.919   1.621  0.0000  0.0000  0.0000
  381BTD    C79 7700   1.665   4.770   1.465  0.0000  0.0000  0.0000
  381BTD    C80 7701   1.686   4.639   1.544  0.0000  0.0000  0.0000
  381BTD    C81 7702   1.590   4.519   1.519  0.0000  0.0000  0.0000
  381BTD    C82 7703   1.459   4.515   1.603  0.0000  0.0000  0.0000
  382TTP     S1 7704   1.681   5.015   0.763  0.0000  0.0000  0.0000
  382TTP     S5 7705   1.864   5.322   0.981  0.0000  0.0000  0.0000
  382TTP     C1 7706   1.804   5.392   0.835  0.0000  0.0000  0.0000
  382TTP     C2 7707   1.744   5.300   0.758  0.0000  0.0000  0.0000
  382TTP     C3 7708   1.742   5.170   0.809  0.0000  0.0000  0.0000
  382TTP     C4 7709   1.746   4.944   0.905  0.0000  0.0000  0.0000
  382TTP    C17 7710   1.807   5.036   0.989  0.0000  0.0000  0.0000
  382TTP    C18 7711   1.808   5.168   0.937  0.0000  0.0000  0.0000
  382TTP    C32 7712   1.686   5.325   0.616  0.0000  0.0000  0.0000
  382TTP    C33 7713   1.533   5.310   0.594  0.0000  0.0000  0.0000
  382TTP    C34 7714   1.475   5.345   0.454  0.0000  0.0000  0.0000
  382TTP    C35 7715   1.323   5.339   0.483  0.0000  0.0000  0.0000
  382TTP    C36 7716   1.276   5.485   0.508  0.0000  0.0000  0.0000
  382TTP    C37 7717   1.345   5.599   0.425  0.0000  0.0000  0.0000
  382TTP    C38 7718   1.260   5.718   0.374  0.0000  0.0000  0.0000
  382TTP    C39 7719   1.370   5.763   0.276  0.0000  0.0000  0.0000
  382TTP    C40 7720   1.326   5.805   0.132  0.0000  0.0000  0.0000
  382TTP    C41 7721   1.407   5.913   0.054  0.0000  0.0000  0.0000
  382TTP    C42 7722   1.344   5.978  -0.072  0.0000  0.0000  0.0000
  383TTP     S1 7723   1.845   4.324   1.247  0.0000  0.0000  0.0000
  383TTP     S5 7724   2.067   4.500   1.557  0.0000  0.0000  0.0000
  383TTP     C1 7725   2.073   4.324   1.575  0.0000  0.0000  0.0000
  383TTP     C2 7726   2.002   4.259   1.479  0.0000  0.0000  0.0000
  383TTP     C3 7727   1.941   4.347   1.390  0.0000  0.0000  0.0000
  383TTP     C4 7728   1.847   4.495   1.221  0.0000  0.0000  0.0000
  383TTP    C17 7729   1.910   4.566   1.323  0.0000  0.0000  0.0000
  383TTP    C18 7730   1.968   4.482   1.419  0.0000  0.0000  0.0000
  383TTP    C32 7731   1.983   4.105   1.469  0.0000  0.0000  0.0000
  383TTP    C33 7732   1.866   4.052   1.557  0.0000  0.0000  0.0000
  383TTP    C34 7733   1.848   3.899   1.552  0.0000  0.0000  0.0000
  383TTP    C35 7734   1.819   3.856   1.406  0.0000  0.0000  0.0000
  383TTP    C36 7735   1.806   3.705   1.373  0.0000  0.0000  0.0000
  383TTP    C37 7736   1.929   3.612   1.388  0.0000  0.0000  0.0000
  383TTP    C38 7737   1.843   3.485   1.359  0.0000  0.0000  0.0000
  383TTP    C39 7738   1.936   3.384   1.431  0.0000  0.0000  0.0000
  383TTP    C40 7739   1.943   3.387   1.586  0.0000  0.0000  0.0000
  383TTP    C41 7740   2.049   3.474   1.658  0.0000  0.0000  0.0000
  383TTP    C42 7741   2.015   3.617   1.707  0.0000  0.0000  0.0000
  384FIC     F1 7742   2.137   6.041   1.208  0.0000  0.0000  0.0000
  384FIC     F2 7743   2.096   6.176   0.979  0.0000  0.0000  0.0000
  384FIC     O1 7744   1.927   5.565   1.071  0.0000  0.0000  0.0000
  384FIC     N5 7745   1.888   6.048   0.569  0.0000  0.0000  0.0000
  384FIC     N6 7746   1.716   5.651   0.481  0.0000  0.0000  0.0000
  384FIC    C19 7747   1.821   5.526   0.793  0.0000  0.0000  0.0000
  384FIC    C20 7748   1.873   5.640   0.845  0.0000  0.0000  0.0000
  384FIC    C21 7749   1.928   5.651   0.979  0.0000  0.0000  0.0000
  384FIC    C22 7750   1.975   5.790   0.995  0.0000  0.0000  0.0000
  384FIC    C23 7751   2.036   5.844   1.112  0.0000  0.0000  0.0000
  384FIC    C24 7752   2.077   5.978   1.090  0.0000  0.0000  0.0000
  384FIC    C25 7753   2.058   6.045   0.978  0.0000  0.0000  0.0000
  384FIC    C26 7754   2.000   5.991   0.873  0.0000  0.0000  0.0000
  384FIC    C27 7755   1.957   5.863   0.886  0.0000  0.0000  0.0000
  384FIC    C28 7756   1.889   5.772   0.786  0.0000  0.0000  0.0000
  384FIC    C29 7757   1.847   5.800   0.644  0.0000  0.0000  0.0000
  384FIC    C30 7758   1.868   5.944   0.605  0.0000  0.0000  0.0000
  384FIC    C31 7759   1.781   5.714   0.549  0.0000  0.0000  0.0000
  385FIC     F1 7760   2.531   4.597   2.188  0.0000  0.0000  0.0000
  385FIC     F2 7761   2.586   4.345   2.250  0.0000  0.0000  0.0000
  385FIC     O1 7762   2.211   4.533   1.771  0.0000  0.0000  0.0000
  385FIC     N5 7763   2.437   3.931   2.044  0.0000  0.0000  0.0000
  385FIC     N6 7764   2.242   3.915   1.671  0.0000  0.0000  0.0000
  385FIC    C19 7765   2.149   4.254   1.673  0.0000  0.0000  0.0000
  385FIC    C20 7766   2.231   4.291   1.775  0.0000  0.0000  0.0000
  385FIC    C21 7767   2.256   4.431   1.817  0.0000  0.0000  0.0000
  385FIC    C22 7768   2.340   4.423   1.937  0.0000  0.0000  0.0000
  385FIC    C23 7769   2.393   4.529   2.010  0.0000  0.0000  0.0000
  385FIC    C24 7770   2.468   4.499   2.115  0.0000  0.0000  0.0000
  385FIC    C25 7771   2.501   4.366   2.147  0.0000  0.0000  0.0000
  385FIC    C26 7772   2.452   4.262   2.073  0.0000  0.0000  0.0000
  385FIC    C27 7773   2.371   4.291   1.969  0.0000  0.0000  0.0000
  385FIC    C28 7774   2.306   4.205   1.864  0.0000  0.0000  0.0000
  385FIC    C29 7775   2.320   4.067   1.860  0.0000  0.0000  0.0000
  385FIC    C30 7776   2.384   3.993   1.961  0.0000  0.0000  0.0000
  385FIC    C31 7777   2.275   3.985   1.751  0.0000  0.0000  0.0000
  386BTD     S2 7778   2.773   4.487   3.196  0.0000  0.0000  0.0000
  386BTD     N1 7779   2.783   4.648   3.185  0.0000  0.0000  0.0000
  386BTD     N2 7780   2.694   4.456   3.058  0.0000  0.0000  0.0000
  386BTD     N3 7781   2.524   4.718   2.697  0.0000  0.0000  0.0000
  386BTD     N4 7782   2.638   4.978   2.874  0.0000  0.0000  0.0000
  386BTD     C5 7783   2.708   4.814   3.016  0.0000  0.0000  0.0000
  386BTD     C6 7784   2.725   4.683   3.072  0.0000  0.0000  0.0000
  386BTD     C7 7785   2.674   4.573   2.998  0.0000  0.0000  0.0000
  386BTD     C8 7786   2.612   4.594   2.874  0.0000  0.0000  0.0000
  386BTD    C15 7787   2.593   4.727   2.821  0.0000  0.0000  0.0000
  386BTD    C16 7788   2.641   4.838   2.897  0.0000  0.0000  0.0000
  386BTD    C43 7789   2.549   5.055   2.786  0.0000  0.0000  0.0000
  386BTD    C44 7790   2.397   5.045   2.816  0.0000  0.0000  0.0000
  386BTD    C45 7791   2.324   5.144   2.721  0.0000  0.0000  0.0000
  386BTD    C46 7792   2.174   5.102   2.723  0.0000  0.0000  0.0000
  386BTD    C47 7793   2.364   5.071   2.965  0.0000  0.0000  0.0000
  386BTD    C48 7794   2.349   5.212   3.029  0.0000  0.0000  0.0000
  386BTD    C49 7795   2.335   5.181   3.180  0.0000  0.0000  0.0000
  386BTD    C50 7796   2.239   5.135   3.293  0.0000  0.0000  0.0000
  386BTD    C75 7797   2.538   4.805   2.580  0.0000  0.0000  0.0000
  386BTD    C76 7798   2.686   4.835   2.545  0.0000  0.0000  0.0000
  386BTD    C77 7799   2.695   4.923   2.418  0.0000  0.0000  0.0000
  386BTD    C78 7800   2.836   4.977   2.382  0.0000  0.0000  0.0000
  386BTD    C79 7801   2.772   4.708   2.524  0.0000  0.0000  0.0000
  386BTD    C80 7802   2.744   4.620   2.400  0.0000  0.0000  0.0000
  386BTD    C81 7803   2.836   4.494   2.406  0.0000  0.0000  0.0000
  386BTD    C82 7804   2.805   4.369   2.493  0.0000  0.0000  0.0000
  387TTP     S1 7805   2.834   5.004   3.202  0.0000  0.0000  0.0000
  387TTP     S5 7806   2.736   5.322   2.946  0.0000  0.0000  0.0000
  387TTP     C1 7807   2.832   5.386   3.077  0.0000  0.0000  0.0000
  387TTP     C2 7808   2.870   5.288   3.166  0.0000  0.0000  0.0000
  387TTP     C3 7809   2.815   5.166   3.132  0.0000  0.0000  0.0000
  387TTP     C4 7810   2.750   4.943   3.071  0.0000  0.0000  0.0000
  387TTP    C17 7811   2.699   5.033   2.980  0.0000  0.0000  0.0000
  387TTP    C18 7812   2.743   5.168   3.020  0.0000  0.0000  0.0000
  387TTP    C32 7813   2.956   5.306   3.294  0.0000  0.0000  0.0000
  387TTP    C33 7814   2.865   5.340   3.415  0.0000  0.0000  0.0000
  387TTP    C34 7815   2.958   5.363   3.537  0.0000  0.0000  0.0000
  387TTP    C35 7816   2.900   5.433   3.661  0.0000  0.0000  0.0000
  387TTP    C36 7817   2.994   5.527   3.742  0.0000  0.0000  0.0000
  387TTP    C37 7818   3.114   5.463   3.819  0.0000  0.0000  0.0000
  387TTP    C38 7819   3.194   5.331   3.831  0.0000  0.0000  0.0000
  387TTP    C39 7820   3.276   5.281   3.709  0.0000  0.0000  0.0000
  387TTP    C40 7821   3.335   5.384   3.608  0.0000  0.0000  0.0000
  387TTP    C41 7822   3.322   5.357   3.455  0.0000  0.0000  0.0000
  387TTP    C42 7823   3.341   5.479   3.360  0.0000  0.0000  0.0000
  388TTP     S1 7824   2.530   4.335   2.759  0.0000  0.0000  0.0000
  388TTP     S5 7825   2.328   4.538   2.450  0.0000  0.0000  0.0000
  388TTP     C1 7826   2.297   4.365   2.429  0.0000  0.0000  0.0000
  388TTP     C2 7827   2.361   4.291   2.530  0.0000  0.0000  0.0000
  388TTP     C3 7828   2.438   4.371   2.614  0.0000  0.0000  0.0000
  388TTP     C4 7829   2.553   4.506   2.780  0.0000  0.0000  0.0000
  388TTP    C17 7830   2.499   4.581   2.676  0.0000  0.0000  0.0000
  388TTP    C18 7831   2.428   4.504   2.580  0.0000  0.0000  0.0000
  388TTP    C32 7832   2.369   4.136   2.536  0.0000  0.0000  0.0000
  388TTP    C33 7833   2.474   4.069   2.443  0.0000  0.0000  0.0000
  388TTP    C34 7834   2.481   3.915   2.458  0.0000  0.0000  0.0000
  388TTP    C35 7835   2.590   3.864   2.360  0.0000  0.0000  0.0000
  388TTP    C36 7836   2.574   3.710   2.355  0.0000  0.0000  0.0000
  388TTP    C37 7837   2.607   3.672   2.502  0.0000  0.0000  0.0000
  388TTP    C38 7838   2.612   3.518   2.532  0.0000  0.0000  0.0000
  388TTP    C39 7839   2.674   3.468   2.664  0.0000  0.0000  0.0000
  388TTP    C40 7840   2.583   3.400   2.771  0.0000  0.0000  0.0000
  388TTP    C41 7841   2.508   3.269   2.736  0.0000  0.0000  0.0000
  388TTP    C42 7842   2.486   3.161   2.845  0.0000  0.0000  0.0000
  389FIC     F1 7843   2.803   6.012   2.554  0.0000  0.0000  0.0000
  389FIC     F2 7844   2.912   6.166   2.745  0.0000  0.0000  0.0000
  389FIC     O1 7845   2.748   5.553   2.814  0.0000  0.0000  0.0000
  389FIC     N5 7846   3.064   6.054   3.190  0.0000  0.0000  0.0000
  389FIC     N6 7847   3.016   5.673   3.369  0.0000  0.0000  0.0000
  389FIC    C19 7848   2.876   5.523   3.087  0.0000  0.0000  0.0000
  389FIC    C20 7849   2.867   5.634   3.007  0.0000  0.0000  0.0000
  389FIC    C21 7850   2.805   5.641   2.879  0.0000  0.0000  0.0000
  389FIC    C22 7851   2.829   5.776   2.825  0.0000  0.0000  0.0000
  389FIC    C23 7852   2.800   5.825   2.695  0.0000  0.0000  0.0000
  389FIC    C24 7853   2.828   5.954   2.670  0.0000  0.0000  0.0000
  389FIC    C25 7854   2.888   6.033   2.780  0.0000  0.0000  0.0000
  389FIC    C26 7855   2.924   5.989   2.896  0.0000  0.0000  0.0000
  389FIC    C27 7856   2.889   5.854   2.924  0.0000  0.0000  0.0000
  389FIC    C28 7857   2.913   5.767   3.040  0.0000  0.0000  0.0000
  389FIC    C29 7858   2.973   5.810   3.157  0.0000  0.0000  0.0000
  389FIC    C30 7859   3.021   5.954   3.169  0.0000  0.0000  0.0000
  389FIC    C31 7860   2.991   5.733   3.276  0.0000  0.0000  0.0000
  390FIC     F1 7861   1.840   4.687   1.837  0.0000  0.0000  0.0000
  390FIC     F2 7862   1.793   4.445   1.756  0.0000  0.0000  0.0000
  390FIC     O1 7863   2.152   4.593   2.260  0.0000  0.0000  0.0000
  390FIC     N5 7864   1.970   4.024   1.906  0.0000  0.0000  0.0000
  390FIC     N6 7865   2.161   3.969   2.284  0.0000  0.0000  0.0000
  390FIC    C19 7866   2.220   4.307   2.327  0.0000  0.0000  0.0000
  390FIC    C20 7867   2.141   4.353   2.228  0.0000  0.0000  0.0000
  390FIC    C21 7868   2.109   4.499   2.196  0.0000  0.0000  0.0000
  390FIC    C22 7869   2.030   4.501   2.080  0.0000  0.0000  0.0000
  390FIC    C23 7870   1.974   4.612   2.014  0.0000  0.0000  0.0000
  390FIC    C24 7871   1.898   4.595   1.904  0.0000  0.0000  0.0000
  390FIC    C25 7872   1.869   4.466   1.862  0.0000  0.0000  0.0000
  390FIC    C26 7873   1.924   4.347   1.920  0.0000  0.0000  0.0000
  390FIC    C27 7874   2.007   4.368   2.033  0.0000  0.0000  0.0000
  390FIC    C28 7875   2.074   4.279   2.125  0.0000  0.0000  0.0000
  390FIC    C29 7876   2.069   4.139   2.113  0.0000  0.0000  0.0000
  390FIC    C30 7877   2.012   4.075   1.994  0.0000  0.0000  0.0000
  390FIC    C31 7878   2.125   4.045   2.206  0.0000  0.0000  0.0000
  391BTD     S2 7879   3.986  -4.495   3.193  0.0000  0.0000  0.0000
  391BTD     N1 7880   3.972  -4.660   3.189  0.0000  0.0000  0.0000
  391BTD     N2 7881   3.921  -4.456   3.051  0.0000  0.0000  0.0000
  391BTD     N3 7882   3.719  -4.703   2.701  0.0000  0.0000  0.0000
  391BTD     N4 7883   3.776  -4.974   2.894  0.0000  0.0000  0.0000
  391BTD     C5 7884   3.876  -4.815   3.032  0.0000  0.0000  0.0000
  391BTD     C6 7885   3.916  -4.687   3.076  0.0000  0.0000  0.0000
  391BTD     C7 7886   3.887  -4.573   2.996  0.0000  0.0000  0.0000
  391BTD     C8 7887   3.821  -4.590   2.872  0.0000  0.0000  0.0000
  391BTD    C15 7888   3.785  -4.717   2.822  0.0000  0.0000  0.0000
  391BTD    C16 7889   3.803  -4.839   2.907  0.0000  0.0000  0.0000
  391BTD    C43 7890   3.672  -5.040   2.817  0.0000  0.0000  0.0000
  391BTD    C44 7891   3.530  -4.988   2.853  0.0000  0.0000  0.0000
  391BTD    C45 7892   3.492  -4.963   3.003  0.0000  0.0000  0.0000
  391BTD    C46 7893   3.487  -5.094   3.084  0.0000  0.0000  0.0000
  391BTD    C47 7894   3.415  -5.068   2.787  0.0000  0.0000  0.0000
  391BTD    C48 7895   3.397  -5.062   2.634  0.0000  0.0000  0.0000
  391BTD    C49 7896   3.309  -5.168   2.562  0.0000  0.0000  0.0000
  391BTD    C50 7897   3.329  -5.192   2.410  0.0000  0.0000  0.0000
  391BTD    C75 7898   3.708  -4.801   2.583  0.0000  0.0000  0.0000
  391BTD    C76 7899   3.846  -4.864   2.548  0.0000  0.0000  0.0000
  391BTD    C77 7900   3.844  -4.950   2.419  0.0000  0.0000  0.0000
  391BTD    C78 7901   3.700  -4.919   2.373  0.0000  0.0000  0.0000
  391BTD    C79 7902   3.967  -4.770   2.529  0.0000  0.0000  0.0000
  391BTD    C80 7903   3.946  -4.639   2.450  0.0000  0.0000  0.0000
  391BTD    C81 7904   4.042  -4.519   2.475  0.0000  0.0000  0.0000
  391BTD    C82 7905   4.173  -4.515   2.391  0.0000  0.0000  0.0000
  392TTP     S1 7906   3.951  -5.015   3.231  0.0000  0.0000  0.0000
  392TTP     S5 7907   3.768  -5.322   3.013  0.0000  0.0000  0.0000
  392TTP     C1 7908   3.828  -5.392   3.159  0.0000  0.0000  0.0000
  392TTP     C2 7909   3.888  -5.300   3.236  0.0000  0.0000  0.0000
  392TTP     C3 7910   3.890  -5.170   3.185  0.0000  0.0000  0.0000
  392TTP     C4 7911   3.886  -4.944   3.089  0.0000  0.0000  0.0000
  392TTP    C17 7912   3.825  -5.036   3.005  0.0000  0.0000  0.0000
  392TTP    C18 7913   3.824  -5.168   3.057  0.0000  0.0000  0.0000
  392TTP    C32 7914   3.946  -5.325   3.378  0.0000  0.0000  0.0000
  392TTP    C33 7915   4.099  -5.310   3.400  0.0000  0.0000  0.0000
  392TTP    C34 7916   4.157  -5.345   3.540  0.0000  0.0000  0.0000
  392TTP    C35 7917   4.309  -5.339   3.511  0.0000  0.0000  0.0000
  392TTP    C36 7918   4.356  -5.485   3.486  0.0000  0.0000  0.0000
  392TTP    C37 7919   4.287  -5.599   3.569  0.0000  0.0000  0.0000
  392TTP    C38 7920   4.372  -5.718   3.620  0.0000  0.0000  0.0000
  392TTP    C39 7921   4.262  -5.763   3.718  0.0000  0.0000  0.0000
  392TTP    C40 7922   4.306  -5.805   3.862  0.0000  0.0000  0.0000
  392TTP    C41 7923   4.225  -5.913   3.940  0.0000  0.0000  0.0000
  392TTP    C42 7924   4.288  -5.978   4.066  0.0000  0.0000  0.0000
  393TTP     S1 7925   3.787  -4.324   2.747  0.0000  0.0000  0.0000
  393TTP     S5 7926   3.565  -4.500   2.437  0.0000  0.0000  0.0000
  393TTP     C1 7927   3.559  -4.324   2.419  0.0000  0.0000  0.0000
  393TTP     C2 7928   3.630  -4.259   2.515  0.0000  0.0000  0.0000
  393TTP     C3 7929   3.691  -4.347   2.604  0.0000  0.0000  0.0000
  393TTP     C4 7930   3.785  -4.495   2.773  0.0000  0.0000  0.0000
  393TTP    C17 7931   3.722  -4.566   2.671  0.0000  0.0000  0.0000
  393TTP    C18 7932   3.664  -4.482   2.575  0.0000  0.0000  0.0000
  393TTP    C32 7933   3.649  -4.105   2.525  0.0000  0.0000  0.0000
  393TTP    C33 7934   3.766  -4.052   2.437  0.0000  0.0000  0.0000
  393TTP    C34 7935   3.784  -3.899   2.442  0.0000  0.0000  0.0000
  393TTP    C35 7936   3.813  -3.856   2.588  0.0000  0.0000  0.0000
  393TTP    C36 7937   3.826  -3.705   2.621  0.0000  0.0000  0.0000
  393TTP    C37 7938   3.703  -3.612   2.606  0.0000  0.0000  0.0000
  393TTP    C38 7939   3.789  -3.485   2.635  0.0000  0.0000  0.0000
  393TTP    C39 7940   3.696  -3.384   2.563  0.0000  0.0000  0.0000
  393TTP    C40 7941   3.689  -3.387   2.408  0.0000  0.0000  0.0000
  393TTP    C41 7942   3.583  -3.474   2.336  0.0000  0.0000  0.0000
  393TTP    C42 7943   3.617  -3.617   2.287  0.0000  0.0000  0.0000
  394FIC     F1 7944   3.495  -6.041   2.786  0.0000  0.0000  0.0000
  394FIC     F2 7945   3.536  -6.176   3.015  0.0000  0.0000  0.0000
  394FIC     O1 7946   3.705  -5.565   2.923  0.0000  0.0000  0.0000
  394FIC     N5 7947   3.744  -6.048   3.425  0.0000  0.0000  0.0000
  394FIC     N6 7948   3.916  -5.651   3.513  0.0000  0.0000  0.0000
  394FIC    C19 7949   3.811  -5.526   3.201  0.0000  0.0000  0.0000
  394FIC    C20 7950   3.759  -5.640   3.149  0.0000  0.0000  0.0000
  394FIC    C21 7951   3.704  -5.651   3.015  0.0000  0.0000  0.0000
  394FIC    C22 7952   3.657  -5.790   2.999  0.0000  0.0000  0.0000
  394FIC    C23 7953   3.596  -5.844   2.882  0.0000  0.0000  0.0000
  394FIC    C24 7954   3.555  -5.978   2.904  0.0000  0.0000  0.0000
  394FIC    C25 7955   3.574  -6.045   3.016  0.0000  0.0000  0.0000
  394FIC    C26 7956   3.632  -5.991   3.121  0.0000  0.0000  0.0000
  394FIC    C27 7957   3.675  -5.863   3.108  0.0000  0.0000  0.0000
  394FIC    C28 7958   3.743  -5.772   3.208  0.0000  0.0000  0.0000
  394FIC    C29 7959   3.785  -5.800   3.350  0.0000  0.0000  0.0000
  394FIC    C30 7960   3.764  -5.944   3.389  0.0000  0.0000  0.0000
  394FIC    C31 7961   3.851  -5.714   3.445  0.0000  0.0000  0.0000
  395FIC     F1 7962   3.101  -4.597   1.806  0.0000  0.0000  0.0000
  395FIC     F2 7963   3.046  -4.345   1.744  0.0000  0.0000  0.0000
  395FIC     O1 7964   3.421  -4.533   2.223  0.0000  0.0000  0.0000
  395FIC     N5 7965   3.195  -3.931   1.950  0.0000  0.0000  0.0000
  395FIC     N6 7966   3.390  -3.915   2.323  0.0000  0.0000  0.0000
  395FIC    C19 7967   3.483  -4.254   2.321  0.0000  0.0000  0.0000
  395FIC    C20 7968   3.401  -4.291   2.219  0.0000  0.0000  0.0000
  395FIC    C21 7969   3.376  -4.431   2.177  0.0000  0.0000  0.0000
  395FIC    C22 7970   3.292  -4.423   2.057  0.0000  0.0000  0.0000
  395FIC    C23 7971   3.239  -4.529   1.984  0.0000  0.0000  0.0000
  395FIC    C24 7972   3.164  -4.499   1.879  0.0000  0.0000  0.0000
  395FIC    C25 7973   3.131  -4.366   1.847  0.0000  0.0000  0.0000
  395FIC    C26 7974   3.180  -4.262   1.921  0.0000  0.0000  0.0000
  395FIC    C27 7975   3.261  -4.291   2.025  0.0000  0.0000  0.0000
  395FIC    C28 7976   3.326  -4.205   2.130  0.0000  0.0000  0.0000
  395FIC    C29 7977   3.312  -4.067   2.134  0.0000  0.0000  0.0000
  395FIC    C30 7978   3.248  -3.993   2.033  0.0000  0.0000  0.0000
  395FIC    C31 7979   3.357  -3.985   2.243  0.0000  0.0000  0.0000
  396BTD     S2 7980   2.859  -4.487   0.798  0.0000  0.0000  0.0000
  396BTD     N1 7981   2.849  -4.648   0.809  0.0000  0.0000  0.0000
  396BTD     N2 7982   2.938  -4.456   0.936  0.0000  0.0000  0.0000
  396BTD     N3 7983   3.108  -4.718   1.297  0.0000  0.0000  0.0000
  396BTD     N4 7984   2.994  -4.978   1.120  0.0000  0.0000  0.0000
  396BTD     C5 7985   2.924  -4.814   0.978  0.0000  0.0000  0.0000
  396BTD     C6 7986   2.907  -4.683   0.922  0.0000  0.0000  0.0000
  396BTD     C7 7987   2.958  -4.573   0.996  0.0000  0.0000  0.0000
  396BTD     C8 7988   3.020  -4.594   1.120  0.0000  0.0000  0.0000
  396BTD    C15 7989   3.039  -4.727   1.173  0.0000  0.0000  0.0000
  396BTD    C16 7990   2.991  -4.838   1.097  0.0000  0.0000  0.0000
  396BTD    C43 7991   3.083  -5.055   1.208  0.0000  0.0000  0.0000
  396BTD    C44 7992   3.235  -5.045   1.178  0.0000  0.0000  0.0000
  396BTD    C45 7993   3.308  -5.144   1.273  0.0000  0.0000  0.0000
  396BTD    C46 7994   3.458  -5.102   1.271  0.0000  0.0000  0.0000
  396BTD    C47 7995   3.268  -5.071   1.029  0.0000  0.0000  0.0000
  396BTD    C48 7996   3.283  -5.212   0.965  0.0000  0.0000  0.0000
  396BTD    C49 7997   3.297  -5.181   0.814  0.0000  0.0000  0.0000
  396BTD    C50 7998   3.393  -5.135   0.701  0.0000  0.0000  0.0000
  396BTD    C75 7999   3.094  -4.805   1.414  0.0000  0.0000  0.0000
  396BTD    C76 8000   2.946  -4.835   1.449  0.0000  0.0000  0.0000
  396BTD    C77 8001   2.937  -4.923   1.576  0.0000  0.0000  0.0000
  396BTD    C78 8002   2.796  -4.977   1.612  0.0000  0.0000  0.0000
  396BTD    C79 8003   2.860  -4.708   1.470  0.0000  0.0000  0.0000
  396BTD    C80 8004   2.888  -4.620   1.594  0.0000  0.0000  0.0000
  396BTD    C81 8005   2.796  -4.494   1.588  0.0000  0.0000  0.0000
  396BTD    C82 8006   2.827  -4.369   1.501  0.0000  0.0000  0.0000
  397TTP     S1 8007   2.798  -5.004   0.792  0.0000  0.0000  0.0000
  397TTP     S5 8008   2.896  -5.322   1.048  0.0000  0.0000  0.0000
  397TTP     C1 8009   2.800  -5.386   0.917  0.0000  0.0000  0.0000
  397TTP     C2 8010   2.762  -5.288   0.828  0.0000  0.0000  0.0000
  397TTP     C3 8011   2.817  -5.166   0.862  0.0000  0.0000  0.0000
  397TTP     C4 8012   2.882  -4.943   0.923  0.0000  0.0000  0.0000
  397TTP    C17 8013   2.933  -5.033   1.014  0.0000  0.0000  0.0000
  397TTP    C18 8014   2.889  -5.168   0.974  0.0000  0.0000  0.0000
  397TTP    C32 8015   2.676  -5.306   0.700  0.0000  0.0000  0.0000
  397TTP    C33 8016   2.767  -5.340   0.579  0.0000  0.0000  0.0000
  397TTP    C34 8017   2.674  -5.363   0.457  0.0000  0.0000  0.0000
  397TTP    C35 8018   2.732  -5.433   0.333  0.0000  0.0000  0.0000
  397TTP    C36 8019   2.638  -5.527   0.252  0.0000  0.0000  0.0000
  397TTP    C37 8020   2.518  -5.463   0.175  0.0000  0.0000  0.0000
  397TTP    C38 8021   2.438  -5.331   0.163  0.0000  0.0000  0.0000
  397TTP    C39 8022   2.356  -5.281   0.285  0.0000  0.0000  0.0000
  397TTP    C40 8023   2.297  -5.384   0.386  0.0000  0.0000  0.0000
  397TTP    C41 8024   2.310  -5.357   0.539  0.0000  0.0000  0.0000
  397TTP    C42 8025   2.291  -5.479   0.634  0.0000  0.0000  0.0000
  398TTP     S1 8026   3.102  -4.335   1.235  0.0000  0.0000  0.0000
  398TTP     S5 8027   3.304  -4.538   1.544  0.0000  0.0000  0.0000
  398TTP     C1 8028   3.335  -4.365   1.565  0.0000  0.0000  0.0000
  398TTP     C2 8029   3.271  -4.291   1.464  0.0000  0.0000  0.0000
  398TTP     C3 8030   3.194  -4.371   1.380  0.0000  0.0000  0.0000
  398TTP     C4 8031   3.079  -4.506   1.214  0.0000  0.0000  0.0000
  398TTP    C17 8032   3.133  -4.581   1.318  0.0000  0.0000  0.0000
  398TTP    C18 8033   3.204  -4.504   1.414  0.0000  0.0000  0.0000
  398TTP    C32 8034   3.263  -4.136   1.458  0.0000  0.0000  0.0000
  398TTP    C33 8035   3.158  -4.069   1.551  0.0000  0.0000  0.0000
  398TTP    C34 8036   3.151  -3.915   1.536  0.0000  0.0000  0.0000
  398TTP    C35 8037   3.042  -3.864   1.634  0.0000  0.0000  0.0000
  398TTP    C36 8038   3.058  -3.710   1.639  0.0000  0.0000  0.0000
  398TTP    C37 8039   3.025  -3.672   1.492  0.0000  0.0000  0.0000
  398TTP    C38 8040   3.020  -3.518   1.462  0.0000  0.0000  0.0000
  398TTP    C39 8041   2.958  -3.468   1.330  0.0000  0.0000  0.0000
  398TTP    C40 8042   3.049  -3.400   1.223  0.0000  0.0000  0.0000
  398TTP    C41 8043   3.124  -3.269   1.258  0.0000  0.0000  0.0000
  398TTP    C42 8044   3.146  -3.161   1.149  0.0000  0.0000  0.0000
  399FIC     F1 8045   2.829  -6.012   1.440  0.0000  0.0000  0.0000
  399FIC     F2 8046   2.720  -6.166   1.249  0.0000  0.0000  0.0000
  399FIC     O1 8047   2.884  -5.553   1.180  0.0000  0.0000  0.0000
  399FIC     N5 8048   2.568  -6.054   0.804  0.0000  0.0000  0.0000
  399FIC     N6 8049   2.616  -5.673   0.625  0.0000  0.0000  0.0000
  399FIC    C19 8050   2.756  -5.523   0.907  0.0000  0.0000  0.0000
  399FIC    C20 8051   2.765  -5.634   0.987  0.0000  0.0000  0.0000
  399FIC    C21 8052   2.827  -5.641   1.115  0.0000  0.0000  0.0000
  399FIC    C22 8053   2.803  -5.776   1.169  0.0000  0.0000  0.0000
  399FIC    C23 8054   2.832  -5.825   1.299  0.0000  0.0000  0.0000
  399FIC    C24 8055   2.804  -5.954   1.324  0.0000  0.0000  0.0000
  399FIC    C25 8056   2.744  -6.033   1.214  0.0000  0.0000  0.0000
  399FIC    C26 8057   2.708  -5.989   1.098  0.0000  0.0000  0.0000
  399FIC    C27 8058   2.743  -5.854   1.070  0.0000  0.0000  0.0000
  399FIC    C28 8059   2.719  -5.767   0.954  0.0000  0.0000  0.0000
  399FIC    C29 8060   2.659  -5.810   0.837  0.0000  0.0000  0.0000
  399FIC    C30 8061   2.611  -5.954   0.825  0.0000  0.0000  0.0000
  399FIC    C31 8062   2.641  -5.733   0.718  0.0000  0.0000  0.0000
  400FIC     F1 8063   3.792  -4.687   2.157  0.0000  0.0000  0.0000
  400FIC     F2 8064   3.839  -4.445   2.238  0.0000  0.0000  0.0000
  400FIC     O1 8065   3.480  -4.593   1.734  0.0000  0.0000  0.0000
  400FIC     N5 8066   3.662  -4.024   2.088  0.0000  0.0000  0.0000
  400FIC     N6 8067   3.471  -3.969   1.710  0.0000  0.0000  0.0000
  400FIC    C19 8068   3.412  -4.307   1.667  0.0000  0.0000  0.0000
  400FIC    C20 8069   3.491  -4.353   1.766  0.0000  0.0000  0.0000
  400FIC    C21 8070   3.523  -4.499   1.798  0.0000  0.0000  0.0000
  400FIC    C22 8071   3.602  -4.501   1.914  0.0000  0.0000  0.0000
  400FIC    C23 8072   3.658  -4.612   1.980  0.0000  0.0000  0.0000
  400FIC    C24 8073   3.734  -4.595   2.090  0.0000  0.0000  0.0000
  400FIC    C25 8074   3.763  -4.466   2.132  0.0000  0.0000  0.0000
  400FIC    C26 8075   3.708  -4.347   2.074  0.0000  0.0000  0.0000
  400FIC    C27 8076   3.625  -4.368   1.961  0.0000  0.0000  0.0000
  400FIC    C28 8077   3.558  -4.279   1.869  0.0000  0.0000  0.0000
  400FIC    C29 8078   3.563  -4.139   1.881  0.0000  0.0000  0.0000
  400FIC    C30 8079   3.620  -4.075   2.000  0.0000  0.0000  0.0000
  400FIC    C31 8080   3.507  -4.045   1.788  0.0000  0.0000  0.0000
  401BTD     S2 8081   4.089   7.386   2.195  0.0000  0.0000  0.0000
  401BTD     N1 8082   4.076   7.550   2.190  0.0000  0.0000  0.0000
  401BTD     N2 8083   4.024   7.346   2.052  0.0000  0.0000  0.0000
  401BTD     N3 8084   3.823   7.593   1.703  0.0000  0.0000  0.0000
  401BTD     N4 8085   3.879   7.865   1.895  0.0000  0.0000  0.0000
  401BTD     C5 8086   3.980   7.706   2.034  0.0000  0.0000  0.0000
  401BTD     C6 8087   4.020   7.578   2.078  0.0000  0.0000  0.0000
  401BTD     C7 8088   3.991   7.463   1.998  0.0000  0.0000  0.0000
  401BTD     C8 8089   3.924   7.480   1.873  0.0000  0.0000  0.0000
  401BTD    C15 8090   3.888   7.608   1.823  0.0000  0.0000  0.0000
  401BTD    C16 8091   3.907   7.729   1.909  0.0000  0.0000  0.0000
  401BTD    C43 8092   3.776   7.930   1.818  0.0000  0.0000  0.0000
  401BTD    C44 8093   3.634   7.878   1.855  0.0000  0.0000  0.0000
  401BTD    C45 8094   3.596   7.853   2.004  0.0000  0.0000  0.0000
  401BTD    C46 8095   3.590   7.985   2.086  0.0000  0.0000  0.0000
  401BTD    C47 8096   3.518   7.958   1.789  0.0000  0.0000  0.0000
  401BTD    C48 8097   3.501   7.952   1.635  0.0000  0.0000  0.0000
  401BTD    C49 8098   3.412   8.058   1.563  0.0000  0.0000  0.0000
  401BTD    C50 8099   3.433   8.083   1.411  0.0000  0.0000  0.0000
  401BTD    C75 8100   3.811   7.691   1.584  0.0000  0.0000  0.0000
  401BTD    C76 8101   3.949   7.755   1.549  0.0000  0.0000  0.0000
  401BTD    C77 8102   3.948   7.841   1.420  0.0000  0.0000  0.0000
  401BTD    C78 8103   3.803   7.809   1.375  0.0000  0.0000  0.0000
  401BTD    C79 8104   4.070   7.661   1.531  0.0000  0.0000  0.0000
  401BTD    C80 8105   4.049   7.529   1.452  0.0000  0.0000  0.0000
  401BTD    C81 8106   4.145   7.410   1.476  0.0000  0.0000  0.0000
  401BTD    C82 8107   4.277   7.405   1.393  0.0000  0.0000  0.0000
  402TTP     S1 8108   4.055   7.905   2.233  0.0000  0.0000  0.0000
  402TTP     S5 8109   3.872   8.212   2.014  0.0000  0.0000  0.0000
  402TTP     C1 8110   3.931   8.282   2.160  0.0000  0.0000  0.0000
  402TTP     C2 8111   3.992   8.191   2.238  0.0000  0.0000  0.0000
  402TTP     C3 8112   3.994   8.060   2.186  0.0000  0.0000  0.0000
  402TTP     C4 8113   3.989   7.834   2.091  0.0000  0.0000  0.0000
  402TTP    C17 8114   3.929   7.926   2.006  0.0000  0.0000  0.0000
  402TTP    C18 8115   3.928   8.059   2.058  0.0000  0.0000  0.0000
  402TTP    C32 8116   4.050   8.215   2.379  0.0000  0.0000  0.0000
  402TTP    C33 8117   4.202   8.200   2.402  0.0000  0.0000  0.0000
  402TTP    C34 8118   4.260   8.235   2.541  0.0000  0.0000  0.0000
  402TTP    C35 8119   4.413   8.229   2.512  0.0000  0.0000  0.0000
  402TTP    C36 8120   4.459   8.376   2.488  0.0000  0.0000  0.0000
  402TTP    C37 8121   4.391   8.489   2.570  0.0000  0.0000  0.0000
  402TTP    C38 8122   4.475   8.609   2.622  0.0000  0.0000  0.0000
  402TTP    C39 8123   4.365   8.654   2.720  0.0000  0.0000  0.0000
  402TTP    C40 8124   4.410   8.695   2.864  0.0000  0.0000  0.0000
  402TTP    C41 8125   4.329   8.803   2.941  0.0000  0.0000  0.0000
  402TTP    C42 8126   4.391   8.869   3.067  0.0000  0.0000  0.0000
  403TTP     S1 8127   3.891   7.215   1.749  0.0000  0.0000  0.0000
  403TTP     S5 8128   3.669   7.390   1.438  0.0000  0.0000  0.0000
  403TTP     C1 8129   3.663   7.215   1.421  0.0000  0.0000  0.0000
  403TTP     C2 8130   3.734   7.150   1.517  0.0000  0.0000  0.0000
  403TTP     C3 8131   3.795   7.238   1.606  0.0000  0.0000  0.0000
  403TTP     C4 8132   3.889   7.385   1.775  0.0000  0.0000  0.0000
  403TTP    C17 8133   3.826   7.457   1.672  0.0000  0.0000  0.0000
  403TTP    C18 8134   3.767   7.372   1.577  0.0000  0.0000  0.0000
  403TTP    C32 8135   3.752   6.996   1.526  0.0000  0.0000  0.0000
  403TTP    C33 8136   3.870   6.943   1.438  0.0000  0.0000  0.0000
  403TTP    C34 8137   3.888   6.790   1.443  0.0000  0.0000  0.0000
  403TTP    C35 8138   3.916   6.747   1.590  0.0000  0.0000  0.0000
  403TTP    C36 8139   3.930   6.596   1.622  0.0000  0.0000  0.0000
  403TTP    C37 8140   3.807   6.502   1.608  0.0000  0.0000  0.0000
  403TTP    C38 8141   3.893   6.375   1.636  0.0000  0.0000  0.0000
  403TTP    C39 8142   3.799   6.275   1.565  0.0000  0.0000  0.0000
  403TTP    C40 8143   3.793   6.277   1.409  0.0000  0.0000  0.0000
  403TTP    C41 8144   3.686   6.364   1.338  0.0000  0.0000  0.0000
  403TTP    C42 8145   3.721   6.508   1.288  0.0000  0.0000  0.0000
  404FIC     F1 8146   3.599   8.931   1.788  0.0000  0.0000  0.0000
  404FIC     F2 8147   3.640   9.067   2.017  0.0000  0.0000  0.0000
  404FIC     O1 8148   3.809   8.455   1.925  0.0000  0.0000  0.0000
  404FIC     N5 8149   3.848   8.938   2.426  0.0000  0.0000  0.0000
  404FIC     N6 8150   4.019   8.541   2.515  0.0000  0.0000  0.0000
  404FIC    C19 8151   3.914   8.417   2.202  0.0000  0.0000  0.0000
  404FIC    C20 8152   3.862   8.531   2.150  0.0000  0.0000  0.0000
  404FIC    C21 8153   3.807   8.542   2.016  0.0000  0.0000  0.0000
  404FIC    C22 8154   3.761   8.681   2.001  0.0000  0.0000  0.0000
  404FIC    C23 8155   3.700   8.735   1.884  0.0000  0.0000  0.0000
  404FIC    C24 8156   3.658   8.868   1.905  0.0000  0.0000  0.0000
  404FIC    C25 8157   3.678   8.936   2.017  0.0000  0.0000  0.0000
  404FIC    C26 8158   3.735   8.882   2.122  0.0000  0.0000  0.0000
  404FIC    C27 8159   3.778   8.754   2.109  0.0000  0.0000  0.0000
  404FIC    C28 8160   3.846   8.662   2.210  0.0000  0.0000  0.0000
  404FIC    C29 8161   3.888   8.690   2.351  0.0000  0.0000  0.0000
  404FIC    C30 8162   3.868   8.834   2.390  0.0000  0.0000  0.0000
  404FIC    C31 8163   3.955   8.604   2.446  0.0000  0.0000  0.0000
  405FIC     F1 8164   3.204   7.487   0.808  0.0000  0.0000  0.0000
  405FIC     F2 8165   3.150   7.236   0.745  0.0000  0.0000  0.0000
  405FIC     O1 8166   3.525   7.424   1.224  0.0000  0.0000  0.0000
  405FIC     N5 8167   3.299   6.822   0.951  0.0000  0.0000  0.0000
  405FIC     N6 8168   3.493   6.805   1.325  0.0000  0.0000  0.0000
  405FIC    C19 8169   3.586   7.144   1.323  0.0000  0.0000  0.0000
  405FIC    C20 8170   3.505   7.181   1.221  0.0000  0.0000  0.0000
  405FIC    C21 8171   3.480   7.322   1.178  0.0000  0.0000  0.0000
  405FIC    C22 8172   3.395   7.313   1.058  0.0000  0.0000  0.0000
  405FIC    C23 8173   3.343   7.420   0.985  0.0000  0.0000  0.0000
  405FIC    C24 8174   3.267   7.389   0.881  0.0000  0.0000  0.0000
  405FIC    C25 8175   3.235   7.256   0.848  0.0000  0.0000  0.0000
  405FIC    C26 8176   3.283   7.153   0.922  0.0000  0.0000  0.0000
  405FIC    C27 8177   3.365   7.182   1.027  0.0000  0.0000  0.0000
  405FIC    C28 8178   3.429   7.096   1.131  0.0000  0.0000  0.0000
  405FIC    C29 8179   3.416   6.958   1.136  0.0000  0.0000  0.0000
  405FIC    C30 8180   3.351   6.884   1.034  0.0000  0.0000  0.0000
  405FIC    C31 8181   3.460   6.875   1.245  0.0000  0.0000  0.0000
  406BTD     S2 8182   2.963   7.378  -0.200  0.0000  0.0000  0.0000
  406BTD     N1 8183   2.952   7.539  -0.189  0.0000  0.0000  0.0000
  406BTD     N2 8184   3.042   7.346  -0.063  0.0000  0.0000  0.0000
  406BTD     N3 8185   3.211   7.608   0.299  0.0000  0.0000  0.0000
  406BTD     N4 8186   3.098   7.868   0.121  0.0000  0.0000  0.0000
  406BTD     C5 8187   3.028   7.704  -0.020  0.0000  0.0000  0.0000
  406BTD     C6 8188   3.011   7.574  -0.076  0.0000  0.0000  0.0000
  406BTD     C7 8189   3.062   7.463  -0.003  0.0000  0.0000  0.0000
  406BTD     C8 8190   3.123   7.484   0.122  0.0000  0.0000  0.0000
  406BTD    C15 8191   3.142   7.617   0.175  0.0000  0.0000  0.0000
  406BTD    C16 8192   3.094   7.729   0.098  0.0000  0.0000  0.0000
  406BTD    C43 8193   3.186   7.945   0.210  0.0000  0.0000  0.0000
  406BTD    C44 8194   3.339   7.935   0.180  0.0000  0.0000  0.0000
  406BTD    C45 8195   3.411   8.034   0.274  0.0000  0.0000  0.0000
  406BTD    C46 8196   3.561   7.992   0.273  0.0000  0.0000  0.0000
  406BTD    C47 8197   3.372   7.962   0.030  0.0000  0.0000  0.0000
  406BTD    C48 8198   3.386   8.103  -0.033  0.0000  0.0000  0.0000
  406BTD    C49 8199   3.400   8.071  -0.184  0.0000  0.0000  0.0000
  406BTD    C50 8200   3.497   8.025  -0.298  0.0000  0.0000  0.0000
  406BTD    C75 8201   3.198   7.696   0.415  0.0000  0.0000  0.0000
  406BTD    C76 8202   3.049   7.726   0.451  0.0000  0.0000  0.0000
  406BTD    C77 8203   3.040   7.814   0.578  0.0000  0.0000  0.0000
  406BTD    C78 8204   2.899   7.867   0.613  0.0000  0.0000  0.0000
  406BTD    C79 8205   2.964   7.599   0.471  0.0000  0.0000  0.0000
  406BTD    C80 8206   2.991   7.510   0.595  0.0000  0.0000  0.0000
  406BTD    C81 8207   2.899   7.385   0.590  0.0000  0.0000  0.0000
  406BTD    C82 8208   2.930   7.259   0.503  0.0000  0.0000  0.0000
  407TTP     S1 8209   2.901   7.894  -0.207  0.0000  0.0000  0.0000
  407TTP     S5 8210   3.000   8.213   0.050  0.0000  0.0000  0.0000
  407TTP     C1 8211   2.903   8.276  -0.082  0.0000  0.0000  0.0000
  407TTP     C2 8212   2.865   8.179  -0.170  0.0000  0.0000  0.0000
  407TTP     C3 8213   2.921   8.056  -0.137  0.0000  0.0000  0.0000
  407TTP     C4 8214   2.986   7.833  -0.076  0.0000  0.0000  0.0000
  407TTP    C17 8215   3.037   7.924   0.015  0.0000  0.0000  0.0000
  407TTP    C18 8216   2.993   8.058  -0.025  0.0000  0.0000  0.0000
  407TTP    C32 8217   2.780   8.196  -0.298  0.0000  0.0000  0.0000
  407TTP    C33 8218   2.870   8.230  -0.420  0.0000  0.0000  0.0000
  407TTP    C34 8219   2.777   8.253  -0.541  0.0000  0.0000  0.0000
  407TTP    C35 8220   2.836   8.324  -0.666  0.0000  0.0000  0.0000
  407TTP    C36 8221   2.741   8.418  -0.747  0.0000  0.0000  0.0000
  407TTP    C37 8222   2.622   8.354  -0.824  0.0000  0.0000  0.0000
  407TTP    C38 8223   2.541   8.222  -0.836  0.0000  0.0000  0.0000
  407TTP    C39 8224   2.459   8.172  -0.713  0.0000  0.0000  0.0000
  407TTP    C40 8225   2.400   8.274  -0.613  0.0000  0.0000  0.0000
  407TTP    C41 8226   2.413   8.248  -0.460  0.0000  0.0000  0.0000
  407TTP    C42 8227   2.395   8.369  -0.365  0.0000  0.0000  0.0000
  408TTP     S1 8228   3.206   7.225   0.237  0.0000  0.0000  0.0000
  408TTP     S5 8229   3.408   7.428   0.545  0.0000  0.0000  0.0000
  408TTP     C1 8230   3.439   7.255   0.567  0.0000  0.0000  0.0000
  408TTP     C2 8231   3.374   7.181   0.466  0.0000  0.0000  0.0000
  408TTP     C3 8232   3.297   7.261   0.382  0.0000  0.0000  0.0000
  408TTP     C4 8233   3.183   7.397   0.216  0.0000  0.0000  0.0000
  408TTP    C17 8234   3.237   7.472   0.320  0.0000  0.0000  0.0000
  408TTP    C18 8235   3.307   7.395   0.415  0.0000  0.0000  0.0000
  408TTP    C32 8236   3.367   7.027   0.459  0.0000  0.0000  0.0000
  408TTP    C33 8237   3.262   6.960   0.553  0.0000  0.0000  0.0000
  408TTP    C34 8238   3.255   6.805   0.537  0.0000  0.0000  0.0000
  408TTP    C35 8239   3.146   6.755   0.635  0.0000  0.0000  0.0000
  408TTP    C36 8240   3.162   6.601   0.641  0.0000  0.0000  0.0000
  408TTP    C37 8241   3.129   6.563   0.493  0.0000  0.0000  0.0000
  408TTP    C38 8242   3.123   6.409   0.464  0.0000  0.0000  0.0000
  408TTP    C39 8243   3.061   6.358   0.332  0.0000  0.0000  0.0000
  408TTP    C40 8244   3.152   6.290   0.225  0.0000  0.0000  0.0000
  408TTP    C41 8245   3.227   6.159   0.259  0.0000  0.0000  0.0000
  408TTP    C42 8246   3.249   6.052   0.150  0.0000  0.0000  0.0000
  409FIC     F1 8247   2.933   8.903   0.442  0.0000  0.0000  0.0000
  409FIC     F2 8248   2.824   9.057   0.250  0.0000  0.0000  0.0000
  409FIC     O1 8249   2.987   8.444   0.181  0.0000  0.0000  0.0000
  409FIC     N5 8250   2.671   8.944  -0.195  0.0000  0.0000  0.0000
  409FIC     N6 8251   2.719   8.563  -0.374  0.0000  0.0000  0.0000
  409FIC    C19 8252   2.859   8.413  -0.092  0.0000  0.0000  0.0000
  409FIC    C20 8253   2.868   8.524  -0.011  0.0000  0.0000  0.0000
  409FIC    C21 8254   2.931   8.532   0.116  0.0000  0.0000  0.0000
  409FIC    C22 8255   2.906   8.666   0.170  0.0000  0.0000  0.0000
  409FIC    C23 8256   2.936   8.716   0.301  0.0000  0.0000  0.0000
  409FIC    C24 8257   2.907   8.845   0.325  0.0000  0.0000  0.0000
  409FIC    C25 8258   2.847   8.924   0.216  0.0000  0.0000  0.0000
  409FIC    C26 8259   2.811   8.879   0.099  0.0000  0.0000  0.0000
  409FIC    C27 8260   2.846   8.744   0.071  0.0000  0.0000  0.0000
  409FIC    C28 8261   2.822   8.658  -0.045  0.0000  0.0000  0.0000
  409FIC    C29 8262   2.762   8.701  -0.161  0.0000  0.0000  0.0000
  409FIC    C30 8263   2.714   8.844  -0.174  0.0000  0.0000  0.0000
  409FIC    C31 8264   2.745   8.623  -0.280  0.0000  0.0000  0.0000
  410FIC     F1 8265   3.895   7.578   1.158  0.0000  0.0000  0.0000
  410FIC     F2 8266   3.942   7.335   1.239  0.0000  0.0000  0.0000
  410FIC     O1 8267   3.583   7.484   0.736  0.0000  0.0000  0.0000
  410FIC     N5 8268   3.765   6.915   1.089  0.0000  0.0000  0.0000
  410FIC     N6 8269   3.575   6.860   0.711  0.0000  0.0000  0.0000
  410FIC    C19 8270   3.515   7.197   0.668  0.0000  0.0000  0.0000
  410FIC    C20 8271   3.595   7.243   0.767  0.0000  0.0000  0.0000
  410FIC    C21 8272   3.626   7.390   0.800  0.0000  0.0000  0.0000
  410FIC    C22 8273   3.705   7.392   0.915  0.0000  0.0000  0.0000
  410FIC    C23 8274   3.762   7.502   0.982  0.0000  0.0000  0.0000
  410FIC    C24 8275   3.838   7.485   1.091  0.0000  0.0000  0.0000
  410FIC    C25 8276   3.867   7.356   1.134  0.0000  0.0000  0.0000
  410FIC    C26 8277   3.811   7.237   1.075  0.0000  0.0000  0.0000
  410FIC    C27 8278   3.728   7.259   0.963  0.0000  0.0000  0.0000
  410FIC    C28 8279   3.662   7.169   0.870  0.0000  0.0000  0.0000
  410FIC    C29 8280   3.666   7.030   0.882  0.0000  0.0000  0.0000
  410FIC    C30 8281   3.723   6.965   1.001  0.0000  0.0000  0.0000
  410FIC    C31 8282   3.610   6.936   0.789  0.0000  0.0000  0.0000
  411BTD     S2 8283   1.957   4.176  -2.195  0.0000  0.0000  0.0000
  411BTD     N1 8284   1.970   4.012  -2.190  0.0000  0.0000  0.0000
  411BTD     N2 8285   2.022   4.216  -2.052  0.0000  0.0000  0.0000
  411BTD     N3 8286   2.223   3.969  -1.703  0.0000  0.0000  0.0000
  411BTD     N4 8287   2.167   3.697  -1.895  0.0000  0.0000  0.0000
  411BTD     C5 8288   2.066   3.856  -2.034  0.0000  0.0000  0.0000
  411BTD     C6 8289   2.026   3.984  -2.078  0.0000  0.0000  0.0000
  411BTD     C7 8290   2.055   4.099  -1.998  0.0000  0.0000  0.0000
  411BTD     C8 8291   2.122   4.082  -1.873  0.0000  0.0000  0.0000
  411BTD    C15 8292   2.158   3.954  -1.823  0.0000  0.0000  0.0000
  411BTD    C16 8293   2.139   3.833  -1.909  0.0000  0.0000  0.0000
  411BTD    C43 8294   2.270   3.632  -1.818  0.0000  0.0000  0.0000
  411BTD    C44 8295   2.412   3.684  -1.855  0.0000  0.0000  0.0000
  411BTD    C45 8296   2.450   3.709  -2.004  0.0000  0.0000  0.0000
  411BTD    C46 8297   2.456   3.577  -2.086  0.0000  0.0000  0.0000
  411BTD    C47 8298   2.528   3.604  -1.789  0.0000  0.0000  0.0000
  411BTD    C48 8299   2.545   3.610  -1.635  0.0000  0.0000  0.0000
  411BTD    C49 8300   2.634   3.504  -1.563  0.0000  0.0000  0.0000
  411BTD    C50 8301   2.613   3.479  -1.411  0.0000  0.0000  0.0000
  411BTD    C75 8302   2.235   3.871  -1.584  0.0000  0.0000  0.0000
  411BTD    C76 8303   2.097   3.807  -1.549  0.0000  0.0000  0.0000
  411BTD    C77 8304   2.098   3.721  -1.420  0.0000  0.0000  0.0000
  411BTD    C78 8305   2.243   3.753  -1.375  0.0000  0.0000  0.0000
  411BTD    C79 8306   1.976   3.901  -1.531  0.0000  0.0000  0.0000
  411BTD    C80 8307   1.997   4.033  -1.452  0.0000  0.0000  0.0000
  411BTD    C81 8308   1.901   4.152  -1.476  0.0000  0.0000  0.0000
  411BTD    C82 8309   1.769   4.157  -1.393  0.0000  0.0000  0.0000
  412TTP     S1 8310   1.991   3.657  -2.233  0.0000  0.0000  0.0000
  412TTP     S5 8311   2.174   3.350  -2.014  0.0000  0.0000  0.0000
  412TTP     C1 8312   2.115   3.280  -2.160  0.0000  0.0000  0.0000
  412TTP     C2 8313   2.054   3.371  -2.238  0.0000  0.0000  0.0000
  412TTP     C3 8314   2.052   3.502  -2.186  0.0000  0.0000  0.0000
  412TTP     C4 8315   2.057   3.728  -2.091  0.0000  0.0000  0.0000
  412TTP    C17 8316   2.117   3.636  -2.006  0.0000  0.0000  0.0000
  412TTP    C18 8317   2.118   3.503  -2.058  0.0000  0.0000  0.0000
  412TTP    C32 8318   1.996   3.347  -2.379  0.0000  0.0000  0.0000
  412TTP    C33 8319   1.844   3.362  -2.402  0.0000  0.0000  0.0000
  412TTP    C34 8320   1.786   3.327  -2.541  0.0000  0.0000  0.0000
  412TTP    C35 8321   1.633   3.333  -2.512  0.0000  0.0000  0.0000
  412TTP    C36 8322   1.587   3.186  -2.488  0.0000  0.0000  0.0000
  412TTP    C37 8323   1.655   3.073  -2.570  0.0000  0.0000  0.0000
  412TTP    C38 8324   1.571   2.953  -2.622  0.0000  0.0000  0.0000
  412TTP    C39 8325   1.681   2.908  -2.720  0.0000  0.0000  0.0000
  412TTP    C40 8326   1.636   2.867  -2.864  0.0000  0.0000  0.0000
  412TTP    C41 8327   1.717   2.759  -2.941  0.0000  0.0000  0.0000
  412TTP    C42 8328   1.655   2.693  -3.067  0.0000  0.0000  0.0000
  413TTP     S1 8329   2.155   4.347  -1.749  0.0000  0.0000  0.0000
  413TTP     S5 8330   2.377   4.172  -1.438  0.0000  0.0000  0.0000
  413TTP     C1 8331   2.383   4.347  -1.421  0.0000  0.0000  0.0000
  413TTP     C2 8332   2.312   4.412  -1.517  0.0000  0.0000  0.0000
  413TTP     C3 8333   2.251   4.324  -1.606  0.0000  0.0000  0.0000
  413TTP     C4 8334   2.157   4.177  -1.775  0.0000  0.0000  0.0000
  413TTP    C17 8335   2.220   4.105  -1.672  0.0000  0.0000  0.0000
  413TTP    C18 8336   2.279   4.190  -1.577  0.0000  0.0000  0.0000
  413TTP    C32 8337   2.294   4.566  -1.526  0.0000  0.0000  0.0000
  413TTP    C33 8338   2.176   4.619  -1.438  0.0000  0.0000  0.0000
  413TTP    C34 8339   2.158   4.772  -1.443  0.0000  0.0000  0.0000
  413TTP    C35 8340   2.130   4.815  -1.590  0.0000  0.0000  0.0000
  413TTP    C36 8341   2.116   4.966  -1.622  0.0000  0.0000  0.0000
  413TTP    C37 8342   2.239   5.060  -1.608  0.0000  0.0000  0.0000
  413TTP    C38 8343   2.153   5.187  -1.636  0.0000  0.0000  0.0000
  413TTP    C39 8344   2.247   5.287  -1.565  0.0000  0.0000  0.0000
  413TTP    C40 8345   2.253   5.285  -1.409  0.0000  0.0000  0.0000
  413TTP    C41 8346   2.360   5.198  -1.338  0.0000  0.0000  0.0000
  413TTP    C42 8347   2.325   5.054  -1.288  0.0000  0.0000  0.0000
  414FIC     F1 8348   2.447   2.631  -1.788  0.0000  0.0000  0.0000
  414FIC     F2 8349   2.406   2.495  -2.017  0.0000  0.0000  0.0000
  414FIC     O1 8350   2.237   3.107  -1.925  0.0000  0.0000  0.0000
  414FIC     N5 8351   2.198   2.624  -2.426  0.0000  0.0000  0.0000
  414FIC     N6 8352   2.027   3.021  -2.515  0.0000  0.0000  0.0000
  414FIC    C19 8353   2.132   3.145  -2.202  0.0000  0.0000  0.0000
  414FIC    C20 8354   2.184   3.031  -2.150  0.0000  0.0000  0.0000
  414FIC    C21 8355   2.239   3.020  -2.016  0.0000  0.0000  0.0000
  414FIC    C22 8356   2.285   2.881  -2.001  0.0000  0.0000  0.0000
  414FIC    C23 8357   2.346   2.827  -1.884  0.0000  0.0000  0.0000
  414FIC    C24 8358   2.388   2.694  -1.905  0.0000  0.0000  0.0000
  414FIC    C25 8359   2.368   2.626  -2.017  0.0000  0.0000  0.0000
  414FIC    C26 8360   2.311   2.680  -2.122  0.0000  0.0000  0.0000
  414FIC    C27 8361   2.268   2.808  -2.109  0.0000  0.0000  0.0000
  414FIC    C28 8362   2.200   2.900  -2.210  0.0000  0.0000  0.0000
  414FIC    C29 8363   2.158   2.872  -2.351  0.0000  0.0000  0.0000
  414FIC    C30 8364   2.179   2.728  -2.390  0.0000  0.0000  0.0000
  414FIC    C31 8365   2.091   2.958  -2.446  0.0000  0.0000  0.0000
  415FIC     F1 8366   2.842   4.075  -0.808  0.0000  0.0000  0.0000
  415FIC     F2 8367   2.896   4.326  -0.745  0.0000  0.0000  0.0000
  415FIC     O1 8368   2.521   4.138  -1.224  0.0000  0.0000  0.0000
  415FIC     N5 8369   2.747   4.740  -0.951  0.0000  0.0000  0.0000
  415FIC     N6 8370   2.553   4.757  -1.325  0.0000  0.0000  0.0000
  415FIC    C19 8371   2.460   4.418  -1.323  0.0000  0.0000  0.0000
  415FIC    C20 8372   2.541   4.381  -1.221  0.0000  0.0000  0.0000
  415FIC    C21 8373   2.566   4.240  -1.178  0.0000  0.0000  0.0000
  415FIC    C22 8374   2.651   4.249  -1.058  0.0000  0.0000  0.0000
  415FIC    C23 8375   2.703   4.142  -0.985  0.0000  0.0000  0.0000
  415FIC    C24 8376   2.779   4.173  -0.881  0.0000  0.0000  0.0000
  415FIC    C25 8377   2.811   4.306  -0.848  0.0000  0.0000  0.0000
  415FIC    C26 8378   2.763   4.409  -0.922  0.0000  0.0000  0.0000
  415FIC    C27 8379   2.681   4.380  -1.027  0.0000  0.0000  0.0000
  415FIC    C28 8380   2.617   4.466  -1.131  0.0000  0.0000  0.0000
  415FIC    C29 8381   2.630   4.604  -1.136  0.0000  0.0000  0.0000
  415FIC    C30 8382   2.695   4.678  -1.034  0.0000  0.0000  0.0000
  415FIC    C31 8383   2.586   4.687  -1.245  0.0000  0.0000  0.0000
  416BTD     S2 8384   3.083   4.184   0.200  0.0000  0.0000  0.0000
  416BTD     N1 8385   3.094   4.023   0.189  0.0000  0.0000  0.0000
  416BTD     N2 8386   3.004   4.216   0.063  0.0000  0.0000  0.0000
  416BTD     N3 8387   2.835   3.954  -0.299  0.0000  0.0000  0.0000
  416BTD     N4 8388   2.948   3.694  -0.121  0.0000  0.0000  0.0000
  416BTD     C5 8389   3.018   3.858   0.020  0.0000  0.0000  0.0000
  416BTD     C6 8390   3.035   3.988   0.076  0.0000  0.0000  0.0000
  416BTD     C7 8391   2.984   4.099   0.003  0.0000  0.0000  0.0000
  416BTD     C8 8392   2.923   4.078  -0.122  0.0000  0.0000  0.0000
  416BTD    C15 8393   2.904   3.945  -0.175  0.0000  0.0000  0.0000
  416BTD    C16 8394   2.952   3.833  -0.098  0.0000  0.0000  0.0000
  416BTD    C43 8395   2.860   3.617  -0.210  0.0000  0.0000  0.0000
  416BTD    C44 8396   2.707   3.627  -0.180  0.0000  0.0000  0.0000
  416BTD    C45 8397   2.635   3.528  -0.274  0.0000  0.0000  0.0000
  416BTD    C46 8398   2.485   3.570  -0.273  0.0000  0.0000  0.0000
  416BTD    C47 8399   2.674   3.600  -0.030  0.0000  0.0000  0.0000
  416BTD    C48 8400   2.660   3.459   0.033  0.0000  0.0000  0.0000
  416BTD    C49 8401   2.646   3.491   0.184  0.0000  0.0000  0.0000
  416BTD    C50 8402   2.549   3.537   0.298  0.0000  0.0000  0.0000
  416BTD    C75 8403   2.848   3.866  -0.415  0.0000  0.0000  0.0000
  416BTD    C76 8404   2.997   3.836  -0.451  0.0000  0.0000  0.0000
  416BTD    C77 8405   3.006   3.748  -0.578  0.0000  0.0000  0.0000
  416BTD    C78 8406   3.147   3.695  -0.613  0.0000  0.0000  0.0000
  416BTD    C79 8407   3.082   3.963  -0.471  0.0000  0.0000  0.0000
  416BTD    C80 8408   3.055   4.052  -0.595  0.0000  0.0000  0.0000
  416BTD    C81 8409   3.147   4.177  -0.590  0.0000  0.0000  0.0000
  416BTD    C82 8410   3.116   4.303  -0.503  0.0000  0.0000  0.0000
  417TTP     S1 8411   3.145   3.668   0.207  0.0000  0.0000  0.0000
  417TTP     S5 8412   3.046   3.349  -0.050  0.0000  0.0000  0.0000
  417TTP     C1 8413   3.143   3.286   0.082  0.0000  0.0000  0.0000
  417TTP     C2 8414   3.181   3.383   0.170  0.0000  0.0000  0.0000
  417TTP     C3 8415   3.125   3.506   0.137  0.0000  0.0000  0.0000
  417TTP     C4 8416   3.060   3.729   0.076  0.0000  0.0000  0.0000
  417TTP    C17 8417   3.009   3.638  -0.015  0.0000  0.0000  0.0000
  417TTP    C18 8418   3.053   3.504   0.025  0.0000  0.0000  0.0000
  417TTP    C32 8419   3.266   3.366   0.298  0.0000  0.0000  0.0000
  417TTP    C33 8420   3.176   3.332   0.420  0.0000  0.0000  0.0000
  417TTP    C34 8421   3.269   3.309   0.541  0.0000  0.0000  0.0000
  417TTP    C35 8422   3.210   3.238   0.666  0.0000  0.0000  0.0000
  417TTP    C36 8423   3.305   3.144   0.747  0.0000  0.0000  0.0000
  417TTP    C37 8424   3.424   3.208   0.824  0.0000  0.0000  0.0000
  417TTP    C38 8425   3.505   3.340   0.836  0.0000  0.0000  0.0000
  417TTP    C39 8426   3.587   3.390   0.713  0.0000  0.0000  0.0000
  417TTP    C40 8427   3.646   3.288   0.613  0.0000  0.0000  0.0000
  417TTP    C41 8428   3.633   3.314   0.460  0.0000  0.0000  0.0000
  417TTP    C42 8429   3.651   3.193   0.365  0.0000  0.0000  0.0000
  418TTP     S1 8430   2.840   4.337  -0.237  0.0000  0.0000  0.0000
  418TTP     S5 8431   2.638   4.134  -0.545  0.0000  0.0000  0.0000
  418TTP     C1 8432   2.607   4.307  -0.567  0.0000  0.0000  0.0000
  418TTP     C2 8433   2.672   4.381  -0.466  0.0000  0.0000  0.0000
  418TTP     C3 8434   2.749   4.301  -0.382  0.0000  0.0000  0.0000
  418TTP     C4 8435   2.863   4.165  -0.216  0.0000  0.0000  0.0000
  418TTP    C17 8436   2.809   4.090  -0.320  0.0000  0.0000  0.0000
  418TTP    C18 8437   2.739   4.167  -0.415  0.0000  0.0000  0.0000
  418TTP    C32 8438   2.679   4.535  -0.459  0.0000  0.0000  0.0000
  418TTP    C33 8439   2.785   4.602  -0.553  0.0000  0.0000  0.0000
  418TTP    C34 8440   2.791   4.757  -0.537  0.0000  0.0000  0.0000
  418TTP    C35 8441   2.900   4.807  -0.635  0.0000  0.0000  0.0000
  418TTP    C36 8442   2.884   4.961  -0.641  0.0000  0.0000  0.0000
  418TTP    C37 8443   2.917   4.999  -0.493  0.0000  0.0000  0.0000
  418TTP    C38 8444   2.923   5.153  -0.464  0.0000  0.0000  0.0000
  418TTP    C39 8445   2.985   5.204  -0.332  0.0000  0.0000  0.0000
  418TTP    C40 8446   2.894   5.272  -0.225  0.0000  0.0000  0.0000
  418TTP    C41 8447   2.819   5.403  -0.259  0.0000  0.0000  0.0000
  418TTP    C42 8448   2.797   5.510  -0.150  0.0000  0.0000  0.0000
  419FIC     F1 8449   3.113   2.659  -0.442  0.0000  0.0000  0.0000
  419FIC     F2 8450   3.222   2.505  -0.250  0.0000  0.0000  0.0000
  419FIC     O1 8451   3.059   3.118  -0.181  0.0000  0.0000  0.0000
  419FIC     N5 8452   3.375   2.618   0.195  0.0000  0.0000  0.0000
  419FIC     N6 8453   3.327   2.999   0.374  0.0000  0.0000  0.0000
  419FIC    C19 8454   3.187   3.149   0.092  0.0000  0.0000  0.0000
  419FIC    C20 8455   3.178   3.038   0.011  0.0000  0.0000  0.0000
  419FIC    C21 8456   3.115   3.030  -0.116  0.0000  0.0000  0.0000
  419FIC    C22 8457   3.140   2.896  -0.170  0.0000  0.0000  0.0000
  419FIC    C23 8458   3.110   2.846  -0.301  0.0000  0.0000  0.0000
  419FIC    C24 8459   3.139   2.717  -0.325  0.0000  0.0000  0.0000
  419FIC    C25 8460   3.199   2.638  -0.216  0.0000  0.0000  0.0000
  419FIC    C26 8461   3.235   2.683  -0.099  0.0000  0.0000  0.0000
  419FIC    C27 8462   3.200   2.818  -0.071  0.0000  0.0000  0.0000
  419FIC    C28 8463   3.224   2.904   0.045  0.0000  0.0000  0.0000
  419FIC    C29 8464   3.284   2.861   0.161  0.0000  0.0000  0.0000
  419FIC    C30 8465   3.332   2.718   0.174  0.0000  0.0000  0.0000
  419FIC    C31 8466   3.301   2.939   0.280  0.0000  0.0000  0.0000
  420FIC     F1 8467   2.151   3.984  -1.158  0.0000  0.0000  0.0000
  420FIC     F2 8468   2.104   4.227  -1.239  0.0000  0.0000  0.0000
  420FIC     O1 8469   2.463   4.078  -0.736  0.0000  0.0000  0.0000
  420FIC     N5 8470   2.281   4.647  -1.089  0.0000  0.0000  0.0000
  420FIC     N6 8471   2.471   4.702  -0.711  0.0000  0.0000  0.0000
  420FIC    C19 8472   2.531   4.365  -0.668  0.0000  0.0000  0.0000
  420FIC    C20 8473   2.451   4.319  -0.767  0.0000  0.0000  0.0000
  420FIC    C21 8474   2.420   4.172  -0.800  0.0000  0.0000  0.0000
  420FIC    C22 8475   2.341   4.170  -0.915  0.0000  0.0000  0.0000
  420FIC    C23 8476   2.284   4.060  -0.982  0.0000  0.0000  0.0000
  420FIC    C24 8477   2.208   4.077  -1.091  0.0000  0.0000  0.0000
  420FIC    C25 8478   2.179   4.206  -1.134  0.0000  0.0000  0.0000
  420FIC    C26 8479   2.235   4.325  -1.075  0.0000  0.0000  0.0000
  420FIC    C27 8480   2.318   4.303  -0.963  0.0000  0.0000  0.0000
  420FIC    C28 8481   2.384   4.393  -0.870  0.0000  0.0000  0.0000
  420FIC    C29 8482   2.380   4.532  -0.882  0.0000  0.0000  0.0000
  420FIC    C30 8483   2.323   4.597  -1.001  0.0000  0.0000  0.0000
  420FIC    C31 8484   2.436   4.626  -0.789  0.0000  0.0000  0.0000
  421BTD     S2 8485   1.853  10.276  -1.196  0.0000  0.0000  0.0000
  421BTD     N1 8486   1.867  10.441  -1.192  0.0000  0.0000  0.0000
  421BTD     N2 8487   1.918  10.237  -1.054  0.0000  0.0000  0.0000
  421BTD     N3 8488   2.120  10.484  -0.704  0.0000  0.0000  0.0000
  421BTD     N4 8489   2.063  10.755  -0.897  0.0000  0.0000  0.0000
  421BTD     C5 8490   1.963  10.596  -1.035  0.0000  0.0000  0.0000
  421BTD     C6 8491   1.923  10.468  -1.079  0.0000  0.0000  0.0000
  421BTD     C7 8492   1.952  10.354  -0.999  0.0000  0.0000  0.0000
  421BTD     C8 8493   2.018  10.371  -0.875  0.0000  0.0000  0.0000
  421BTD    C15 8494   2.054  10.498  -0.825  0.0000  0.0000  0.0000
  421BTD    C16 8495   2.036  10.620  -0.910  0.0000  0.0000  0.0000
  421BTD    C43 8496   2.167  10.821  -0.820  0.0000  0.0000  0.0000
  421BTD    C44 8497   2.309  10.769  -0.856  0.0000  0.0000  0.0000
  421BTD    C45 8498   2.347  10.744  -1.006  0.0000  0.0000  0.0000
  421BTD    C46 8499   2.352  10.875  -1.087  0.0000  0.0000  0.0000
  421BTD    C47 8500   2.424  10.849  -0.790  0.0000  0.0000  0.0000
  421BTD    C48 8501   2.442  10.843  -0.637  0.0000  0.0000  0.0000
  421BTD    C49 8502   2.530  10.949  -0.565  0.0000  0.0000  0.0000
  421BTD    C50 8503   2.510  10.973  -0.413  0.0000  0.0000  0.0000
  421BTD    C75 8504   2.131  10.582  -0.586  0.0000  0.0000  0.0000
  421BTD    C76 8505   1.993  10.645  -0.551  0.0000  0.0000  0.0000
  421BTD    C77 8506   1.995  10.731  -0.422  0.0000  0.0000  0.0000
  421BTD    C78 8507   2.139  10.700  -0.376  0.0000  0.0000  0.0000
  421BTD    C79 8508   1.872  10.551  -0.532  0.0000  0.0000  0.0000
  421BTD    C80 8509   1.893  10.420  -0.453  0.0000  0.0000  0.0000
  421BTD    C81 8510   1.797  10.300  -0.478  0.0000  0.0000  0.0000
  421BTD    C82 8511   1.666  10.296  -0.394  0.0000  0.0000  0.0000
  422TTP     S1 8512   1.888  10.796  -1.234  0.0000  0.0000  0.0000
  422TTP     S5 8513   2.071  11.103  -1.016  0.0000  0.0000  0.0000
  422TTP     C1 8514   2.011  11.173  -1.162  0.0000  0.0000  0.0000
  422TTP     C2 8515   1.951  11.081  -1.239  0.0000  0.0000  0.0000
  422TTP     C3 8516   1.949  10.951  -1.188  0.0000  0.0000  0.0000
  422TTP     C4 8517   1.953  10.725  -1.092  0.0000  0.0000  0.0000
  422TTP    C17 8518   2.014  10.817  -1.008  0.0000  0.0000  0.0000
  422TTP    C18 8519   2.015  10.949  -1.060  0.0000  0.0000  0.0000
  422TTP    C32 8520   1.893  11.106  -1.381  0.0000  0.0000  0.0000
  422TTP    C33 8521   1.740  11.091  -1.403  0.0000  0.0000  0.0000
  422TTP    C34 8522   1.682  11.126  -1.543  0.0000  0.0000  0.0000
  422TTP    C35 8523   1.530  11.120  -1.514  0.0000  0.0000  0.0000
  422TTP    C36 8524   1.483  11.266  -1.489  0.0000  0.0000  0.0000
  422TTP    C37 8525   1.552  11.380  -1.572  0.0000  0.0000  0.0000
  422TTP    C38 8526   1.467  11.499  -1.623  0.0000  0.0000  0.0000
  422TTP    C39 8527   1.577  11.544  -1.721  0.0000  0.0000  0.0000
  422TTP    C40 8528   1.533  11.586  -1.865  0.0000  0.0000  0.0000
  422TTP    C41 8529   1.614  11.694  -1.943  0.0000  0.0000  0.0000
  422TTP    C42 8530   1.551  11.759  -2.069  0.0000  0.0000  0.0000
  423TTP     S1 8531   2.052  10.105  -0.750  0.0000  0.0000  0.0000
  423TTP     S5 8532   2.274  10.281  -0.440  0.0000  0.0000  0.0000
  423TTP     C1 8533   2.280  10.105  -0.422  0.0000  0.0000  0.0000
  423TTP     C2 8534   2.209  10.040  -0.518  0.0000  0.0000  0.0000
  423TTP     C3 8535   2.148  10.128  -0.607  0.0000  0.0000  0.0000
  423TTP     C4 8536   2.054  10.276  -0.776  0.0000  0.0000  0.0000
  423TTP    C17 8537   2.117  10.347  -0.674  0.0000  0.0000  0.0000
  423TTP    C18 8538   2.175  10.263  -0.578  0.0000  0.0000  0.0000
  423TTP    C32 8539   2.190   9.886  -0.528  0.0000  0.0000  0.0000
  423TTP    C33 8540   2.073   9.833  -0.440  0.0000  0.0000  0.0000
  423TTP    C34 8541   2.055   9.680  -0.445  0.0000  0.0000  0.0000
  423TTP    C35 8542   2.026   9.637  -0.591  0.0000  0.0000  0.0000
  423TTP    C36 8543   2.013   9.486  -0.624  0.0000  0.0000  0.0000
  423TTP    C37 8544   2.136   9.393  -0.609  0.0000  0.0000  0.0000
  423TTP    C38 8545   2.050   9.266  -0.638  0.0000  0.0000  0.0000
  423TTP    C39 8546   2.143   9.165  -0.566  0.0000  0.0000  0.0000
  423TTP    C40 8547   2.150   9.168  -0.411  0.0000  0.0000  0.0000
  423TTP    C41 8548   2.256   9.255  -0.339  0.0000  0.0000  0.0000
  423TTP    C42 8549   2.222   9.398  -0.290  0.0000  0.0000  0.0000
  424FIC     F1 8550   2.344  11.822  -0.789  0.0000  0.0000  0.0000
  424FIC     F2 8551   2.303  11.957  -1.018  0.0000  0.0000  0.0000
  424FIC     O1 8552   2.134  11.346  -0.926  0.0000  0.0000  0.0000
  424FIC     N5 8553   2.095  11.829  -1.428  0.0000  0.0000  0.0000
  424FIC     N6 8554   1.923  11.432  -1.516  0.0000  0.0000  0.0000
  424FIC    C19 8555   2.028  11.307  -1.204  0.0000  0.0000  0.0000
  424FIC    C20 8556   2.080  11.421  -1.152  0.0000  0.0000  0.0000
  424FIC    C21 8557   2.135  11.432  -1.018  0.0000  0.0000  0.0000
  424FIC    C22 8558   2.182  11.571  -1.002  0.0000  0.0000  0.0000
  424FIC    C23 8559   2.243  11.625  -0.885  0.0000  0.0000  0.0000
  424FIC    C24 8560   2.284  11.759  -0.907  0.0000  0.0000  0.0000
  424FIC    C25 8561   2.265  11.826  -1.019  0.0000  0.0000  0.0000
  424FIC    C26 8562   2.207  11.772  -1.124  0.0000  0.0000  0.0000
  424FIC    C27 8563   2.164  11.644  -1.111  0.0000  0.0000  0.0000
  424FIC    C28 8564   2.096  11.553  -1.211  0.0000  0.0000  0.0000
  424FIC    C29 8565   2.054  11.581  -1.353  0.0000  0.0000  0.0000
  424FIC    C30 8566   2.075  11.725  -1.392  0.0000  0.0000  0.0000
  424FIC    C31 8567   1.988  11.495  -1.448  0.0000  0.0000  0.0000
  425FIC     F1 8568   2.738  10.378   0.191  0.0000  0.0000  0.0000
  425FIC     F2 8569   2.793  10.126   0.253  0.0000  0.0000  0.0000
  425FIC     O1 8570   2.418  10.314  -0.226  0.0000  0.0000  0.0000
  425FIC     N5 8571   2.644   9.712   0.047  0.0000  0.0000  0.0000
  425FIC     N6 8572   2.449   9.696  -0.326  0.0000  0.0000  0.0000
  425FIC    C19 8573   2.356  10.035  -0.324  0.0000  0.0000  0.0000
  425FIC    C20 8574   2.438  10.072  -0.222  0.0000  0.0000  0.0000
  425FIC    C21 8575   2.463  10.212  -0.180  0.0000  0.0000  0.0000
  425FIC    C22 8576   2.547  10.204  -0.060  0.0000  0.0000  0.0000
  425FIC    C23 8577   2.600  10.310   0.013  0.0000  0.0000  0.0000
  425FIC    C24 8578   2.675  10.280   0.118  0.0000  0.0000  0.0000
  425FIC    C25 8579   2.708  10.147   0.150  0.0000  0.0000  0.0000
  425FIC    C26 8580   2.659  10.043   0.076  0.0000  0.0000  0.0000
  425FIC    C27 8581   2.578  10.072  -0.028  0.0000  0.0000  0.0000
  425FIC    C28 8582   2.513   9.986  -0.133  0.0000  0.0000  0.0000
  425FIC    C29 8583   2.527   9.848  -0.137  0.0000  0.0000  0.0000
  425FIC    C30 8584   2.591   9.774  -0.036  0.0000  0.0000  0.0000
  425FIC    C31 8585   2.482   9.766  -0.246  0.0000  0.0000  0.0000
  426BTD     S2 8586   2.980  10.268   1.199  0.0000  0.0000  0.0000
  426BTD     N1 8587   2.990  10.429   1.188  0.0000  0.0000  0.0000
  426BTD     N2 8588   2.901  10.237   1.061  0.0000  0.0000  0.0000
  426BTD     N3 8589   2.731  10.499   0.700  0.0000  0.0000  0.0000
  426BTD     N4 8590   2.845  10.759   0.877  0.0000  0.0000  0.0000
  426BTD     C5 8591   2.915  10.595   1.019  0.0000  0.0000  0.0000
  426BTD     C6 8592   2.932  10.464   1.075  0.0000  0.0000  0.0000
  426BTD     C7 8593   2.881  10.354   1.001  0.0000  0.0000  0.0000
  426BTD     C8 8594   2.819  10.375   0.877  0.0000  0.0000  0.0000
  426BTD    C15 8595   2.800  10.508   0.824  0.0000  0.0000  0.0000
  426BTD    C16 8596   2.848  10.619   0.900  0.0000  0.0000  0.0000
  426BTD    C43 8597   2.756  10.836   0.789  0.0000  0.0000  0.0000
  426BTD    C44 8598   2.604  10.826   0.819  0.0000  0.0000  0.0000
  426BTD    C45 8599   2.531  10.925   0.724  0.0000  0.0000  0.0000
  426BTD    C46 8600   2.381  10.883   0.726  0.0000  0.0000  0.0000
  426BTD    C47 8601   2.571  10.852   0.968  0.0000  0.0000  0.0000
  426BTD    C48 8602   2.556  10.993   1.032  0.0000  0.0000  0.0000
  426BTD    C49 8603   2.542  10.962   1.183  0.0000  0.0000  0.0000
  426BTD    C50 8604   2.446  10.916   1.296  0.0000  0.0000  0.0000
  426BTD    C75 8605   2.745  10.586   0.583  0.0000  0.0000  0.0000
  426BTD    C76 8606   2.893  10.616   0.548  0.0000  0.0000  0.0000
  426BTD    C77 8607   2.902  10.704   0.421  0.0000  0.0000  0.0000
  426BTD    C78 8608   3.043  10.758   0.385  0.0000  0.0000  0.0000
  426BTD    C79 8609   2.979  10.489   0.527  0.0000  0.0000  0.0000
  426BTD    C80 8610   2.951  10.401   0.403  0.0000  0.0000  0.0000
  426BTD    C81 8611   3.043  10.275   0.409  0.0000  0.0000  0.0000
  426BTD    C82 8612   3.012  10.150   0.496  0.0000  0.0000  0.0000
  427TTP     S1 8613   3.041  10.785   1.205  0.0000  0.0000  0.0000
  427TTP     S5 8614   2.943  11.103   0.949  0.0000  0.0000  0.0000
  427TTP     C1 8615   3.039  11.167   1.080  0.0000  0.0000  0.0000
  427TTP     C2 8616   3.077  11.069   1.169  0.0000  0.0000  0.0000
  427TTP     C3 8617   3.022  10.947   1.135  0.0000  0.0000  0.0000
  427TTP     C4 8618   2.957  10.724   1.074  0.0000  0.0000  0.0000
  427TTP    C17 8619   2.906  10.814   0.983  0.0000  0.0000  0.0000
  427TTP    C18 8620   2.950  10.949   1.023  0.0000  0.0000  0.0000
  427TTP    C32 8621   3.163  11.087   1.297  0.0000  0.0000  0.0000
  427TTP    C33 8622   3.072  11.121   1.418  0.0000  0.0000  0.0000
  427TTP    C34 8623   3.165  11.144   1.540  0.0000  0.0000  0.0000
  427TTP    C35 8624   3.107  11.214   1.664  0.0000  0.0000  0.0000
  427TTP    C36 8625   3.201  11.308   1.745  0.0000  0.0000  0.0000
  427TTP    C37 8626   3.321  11.244   1.822  0.0000  0.0000  0.0000
  427TTP    C38 8627   3.401  11.112   1.834  0.0000  0.0000  0.0000
  427TTP    C39 8628   3.483  11.062   1.712  0.0000  0.0000  0.0000
  427TTP    C40 8629   3.542  11.165   1.611  0.0000  0.0000  0.0000
  427TTP    C41 8630   3.529  11.138   1.458  0.0000  0.0000  0.0000
  427TTP    C42 8631   3.548  11.260   1.363  0.0000  0.0000  0.0000
  428TTP     S1 8632   2.737  10.116   0.762  0.0000  0.0000  0.0000
  428TTP     S5 8633   2.535  10.319   0.453  0.0000  0.0000  0.0000
  428TTP     C1 8634   2.504  10.146   0.432  0.0000  0.0000  0.0000
  428TTP     C2 8635   2.568  10.072   0.533  0.0000  0.0000  0.0000
  428TTP     C3 8636   2.645  10.152   0.617  0.0000  0.0000  0.0000
  428TTP     C4 8637   2.760  10.287   0.783  0.0000  0.0000  0.0000
  428TTP    C17 8638   2.706  10.362   0.679  0.0000  0.0000  0.0000
  428TTP    C18 8639   2.635  10.285   0.583  0.0000  0.0000  0.0000
  428TTP    C32 8640   2.576   9.917   0.539  0.0000  0.0000  0.0000
  428TTP    C33 8641   2.681   9.850   0.446  0.0000  0.0000  0.0000
  428TTP    C34 8642   2.688   9.696   0.461  0.0000  0.0000  0.0000
  428TTP    C35 8643   2.797   9.645   0.363  0.0000  0.0000  0.0000
  428TTP    C36 8644   2.781   9.491   0.358  0.0000  0.0000  0.0000
  428TTP    C37 8645   2.814   9.453   0.505  0.0000  0.0000  0.0000
  428TTP    C38 8646   2.819   9.299   0.535  0.0000  0.0000  0.0000
  428TTP    C39 8647   2.881   9.249   0.667  0.0000  0.0000  0.0000
  428TTP    C40 8648   2.790   9.181   0.774  0.0000  0.0000  0.0000
  428TTP    C41 8649   2.715   9.050   0.739  0.0000  0.0000  0.0000
  428TTP    C42 8650   2.693   8.942   0.848  0.0000  0.0000  0.0000
  429FIC     F1 8651   3.010  11.793   0.557  0.0000  0.0000  0.0000
  429FIC     F2 8652   3.119  11.947   0.748  0.0000  0.0000  0.0000
  429FIC     O1 8653   2.955  11.334   0.817  0.0000  0.0000  0.0000
  429FIC     N5 8654   3.271  11.835   1.193  0.0000  0.0000  0.0000
  429FIC     N6 8655   3.223  11.454   1.372  0.0000  0.0000  0.0000
  429FIC    C19 8656   3.083  11.304   1.090  0.0000  0.0000  0.0000
  429FIC    C20 8657   3.074  11.415   1.010  0.0000  0.0000  0.0000
  429FIC    C21 8658   3.012  11.422   0.882  0.0000  0.0000  0.0000
  429FIC    C22 8659   3.036  11.557   0.828  0.0000  0.0000  0.0000
  429FIC    C23 8660   3.007  11.606   0.698  0.0000  0.0000  0.0000
  429FIC    C24 8661   3.035  11.735   0.673  0.0000  0.0000  0.0000
  429FIC    C25 8662   3.095  11.814   0.783  0.0000  0.0000  0.0000
  429FIC    C26 8663   3.131  11.770   0.899  0.0000  0.0000  0.0000
  429FIC    C27 8664   3.096  11.635   0.927  0.0000  0.0000  0.0000
  429FIC    C28 8665   3.120  11.548   1.043  0.0000  0.0000  0.0000
  429FIC    C29 8666   3.180  11.591   1.160  0.0000  0.0000  0.0000
  429FIC    C30 8667   3.228  11.735   1.172  0.0000  0.0000  0.0000
  429FIC    C31 8668   3.198  11.514   1.279  0.0000  0.0000  0.0000
  430FIC     F1 8669   2.047  10.468  -0.160  0.0000  0.0000  0.0000
  430FIC     F2 8670   2.000  10.226  -0.241  0.0000  0.0000  0.0000
  430FIC     O1 8671   2.359  10.374   0.263  0.0000  0.0000  0.0000
  430FIC     N5 8672   2.177   9.805  -0.091  0.0000  0.0000  0.0000
  430FIC     N6 8673   2.368   9.750   0.287  0.0000  0.0000  0.0000
  430FIC    C19 8674   2.427  10.088   0.330  0.0000  0.0000  0.0000
  430FIC    C20 8675   2.348  10.134   0.231  0.0000  0.0000  0.0000
  430FIC    C21 8676   2.316  10.280   0.199  0.0000  0.0000  0.0000
  430FIC    C22 8677   2.237  10.282   0.083  0.0000  0.0000  0.0000
  430FIC    C23 8678   2.181  10.393   0.017  0.0000  0.0000  0.0000
  430FIC    C24 8679   2.105  10.376  -0.093  0.0000  0.0000  0.0000
  430FIC    C25 8680   2.076  10.247  -0.135  0.0000  0.0000  0.0000
  430FIC    C26 8681   2.131  10.128  -0.077  0.0000  0.0000  0.0000
  430FIC    C27 8682   2.214  10.149   0.036  0.0000  0.0000  0.0000
  430FIC    C28 8683   2.281  10.060   0.128  0.0000  0.0000  0.0000
  430FIC    C29 8684   2.276   9.920   0.116  0.0000  0.0000  0.0000
  430FIC    C30 8685   2.219   9.856  -0.003  0.0000  0.0000  0.0000
  430FIC    C31 8686   2.332   9.826   0.209  0.0000  0.0000  0.0000
  431BTD     S2 8687   4.193   1.286   1.196  0.0000  0.0000  0.0000
  431BTD     N1 8688   4.179   1.121   1.192  0.0000  0.0000  0.0000
  431BTD     N2 8689   4.128   1.325   1.054  0.0000  0.0000  0.0000
  431BTD     N3 8690   3.926   1.078   0.704  0.0000  0.0000  0.0000
  431BTD     N4 8691   3.983   0.807   0.897  0.0000  0.0000  0.0000
  431BTD     C5 8692   4.083   0.966   1.035  0.0000  0.0000  0.0000
  431BTD     C6 8693   4.123   1.094   1.079  0.0000  0.0000  0.0000
  431BTD     C7 8694   4.094   1.208   0.999  0.0000  0.0000  0.0000
  431BTD     C8 8695   4.028   1.191   0.875  0.0000  0.0000  0.0000
  431BTD    C15 8696   3.992   1.064   0.825  0.0000  0.0000  0.0000
  431BTD    C16 8697   4.010   0.942   0.910  0.0000  0.0000  0.0000
  431BTD    C43 8698   3.879   0.741   0.820  0.0000  0.0000  0.0000
  431BTD    C44 8699   3.737   0.793   0.856  0.0000  0.0000  0.0000
  431BTD    C45 8700   3.699   0.818   1.006  0.0000  0.0000  0.0000
  431BTD    C46 8701   3.694   0.687   1.087  0.0000  0.0000  0.0000
  431BTD    C47 8702   3.622   0.713   0.790  0.0000  0.0000  0.0000
  431BTD    C48 8703   3.604   0.719   0.637  0.0000  0.0000  0.0000
  431BTD    C49 8704   3.516   0.613   0.565  0.0000  0.0000  0.0000
  431BTD    C50 8705   3.536   0.589   0.413  0.0000  0.0000  0.0000
  431BTD    C75 8706   3.915   0.980   0.586  0.0000  0.0000  0.0000
  431BTD    C76 8707   4.053   0.917   0.551  0.0000  0.0000  0.0000
  431BTD    C77 8708   4.051   0.831   0.422  0.0000  0.0000  0.0000
  431BTD    C78 8709   3.907   0.862   0.376  0.0000  0.0000  0.0000
  431BTD    C79 8710   4.174   1.011   0.532  0.0000  0.0000  0.0000
  431BTD    C80 8711   4.153   1.142   0.453  0.0000  0.0000  0.0000
  431BTD    C81 8712   4.249   1.262   0.478  0.0000  0.0000  0.0000
  431BTD    C82 8713   4.380   1.266   0.394  0.0000  0.0000  0.0000
  432TTP     S1 8714   4.158   0.766   1.234  0.0000  0.0000  0.0000
  432TTP     S5 8715   3.975   0.459   1.016  0.0000  0.0000  0.0000
  432TTP     C1 8716   4.035   0.389   1.162  0.0000  0.0000  0.0000
  432TTP     C2 8717   4.095   0.481   1.239  0.0000  0.0000  0.0000
  432TTP     C3 8718   4.097   0.611   1.188  0.0000  0.0000  0.0000
  432TTP     C4 8719   4.093   0.837   1.092  0.0000  0.0000  0.0000
  432TTP    C17 8720   4.032   0.745   1.008  0.0000  0.0000  0.0000
  432TTP    C18 8721   4.031   0.613   1.060  0.0000  0.0000  0.0000
  432TTP    C32 8722   4.153   0.456   1.381  0.0000  0.0000  0.0000
  432TTP    C33 8723   4.306   0.471   1.403  0.0000  0.0000  0.0000
  432TTP    C34 8724   4.364   0.436   1.543  0.0000  0.0000  0.0000
  432TTP    C35 8725   4.516   0.442   1.514  0.0000  0.0000  0.0000
  432TTP    C36 8726   4.563   0.296   1.489  0.0000  0.0000  0.0000
  432TTP    C37 8727   4.494   0.182   1.572  0.0000  0.0000  0.0000
  432TTP    C38 8728   4.579   0.063   1.623  0.0000  0.0000  0.0000
  432TTP    C39 8729   4.469   0.018   1.721  0.0000  0.0000  0.0000
  432TTP    C40 8730   4.513  -0.024   1.865  0.0000  0.0000  0.0000
  432TTP    C41 8731   4.432  -0.132   1.943  0.0000  0.0000  0.0000
  432TTP    C42 8732   4.495  -0.197   2.069  0.0000  0.0000  0.0000
  433TTP     S1 8733   3.994   1.457   0.750  0.0000  0.0000  0.0000
  433TTP     S5 8734   3.772   1.281   0.440  0.0000  0.0000  0.0000
  433TTP     C1 8735   3.766   1.457   0.422  0.0000  0.0000  0.0000
  433TTP     C2 8736   3.837   1.522   0.518  0.0000  0.0000  0.0000
  433TTP     C3 8737   3.898   1.434   0.607  0.0000  0.0000  0.0000
  433TTP     C4 8738   3.992   1.286   0.776  0.0000  0.0000  0.0000
  433TTP    C17 8739   3.929   1.215   0.674  0.0000  0.0000  0.0000
  433TTP    C18 8740   3.871   1.299   0.578  0.0000  0.0000  0.0000
  433TTP    C32 8741   3.856   1.676   0.528  0.0000  0.0000  0.0000
  433TTP    C33 8742   3.973   1.729   0.440  0.0000  0.0000  0.0000
  433TTP    C34 8743   3.991   1.882   0.445  0.0000  0.0000  0.0000
  433TTP    C35 8744   4.020   1.925   0.591  0.0000  0.0000  0.0000
  433TTP    C36 8745   4.033   2.076   0.624  0.0000  0.0000  0.0000
  433TTP    C37 8746   3.910   2.169   0.609  0.0000  0.0000  0.0000
  433TTP    C38 8747   3.996   2.296   0.638  0.0000  0.0000  0.0000
  433TTP    C39 8748   3.903   2.397   0.566  0.0000  0.0000  0.0000
  433TTP    C40 8749   3.896   2.394   0.411  0.0000  0.0000  0.0000
  433TTP    C41 8750   3.790   2.307   0.339  0.0000  0.0000  0.0000
  433TTP    C42 8751   3.824   2.164   0.290  0.0000  0.0000  0.0000
  434FIC     F1 8752   3.702  -0.260   0.789  0.0000  0.0000  0.0000
  434FIC     F2 8753   3.743  -0.395   1.018  0.0000  0.0000  0.0000
  434FIC     O1 8754   3.912   0.216   0.926  0.0000  0.0000  0.0000
  434FIC     N5 8755   3.951  -0.267   1.428  0.0000  0.0000  0.0000
  434FIC     N6 8756   4.123   0.130   1.516  0.0000  0.0000  0.0000
  434FIC    C19 8757   4.018   0.255   1.204  0.0000  0.0000  0.0000
  434FIC    C20 8758   3.966   0.141   1.152  0.0000  0.0000  0.0000
  434FIC    C21 8759   3.911   0.130   1.018  0.0000  0.0000  0.0000
  434FIC    C22 8760   3.864  -0.009   1.002  0.0000  0.0000  0.0000
  434FIC    C23 8761   3.803  -0.063   0.885  0.0000  0.0000  0.0000
  434FIC    C24 8762   3.762  -0.197   0.907  0.0000  0.0000  0.0000
  434FIC    C25 8763   3.781  -0.264   1.019  0.0000  0.0000  0.0000
  434FIC    C26 8764   3.839  -0.210   1.124  0.0000  0.0000  0.0000
  434FIC    C27 8765   3.882  -0.082   1.111  0.0000  0.0000  0.0000
  434FIC    C28 8766   3.950   0.009   1.211  0.0000  0.0000  0.0000
  434FIC    C29 8767   3.992  -0.019   1.353  0.0000  0.0000  0.0000
  434FIC    C30 8768   3.971  -0.163   1.392  0.0000  0.0000  0.0000
  434FIC    C31 8769   4.058   0.067   1.448  0.0000  0.0000  0.0000
  435FIC     F1 8770   3.308   1.184  -0.191  0.0000  0.0000  0.0000
  435FIC     F2 8771   3.253   1.436  -0.253  0.0000  0.0000  0.0000
  435FIC     O1 8772   3.628   1.248   0.226  0.0000  0.0000  0.0000
  435FIC     N5 8773   3.402   1.850  -0.047  0.0000  0.0000  0.0000
  435FIC     N6 8774   3.597   1.866   0.326  0.0000  0.0000  0.0000
  435FIC    C19 8775   3.690   1.527   0.324  0.0000  0.0000  0.0000
  435FIC    C20 8776   3.608   1.490   0.222  0.0000  0.0000  0.0000
  435FIC    C21 8777   3.583   1.350   0.180  0.0000  0.0000  0.0000
  435FIC    C22 8778   3.499   1.358   0.060  0.0000  0.0000  0.0000
  435FIC    C23 8779   3.446   1.252  -0.013  0.0000  0.0000  0.0000
  435FIC    C24 8780   3.371   1.282  -0.118  0.0000  0.0000  0.0000
  435FIC    C25 8781   3.338   1.415  -0.150  0.0000  0.0000  0.0000
  435FIC    C26 8782   3.387   1.519  -0.076  0.0000  0.0000  0.0000
  435FIC    C27 8783   3.468   1.490   0.028  0.0000  0.0000  0.0000
  435FIC    C28 8784   3.533   1.576   0.133  0.0000  0.0000  0.0000
  435FIC    C29 8785   3.519   1.714   0.137  0.0000  0.0000  0.0000
  435FIC    C30 8786   3.455   1.788   0.036  0.0000  0.0000  0.0000
  435FIC    C31 8787   3.564   1.796   0.246  0.0000  0.0000  0.0000
  436BTD     S2 8788   3.066   1.294  -1.199  0.0000  0.0000  0.0000
  436BTD     N1 8789   3.056   1.133  -1.188  0.0000  0.0000  0.0000
  436BTD     N2 8790   3.145   1.325  -1.061  0.0000  0.0000  0.0000
  436BTD     N3 8791   3.315   1.063  -0.700  0.0000  0.0000  0.0000
  436BTD     N4 8792   3.201   0.803  -0.877  0.0000  0.0000  0.0000
  436BTD     C5 8793   3.131   0.967  -1.019  0.0000  0.0000  0.0000
  436BTD     C6 8794   3.114   1.098  -1.075  0.0000  0.0000  0.0000
  436BTD     C7 8795   3.165   1.208  -1.001  0.0000  0.0000  0.0000
  436BTD     C8 8796   3.227   1.187  -0.877  0.0000  0.0000  0.0000
  436BTD    C15 8797   3.246   1.054  -0.824  0.0000  0.0000  0.0000
  436BTD    C16 8798   3.198   0.943  -0.900  0.0000  0.0000  0.0000
  436BTD    C43 8799   3.290   0.726  -0.789  0.0000  0.0000  0.0000
  436BTD    C44 8800   3.442   0.736  -0.819  0.0000  0.0000  0.0000
  436BTD    C45 8801   3.515   0.637  -0.724  0.0000  0.0000  0.0000
  436BTD    C46 8802   3.665   0.679  -0.726  0.0000  0.0000  0.0000
  436BTD    C47 8803   3.475   0.710  -0.968  0.0000  0.0000  0.0000
  436BTD    C48 8804   3.490   0.569  -1.032  0.0000  0.0000  0.0000
  436BTD    C49 8805   3.504   0.600  -1.183  0.0000  0.0000  0.0000
  436BTD    C50 8806   3.600   0.646  -1.296  0.0000  0.0000  0.0000
  436BTD    C75 8807   3.301   0.976  -0.583  0.0000  0.0000  0.0000
  436BTD    C76 8808   3.153   0.946  -0.548  0.0000  0.0000  0.0000
  436BTD    C77 8809   3.144   0.858  -0.421  0.0000  0.0000  0.0000
  436BTD    C78 8810   3.003   0.804  -0.385  0.0000  0.0000  0.0000
  436BTD    C79 8811   3.067   1.073  -0.527  0.0000  0.0000  0.0000
  436BTD    C80 8812   3.095   1.161  -0.403  0.0000  0.0000  0.0000
  436BTD    C81 8813   3.003   1.287  -0.409  0.0000  0.0000  0.0000
  436BTD    C82 8814   3.034   1.412  -0.496  0.0000  0.0000  0.0000
  437TTP     S1 8815   3.005   0.777  -1.205  0.0000  0.0000  0.0000
  437TTP     S5 8816   3.103   0.459  -0.949  0.0000  0.0000  0.0000
  437TTP     C1 8817   3.007   0.395  -1.080  0.0000  0.0000  0.0000
  437TTP     C2 8818   2.969   0.493  -1.169  0.0000  0.0000  0.0000
  437TTP     C3 8819   3.024   0.615  -1.135  0.0000  0.0000  0.0000
  437TTP     C4 8820   3.089   0.838  -1.074  0.0000  0.0000  0.0000
  437TTP    C17 8821   3.140   0.748  -0.983  0.0000  0.0000  0.0000
  437TTP    C18 8822   3.096   0.613  -1.023  0.0000  0.0000  0.0000
  437TTP    C32 8823   2.883   0.475  -1.297  0.0000  0.0000  0.0000
  437TTP    C33 8824   2.974   0.441  -1.418  0.0000  0.0000  0.0000
  437TTP    C34 8825   2.881   0.418  -1.540  0.0000  0.0000  0.0000
  437TTP    C35 8826   2.939   0.348  -1.664  0.0000  0.0000  0.0000
  437TTP    C36 8827   2.845   0.254  -1.745  0.0000  0.0000  0.0000
  437TTP    C37 8828   2.725   0.318  -1.822  0.0000  0.0000  0.0000
  437TTP    C38 8829   2.645   0.450  -1.834  0.0000  0.0000  0.0000
  437TTP    C39 8830   2.563   0.500  -1.712  0.0000  0.0000  0.0000
  437TTP    C40 8831   2.504   0.397  -1.611  0.0000  0.0000  0.0000
  437TTP    C41 8832   2.517   0.424  -1.458  0.0000  0.0000  0.0000
  437TTP    C42 8833   2.498   0.302  -1.363  0.0000  0.0000  0.0000
  438TTP     S1 8834   3.309   1.446  -0.762  0.0000  0.0000  0.0000
  438TTP     S5 8835   3.511   1.243  -0.453  0.0000  0.0000  0.0000
  438TTP     C1 8836   3.542   1.416  -0.432  0.0000  0.0000  0.0000
  438TTP     C2 8837   3.478   1.490  -0.533  0.0000  0.0000  0.0000
  438TTP     C3 8838   3.401   1.410  -0.617  0.0000  0.0000  0.0000
  438TTP     C4 8839   3.286   1.275  -0.783  0.0000  0.0000  0.0000
  438TTP    C17 8840   3.340   1.200  -0.679  0.0000  0.0000  0.0000
  438TTP    C18 8841   3.411   1.277  -0.583  0.0000  0.0000  0.0000
  438TTP    C32 8842   3.470   1.645  -0.539  0.0000  0.0000  0.0000
  438TTP    C33 8843   3.365   1.712  -0.446  0.0000  0.0000  0.0000
  438TTP    C34 8844   3.358   1.866  -0.461  0.0000  0.0000  0.0000
  438TTP    C35 8845   3.249   1.917  -0.363  0.0000  0.0000  0.0000
  438TTP    C36 8846   3.265   2.071  -0.358  0.0000  0.0000  0.0000
  438TTP    C37 8847   3.232   2.109  -0.505  0.0000  0.0000  0.0000
  438TTP    C38 8848   3.227   2.263  -0.535  0.0000  0.0000  0.0000
  438TTP    C39 8849   3.165   2.313  -0.667  0.0000  0.0000  0.0000
  438TTP    C40 8850   3.256   2.381  -0.774  0.0000  0.0000  0.0000
  438TTP    C41 8851   3.331   2.512  -0.739  0.0000  0.0000  0.0000
  438TTP    C42 8852   3.353   2.620  -0.848  0.0000  0.0000  0.0000
  439FIC     F1 8853   3.036  -0.231  -0.557  0.0000  0.0000  0.0000
  439FIC     F2 8854   2.927  -0.385  -0.748  0.0000  0.0000  0.0000
  439FIC     O1 8855   3.091   0.228  -0.817  0.0000  0.0000  0.0000
  439FIC     N5 8856   2.775  -0.273  -1.193  0.0000  0.0000  0.0000
  439FIC     N6 8857   2.823   0.108  -1.372  0.0000  0.0000  0.0000
  439FIC    C19 8858   2.963   0.258  -1.090  0.0000  0.0000  0.0000
  439FIC    C20 8859   2.972   0.147  -1.010  0.0000  0.0000  0.0000
  439FIC    C21 8860   3.034   0.140  -0.882  0.0000  0.0000  0.0000
  439FIC    C22 8861   3.010   0.005  -0.828  0.0000  0.0000  0.0000
  439FIC    C23 8862   3.039  -0.044  -0.698  0.0000  0.0000  0.0000
  439FIC    C24 8863   3.011  -0.173  -0.673  0.0000  0.0000  0.0000
  439FIC    C25 8864   2.951  -0.252  -0.783  0.0000  0.0000  0.0000
  439FIC    C26 8865   2.915  -0.208  -0.899  0.0000  0.0000  0.0000
  439FIC    C27 8866   2.950  -0.073  -0.927  0.0000  0.0000  0.0000
  439FIC    C28 8867   2.926   0.014  -1.043  0.0000  0.0000  0.0000
  439FIC    C29 8868   2.866  -0.029  -1.160  0.0000  0.0000  0.0000
  439FIC    C30 8869   2.818  -0.173  -1.172  0.0000  0.0000  0.0000
  439FIC    C31 8870   2.848   0.048  -1.279  0.0000  0.0000  0.0000
  440FIC     F1 8871   3.999   1.094   0.160  0.0000  0.0000  0.0000
  440FIC     F2 8872   4.046   1.336   0.241  0.0000  0.0000  0.0000
  440FIC     O1 8873   3.687   1.188  -0.263  0.0000  0.0000  0.0000
  440FIC     N5 8874   3.869   1.757   0.091  0.0000  0.0000  0.0000
  440FIC     N6 8875   3.678   1.812  -0.287  0.0000  0.0000  0.0000
  440FIC    C19 8876   3.619   1.474  -0.330  0.0000  0.0000  0.0000
  440FIC    C20 8877   3.698   1.428  -0.231  0.0000  0.0000  0.0000
  440FIC    C21 8878   3.730   1.282  -0.199  0.0000  0.0000  0.0000
  440FIC    C22 8879   3.809   1.280  -0.083  0.0000  0.0000  0.0000
  440FIC    C23 8880   3.865   1.169  -0.017  0.0000  0.0000  0.0000
  440FIC    C24 8881   3.941   1.186   0.093  0.0000  0.0000  0.0000
  440FIC    C25 8882   3.970   1.315   0.135  0.0000  0.0000  0.0000
  440FIC    C26 8883   3.915   1.434   0.077  0.0000  0.0000  0.0000
  440FIC    C27 8884   3.832   1.413  -0.036  0.0000  0.0000  0.0000
  440FIC    C28 8885   3.765   1.502  -0.128  0.0000  0.0000  0.0000
  440FIC    C29 8886   3.770   1.642  -0.116  0.0000  0.0000  0.0000
  440FIC    C30 8887   3.827   1.706   0.003  0.0000  0.0000  0.0000
  440FIC    C31 8888   3.714   1.736  -0.209  0.0000  0.0000  0.0000
  441BTD     S2 8889   3.882   7.386   4.192  0.0000  0.0000  0.0000
  441BTD     N1 8890   3.869   7.550   4.187  0.0000  0.0000  0.0000
  441BTD     N2 8891   3.817   7.346   4.049  0.0000  0.0000  0.0000
  441BTD     N3 8892   3.616   7.593   3.700  0.0000  0.0000  0.0000
  441BTD     N4 8893   3.672   7.865   3.892  0.0000  0.0000  0.0000
  441BTD     C5 8894   3.773   7.706   4.031  0.0000  0.0000  0.0000
  441BTD     C6 8895   3.813   7.578   4.075  0.0000  0.0000  0.0000
  441BTD     C7 8896   3.784   7.463   3.995  0.0000  0.0000  0.0000
  441BTD     C8 8897   3.717   7.480   3.870  0.0000  0.0000  0.0000
  441BTD    C15 8898   3.681   7.608   3.820  0.0000  0.0000  0.0000
  441BTD    C16 8899   3.700   7.729   3.906  0.0000  0.0000  0.0000
  441BTD    C43 8900   3.569   7.930   3.815  0.0000  0.0000  0.0000
  441BTD    C44 8901   3.427   7.878   3.852  0.0000  0.0000  0.0000
  441BTD    C45 8902   3.389   7.853   4.001  0.0000  0.0000  0.0000
  441BTD    C46 8903   3.383   7.985   4.083  0.0000  0.0000  0.0000
  441BTD    C47 8904   3.311   7.958   3.786  0.0000  0.0000  0.0000
  441BTD    C48 8905   3.294   7.952   3.632  0.0000  0.0000  0.0000
  441BTD    C49 8906   3.205   8.058   3.560  0.0000  0.0000  0.0000
  441BTD    C50 8907   3.226   8.083   3.408  0.0000  0.0000  0.0000
  441BTD    C75 8908   3.604   7.691   3.581  0.0000  0.0000  0.0000
  441BTD    C76 8909   3.742   7.755   3.546  0.0000  0.0000  0.0000
  441BTD    C77 8910   3.741   7.841   3.417  0.0000  0.0000  0.0000
  441BTD    C78 8911   3.596   7.809   3.372  0.0000  0.0000  0.0000
  441BTD    C79 8912   3.863   7.661   3.528  0.0000  0.0000  0.0000
  441BTD    C80 8913   3.842   7.529   3.449  0.0000  0.0000  0.0000
  441BTD    C81 8914   3.938   7.410   3.473  0.0000  0.0000  0.0000
  441BTD    C82 8915   4.070   7.405   3.390  0.0000  0.0000  0.0000
  442TTP     S1 8916   3.848   7.905   4.230  0.0000  0.0000  0.0000
  442TTP     S5 8917   3.665   8.212   4.011  0.0000  0.0000  0.0000
  442TTP     C1 8918   3.724   8.282   4.157  0.0000  0.0000  0.0000
  442TTP     C2 8919   3.785   8.191   4.235  0.0000  0.0000  0.0000
  442TTP     C3 8920   3.787   8.060   4.183  0.0000  0.0000  0.0000
  442TTP     C4 8921   3.782   7.834   4.088  0.0000  0.0000  0.0000
  442TTP    C17 8922   3.722   7.926   4.003  0.0000  0.0000  0.0000
  442TTP    C18 8923   3.721   8.059   4.055  0.0000  0.0000  0.0000
  442TTP    C32 8924   3.843   8.215   4.376  0.0000  0.0000  0.0000
  442TTP    C33 8925   3.995   8.200   4.399  0.0000  0.0000  0.0000
  442TTP    C34 8926   4.053   8.235   4.538  0.0000  0.0000  0.0000
  442TTP    C35 8927   4.206   8.229   4.509  0.0000  0.0000  0.0000
  442TTP    C36 8928   4.252   8.376   4.485  0.0000  0.0000  0.0000
  442TTP    C37 8929   4.184   8.489   4.567  0.0000  0.0000  0.0000
  442TTP    C38 8930   4.268   8.609   4.619  0.0000  0.0000  0.0000
  442TTP    C39 8931   4.158   8.654   4.717  0.0000  0.0000  0.0000
  442TTP    C40 8932   4.203   8.695   4.861  0.0000  0.0000  0.0000
  442TTP    C41 8933   4.122   8.803   4.938  0.0000  0.0000  0.0000
  442TTP    C42 8934   4.184   8.869   5.064  0.0000  0.0000  0.0000
  443TTP     S1 8935   3.684   7.215   3.746  0.0000  0.0000  0.0000
  443TTP     S5 8936   3.462   7.390   3.435  0.0000  0.0000  0.0000
  443TTP     C1 8937   3.456   7.215   3.418  0.0000  0.0000  0.0000
  443TTP     C2 8938   3.527   7.150   3.514  0.0000  0.0000  0.0000
  443TTP     C3 8939   3.588   7.238   3.603  0.0000  0.0000  0.0000
  443TTP     C4 8940   3.682   7.385   3.772  0.0000  0.0000  0.0000
  443TTP    C17 8941   3.619   7.457   3.669  0.0000  0.0000  0.0000
  443TTP    C18 8942   3.560   7.372   3.574  0.0000  0.0000  0.0000
  443TTP    C32 8943   3.545   6.996   3.523  0.0000  0.0000  0.0000
  443TTP    C33 8944   3.663   6.943   3.435  0.0000  0.0000  0.0000
  443TTP    C34 8945   3.681   6.790   3.440  0.0000  0.0000  0.0000
  443TTP    C35 8946   3.709   6.747   3.587  0.0000  0.0000  0.0000
  443TTP    C36 8947   3.723   6.596   3.619  0.0000  0.0000  0.0000
  443TTP    C37 8948   3.600   6.502   3.605  0.0000  0.0000  0.0000
  443TTP    C38 8949   3.686   6.375   3.633  0.0000  0.0000  0.0000
  443TTP    C39 8950   3.592   6.275   3.562  0.0000  0.0000  0.0000
  443TTP    C40 8951   3.586   6.277   3.406  0.0000  0.0000  0.0000
  443TTP    C41 8952   3.479   6.364   3.335  0.0000  0.0000  0.0000
  443TTP    C42 8953   3.514   6.508   3.285  0.0000  0.0000  0.0000
  444FIC     F1 8954   3.392   8.931   3.785  0.0000  0.0000  0.0000
  444FIC     F2 8955   3.433   9.067   4.014  0.0000  0.0000  0.0000
  444FIC     O1 8956   3.602   8.455   3.922  0.0000  0.0000  0.0000
  444FIC     N5 8957   3.641   8.938   4.423  0.0000  0.0000  0.0000
  444FIC     N6 8958   3.812   8.541   4.512  0.0000  0.0000  0.0000
  444FIC    C19 8959   3.707   8.417   4.199  0.0000  0.0000  0.0000
  444FIC    C20 8960   3.655   8.531   4.147  0.0000  0.0000  0.0000
  444FIC    C21 8961   3.600   8.542   4.013  0.0000  0.0000  0.0000
  444FIC    C22 8962   3.554   8.681   3.998  0.0000  0.0000  0.0000
  444FIC    C23 8963   3.493   8.735   3.881  0.0000  0.0000  0.0000
  444FIC    C24 8964   3.451   8.868   3.902  0.0000  0.0000  0.0000
  444FIC    C25 8965   3.471   8.936   4.014  0.0000  0.0000  0.0000
  444FIC    C26 8966   3.528   8.882   4.119  0.0000  0.0000  0.0000
  444FIC    C27 8967   3.571   8.754   4.106  0.0000  0.0000  0.0000
  444FIC    C28 8968   3.639   8.662   4.207  0.0000  0.0000  0.0000
  444FIC    C29 8969   3.681   8.690   4.348  0.0000  0.0000  0.0000
  444FIC    C30 8970   3.661   8.834   4.387  0.0000  0.0000  0.0000
  444FIC    C31 8971   3.748   8.604   4.443  0.0000  0.0000  0.0000
  445FIC     F1 8972   2.997   7.487   2.805  0.0000  0.0000  0.0000
  445FIC     F2 8973   2.943   7.236   2.742  0.0000  0.0000  0.0000
  445FIC     O1 8974   3.318   7.424   3.221  0.0000  0.0000  0.0000
  445FIC     N5 8975   3.092   6.822   2.948  0.0000  0.0000  0.0000
  445FIC     N6 8976   3.286   6.805   3.322  0.0000  0.0000  0.0000
  445FIC    C19 8977   3.379   7.144   3.320  0.0000  0.0000  0.0000
  445FIC    C20 8978   3.298   7.181   3.218  0.0000  0.0000  0.0000
  445FIC    C21 8979   3.273   7.322   3.175  0.0000  0.0000  0.0000
  445FIC    C22 8980   3.188   7.313   3.055  0.0000  0.0000  0.0000
  445FIC    C23 8981   3.136   7.420   2.982  0.0000  0.0000  0.0000
  445FIC    C24 8982   3.060   7.389   2.878  0.0000  0.0000  0.0000
  445FIC    C25 8983   3.028   7.256   2.845  0.0000  0.0000  0.0000
  445FIC    C26 8984   3.076   7.153   2.919  0.0000  0.0000  0.0000
  445FIC    C27 8985   3.158   7.182   3.024  0.0000  0.0000  0.0000
  445FIC    C28 8986   3.222   7.096   3.128  0.0000  0.0000  0.0000
  445FIC    C29 8987   3.209   6.958   3.133  0.0000  0.0000  0.0000
  445FIC    C30 8988   3.144   6.884   3.031  0.0000  0.0000  0.0000
  445FIC    C31 8989   3.253   6.875   3.242  0.0000  0.0000  0.0000
  446BTD     S2 8990   2.756   7.378   1.797  0.0000  0.0000  0.0000
  446BTD     N1 8991   2.745   7.539   1.808  0.0000  0.0000  0.0000
  446BTD     N2 8992   2.835   7.346   1.934  0.0000  0.0000  0.0000
  446BTD     N3 8993   3.004   7.608   2.296  0.0000  0.0000  0.0000
  446BTD     N4 8994   2.891   7.868   2.118  0.0000  0.0000  0.0000
  446BTD     C5 8995   2.821   7.704   1.977  0.0000  0.0000  0.0000
  446BTD     C6 8996   2.804   7.574   1.921  0.0000  0.0000  0.0000
  446BTD     C7 8997   2.855   7.463   1.994  0.0000  0.0000  0.0000
  446BTD     C8 8998   2.916   7.484   2.119  0.0000  0.0000  0.0000
  446BTD    C15 8999   2.935   7.617   2.172  0.0000  0.0000  0.0000
  446BTD    C16 9000   2.887   7.729   2.095  0.0000  0.0000  0.0000
  446BTD    C43 9001   2.979   7.945   2.207  0.0000  0.0000  0.0000
  446BTD    C44 9002   3.132   7.935   2.177  0.0000  0.0000  0.0000
  446BTD    C45 9003   3.204   8.034   2.271  0.0000  0.0000  0.0000
  446BTD    C46 9004   3.354   7.992   2.270  0.0000  0.0000  0.0000
  446BTD    C47 9005   3.165   7.962   2.027  0.0000  0.0000  0.0000
  446BTD    C48 9006   3.179   8.103   1.964  0.0000  0.0000  0.0000
  446BTD    C49 9007   3.193   8.071   1.813  0.0000  0.0000  0.0000
  446BTD    C50 9008   3.290   8.025   1.699  0.0000  0.0000  0.0000
  446BTD    C75 9009   2.991   7.696   2.412  0.0000  0.0000  0.0000
  446BTD    C76 9010   2.842   7.726   2.448  0.0000  0.0000  0.0000
  446BTD    C77 9011   2.833   7.814   2.575  0.0000  0.0000  0.0000
  446BTD    C78 9012   2.692   7.867   2.610  0.0000  0.0000  0.0000
  446BTD    C79 9013   2.757   7.599   2.468  0.0000  0.0000  0.0000
  446BTD    C80 9014   2.784   7.510   2.592  0.0000  0.0000  0.0000
  446BTD    C81 9015   2.692   7.385   2.587  0.0000  0.0000  0.0000
  446BTD    C82 9016   2.723   7.259   2.500  0.0000  0.0000  0.0000
  447TTP     S1 9017   2.694   7.894   1.790  0.0000  0.0000  0.0000
  447TTP     S5 9018   2.793   8.213   2.047  0.0000  0.0000  0.0000
  447TTP     C1 9019   2.696   8.276   1.915  0.0000  0.0000  0.0000
  447TTP     C2 9020   2.658   8.179   1.827  0.0000  0.0000  0.0000
  447TTP     C3 9021   2.714   8.056   1.860  0.0000  0.0000  0.0000
  447TTP     C4 9022   2.779   7.833   1.921  0.0000  0.0000  0.0000
  447TTP    C17 9023   2.830   7.924   2.012  0.0000  0.0000  0.0000
  447TTP    C18 9024   2.786   8.058   1.972  0.0000  0.0000  0.0000
  447TTP    C32 9025   2.573   8.196   1.699  0.0000  0.0000  0.0000
  447TTP    C33 9026   2.663   8.230   1.577  0.0000  0.0000  0.0000
  447TTP    C34 9027   2.570   8.253   1.456  0.0000  0.0000  0.0000
  447TTP    C35 9028   2.629   8.324   1.331  0.0000  0.0000  0.0000
  447TTP    C36 9029   2.534   8.418   1.250  0.0000  0.0000  0.0000
  447TTP    C37 9030   2.415   8.354   1.173  0.0000  0.0000  0.0000
  447TTP    C38 9031   2.334   8.222   1.161  0.0000  0.0000  0.0000
  447TTP    C39 9032   2.252   8.172   1.284  0.0000  0.0000  0.0000
  447TTP    C40 9033   2.193   8.274   1.384  0.0000  0.0000  0.0000
  447TTP    C41 9034   2.206   8.248   1.537  0.0000  0.0000  0.0000
  447TTP    C42 9035   2.188   8.369   1.632  0.0000  0.0000  0.0000
  448TTP     S1 9036   2.999   7.225   2.234  0.0000  0.0000  0.0000
  448TTP     S5 9037   3.201   7.428   2.542  0.0000  0.0000  0.0000
  448TTP     C1 9038   3.232   7.255   2.564  0.0000  0.0000  0.0000
  448TTP     C2 9039   3.167   7.181   2.463  0.0000  0.0000  0.0000
  448TTP     C3 9040   3.090   7.261   2.379  0.0000  0.0000  0.0000
  448TTP     C4 9041   2.976   7.397   2.213  0.0000  0.0000  0.0000
  448TTP    C17 9042   3.030   7.472   2.317  0.0000  0.0000  0.0000
  448TTP    C18 9043   3.100   7.395   2.412  0.0000  0.0000  0.0000
  448TTP    C32 9044   3.160   7.027   2.456  0.0000  0.0000  0.0000
  448TTP    C33 9045   3.055   6.960   2.550  0.0000  0.0000  0.0000
  448TTP    C34 9046   3.048   6.805   2.534  0.0000  0.0000  0.0000
  448TTP    C35 9047   2.939   6.755   2.632  0.0000  0.0000  0.0000
  448TTP    C36 9048   2.955   6.601   2.638  0.0000  0.0000  0.0000
  448TTP    C37 9049   2.922   6.563   2.490  0.0000  0.0000  0.0000
  448TTP    C38 9050   2.916   6.409   2.461  0.0000  0.0000  0.0000
  448TTP    C39 9051   2.854   6.358   2.329  0.0000  0.0000  0.0000
  448TTP    C40 9052   2.945   6.290   2.222  0.0000  0.0000  0.0000
  448TTP    C41 9053   3.020   6.159   2.256  0.0000  0.0000  0.0000
  448TTP    C42 9054   3.042   6.052   2.147  0.0000  0.0000  0.0000
  449FIC     F1 9055   2.726   8.903   2.439  0.0000  0.0000  0.0000
  449FIC     F2 9056   2.617   9.057   2.247  0.0000  0.0000  0.0000
  449FIC     O1 9057   2.780   8.444   2.178  0.0000  0.0000  0.0000
  449FIC     N5 9058   2.464   8.944   1.802  0.0000  0.0000  0.0000
  449FIC     N6 9059   2.512   8.563   1.623  0.0000  0.0000  0.0000
  449FIC    C19 9060   2.652   8.413   1.905  0.0000  0.0000  0.0000
  449FIC    C20 9061   2.661   8.524   1.986  0.0000  0.0000  0.0000
  449FIC    C21 9062   2.724   8.532   2.113  0.0000  0.0000  0.0000
  449FIC    C22 9063   2.699   8.666   2.167  0.0000  0.0000  0.0000
  449FIC    C23 9064   2.729   8.716   2.298  0.0000  0.0000  0.0000
  449FIC    C24 9065   2.700   8.845   2.322  0.0000  0.0000  0.0000
  449FIC    C25 9066   2.640   8.924   2.213  0.0000  0.0000  0.0000
  449FIC    C26 9067   2.604   8.879   2.096  0.0000  0.0000  0.0000
  449FIC    C27 9068   2.639   8.744   2.068  0.0000  0.0000  0.0000
  449FIC    C28 9069   2.615   8.658   1.952  0.0000  0.0000  0.0000
  449FIC    C29 9070   2.555   8.701   1.836  0.0000  0.0000  0.0000
  449FIC    C30 9071   2.507   8.844   1.823  0.0000  0.0000  0.0000
  449FIC    C31 9072   2.538   8.623   1.717  0.0000  0.0000  0.0000
  450FIC     F1 9073   3.688   7.578   3.155  0.0000  0.0000  0.0000
  450FIC     F2 9074   3.735   7.335   3.236  0.0000  0.0000  0.0000
  450FIC     O1 9075   3.376   7.484   2.733  0.0000  0.0000  0.0000
  450FIC     N5 9076   3.558   6.915   3.086  0.0000  0.0000  0.0000
  450FIC     N6 9077   3.368   6.860   2.708  0.0000  0.0000  0.0000
  450FIC    C19 9078   3.308   7.197   2.665  0.0000  0.0000  0.0000
  450FIC    C20 9079   3.388   7.243   2.764  0.0000  0.0000  0.0000
  450FIC    C21 9080   3.419   7.390   2.797  0.0000  0.0000  0.0000
  450FIC    C22 9081   3.498   7.392   2.912  0.0000  0.0000  0.0000
  450FIC    C23 9082   3.555   7.502   2.979  0.0000  0.0000  0.0000
  450FIC    C24 9083   3.631   7.485   3.088  0.0000  0.0000  0.0000
  450FIC    C25 9084   3.660   7.356   3.131  0.0000  0.0000  0.0000
  450FIC    C26 9085   3.604   7.237   3.072  0.0000  0.0000  0.0000
  450FIC    C27 9086   3.521   7.259   2.960  0.0000  0.0000  0.0000
  450FIC    C28 9087   3.455   7.169   2.867  0.0000  0.0000  0.0000
  450FIC    C29 9088   3.459   7.030   2.879  0.0000  0.0000  0.0000
  450FIC    C30 9089   3.516   6.965   2.998  0.0000  0.0000  0.0000
  450FIC    C31 9090   3.403   6.936   2.786  0.0000  0.0000  0.0000
  451BTD     S2 9091   1.750   4.176  -0.198  0.0000  0.0000  0.0000
  451BTD     N1 9092   1.763   4.012  -0.193  0.0000  0.0000  0.0000
  451BTD     N2 9093   1.815   4.216  -0.055  0.0000  0.0000  0.0000
  451BTD     N3 9094   2.016   3.969   0.294  0.0000  0.0000  0.0000
  451BTD     N4 9095   1.960   3.697   0.102  0.0000  0.0000  0.0000
  451BTD     C5 9096   1.859   3.856  -0.037  0.0000  0.0000  0.0000
  451BTD     C6 9097   1.819   3.984  -0.081  0.0000  0.0000  0.0000
  451BTD     C7 9098   1.848   4.099  -0.001  0.0000  0.0000  0.0000
  451BTD     C8 9099   1.915   4.082   0.124  0.0000  0.0000  0.0000
  451BTD    C15 9100   1.951   3.954   0.174  0.0000  0.0000  0.0000
  451BTD    C16 9101   1.932   3.833   0.088  0.0000  0.0000  0.0000
  451BTD    C43 9102   2.063   3.632   0.179  0.0000  0.0000  0.0000
  451BTD    C44 9103   2.205   3.684   0.142  0.0000  0.0000  0.0000
  451BTD    C45 9104   2.243   3.709  -0.007  0.0000  0.0000  0.0000
  451BTD    C46 9105   2.249   3.577  -0.089  0.0000  0.0000  0.0000
  451BTD    C47 9106   2.321   3.604   0.208  0.0000  0.0000  0.0000
  451BTD    C48 9107   2.338   3.610   0.362  0.0000  0.0000  0.0000
  451BTD    C49 9108   2.427   3.504   0.434  0.0000  0.0000  0.0000
  451BTD    C50 9109   2.406   3.479   0.586  0.0000  0.0000  0.0000
  451BTD    C75 9110   2.028   3.871   0.413  0.0000  0.0000  0.0000
  451BTD    C76 9111   1.890   3.807   0.448  0.0000  0.0000  0.0000
  451BTD    C77 9112   1.891   3.721   0.577  0.0000  0.0000  0.0000
  451BTD    C78 9113   2.036   3.753   0.622  0.0000  0.0000  0.0000
  451BTD    C79 9114   1.769   3.901   0.466  0.0000  0.0000  0.0000
  451BTD    C80 9115   1.790   4.033   0.545  0.0000  0.0000  0.0000
  451BTD    C81 9116   1.694   4.152   0.521  0.0000  0.0000  0.0000
  451BTD    C82 9117   1.562   4.157   0.604  0.0000  0.0000  0.0000
  452TTP     S1 9118   1.784   3.657  -0.236  0.0000  0.0000  0.0000
  452TTP     S5 9119   1.967   3.350  -0.017  0.0000  0.0000  0.0000
  452TTP     C1 9120   1.908   3.280  -0.163  0.0000  0.0000  0.0000
  452TTP     C2 9121   1.847   3.371  -0.241  0.0000  0.0000  0.0000
  452TTP     C3 9122   1.845   3.502  -0.189  0.0000  0.0000  0.0000
  452TTP     C4 9123   1.850   3.728  -0.094  0.0000  0.0000  0.0000
  452TTP    C17 9124   1.910   3.636  -0.009  0.0000  0.0000  0.0000
  452TTP    C18 9125   1.911   3.503  -0.061  0.0000  0.0000  0.0000
  452TTP    C32 9126   1.789   3.347  -0.382  0.0000  0.0000  0.0000
  452TTP    C33 9127   1.637   3.362  -0.405  0.0000  0.0000  0.0000
  452TTP    C34 9128   1.579   3.327  -0.544  0.0000  0.0000  0.0000
  452TTP    C35 9129   1.426   3.333  -0.515  0.0000  0.0000  0.0000
  452TTP    C36 9130   1.380   3.186  -0.491  0.0000  0.0000  0.0000
  452TTP    C37 9131   1.448   3.073  -0.573  0.0000  0.0000  0.0000
  452TTP    C38 9132   1.364   2.953  -0.625  0.0000  0.0000  0.0000
  452TTP    C39 9133   1.474   2.908  -0.723  0.0000  0.0000  0.0000
  452TTP    C40 9134   1.429   2.867  -0.867  0.0000  0.0000  0.0000
  452TTP    C41 9135   1.510   2.759  -0.944  0.0000  0.0000  0.0000
  452TTP    C42 9136   1.448   2.693  -1.070  0.0000  0.0000  0.0000
  453TTP     S1 9137   1.948   4.347   0.248  0.0000  0.0000  0.0000
  453TTP     S5 9138   2.170   4.172   0.559  0.0000  0.0000  0.0000
  453TTP     C1 9139   2.176   4.347   0.576  0.0000  0.0000  0.0000
  453TTP     C2 9140   2.105   4.412   0.480  0.0000  0.0000  0.0000
  453TTP     C3 9141   2.044   4.324   0.391  0.0000  0.0000  0.0000
  453TTP     C4 9142   1.950   4.177   0.222  0.0000  0.0000  0.0000
  453TTP    C17 9143   2.013   4.105   0.325  0.0000  0.0000  0.0000
  453TTP    C18 9144   2.072   4.190   0.420  0.0000  0.0000  0.0000
  453TTP    C32 9145   2.087   4.566   0.471  0.0000  0.0000  0.0000
  453TTP    C33 9146   1.969   4.619   0.559  0.0000  0.0000  0.0000
  453TTP    C34 9147   1.951   4.772   0.554  0.0000  0.0000  0.0000
  453TTP    C35 9148   1.923   4.815   0.407  0.0000  0.0000  0.0000
  453TTP    C36 9149   1.909   4.966   0.375  0.0000  0.0000  0.0000
  453TTP    C37 9150   2.032   5.060   0.389  0.0000  0.0000  0.0000
  453TTP    C38 9151   1.946   5.187   0.361  0.0000  0.0000  0.0000
  453TTP    C39 9152   2.040   5.287   0.432  0.0000  0.0000  0.0000
  453TTP    C40 9153   2.046   5.285   0.588  0.0000  0.0000  0.0000
  453TTP    C41 9154   2.153   5.198   0.659  0.0000  0.0000  0.0000
  453TTP    C42 9155   2.118   5.054   0.709  0.0000  0.0000  0.0000
  454FIC     F1 9156   2.240   2.631   0.209  0.0000  0.0000  0.0000
  454FIC     F2 9157   2.199   2.495  -0.020  0.0000  0.0000  0.0000
  454FIC     O1 9158   2.030   3.107   0.072  0.0000  0.0000  0.0000
  454FIC     N5 9159   1.991   2.624  -0.429  0.0000  0.0000  0.0000
  454FIC     N6 9160   1.820   3.021  -0.518  0.0000  0.0000  0.0000
  454FIC    C19 9161   1.925   3.145  -0.205  0.0000  0.0000  0.0000
  454FIC    C20 9162   1.977   3.031  -0.153  0.0000  0.0000  0.0000
  454FIC    C21 9163   2.032   3.020  -0.019  0.0000  0.0000  0.0000
  454FIC    C22 9164   2.078   2.881  -0.004  0.0000  0.0000  0.0000
  454FIC    C23 9165   2.139   2.827   0.113  0.0000  0.0000  0.0000
  454FIC    C24 9166   2.181   2.694   0.092  0.0000  0.0000  0.0000
  454FIC    C25 9167   2.161   2.626  -0.020  0.0000  0.0000  0.0000
  454FIC    C26 9168   2.104   2.680  -0.125  0.0000  0.0000  0.0000
  454FIC    C27 9169   2.061   2.808  -0.112  0.0000  0.0000  0.0000
  454FIC    C28 9170   1.993   2.900  -0.213  0.0000  0.0000  0.0000
  454FIC    C29 9171   1.951   2.872  -0.354  0.0000  0.0000  0.0000
  454FIC    C30 9172   1.972   2.728  -0.393  0.0000  0.0000  0.0000
  454FIC    C31 9173   1.884   2.958  -0.449  0.0000  0.0000  0.0000
  455FIC     F1 9174   2.635   4.075   1.189  0.0000  0.0000  0.0000
  455FIC     F2 9175   2.689   4.326   1.252  0.0000  0.0000  0.0000
  455FIC     O1 9176   2.314   4.138   0.773  0.0000  0.0000  0.0000
  455FIC     N5 9177   2.540   4.740   1.046  0.0000  0.0000  0.0000
  455FIC     N6 9178   2.346   4.757   0.672  0.0000  0.0000  0.0000
  455FIC    C19 9179   2.253   4.418   0.674  0.0000  0.0000  0.0000
  455FIC    C20 9180   2.334   4.381   0.776  0.0000  0.0000  0.0000
  455FIC    C21 9181   2.359   4.240   0.819  0.0000  0.0000  0.0000
  455FIC    C22 9182   2.444   4.249   0.939  0.0000  0.0000  0.0000
  455FIC    C23 9183   2.496   4.142   1.012  0.0000  0.0000  0.0000
  455FIC    C24 9184   2.572   4.173   1.116  0.0000  0.0000  0.0000
  455FIC    C25 9185   2.604   4.306   1.149  0.0000  0.0000  0.0000
  455FIC    C26 9186   2.556   4.409   1.075  0.0000  0.0000  0.0000
  455FIC    C27 9187   2.474   4.380   0.970  0.0000  0.0000  0.0000
  455FIC    C28 9188   2.410   4.466   0.866  0.0000  0.0000  0.0000
  455FIC    C29 9189   2.423   4.604   0.861  0.0000  0.0000  0.0000
  455FIC    C30 9190   2.488   4.678   0.963  0.0000  0.0000  0.0000
  455FIC    C31 9191   2.379   4.687   0.752  0.0000  0.0000  0.0000
  456BTD     S2 9192   2.876   4.184   2.197  0.0000  0.0000  0.0000
  456BTD     N1 9193   2.887   4.023   2.186  0.0000  0.0000  0.0000
  456BTD     N2 9194   2.797   4.216   2.060  0.0000  0.0000  0.0000
  456BTD     N3 9195   2.628   3.954   1.698  0.0000  0.0000  0.0000
  456BTD     N4 9196   2.741   3.694   1.876  0.0000  0.0000  0.0000
  456BTD     C5 9197   2.811   3.858   2.017  0.0000  0.0000  0.0000
  456BTD     C6 9198   2.828   3.988   2.073  0.0000  0.0000  0.0000
  456BTD     C7 9199   2.777   4.099   2.000  0.0000  0.0000  0.0000
  456BTD     C8 9200   2.716   4.078   1.875  0.0000  0.0000  0.0000
  456BTD    C15 9201   2.697   3.945   1.822  0.0000  0.0000  0.0000
  456BTD    C16 9202   2.745   3.833   1.899  0.0000  0.0000  0.0000
  456BTD    C43 9203   2.653   3.617   1.787  0.0000  0.0000  0.0000
  456BTD    C44 9204   2.500   3.627   1.817  0.0000  0.0000  0.0000
  456BTD    C45 9205   2.428   3.528   1.723  0.0000  0.0000  0.0000
  456BTD    C46 9206   2.278   3.570   1.724  0.0000  0.0000  0.0000
  456BTD    C47 9207   2.467   3.600   1.967  0.0000  0.0000  0.0000
  456BTD    C48 9208   2.453   3.459   2.030  0.0000  0.0000  0.0000
  456BTD    C49 9209   2.439   3.491   2.181  0.0000  0.0000  0.0000
  456BTD    C50 9210   2.342   3.537   2.295  0.0000  0.0000  0.0000
  456BTD    C75 9211   2.641   3.866   1.582  0.0000  0.0000  0.0000
  456BTD    C76 9212   2.790   3.836   1.546  0.0000  0.0000  0.0000
  456BTD    C77 9213   2.799   3.748   1.419  0.0000  0.0000  0.0000
  456BTD    C78 9214   2.940   3.695   1.384  0.0000  0.0000  0.0000
  456BTD    C79 9215   2.875   3.963   1.526  0.0000  0.0000  0.0000
  456BTD    C80 9216   2.848   4.052   1.402  0.0000  0.0000  0.0000
  456BTD    C81 9217   2.940   4.177   1.407  0.0000  0.0000  0.0000
  456BTD    C82 9218   2.909   4.303   1.494  0.0000  0.0000  0.0000
  457TTP     S1 9219   2.938   3.668   2.204  0.0000  0.0000  0.0000
  457TTP     S5 9220   2.839   3.349   1.947  0.0000  0.0000  0.0000
  457TTP     C1 9221   2.936   3.286   2.079  0.0000  0.0000  0.0000
  457TTP     C2 9222   2.974   3.383   2.167  0.0000  0.0000  0.0000
  457TTP     C3 9223   2.918   3.506   2.134  0.0000  0.0000  0.0000
  457TTP     C4 9224   2.853   3.729   2.073  0.0000  0.0000  0.0000
  457TTP    C17 9225   2.802   3.638   1.982  0.0000  0.0000  0.0000
  457TTP    C18 9226   2.846   3.504   2.022  0.0000  0.0000  0.0000
  457TTP    C32 9227   3.059   3.366   2.295  0.0000  0.0000  0.0000
  457TTP    C33 9228   2.969   3.332   2.417  0.0000  0.0000  0.0000
  457TTP    C34 9229   3.062   3.309   2.538  0.0000  0.0000  0.0000
  457TTP    C35 9230   3.003   3.238   2.663  0.0000  0.0000  0.0000
  457TTP    C36 9231   3.098   3.144   2.744  0.0000  0.0000  0.0000
  457TTP    C37 9232   3.217   3.208   2.821  0.0000  0.0000  0.0000
  457TTP    C38 9233   3.298   3.340   2.833  0.0000  0.0000  0.0000
  457TTP    C39 9234   3.380   3.390   2.710  0.0000  0.0000  0.0000
  457TTP    C40 9235   3.439   3.288   2.610  0.0000  0.0000  0.0000
  457TTP    C41 9236   3.426   3.314   2.457  0.0000  0.0000  0.0000
  457TTP    C42 9237   3.444   3.193   2.362  0.0000  0.0000  0.0000
  458TTP     S1 9238   2.633   4.337   1.760  0.0000  0.0000  0.0000
  458TTP     S5 9239   2.431   4.134   1.452  0.0000  0.0000  0.0000
  458TTP     C1 9240   2.400   4.307   1.430  0.0000  0.0000  0.0000
  458TTP     C2 9241   2.465   4.381   1.531  0.0000  0.0000  0.0000
  458TTP     C3 9242   2.542   4.301   1.615  0.0000  0.0000  0.0000
  458TTP     C4 9243   2.656   4.165   1.781  0.0000  0.0000  0.0000
  458TTP    C17 9244   2.602   4.090   1.677  0.0000  0.0000  0.0000
  458TTP    C18 9245   2.532   4.167   1.582  0.0000  0.0000  0.0000
  458TTP    C32 9246   2.472   4.535   1.538  0.0000  0.0000  0.0000
  458TTP    C33 9247   2.578   4.602   1.444  0.0000  0.0000  0.0000
  458TTP    C34 9248   2.584   4.757   1.460  0.0000  0.0000  0.0000
  458TTP    C35 9249   2.693   4.807   1.362  0.0000  0.0000  0.0000
  458TTP    C36 9250   2.677   4.961   1.356  0.0000  0.0000  0.0000
  458TTP    C37 9251   2.710   4.999   1.504  0.0000  0.0000  0.0000
  458TTP    C38 9252   2.716   5.153   1.533  0.0000  0.0000  0.0000
  458TTP    C39 9253   2.778   5.204   1.665  0.0000  0.0000  0.0000
  458TTP    C40 9254   2.687   5.272   1.772  0.0000  0.0000  0.0000
  458TTP    C41 9255   2.612   5.403   1.738  0.0000  0.0000  0.0000
  458TTP    C42 9256   2.590   5.510   1.847  0.0000  0.0000  0.0000
  459FIC     F1 9257   2.906   2.659   1.555  0.0000  0.0000  0.0000
  459FIC     F2 9258   3.015   2.505   1.747  0.0000  0.0000  0.0000
  459FIC     O1 9259   2.852   3.118   1.816  0.0000  0.0000  0.0000
  459FIC     N5 9260   3.168   2.618   2.192  0.0000  0.0000  0.0000
  459FIC     N6 9261   3.120   2.999   2.371  0.0000  0.0000  0.0000
  459FIC    C19 9262   2.980   3.149   2.089  0.0000  0.0000  0.0000
  459FIC    C20 9263   2.971   3.038   2.008  0.0000  0.0000  0.0000
  459FIC    C21 9264   2.908   3.030   1.881  0.0000  0.0000  0.0000
  459FIC    C22 9265   2.933   2.896   1.827  0.0000  0.0000  0.0000
  459FIC    C23 9266   2.903   2.846   1.696  0.0000  0.0000  0.0000
  459FIC    C24 9267   2.932   2.717   1.672  0.0000  0.0000  0.0000
  459FIC    C25 9268   2.992   2.638   1.781  0.0000  0.0000  0.0000
  459FIC    C26 9269   3.028   2.683   1.898  0.0000  0.0000  0.0000
  459FIC    C27 9270   2.993   2.818   1.926  0.0000  0.0000  0.0000
  459FIC    C28 9271   3.017   2.904   2.042  0.0000  0.0000  0.0000
  459FIC    C29 9272   3.077   2.861   2.158  0.0000  0.0000  0.0000
  459FIC    C30 9273   3.125   2.718   2.171  0.0000  0.0000  0.0000
  459FIC    C31 9274   3.094   2.939   2.277  0.0000  0.0000  0.0000
  460FIC     F1 9275   1.944   3.984   0.839  0.0000  0.0000  0.0000
  460FIC     F2 9276   1.897   4.227   0.758  0.0000  0.0000  0.0000
  460FIC     O1 9277   2.256   4.078   1.261  0.0000  0.0000  0.0000
  460FIC     N5 9278   2.074   4.647   0.908  0.0000  0.0000  0.0000
  460FIC     N6 9279   2.264   4.702   1.286  0.0000  0.0000  0.0000
  460FIC    C19 9280   2.324   4.365   1.329  0.0000  0.0000  0.0000
  460FIC    C20 9281   2.244   4.319   1.230  0.0000  0.0000  0.0000
  460FIC    C21 9282   2.213   4.172   1.197  0.0000  0.0000  0.0000
  460FIC    C22 9283   2.134   4.170   1.082  0.0000  0.0000  0.0000
  460FIC    C23 9284   2.077   4.060   1.015  0.0000  0.0000  0.0000
  460FIC    C24 9285   2.001   4.077   0.906  0.0000  0.0000  0.0000
  460FIC    C25 9286   1.972   4.206   0.863  0.0000  0.0000  0.0000
  460FIC    C26 9287   2.028   4.325   0.922  0.0000  0.0000  0.0000
  460FIC    C27 9288   2.111   4.303   1.034  0.0000  0.0000  0.0000
  460FIC    C28 9289   2.177   4.393   1.127  0.0000  0.0000  0.0000
  460FIC    C29 9290   2.173   4.532   1.115  0.0000  0.0000  0.0000
  460FIC    C30 9291   2.116   4.597   0.996  0.0000  0.0000  0.0000
  460FIC    C31 9292   2.229   4.626   1.208  0.0000  0.0000  0.0000
  461BTD     S2 9293   1.646  10.276   0.801  0.0000  0.0000  0.0000
  461BTD     N1 9294   1.660  10.441   0.805  0.0000  0.0000  0.0000
  461BTD     N2 9295   1.711  10.237   0.943  0.0000  0.0000  0.0000
  461BTD     N3 9296   1.913  10.484   1.293  0.0000  0.0000  0.0000
  461BTD     N4 9297   1.856  10.755   1.100  0.0000  0.0000  0.0000
  461BTD     C5 9298   1.756  10.596   0.962  0.0000  0.0000  0.0000
  461BTD     C6 9299   1.716  10.468   0.918  0.0000  0.0000  0.0000
  461BTD     C7 9300   1.745  10.354   0.998  0.0000  0.0000  0.0000
  461BTD     C8 9301   1.811  10.371   1.122  0.0000  0.0000  0.0000
  461BTD    C15 9302   1.847  10.498   1.172  0.0000  0.0000  0.0000
  461BTD    C16 9303   1.829  10.620   1.087  0.0000  0.0000  0.0000
  461BTD    C43 9304   1.960  10.821   1.177  0.0000  0.0000  0.0000
  461BTD    C44 9305   2.102  10.769   1.141  0.0000  0.0000  0.0000
  461BTD    C45 9306   2.140  10.744   0.991  0.0000  0.0000  0.0000
  461BTD    C46 9307   2.145  10.875   0.910  0.0000  0.0000  0.0000
  461BTD    C47 9308   2.217  10.849   1.207  0.0000  0.0000  0.0000
  461BTD    C48 9309   2.235  10.843   1.360  0.0000  0.0000  0.0000
  461BTD    C49 9310   2.323  10.949   1.432  0.0000  0.0000  0.0000
  461BTD    C50 9311   2.303  10.973   1.584  0.0000  0.0000  0.0000
  461BTD    C75 9312   1.924  10.582   1.411  0.0000  0.0000  0.0000
  461BTD    C76 9313   1.786  10.645   1.446  0.0000  0.0000  0.0000
  461BTD    C77 9314   1.788  10.731   1.575  0.0000  0.0000  0.0000
  461BTD    C78 9315   1.932  10.700   1.621  0.0000  0.0000  0.0000
  461BTD    C79 9316   1.665  10.551   1.465  0.0000  0.0000  0.0000
  461BTD    C80 9317   1.686  10.420   1.544  0.0000  0.0000  0.0000
  461BTD    C81 9318   1.590  10.300   1.519  0.0000  0.0000  0.0000
  461BTD    C82 9319   1.459  10.296   1.603  0.0000  0.0000  0.0000
  462TTP     S1 9320   1.681  10.796   0.763  0.0000  0.0000  0.0000
  462TTP     S5 9321   1.864  11.103   0.981  0.0000  0.0000  0.0000
  462TTP     C1 9322   1.804  11.173   0.835  0.0000  0.0000  0.0000
  462TTP     C2 9323   1.744  11.081   0.758  0.0000  0.0000  0.0000
  462TTP     C3 9324   1.742  10.951   0.809  0.0000  0.0000  0.0000
  462TTP     C4 9325   1.746  10.725   0.905  0.0000  0.0000  0.0000
  462TTP    C17 9326   1.807  10.817   0.989  0.0000  0.0000  0.0000
  462TTP    C18 9327   1.808  10.949   0.937  0.0000  0.0000  0.0000
  462TTP    C32 9328   1.686  11.106   0.616  0.0000  0.0000  0.0000
  462TTP    C33 9329   1.533  11.091   0.594  0.0000  0.0000  0.0000
  462TTP    C34 9330   1.475  11.126   0.454  0.0000  0.0000  0.0000
  462TTP    C35 9331   1.323  11.120   0.483  0.0000  0.0000  0.0000
  462TTP    C36 9332   1.276  11.266   0.508  0.0000  0.0000  0.0000
  462TTP    C37 9333   1.345  11.380   0.425  0.0000  0.0000  0.0000
  462TTP    C38 9334   1.260  11.499   0.374  0.0000  0.0000  0.0000
  462TTP    C39 9335   1.370  11.544   0.276  0.0000  0.0000  0.0000
  462TTP    C40 9336   1.326  11.586   0.132  0.0000  0.0000  0.0000
  462TTP    C41 9337   1.407  11.694   0.054  0.0000  0.0000  0.0000
  462TTP    C42 9338   1.344  11.759  -0.072  0.0000  0.0000  0.0000
  463TTP     S1 9339   1.845  10.105   1.247  0.0000  0.0000  0.0000
  463TTP     S5 9340   2.067  10.281   1.557  0.0000  0.0000  0.0000
  463TTP     C1 9341   2.073  10.105   1.575  0.0000  0.0000  0.0000
  463TTP     C2 9342   2.002  10.040   1.479  0.0000  0.0000  0.0000
  463TTP     C3 9343   1.941  10.128   1.390  0.0000  0.0000  0.0000
  463TTP     C4 9344   1.847  10.276   1.221  0.0000  0.0000  0.0000
  463TTP    C17 9345   1.910  10.347   1.323  0.0000  0.0000  0.0000
  463TTP    C18 9346   1.968  10.263   1.419  0.0000  0.0000  0.0000
  463TTP    C32 9347   1.983   9.886   1.469  0.0000  0.0000  0.0000
  463TTP    C33 9348   1.866   9.833   1.557  0.0000  0.0000  0.0000
  463TTP    C34 9349   1.848   9.680   1.552  0.0000  0.0000  0.0000
  463TTP    C35 9350   1.819   9.637   1.406  0.0000  0.0000  0.0000
  463TTP    C36 9351   1.806   9.486   1.373  0.0000  0.0000  0.0000
  463TTP    C37 9352   1.929   9.393   1.388  0.0000  0.0000  0.0000
  463TTP    C38 9353   1.843   9.266   1.359  0.0000  0.0000  0.0000
  463TTP    C39 9354   1.936   9.165   1.431  0.0000  0.0000  0.0000
  463TTP    C40 9355   1.943   9.168   1.586  0.0000  0.0000  0.0000
  463TTP    C41 9356   2.049   9.255   1.658  0.0000  0.0000  0.0000
  463TTP    C42 9357   2.015   9.398   1.707  0.0000  0.0000  0.0000
  464FIC     F1 9358   2.137  11.822   1.208  0.0000  0.0000  0.0000
  464FIC     F2 9359   2.096  11.957   0.979  0.0000  0.0000  0.0000
  464FIC     O1 9360   1.927  11.346   1.071  0.0000  0.0000  0.0000
  464FIC     N5 9361   1.888  11.829   0.569  0.0000  0.0000  0.0000
  464FIC     N6 9362   1.716  11.432   0.481  0.0000  0.0000  0.0000
  464FIC    C19 9363   1.821  11.307   0.793  0.0000  0.0000  0.0000
  464FIC    C20 9364   1.873  11.421   0.845  0.0000  0.0000  0.0000
  464FIC    C21 9365   1.928  11.432   0.979  0.0000  0.0000  0.0000
  464FIC    C22 9366   1.975  11.571   0.995  0.0000  0.0000  0.0000
  464FIC    C23 9367   2.036  11.625   1.112  0.0000  0.0000  0.0000
  464FIC    C24 9368   2.077  11.759   1.090  0.0000  0.0000  0.0000
  464FIC    C25 9369   2.058  11.826   0.978  0.0000  0.0000  0.0000
  464FIC    C26 9370   2.000  11.772   0.873  0.0000  0.0000  0.0000
  464FIC    C27 9371   1.957  11.644   0.886  0.0000  0.0000  0.0000
  464FIC    C28 9372   1.889  11.553   0.786  0.0000  0.0000  0.0000
  464FIC    C29 9373   1.847  11.581   0.644  0.0000  0.0000  0.0000
  464FIC    C30 9374   1.868  11.725   0.605  0.0000  0.0000  0.0000
  464FIC    C31 9375   1.781  11.495   0.549  0.0000  0.0000  0.0000
  465FIC     F1 9376   2.531  10.378   2.188  0.0000  0.0000  0.0000
  465FIC     F2 9377   2.586  10.126   2.250  0.0000  0.0000  0.0000
  465FIC     O1 9378   2.211  10.314   1.771  0.0000  0.0000  0.0000
  465FIC     N5 9379   2.437   9.712   2.044  0.0000  0.0000  0.0000
  465FIC     N6 9380   2.242   9.696   1.671  0.0000  0.0000  0.0000
  465FIC    C19 9381   2.149  10.035   1.673  0.0000  0.0000  0.0000
  465FIC    C20 9382   2.231  10.072   1.775  0.0000  0.0000  0.0000
  465FIC    C21 9383   2.256  10.212   1.817  0.0000  0.0000  0.0000
  465FIC    C22 9384   2.340  10.204   1.937  0.0000  0.0000  0.0000
  465FIC    C23 9385   2.393  10.310   2.010  0.0000  0.0000  0.0000
  465FIC    C24 9386   2.468  10.280   2.115  0.0000  0.0000  0.0000
  465FIC    C25 9387   2.501  10.147   2.147  0.0000  0.0000  0.0000
  465FIC    C26 9388   2.452  10.043   2.073  0.0000  0.0000  0.0000
  465FIC    C27 9389   2.371  10.072   1.969  0.0000  0.0000  0.0000
  465FIC    C28 9390   2.306   9.986   1.864  0.0000  0.0000  0.0000
  465FIC    C29 9391   2.320   9.848   1.860  0.0000  0.0000  0.0000
  465FIC    C30 9392   2.384   9.774   1.961  0.0000  0.0000  0.0000
  465FIC    C31 9393   2.275   9.766   1.751  0.0000  0.0000  0.0000
  466BTD     S2 9394   2.773  10.268   3.196  0.0000  0.0000  0.0000
  466BTD     N1 9395   2.783  10.429   3.185  0.0000  0.0000  0.0000
  466BTD     N2 9396   2.694  10.237   3.058  0.0000  0.0000  0.0000
  466BTD     N3 9397   2.524  10.499   2.697  0.0000  0.0000  0.0000
  466BTD     N4 9398   2.638  10.759   2.874  0.0000  0.0000  0.0000
  466BTD     C5 9399   2.708  10.595   3.016  0.0000  0.0000  0.0000
  466BTD     C6 9400   2.725  10.464   3.072  0.0000  0.0000  0.0000
  466BTD     C7 9401   2.674  10.354   2.998  0.0000  0.0000  0.0000
  466BTD     C8 9402   2.612  10.375   2.874  0.0000  0.0000  0.0000
  466BTD    C15 9403   2.593  10.508   2.821  0.0000  0.0000  0.0000
  466BTD    C16 9404   2.641  10.619   2.897  0.0000  0.0000  0.0000
  466BTD    C43 9405   2.549  10.836   2.786  0.0000  0.0000  0.0000
  466BTD    C44 9406   2.397  10.826   2.816  0.0000  0.0000  0.0000
  466BTD    C45 9407   2.324  10.925   2.721  0.0000  0.0000  0.0000
  466BTD    C46 9408   2.174  10.883   2.723  0.0000  0.0000  0.0000
  466BTD    C47 9409   2.364  10.852   2.965  0.0000  0.0000  0.0000
  466BTD    C48 9410   2.349  10.993   3.029  0.0000  0.0000  0.0000
  466BTD    C49 9411   2.335  10.962   3.180  0.0000  0.0000  0.0000
  466BTD    C50 9412   2.239  10.916   3.293  0.0000  0.0000  0.0000
  466BTD    C75 9413   2.538  10.586   2.580  0.0000  0.0000  0.0000
  466BTD    C76 9414   2.686  10.616   2.545  0.0000  0.0000  0.0000
  466BTD    C77 9415   2.695  10.704   2.418  0.0000  0.0000  0.0000
  466BTD    C78 9416   2.836  10.758   2.382  0.0000  0.0000  0.0000
  466BTD    C79 9417   2.772  10.489   2.524  0.0000  0.0000  0.0000
  466BTD    C80 9418   2.744  10.401   2.400  0.0000  0.0000  0.0000
  466BTD    C81 9419   2.836  10.275   2.406  0.0000  0.0000  0.0000
  466BTD    C82 9420   2.805  10.150   2.493  0.0000  0.0000  0.0000
  467TTP     S1 9421   2.834  10.785   3.202  0.0000  0.0000  0.0000
  467TTP     S5 9422   2.736  11.103   2.946  0.0000  0.0000  0.0000
  467TTP     C1 9423   2.832  11.167   3.077  0.0000  0.0000  0.0000
  467TTP     C2 9424   2.870  11.069   3.166  0.0000  0.0000  0.0000
  467TTP     C3 9425   2.815  10.947   3.132  0.0000  0.0000  0.0000
  467TTP     C4 9426   2.750  10.724   3.071  0.0000  0.0000  0.0000
  467TTP    C17 9427   2.699  10.814   2.980  0.0000  0.0000  0.0000
  467TTP    C18 9428   2.743  10.949   3.020  0.0000  0.0000  0.0000
  467TTP    C32 9429   2.956  11.087   3.294  0.0000  0.0000  0.0000
  467TTP    C33 9430   2.865  11.121   3.415  0.0000  0.0000  0.0000
  467TTP    C34 9431   2.958  11.144   3.537  0.0000  0.0000  0.0000
  467TTP    C35 9432   2.900  11.214   3.661  0.0000  0.0000  0.0000
  467TTP    C36 9433   2.994  11.308   3.742  0.0000  0.0000  0.0000
  467TTP    C37 9434   3.114  11.244   3.819  0.0000  0.0000  0.0000
  467TTP    C38 9435   3.194  11.112   3.831  0.0000  0.0000  0.0000
  467TTP    C39 9436   3.276  11.062   3.709  0.0000  0.0000  0.0000
  467TTP    C40 9437   3.335  11.165   3.608  0.0000  0.0000  0.0000
  467TTP    C41 9438   3.322  11.138   3.455  0.0000  0.0000  0.0000
  467TTP    C42 9439   3.341  11.260   3.360  0.0000  0.0000  0.0000
  468TTP     S1 9440   2.530  10.116   2.759  0.0000  0.0000  0.0000
  468TTP     S5 9441   2.328  10.319   2.450  0.0000  0.0000  0.0000
  468TTP     C1 9442   2.297  10.146   2.429  0.0000  0.0000  0.0000
  468TTP     C2 9443   2.361  10.072   2.530  0.0000  0.0000  0.0000
  468TTP     C3 9444   2.438  10.152   2.614  0.0000  0.0000  0.0000
  468TTP     C4 9445   2.553  10.287   2.780  0.0000  0.0000  0.0000
  468TTP    C17 9446   2.499  10.362   2.676  0.0000  0.0000  0.0000
  468TTP    C18 9447   2.428  10.285   2.580  0.0000  0.0000  0.0000
  468TTP    C32 9448   2.369   9.917   2.536  0.0000  0.0000  0.0000
  468TTP    C33 9449   2.474   9.850   2.443  0.0000  0.0000  0.0000
  468TTP    C34 9450   2.481   9.696   2.458  0.0000  0.0000  0.0000
  468TTP    C35 9451   2.590   9.645   2.360  0.0000  0.0000  0.0000
  468TTP    C36 9452   2.574   9.491   2.355  0.0000  0.0000  0.0000
  468TTP    C37 9453   2.607   9.453   2.502  0.0000  0.0000  0.0000
  468TTP    C38 9454   2.612   9.299   2.532  0.0000  0.0000  0.0000
  468TTP    C39 9455   2.674   9.249   2.664  0.0000  0.0000  0.0000
  468TTP    C40 9456   2.583   9.181   2.771  0.0000  0.0000  0.0000
  468TTP    C41 9457   2.508   9.050   2.736  0.0000  0.0000  0.0000
  468TTP    C42 9458   2.486   8.942   2.845  0.0000  0.0000  0.0000
  469FIC     F1 9459   2.803  11.793   2.554  0.0000  0.0000  0.0000
  469FIC     F2 9460   2.912  11.947   2.745  0.0000  0.0000  0.0000
  469FIC     O1 9461   2.748  11.334   2.814  0.0000  0.0000  0.0000
  469FIC     N5 9462   3.064  11.835   3.190  0.0000  0.0000  0.0000
  469FIC     N6 9463   3.016  11.454   3.369  0.0000  0.0000  0.0000
  469FIC    C19 9464   2.876  11.304   3.087  0.0000  0.0000  0.0000
  469FIC    C20 9465   2.867  11.415   3.007  0.0000  0.0000  0.0000
  469FIC    C21 9466   2.805  11.422   2.879  0.0000  0.0000  0.0000
  469FIC    C22 9467   2.829  11.557   2.825  0.0000  0.0000  0.0000
  469FIC    C23 9468   2.800  11.606   2.695  0.0000  0.0000  0.0000
  469FIC    C24 9469   2.828  11.735   2.670  0.0000  0.0000  0.0000
  469FIC    C25 9470   2.888  11.814   2.780  0.0000  0.0000  0.0000
  469FIC    C26 9471   2.924  11.770   2.896  0.0000  0.0000  0.0000
  469FIC    C27 9472   2.889  11.635   2.924  0.0000  0.0000  0.0000
  469FIC    C28 9473   2.913  11.548   3.040  0.0000  0.0000  0.0000
  469FIC    C29 9474   2.973  11.591   3.157  0.0000  0.0000  0.0000
  469FIC    C30 9475   3.021  11.735   3.169  0.0000  0.0000  0.0000
  469FIC    C31 9476   2.991  11.514   3.276  0.0000  0.0000  0.0000
  470FIC     F1 9477   1.840  10.468   1.837  0.0000  0.0000  0.0000
  470FIC     F2 9478   1.793  10.226   1.756  0.0000  0.0000  0.0000
  470FIC     O1 9479   2.152  10.374   2.260  0.0000  0.0000  0.0000
  470FIC     N5 9480   1.970   9.805   1.906  0.0000  0.0000  0.0000
  470FIC     N6 9481   2.161   9.750   2.284  0.0000  0.0000  0.0000
  470FIC    C19 9482   2.220  10.088   2.327  0.0000  0.0000  0.0000
  470FIC    C20 9483   2.141  10.134   2.228  0.0000  0.0000  0.0000
  470FIC    C21 9484   2.109  10.280   2.196  0.0000  0.0000  0.0000
  470FIC    C22 9485   2.030  10.282   2.080  0.0000  0.0000  0.0000
  470FIC    C23 9486   1.974  10.393   2.014  0.0000  0.0000  0.0000
  470FIC    C24 9487   1.898  10.376   1.904  0.0000  0.0000  0.0000
  470FIC    C25 9488   1.869  10.247   1.862  0.0000  0.0000  0.0000
  470FIC    C26 9489   1.924  10.128   1.920  0.0000  0.0000  0.0000
  470FIC    C27 9490   2.007  10.149   2.033  0.0000  0.0000  0.0000
  470FIC    C28 9491   2.074  10.060   2.125  0.0000  0.0000  0.0000
  470FIC    C29 9492   2.069   9.920   2.113  0.0000  0.0000  0.0000
  470FIC    C30 9493   2.012   9.856   1.994  0.0000  0.0000  0.0000
  470FIC    C31 9494   2.125   9.826   2.206  0.0000  0.0000  0.0000
  471BTD     S2 9495   3.986   1.286   3.193  0.0000  0.0000  0.0000
  471BTD     N1 9496   3.972   1.121   3.189  0.0000  0.0000  0.0000
  471BTD     N2 9497   3.921   1.325   3.051  0.0000  0.0000  0.0000
  471BTD     N3 9498   3.719   1.078   2.701  0.0000  0.0000  0.0000
  471BTD     N4 9499   3.776   0.807   2.894  0.0000  0.0000  0.0000
  471BTD     C5 9500   3.876   0.966   3.032  0.0000  0.0000  0.0000
  471BTD     C6 9501   3.916   1.094   3.076  0.0000  0.0000  0.0000
  471BTD     C7 9502   3.887   1.208   2.996  0.0000  0.0000  0.0000
  471BTD     C8 9503   3.821   1.191   2.872  0.0000  0.0000  0.0000
  471BTD    C15 9504   3.785   1.064   2.822  0.0000  0.0000  0.0000
  471BTD    C16 9505   3.803   0.942   2.907  0.0000  0.0000  0.0000
  471BTD    C43 9506   3.672   0.741   2.817  0.0000  0.0000  0.0000
  471BTD    C44 9507   3.530   0.793   2.853  0.0000  0.0000  0.0000
  471BTD    C45 9508   3.492   0.818   3.003  0.0000  0.0000  0.0000
  471BTD    C46 9509   3.487   0.687   3.084  0.0000  0.0000  0.0000
  471BTD    C47 9510   3.415   0.713   2.787  0.0000  0.0000  0.0000
  471BTD    C48 9511   3.397   0.719   2.634  0.0000  0.0000  0.0000
  471BTD    C49 9512   3.309   0.613   2.562  0.0000  0.0000  0.0000
  471BTD    C50 9513   3.329   0.589   2.410  0.0000  0.0000  0.0000
  471BTD    C75 9514   3.708   0.980   2.583  0.0000  0.0000  0.0000
  471BTD    C76 9515   3.846   0.917   2.548  0.0000  0.0000  0.0000
  471BTD    C77 9516   3.844   0.831   2.419  0.0000  0.0000  0.0000
  471BTD    C78 9517   3.700   0.862   2.373  0.0000  0.0000  0.0000
  471BTD    C79 9518   3.967   1.011   2.529  0.0000  0.0000  0.0000
  471BTD    C80 9519   3.946   1.142   2.450  0.0000  0.0000  0.0000
  471BTD    C81 9520   4.042   1.262   2.475  0.0000  0.0000  0.0000
  471BTD    C82 9521   4.173   1.266   2.391  0.0000  0.0000  0.0000
  472TTP     S1 9522   3.951   0.766   3.231  0.0000  0.0000  0.0000
  472TTP     S5 9523   3.768   0.459   3.013  0.0000  0.0000  0.0000
  472TTP     C1 9524   3.828   0.389   3.159  0.0000  0.0000  0.0000
  472TTP     C2 9525   3.888   0.481   3.236  0.0000  0.0000  0.0000
  472TTP     C3 9526   3.890   0.611   3.185  0.0000  0.0000  0.0000
  472TTP     C4 9527   3.886   0.837   3.089  0.0000  0.0000  0.0000
  472TTP    C17 9528   3.825   0.745   3.005  0.0000  0.0000  0.0000
  472TTP    C18 9529   3.824   0.613   3.057  0.0000  0.0000  0.0000
  472TTP    C32 9530   3.946   0.456   3.378  0.0000  0.0000  0.0000
  472TTP    C33 9531   4.099   0.471   3.400  0.0000  0.0000  0.0000
  472TTP    C34 9532   4.157   0.436   3.540  0.0000  0.0000  0.0000
  472TTP    C35 9533   4.309   0.442   3.511  0.0000  0.0000  0.0000
  472TTP    C36 9534   4.356   0.296   3.486  0.0000  0.0000  0.0000
  472TTP    C37 9535   4.287   0.182   3.569  0.0000  0.0000  0.0000
  472TTP    C38 9536   4.372   0.063   3.620  0.0000  0.0000  0.0000
  472TTP    C39 9537   4.262   0.018   3.718  0.0000  0.0000  0.0000
  472TTP    C40 9538   4.306  -0.024   3.862  0.0000  0.0000  0.0000
  472TTP    C41 9539   4.225  -0.132   3.940  0.0000  0.0000  0.0000
  472TTP    C42 9540   4.288  -0.197   4.066  0.0000  0.0000  0.0000
  473TTP     S1 9541   3.787   1.457   2.747  0.0000  0.0000  0.0000
  473TTP     S5 9542   3.565   1.281   2.437  0.0000  0.0000  0.0000
  473TTP     C1 9543   3.559   1.457   2.419  0.0000  0.0000  0.0000
  473TTP     C2 9544   3.630   1.522   2.515  0.0000  0.0000  0.0000
  473TTP     C3 9545   3.691   1.434   2.604  0.0000  0.0000  0.0000
  473TTP     C4 9546   3.785   1.286   2.773  0.0000  0.0000  0.0000
  473TTP    C17 9547   3.722   1.215   2.671  0.0000  0.0000  0.0000
  473TTP    C18 9548   3.664   1.299   2.575  0.0000  0.0000  0.0000
  473TTP    C32 9549   3.649   1.676   2.525  0.0000  0.0000  0.0000
  473TTP    C33 9550   3.766   1.729   2.437  0.0000  0.0000  0.0000
  473TTP    C34 9551   3.784   1.882   2.442  0.0000  0.0000  0.0000
  473TTP    C35 9552   3.813   1.925   2.588  0.0000  0.0000  0.0000
  473TTP    C36 9553   3.826   2.076   2.621  0.0000  0.0000  0.0000
  473TTP    C37 9554   3.703   2.169   2.606  0.0000  0.0000  0.0000
  473TTP    C38 9555   3.789   2.296   2.635  0.0000  0.0000  0.0000
  473TTP    C39 9556   3.696   2.397   2.563  0.0000  0.0000  0.0000
  473TTP    C40 9557   3.689   2.394   2.408  0.0000  0.0000  0.0000
  473TTP    C41 9558   3.583   2.307   2.336  0.0000  0.0000  0.0000
  473TTP    C42 9559   3.617   2.164   2.287  0.0000  0.0000  0.0000
  474FIC     F1 9560   3.495  -0.260   2.786  0.0000  0.0000  0.0000
  474FIC     F2 9561   3.536  -0.395   3.015  0.0000  0.0000  0.0000
  474FIC     O1 9562   3.705   0.216   2.923  0.0000  0.0000  0.0000
  474FIC     N5 9563   3.744  -0.267   3.425  0.0000  0.0000  0.0000
  474FIC     N6 9564   3.916   0.130   3.513  0.0000  0.0000  0.0000
  474FIC    C19 9565   3.811   0.255   3.201  0.0000  0.0000  0.0000
  474FIC    C20 9566   3.759   0.141   3.149  0.0000  0.0000  0.0000
  474FIC    C21 9567   3.704   0.130   3.015  0.0000  0.0000  0.0000
  474FIC    C22 9568   3.657  -0.009   2.999  0.0000  0.0000  0.0000
  474FIC    C23 9569   3.596  -0.063   2.882  0.0000  0.0000  0.0000
  474FIC    C24 9570   3.555  -0.197   2.904  0.0000  0.0000  0.0000
  474FIC    C25 9571   3.574  -0.264   3.016  0.0000  0.0000  0.0000
  474FIC    C26 9572   3.632  -0.210   3.121  0.0000  0.0000  0.0000
  474FIC    C27 9573   3.675  -0.082   3.108  0.0000  0.0000  0.0000
  474FIC    C28 9574   3.743   0.009   3.208  0.0000  0.0000  0.0000
  474FIC    C29 9575   3.785  -0.019   3.350  0.0000  0.0000  0.0000
  474FIC    C30 9576   3.764  -0.163   3.389  0.0000  0.0000  0.0000
  474FIC    C31 9577   3.851   0.067   3.445  0.0000  0.0000  0.0000
  475FIC     F1 9578   3.101   1.184   1.806  0.0000  0.0000  0.0000
  475FIC     F2 9579   3.046   1.436   1.744  0.0000  0.0000  0.0000
  475FIC     O1 9580   3.421   1.248   2.223  0.0000  0.0000  0.0000
  475FIC     N5 9581   3.195   1.850   1.950  0.0000  0.0000  0.0000
  475FIC     N6 9582   3.390   1.866   2.323  0.0000  0.0000  0.0000
  475FIC    C19 9583   3.483   1.527   2.321  0.0000  0.0000  0.0000
  475FIC    C20 9584   3.401   1.490   2.219  0.0000  0.0000  0.0000
  475FIC    C21 9585   3.376   1.350   2.177  0.0000  0.0000  0.0000
  475FIC    C22 9586   3.292   1.358   2.057  0.0000  0.0000  0.0000
  475FIC    C23 9587   3.239   1.252   1.984  0.0000  0.0000  0.0000
  475FIC    C24 9588   3.164   1.282   1.879  0.0000  0.0000  0.0000
  475FIC    C25 9589   3.131   1.415   1.847  0.0000  0.0000  0.0000
  475FIC    C26 9590   3.180   1.519   1.921  0.0000  0.0000  0.0000
  475FIC    C27 9591   3.261   1.490   2.025  0.0000  0.0000  0.0000
  475FIC    C28 9592   3.326   1.576   2.130  0.0000  0.0000  0.0000
  475FIC    C29 9593   3.312   1.714   2.134  0.0000  0.0000  0.0000
  475FIC    C30 9594   3.248   1.788   2.033  0.0000  0.0000  0.0000
  475FIC    C31 9595   3.357   1.796   2.243  0.0000  0.0000  0.0000
  476BTD     S2 9596   2.859   1.294   0.798  0.0000  0.0000  0.0000
  476BTD     N1 9597   2.849   1.133   0.809  0.0000  0.0000  0.0000
  476BTD     N2 9598   2.938   1.325   0.936  0.0000  0.0000  0.0000
  476BTD     N3 9599   3.108   1.063   1.297  0.0000  0.0000  0.0000
  476BTD     N4 9600   2.994   0.803   1.120  0.0000  0.0000  0.0000
  476BTD     C5 9601   2.924   0.967   0.978  0.0000  0.0000  0.0000
  476BTD     C6 9602   2.907   1.098   0.922  0.0000  0.0000  0.0000
  476BTD     C7 9603   2.958   1.208   0.996  0.0000  0.0000  0.0000
  476BTD     C8 9604   3.020   1.187   1.120  0.0000  0.0000  0.0000
  476BTD    C15 9605   3.039   1.054   1.173  0.0000  0.0000  0.0000
  476BTD    C16 9606   2.991   0.943   1.097  0.0000  0.0000  0.0000
  476BTD    C43 9607   3.083   0.726   1.208  0.0000  0.0000  0.0000
  476BTD    C44 9608   3.235   0.736   1.178  0.0000  0.0000  0.0000
  476BTD    C45 9609   3.308   0.637   1.273  0.0000  0.0000  0.0000
  476BTD    C46 9610   3.458   0.679   1.271  0.0000  0.0000  0.0000
  476BTD    C47 9611   3.268   0.710   1.029  0.0000  0.0000  0.0000
  476BTD    C48 9612   3.283   0.569   0.965  0.0000  0.0000  0.0000
  476BTD    C49 9613   3.297   0.600   0.814  0.0000  0.0000  0.0000
  476BTD    C50 9614   3.393   0.646   0.701  0.0000  0.0000  0.0000
  476BTD    C75 9615   3.094   0.976   1.414  0.0000  0.0000  0.0000
  476BTD    C76 9616   2.946   0.946   1.449  0.0000  0.0000  0.0000
  476BTD    C77 9617   2.937   0.858   1.576  0.0000  0.0000  0.0000
  476BTD    C78 9618   2.796   0.804   1.612  0.0000  0.0000  0.0000
  476BTD    C79 9619   2.860   1.073   1.470  0.0000  0.0000  0.0000
  476BTD    C80 9620   2.888   1.161   1.594  0.0000  0.0000  0.0000
  476BTD    C81 9621   2.796   1.287   1.588  0.0000  0.0000  0.0000
  476BTD    C82 9622   2.827   1.412   1.501  0.0000  0.0000  0.0000
  477TTP     S1 9623   2.798   0.777   0.792  0.0000  0.0000  0.0000
  477TTP     S5 9624   2.896   0.459   1.048  0.0000  0.0000  0.0000
  477TTP     C1 9625   2.800   0.395   0.917  0.0000  0.0000  0.0000
  477TTP     C2 9626   2.762   0.493   0.828  0.0000  0.0000  0.0000
  477TTP     C3 9627   2.817   0.615   0.862  0.0000  0.0000  0.0000
  477TTP     C4 9628   2.882   0.838   0.923  0.0000  0.0000  0.0000
  477TTP    C17 9629   2.933   0.748   1.014  0.0000  0.0000  0.0000
  477TTP    C18 9630   2.889   0.613   0.974  0.0000  0.0000  0.0000
  477TTP    C32 9631   2.676   0.475   0.700  0.0000  0.0000  0.0000
  477TTP    C33 9632   2.767   0.441   0.579  0.0000  0.0000  0.0000
  477TTP    C34 9633   2.674   0.418   0.457  0.0000  0.0000  0.0000
  477TTP    C35 9634   2.732   0.348   0.333  0.0000  0.0000  0.0000
  477TTP    C36 9635   2.638   0.254   0.252  0.0000  0.0000  0.0000
  477TTP    C37 9636   2.518   0.318   0.175  0.0000  0.0000  0.0000
  477TTP    C38 9637   2.438   0.450   0.163  0.0000  0.0000  0.0000
  477TTP    C39 9638   2.356   0.500   0.285  0.0000  0.0000  0.0000
  477TTP    C40 9639   2.297   0.397   0.386  0.0000  0.0000  0.0000
  477TTP    C41 9640   2.310   0.424   0.539  0.0000  0.0000  0.0000
  477TTP    C42 9641   2.291   0.302   0.634  0.0000  0.0000  0.0000
  478TTP     S1 9642   3.102   1.446   1.235  0.0000  0.0000  0.0000
  478TTP     S5 9643   3.304   1.243   1.544  0.0000  0.0000  0.0000
  478TTP     C1 9644   3.335   1.416   1.565  0.0000  0.0000  0.0000
  478TTP     C2 9645   3.271   1.490   1.464  0.0000  0.0000  0.0000
  478TTP     C3 9646   3.194   1.410   1.380  0.0000  0.0000  0.0000
  478TTP     C4 9647   3.079   1.275   1.214  0.0000  0.0000  0.0000
  478TTP    C17 9648   3.133   1.200   1.318  0.0000  0.0000  0.0000
  478TTP    C18 9649   3.204   1.277   1.414  0.0000  0.0000  0.0000
  478TTP    C32 9650   3.263   1.645   1.458  0.0000  0.0000  0.0000
  478TTP    C33 9651   3.158   1.712   1.551  0.0000  0.0000  0.0000
  478TTP    C34 9652   3.151   1.866   1.536  0.0000  0.0000  0.0000
  478TTP    C35 9653   3.042   1.917   1.634  0.0000  0.0000  0.0000
  478TTP    C36 9654   3.058   2.071   1.639  0.0000  0.0000  0.0000
  478TTP    C37 9655   3.025   2.109   1.492  0.0000  0.0000  0.0000
  478TTP    C38 9656   3.020   2.263   1.462  0.0000  0.0000  0.0000
  478TTP    C39 9657   2.958   2.313   1.330  0.0000  0.0000  0.0000
  478TTP    C40 9658   3.049   2.381   1.223  0.0000  0.0000  0.0000
  478TTP    C41 9659   3.124   2.512   1.258  0.0000  0.0000  0.0000
  478TTP    C42 9660   3.146   2.620   1.149  0.0000  0.0000  0.0000
  479FIC     F1 9661   2.829  -0.231   1.440  0.0000  0.0000  0.0000
  479FIC     F2 9662   2.720  -0.385   1.249  0.0000  0.0000  0.0000
  479FIC     O1 9663   2.884   0.228   1.180  0.0000  0.0000  0.0000
  479FIC     N5 9664   2.568  -0.273   0.804  0.0000  0.0000  0.0000
  479FIC     N6 9665   2.616   0.108   0.625  0.0000  0.0000  0.0000
  479FIC    C19 9666   2.756   0.258   0.907  0.0000  0.0000  0.0000
  479FIC    C20 9667   2.765   0.147   0.987  0.0000  0.0000  0.0000
  479FIC    C21 9668   2.827   0.140   1.115  0.0000  0.0000  0.0000
  479FIC    C22 9669   2.803   0.005   1.169  0.0000  0.0000  0.0000
  479FIC    C23 9670   2.832  -0.044   1.299  0.0000  0.0000  0.0000
  479FIC    C24 9671   2.804  -0.173   1.324  0.0000  0.0000  0.0000
  479FIC    C25 9672   2.744  -0.252   1.214  0.0000  0.0000  0.0000
  479FIC    C26 9673   2.708  -0.208   1.098  0.0000  0.0000  0.0000
  479FIC    C27 9674   2.743  -0.073   1.070  0.0000  0.0000  0.0000
  479FIC    C28 9675   2.719   0.014   0.954  0.0000  0.0000  0.0000
  479FIC    C29 9676   2.659  -0.029   0.837  0.0000  0.0000  0.0000
  479FIC    C30 9677   2.611  -0.173   0.825  0.0000  0.0000  0.0000
  479FIC    C31 9678   2.641   0.048   0.718  0.0000  0.0000  0.0000
  480FIC     F1 9679   3.792   1.094   2.157  0.0000  0.0000  0.0000
  480FIC     F2 9680   3.839   1.336   2.238  0.0000  0.0000  0.0000
  480FIC     O1 9681   3.480   1.188   1.734  0.0000  0.0000  0.0000
  480FIC     N5 9682   3.662   1.757   2.088  0.0000  0.0000  0.0000
  480FIC     N6 9683   3.471   1.812   1.710  0.0000  0.0000  0.0000
  480FIC    C19 9684   3.412   1.474   1.667  0.0000  0.0000  0.0000
  480FIC    C20 9685   3.491   1.428   1.766  0.0000  0.0000  0.0000
  480FIC    C21 9686   3.523   1.282   1.798  0.0000  0.0000  0.0000
  480FIC    C22 9687   3.602   1.280   1.914  0.0000  0.0000  0.0000
  480FIC    C23 9688   3.658   1.169   1.980  0.0000  0.0000  0.0000
  480FIC    C24 9689   3.734   1.186   2.090  0.0000  0.0000  0.0000
  480FIC    C25 9690   3.763   1.315   2.132  0.0000  0.0000  0.0000
  480FIC    C26 9691   3.708   1.434   2.074  0.0000  0.0000  0.0000
  480FIC    C27 9692   3.625   1.413   1.961  0.0000  0.0000  0.0000
  480FIC    C28 9693   3.558   1.502   1.869  0.0000  0.0000  0.0000
  480FIC    C29 9694   3.563   1.642   1.881  0.0000  0.0000  0.0000
  480FIC    C30 9695   3.620   1.706   2.000  0.0000  0.0000  0.0000
  480FIC    C31 9696   3.507   1.736   1.788  0.0000  0.0000  0.0000
  481BTD     S2 9697   5.601   1.605   2.195  0.0000  0.0000  0.0000
  481BTD     N1 9698   5.588   1.769   2.190  0.0000  0.0000  0.0000
  481BTD     N2 9699   5.536   1.565   2.052  0.0000  0.0000  0.0000
  481BTD     N3 9700   5.335   1.812   1.703  0.0000  0.0000  0.0000
  481BTD     N4 9701   5.391   2.084   1.895  0.0000  0.0000  0.0000
  481BTD     C5 9702   5.492   1.925   2.034  0.0000  0.0000  0.0000
  481BTD     C6 9703   5.532   1.797   2.078  0.0000  0.0000  0.0000
  481BTD     C7 9704   5.503   1.682   1.998  0.0000  0.0000  0.0000
  481BTD     C8 9705   5.436   1.699   1.873  0.0000  0.0000  0.0000
  481BTD    C15 9706   5.400   1.827   1.823  0.0000  0.0000  0.0000
  481BTD    C16 9707   5.419   1.948   1.909  0.0000  0.0000  0.0000
  481BTD    C43 9708   5.288   2.149   1.818  0.0000  0.0000  0.0000
  481BTD    C44 9709   5.146   2.097   1.855  0.0000  0.0000  0.0000
  481BTD    C45 9710   5.108   2.072   2.004  0.0000  0.0000  0.0000
  481BTD    C46 9711   5.102   2.204   2.086  0.0000  0.0000  0.0000
  481BTD    C47 9712   5.030   2.177   1.789  0.0000  0.0000  0.0000
  481BTD    C48 9713   5.013   2.171   1.635  0.0000  0.0000  0.0000
  481BTD    C49 9714   4.924   2.277   1.563  0.0000  0.0000  0.0000
  481BTD    C50 9715   4.945   2.302   1.411  0.0000  0.0000  0.0000
  481BTD    C75 9716   5.323   1.910   1.584  0.0000  0.0000  0.0000
  481BTD    C76 9717   5.461   1.974   1.549  0.0000  0.0000  0.0000
  481BTD    C77 9718   5.460   2.060   1.420  0.0000  0.0000  0.0000
  481BTD    C78 9719   5.315   2.028   1.375  0.0000  0.0000  0.0000
  481BTD    C79 9720   5.582   1.880   1.531  0.0000  0.0000  0.0000
  481BTD    C80 9721   5.561   1.748   1.452  0.0000  0.0000  0.0000
  481BTD    C81 9722   5.657   1.629   1.476  0.0000  0.0000  0.0000
  481BTD    C82 9723   5.789   1.624   1.393  0.0000  0.0000  0.0000
  482TTP     S1 9724   5.567   2.124   2.233  0.0000  0.0000  0.0000
  482TTP     S5 9725   5.384   2.431   2.014  0.0000  0.0000  0.0000
  482TTP     C1 9726   5.443   2.501   2.160  0.0000  0.0000  0.0000
  482TTP     C2 9727   5.504   2.410   2.238  0.0000  0.0000  0.0000
  482TTP     C3 9728   5.506   2.279   2.186  0.0000  0.0000  0.0000
  482TTP     C4 9729   5.501   2.053   2.091  0.0000  0.0000  0.0000
  482TTP    C17 9730   5.441   2.145   2.006  0.0000  0.0000  0.0000
  482TTP    C18 9731   5.440   2.278   2.058  0.0000  0.0000  0.0000
  482TTP    C32 9732   5.562   2.434   2.379  0.0000  0.0000  0.0000
  482TTP    C33 9733   5.714   2.419   2.402  0.0000  0.0000  0.0000
  482TTP    C34 9734   5.772   2.454   2.541  0.0000  0.0000  0.0000
  482TTP    C35 9735   5.925   2.448   2.512  0.0000  0.0000  0.0000
  482TTP    C36 9736   5.971   2.595   2.488  0.0000  0.0000  0.0000
  482TTP    C37 9737   5.903   2.708   2.570  0.0000  0.0000  0.0000
  482TTP    C38 9738   5.987   2.828   2.622  0.0000  0.0000  0.0000
  482TTP    C39 9739   5.877   2.873   2.720  0.0000  0.0000  0.0000
  482TTP    C40 9740   5.922   2.914   2.864  0.0000  0.0000  0.0000
  482TTP    C41 9741   5.841   3.022   2.941  0.0000  0.0000  0.0000
  482TTP    C42 9742   5.903   3.088   3.067  0.0000  0.0000  0.0000
  483TTP     S1 9743   5.403   1.434   1.749  0.0000  0.0000  0.0000
  483TTP     S5 9744   5.181   1.609   1.438  0.0000  0.0000  0.0000
  483TTP     C1 9745   5.175   1.434   1.421  0.0000  0.0000  0.0000
  483TTP     C2 9746   5.246   1.369   1.517  0.0000  0.0000  0.0000
  483TTP     C3 9747   5.307   1.457   1.606  0.0000  0.0000  0.0000
  483TTP     C4 9748   5.401   1.604   1.775  0.0000  0.0000  0.0000
  483TTP    C17 9749   5.338   1.676   1.672  0.0000  0.0000  0.0000
  483TTP    C18 9750   5.279   1.591   1.577  0.0000  0.0000  0.0000
  483TTP    C32 9751   5.264   1.215   1.526  0.0000  0.0000  0.0000
  483TTP    C33 9752   5.382   1.162   1.438  0.0000  0.0000  0.0000
  483TTP    C34 9753   5.400   1.009   1.443  0.0000  0.0000  0.0000
  483TTP    C35 9754   5.428   0.966   1.590  0.0000  0.0000  0.0000
  483TTP    C36 9755   5.442   0.815   1.622  0.0000  0.0000  0.0000
  483TTP    C37 9756   5.319   0.721   1.608  0.0000  0.0000  0.0000
  483TTP    C38 9757   5.405   0.594   1.636  0.0000  0.0000  0.0000
  483TTP    C39 9758   5.311   0.494   1.565  0.0000  0.0000  0.0000
  483TTP    C40 9759   5.305   0.496   1.409  0.0000  0.0000  0.0000
  483TTP    C41 9760   5.198   0.583   1.338  0.0000  0.0000  0.0000
  483TTP    C42 9761   5.233   0.727   1.288  0.0000  0.0000  0.0000
  484FIC     F1 9762   5.111   3.150   1.788  0.0000  0.0000  0.0000
  484FIC     F2 9763   5.152   3.286   2.017  0.0000  0.0000  0.0000
  484FIC     O1 9764   5.321   2.674   1.925  0.0000  0.0000  0.0000
  484FIC     N5 9765   5.360   3.157   2.426  0.0000  0.0000  0.0000
  484FIC     N6 9766   5.531   2.760   2.515  0.0000  0.0000  0.0000
  484FIC    C19 9767   5.426   2.636   2.202  0.0000  0.0000  0.0000
  484FIC    C20 9768   5.374   2.750   2.150  0.0000  0.0000  0.0000
  484FIC    C21 9769   5.319   2.761   2.016  0.0000  0.0000  0.0000
  484FIC    C22 9770   5.273   2.900   2.001  0.0000  0.0000  0.0000
  484FIC    C23 9771   5.212   2.954   1.884  0.0000  0.0000  0.0000
  484FIC    C24 9772   5.170   3.087   1.905  0.0000  0.0000  0.0000
  484FIC    C25 9773   5.190   3.155   2.017  0.0000  0.0000  0.0000
  484FIC    C26 9774   5.247   3.101   2.122  0.0000  0.0000  0.0000
  484FIC    C27 9775   5.290   2.973   2.109  0.0000  0.0000  0.0000
  484FIC    C28 9776   5.358   2.881   2.210  0.0000  0.0000  0.0000
  484FIC    C29 9777   5.400   2.909   2.351  0.0000  0.0000  0.0000
  484FIC    C30 9778   5.380   3.053   2.390  0.0000  0.0000  0.0000
  484FIC    C31 9779   5.467   2.823   2.446  0.0000  0.0000  0.0000
  485FIC     F1 9780   4.716   1.706   0.808  0.0000  0.0000  0.0000
  485FIC     F2 9781   4.662   1.455   0.745  0.0000  0.0000  0.0000
  485FIC     O1 9782   5.037   1.643   1.224  0.0000  0.0000  0.0000
  485FIC     N5 9783   4.811   1.041   0.951  0.0000  0.0000  0.0000
  485FIC     N6 9784   5.005   1.024   1.325  0.0000  0.0000  0.0000
  485FIC    C19 9785   5.098   1.363   1.323  0.0000  0.0000  0.0000
  485FIC    C20 9786   5.017   1.400   1.221  0.0000  0.0000  0.0000
  485FIC    C21 9787   4.992   1.541   1.178  0.0000  0.0000  0.0000
  485FIC    C22 9788   4.907   1.532   1.058  0.0000  0.0000  0.0000
  485FIC    C23 9789   4.855   1.639   0.985  0.0000  0.0000  0.0000
  485FIC    C24 9790   4.779   1.608   0.881  0.0000  0.0000  0.0000
  485FIC    C25 9791   4.747   1.475   0.848  0.0000  0.0000  0.0000
  485FIC    C26 9792   4.795   1.372   0.922  0.0000  0.0000  0.0000
  485FIC    C27 9793   4.877   1.401   1.027  0.0000  0.0000  0.0000
  485FIC    C28 9794   4.941   1.315   1.131  0.0000  0.0000  0.0000
  485FIC    C29 9795   4.928   1.177   1.136  0.0000  0.0000  0.0000
  485FIC    C30 9796   4.863   1.103   1.034  0.0000  0.0000  0.0000
  485FIC    C31 9797   4.972   1.094   1.245  0.0000  0.0000  0.0000
  486BTD     S2 9798   4.475   1.597  -0.200  0.0000  0.0000  0.0000
  486BTD     N1 9799   4.464   1.758  -0.189  0.0000  0.0000  0.0000
  486BTD     N2 9800   4.554   1.565  -0.063  0.0000  0.0000  0.0000
  486BTD     N3 9801   4.723   1.827   0.299  0.0000  0.0000  0.0000
  486BTD     N4 9802   4.610   2.087   0.121  0.0000  0.0000  0.0000
  486BTD     C5 9803   4.540   1.923  -0.020  0.0000  0.0000  0.0000
  486BTD     C6 9804   4.523   1.793  -0.076  0.0000  0.0000  0.0000
  486BTD     C7 9805   4.574   1.682  -0.003  0.0000  0.0000  0.0000
  486BTD     C8 9806   4.635   1.703   0.122  0.0000  0.0000  0.0000
  486BTD    C15 9807   4.654   1.836   0.175  0.0000  0.0000  0.0000
  486BTD    C16 9808   4.606   1.948   0.098  0.0000  0.0000  0.0000
  486BTD    C43 9809   4.698   2.164   0.210  0.0000  0.0000  0.0000
  486BTD    C44 9810   4.851   2.154   0.180  0.0000  0.0000  0.0000
  486BTD    C45 9811   4.923   2.253   0.274  0.0000  0.0000  0.0000
  486BTD    C46 9812   5.073   2.211   0.273  0.0000  0.0000  0.0000
  486BTD    C47 9813   4.884   2.181   0.030  0.0000  0.0000  0.0000
  486BTD    C48 9814   4.898   2.322  -0.033  0.0000  0.0000  0.0000
  486BTD    C49 9815   4.912   2.290  -0.184  0.0000  0.0000  0.0000
  486BTD    C50 9816   5.009   2.244  -0.298  0.0000  0.0000  0.0000
  486BTD    C75 9817   4.710   1.915   0.415  0.0000  0.0000  0.0000
  486BTD    C76 9818   4.561   1.945   0.451  0.0000  0.0000  0.0000
  486BTD    C77 9819   4.552   2.033   0.578  0.0000  0.0000  0.0000
  486BTD    C78 9820   4.411   2.086   0.613  0.0000  0.0000  0.0000
  486BTD    C79 9821   4.476   1.818   0.471  0.0000  0.0000  0.0000
  486BTD    C80 9822   4.503   1.729   0.595  0.0000  0.0000  0.0000
  486BTD    C81 9823   4.411   1.604   0.590  0.0000  0.0000  0.0000
  486BTD    C82 9824   4.442   1.478   0.503  0.0000  0.0000  0.0000
  487TTP     S1 9825   4.413   2.113  -0.207  0.0000  0.0000  0.0000
  487TTP     S5 9826   4.512   2.432   0.050  0.0000  0.0000  0.0000
  487TTP     C1 9827   4.415   2.495  -0.082  0.0000  0.0000  0.0000
  487TTP     C2 9828   4.377   2.398  -0.170  0.0000  0.0000  0.0000
  487TTP     C3 9829   4.433   2.275  -0.137  0.0000  0.0000  0.0000
  487TTP     C4 9830   4.498   2.052  -0.076  0.0000  0.0000  0.0000
  487TTP    C17 9831   4.549   2.143   0.015  0.0000  0.0000  0.0000
  487TTP    C18 9832   4.505   2.277  -0.025  0.0000  0.0000  0.0000
  487TTP    C32 9833   4.292   2.415  -0.298  0.0000  0.0000  0.0000
  487TTP    C33 9834   4.382   2.449  -0.420  0.0000  0.0000  0.0000
  487TTP    C34 9835   4.289   2.472  -0.541  0.0000  0.0000  0.0000
  487TTP    C35 9836   4.348   2.543  -0.666  0.0000  0.0000  0.0000
  487TTP    C36 9837   4.253   2.637  -0.747  0.0000  0.0000  0.0000
  487TTP    C37 9838   4.134   2.573  -0.824  0.0000  0.0000  0.0000
  487TTP    C38 9839   4.053   2.441  -0.836  0.0000  0.0000  0.0000
  487TTP    C39 9840   3.971   2.391  -0.713  0.0000  0.0000  0.0000
  487TTP    C40 9841   3.912   2.493  -0.613  0.0000  0.0000  0.0000
  487TTP    C41 9842   3.925   2.467  -0.460  0.0000  0.0000  0.0000
  487TTP    C42 9843   3.907   2.588  -0.365  0.0000  0.0000  0.0000
  488TTP     S1 9844   4.718   1.444   0.237  0.0000  0.0000  0.0000
  488TTP     S5 9845   4.920   1.647   0.545  0.0000  0.0000  0.0000
  488TTP     C1 9846   4.951   1.474   0.567  0.0000  0.0000  0.0000
  488TTP     C2 9847   4.886   1.400   0.466  0.0000  0.0000  0.0000
  488TTP     C3 9848   4.809   1.480   0.382  0.0000  0.0000  0.0000
  488TTP     C4 9849   4.695   1.616   0.216  0.0000  0.0000  0.0000
  488TTP    C17 9850   4.749   1.691   0.320  0.0000  0.0000  0.0000
  488TTP    C18 9851   4.819   1.614   0.415  0.0000  0.0000  0.0000
  488TTP    C32 9852   4.879   1.246   0.459  0.0000  0.0000  0.0000
  488TTP    C33 9853   4.774   1.179   0.553  0.0000  0.0000  0.0000
  488TTP    C34 9854   4.767   1.024   0.537  0.0000  0.0000  0.0000
  488TTP    C35 9855   4.658   0.974   0.635  0.0000  0.0000  0.0000
  488TTP    C36 9856   4.674   0.820   0.641  0.0000  0.0000  0.0000
  488TTP    C37 9857   4.641   0.782   0.493  0.0000  0.0000  0.0000
  488TTP    C38 9858   4.635   0.628   0.464  0.0000  0.0000  0.0000
  488TTP    C39 9859   4.573   0.577   0.332  0.0000  0.0000  0.0000
  488TTP    C40 9860   4.664   0.509   0.225  0.0000  0.0000  0.0000
  488TTP    C41 9861   4.739   0.378   0.259  0.0000  0.0000  0.0000
  488TTP    C42 9862   4.761   0.271   0.150  0.0000  0.0000  0.0000
  489FIC     F1 9863   4.445   3.122   0.442  0.0000  0.0000  0.0000
  489FIC     F2 9864   4.336   3.276   0.250  0.0000  0.0000  0.0000
  489FIC     O1 9865   4.499   2.663   0.181  0.0000  0.0000  0.0000
  489FIC     N5 9866   4.183   3.163  -0.195  0.0000  0.0000  0.0000
  489FIC     N6 9867   4.231   2.782  -0.374  0.0000  0.0000  0.0000
  489FIC    C19 9868   4.371   2.632  -0.092  0.0000  0.0000  0.0000
  489FIC    C20 9869   4.380   2.743  -0.011  0.0000  0.0000  0.0000
  489FIC    C21 9870   4.443   2.751   0.116  0.0000  0.0000  0.0000
  489FIC    C22 9871   4.418   2.885   0.170  0.0000  0.0000  0.0000
  489FIC    C23 9872   4.448   2.935   0.301  0.0000  0.0000  0.0000
  489FIC    C24 9873   4.419   3.064   0.325  0.0000  0.0000  0.0000
  489FIC    C25 9874   4.359   3.143   0.216  0.0000  0.0000  0.0000
  489FIC    C26 9875   4.323   3.098   0.099  0.0000  0.0000  0.0000
  489FIC    C27 9876   4.358   2.963   0.071  0.0000  0.0000  0.0000
  489FIC    C28 9877   4.334   2.877  -0.045  0.0000  0.0000  0.0000
  489FIC    C29 9878   4.274   2.920  -0.161  0.0000  0.0000  0.0000
  489FIC    C30 9879   4.226   3.063  -0.174  0.0000  0.0000  0.0000
  489FIC    C31 9880   4.257   2.842  -0.280  0.0000  0.0000  0.0000
  490FIC     F1 9881   5.407   1.797   1.158  0.0000  0.0000  0.0000
  490FIC     F2 9882   5.454   1.554   1.239  0.0000  0.0000  0.0000
  490FIC     O1 9883   5.095   1.703   0.736  0.0000  0.0000  0.0000
  490FIC     N5 9884   5.277   1.134   1.089  0.0000  0.0000  0.0000
  490FIC     N6 9885   5.087   1.079   0.711  0.0000  0.0000  0.0000
  490FIC    C19 9886   5.027   1.416   0.668  0.0000  0.0000  0.0000
  490FIC    C20 9887   5.107   1.462   0.767  0.0000  0.0000  0.0000
  490FIC    C21 9888   5.138   1.609   0.800  0.0000  0.0000  0.0000
  490FIC    C22 9889   5.217   1.611   0.915  0.0000  0.0000  0.0000
  490FIC    C23 9890   5.274   1.721   0.982  0.0000  0.0000  0.0000
  490FIC    C24 9891   5.350   1.704   1.091  0.0000  0.0000  0.0000
  490FIC    C25 9892   5.379   1.575   1.134  0.0000  0.0000  0.0000
  490FIC    C26 9893   5.323   1.456   1.075  0.0000  0.0000  0.0000
  490FIC    C27 9894   5.240   1.478   0.963  0.0000  0.0000  0.0000
  490FIC    C28 9895   5.174   1.388   0.870  0.0000  0.0000  0.0000
  490FIC    C29 9896   5.178   1.249   0.882  0.0000  0.0000  0.0000
  490FIC    C30 9897   5.235   1.184   1.001  0.0000  0.0000  0.0000
  490FIC    C31 9898   5.122   1.155   0.789  0.0000  0.0000  0.0000
  491BTD     S2 9899   3.469  -1.605  -2.195  0.0000  0.0000  0.0000
  491BTD     N1 9900   3.482  -1.769  -2.190  0.0000  0.0000  0.0000
  491BTD     N2 9901   3.534  -1.565  -2.052  0.0000  0.0000  0.0000
  491BTD     N3 9902   3.735  -1.812  -1.703  0.0000  0.0000  0.0000
  491BTD     N4 9903   3.679  -2.084  -1.895  0.0000  0.0000  0.0000
  491BTD     C5 9904   3.578  -1.925  -2.034  0.0000  0.0000  0.0000
  491BTD     C6 9905   3.538  -1.797  -2.078  0.0000  0.0000  0.0000
  491BTD     C7 9906   3.567  -1.682  -1.998  0.0000  0.0000  0.0000
  491BTD     C8 9907   3.634  -1.699  -1.873  0.0000  0.0000  0.0000
  491BTD    C15 9908   3.670  -1.827  -1.823  0.0000  0.0000  0.0000
  491BTD    C16 9909   3.651  -1.948  -1.909  0.0000  0.0000  0.0000
  491BTD    C43 9910   3.782  -2.149  -1.818  0.0000  0.0000  0.0000
  491BTD    C44 9911   3.924  -2.097  -1.855  0.0000  0.0000  0.0000
  491BTD    C45 9912   3.962  -2.072  -2.004  0.0000  0.0000  0.0000
  491BTD    C46 9913   3.968  -2.204  -2.086  0.0000  0.0000  0.0000
  491BTD    C47 9914   4.040  -2.177  -1.789  0.0000  0.0000  0.0000
  491BTD    C48 9915   4.057  -2.171  -1.635  0.0000  0.0000  0.0000
  491BTD    C49 9916   4.146  -2.277  -1.563  0.0000  0.0000  0.0000
  491BTD    C50 9917   4.125  -2.302  -1.411  0.0000  0.0000  0.0000
  491BTD    C75 9918   3.747  -1.910  -1.584  0.0000  0.0000  0.0000
  491BTD    C76 9919   3.609  -1.974  -1.549  0.0000  0.0000  0.0000
  491BTD    C77 9920   3.610  -2.060  -1.420  0.0000  0.0000  0.0000
  491BTD    C78 9921   3.755  -2.028  -1.375  0.0000  0.0000  0.0000
  491BTD    C79 9922   3.488  -1.880  -1.531  0.0000  0.0000  0.0000
  491BTD    C80 9923   3.509  -1.748  -1.452  0.0000  0.0000  0.0000
  491BTD    C81 9924   3.413  -1.629  -1.476  0.0000  0.0000  0.0000
  491BTD    C82 9925   3.281  -1.624  -1.393  0.0000  0.0000  0.0000
  492TTP     S1 9926   3.503  -2.124  -2.233  0.0000  0.0000  0.0000
  492TTP     S5 9927   3.686  -2.431  -2.014  0.0000  0.0000  0.0000
  492TTP     C1 9928   3.627  -2.501  -2.160  0.0000  0.0000  0.0000
  492TTP     C2 9929   3.566  -2.410  -2.238  0.0000  0.0000  0.0000
  492TTP     C3 9930   3.564  -2.279  -2.186  0.0000  0.0000  0.0000
  492TTP     C4 9931   3.569  -2.053  -2.091  0.0000  0.0000  0.0000
  492TTP    C17 9932   3.629  -2.145  -2.006  0.0000  0.0000  0.0000
  492TTP    C18 9933   3.630  -2.278  -2.058  0.0000  0.0000  0.0000
  492TTP    C32 9934   3.508  -2.434  -2.379  0.0000  0.0000  0.0000
  492TTP    C33 9935   3.356  -2.419  -2.402  0.0000  0.0000  0.0000
  492TTP    C34 9936   3.298  -2.454  -2.541  0.0000  0.0000  0.0000
  492TTP    C35 9937   3.145  -2.448  -2.512  0.0000  0.0000  0.0000
  492TTP    C36 9938   3.099  -2.595  -2.488  0.0000  0.0000  0.0000
  492TTP    C37 9939   3.167  -2.708  -2.570  0.0000  0.0000  0.0000
  492TTP    C38 9940   3.083  -2.828  -2.622  0.0000  0.0000  0.0000
  492TTP    C39 9941   3.193  -2.873  -2.720  0.0000  0.0000  0.0000
  492TTP    C40 9942   3.148  -2.914  -2.864  0.0000  0.0000  0.0000
  492TTP    C41 9943   3.229  -3.022  -2.941  0.0000  0.0000  0.0000
  492TTP    C42 9944   3.167  -3.088  -3.067  0.0000  0.0000  0.0000
  493TTP     S1 9945   3.667  -1.434  -1.749  0.0000  0.0000  0.0000
  493TTP     S5 9946   3.889  -1.609  -1.438  0.0000  0.0000  0.0000
  493TTP     C1 9947   3.895  -1.434  -1.421  0.0000  0.0000  0.0000
  493TTP     C2 9948   3.824  -1.369  -1.517  0.0000  0.0000  0.0000
  493TTP     C3 9949   3.763  -1.457  -1.606  0.0000  0.0000  0.0000
  493TTP     C4 9950   3.669  -1.604  -1.775  0.0000  0.0000  0.0000
  493TTP    C17 9951   3.732  -1.676  -1.672  0.0000  0.0000  0.0000
  493TTP    C18 9952   3.791  -1.591  -1.577  0.0000  0.0000  0.0000
  493TTP    C32 9953   3.806  -1.215  -1.526  0.0000  0.0000  0.0000
  493TTP    C33 9954   3.688  -1.162  -1.438  0.0000  0.0000  0.0000
  493TTP    C34 9955   3.670  -1.009  -1.443  0.0000  0.0000  0.0000
  493TTP    C35 9956   3.642  -0.966  -1.590  0.0000  0.0000  0.0000
  493TTP    C36 9957   3.628  -0.815  -1.622  0.0000  0.0000  0.0000
  493TTP    C37 9958   3.751  -0.721  -1.608  0.0000  0.0000  0.0000
  493TTP    C38 9959   3.665  -0.594  -1.636  0.0000  0.0000  0.0000
  493TTP    C39 9960   3.759  -0.494  -1.565  0.0000  0.0000  0.0000
  493TTP    C40 9961   3.765  -0.496  -1.409  0.0000  0.0000  0.0000
  493TTP    C41 9962   3.872  -0.583  -1.338  0.0000  0.0000  0.0000
  493TTP    C42 9963   3.837  -0.727  -1.288  0.0000  0.0000  0.0000
  494FIC     F1 9964   3.959  -3.150  -1.788  0.0000  0.0000  0.0000
  494FIC     F2 9965   3.918  -3.286  -2.017  0.0000  0.0000  0.0000
  494FIC     O1 9966   3.749  -2.674  -1.925  0.0000  0.0000  0.0000
  494FIC     N5 9967   3.710  -3.157  -2.426  0.0000  0.0000  0.0000
  494FIC     N6 9968   3.539  -2.760  -2.515  0.0000  0.0000  0.0000
  494FIC    C19 9969   3.644  -2.636  -2.202  0.0000  0.0000  0.0000
  494FIC    C20 9970   3.696  -2.750  -2.150  0.0000  0.0000  0.0000
  494FIC    C21 9971   3.751  -2.761  -2.016  0.0000  0.0000  0.0000
  494FIC    C22 9972   3.797  -2.900  -2.001  0.0000  0.0000  0.0000
  494FIC    C23 9973   3.858  -2.954  -1.884  0.0000  0.0000  0.0000
  494FIC    C24 9974   3.900  -3.087  -1.905  0.0000  0.0000  0.0000
  494FIC    C25 9975   3.880  -3.155  -2.017  0.0000  0.0000  0.0000
  494FIC    C26 9976   3.823  -3.101  -2.122  0.0000  0.0000  0.0000
  494FIC    C27 9977   3.780  -2.973  -2.109  0.0000  0.0000  0.0000
  494FIC    C28 9978   3.712  -2.881  -2.210  0.0000  0.0000  0.0000
  494FIC    C29 9979   3.670  -2.909  -2.351  0.0000  0.0000  0.0000
  494FIC    C30 9980   3.691  -3.053  -2.390  0.0000  0.0000  0.0000
  494FIC    C31 9981   3.603  -2.823  -2.446  0.0000  0.0000  0.0000
  495FIC     F1 9982   4.354  -1.706  -0.808  0.0000  0.0000  0.0000
  495FIC     F2 9983   4.408  -1.455  -0.745  0.0000  0.0000  0.0000
  495FIC     O1 9984   4.033  -1.643  -1.224  0.0000  0.0000  0.0000
  495FIC     N5 9985   4.259  -1.041  -0.951  0.0000  0.0000  0.0000
  495FIC     N6 9986   4.065  -1.024  -1.325  0.0000  0.0000  0.0000
  495FIC    C19 9987   3.972  -1.363  -1.323  0.0000  0.0000  0.0000
  495FIC    C20 9988   4.053  -1.400  -1.221  0.0000  0.0000  0.0000
  495FIC    C21 9989   4.078  -1.541  -1.178  0.0000  0.0000  0.0000
  495FIC    C22 9990   4.163  -1.532  -1.058  0.0000  0.0000  0.0000
  495FIC    C23 9991   4.215  -1.639  -0.985  0.0000  0.0000  0.0000
  495FIC    C24 9992   4.291  -1.608  -0.881  0.0000  0.0000  0.0000
  495FIC    C25 9993   4.323  -1.475  -0.848  0.0000  0.0000  0.0000
  495FIC    C26 9994   4.275  -1.372  -0.922  0.0000  0.0000  0.0000
  495FIC    C27 9995   4.193  -1.401  -1.027  0.0000  0.0000  0.0000
  495FIC    C28 9996   4.129  -1.315  -1.131  0.0000  0.0000  0.0000
  495FIC    C29 9997   4.142  -1.177  -1.136  0.0000  0.0000  0.0000
  495FIC    C30 9998   4.207  -1.103  -1.034  0.0000  0.0000  0.0000
  495FIC    C31 9999   4.098  -1.094  -1.245  0.0000  0.0000  0.0000
  496BTD     S210000   4.595  -1.597   0.200  0.0000  0.0000  0.0000
  496BTD     N110001   4.606  -1.758   0.189  0.0000  0.0000  0.0000
  496BTD     N210002   4.516  -1.565   0.063  0.0000  0.0000  0.0000
  496BTD     N310003   4.347  -1.827  -0.299  0.0000  0.0000  0.0000
  496BTD     N410004   4.460  -2.087  -0.121  0.0000  0.0000  0.0000
  496BTD     C510005   4.530  -1.923   0.020  0.0000  0.0000  0.0000
  496BTD     C610006   4.547  -1.793   0.076  0.0000  0.0000  0.0000
  496BTD     C710007   4.496  -1.682   0.003  0.0000  0.0000  0.0000
  496BTD     C810008   4.435  -1.703  -0.122  0.0000  0.0000  0.0000
  496BTD    C1510009   4.416  -1.836  -0.175  0.0000  0.0000  0.0000
  496BTD    C1610010   4.464  -1.948  -0.098  0.0000  0.0000  0.0000
  496BTD    C4310011   4.372  -2.164  -0.210  0.0000  0.0000  0.0000
  496BTD    C4410012   4.219  -2.154  -0.180  0.0000  0.0000  0.0000
  496BTD    C4510013   4.147  -2.253  -0.274  0.0000  0.0000  0.0000
  496BTD    C4610014   3.997  -2.211  -0.273  0.0000  0.0000  0.0000
  496BTD    C4710015   4.186  -2.181  -0.030  0.0000  0.0000  0.0000
  496BTD    C4810016   4.172  -2.322   0.033  0.0000  0.0000  0.0000
  496BTD    C4910017   4.158  -2.290   0.184  0.0000  0.0000  0.0000
  496BTD    C5010018   4.061  -2.244   0.298  0.0000  0.0000  0.0000
  496BTD    C7510019   4.360  -1.915  -0.415  0.0000  0.0000  0.0000
  496BTD    C7610020   4.509  -1.945  -0.451  0.0000  0.0000  0.0000
  496BTD    C7710021   4.518  -2.033  -0.578  0.0000  0.0000  0.0000
  496BTD    C7810022   4.659  -2.086  -0.613  0.0000  0.0000  0.0000
  496BTD    C7910023   4.594  -1.818  -0.471  0.0000  0.0000  0.0000
  496BTD    C8010024   4.567  -1.729  -0.595  0.0000  0.0000  0.0000
  496BTD    C8110025   4.659  -1.604  -0.590  0.0000  0.0000  0.0000
  496BTD    C8210026   4.628  -1.478  -0.503  0.0000  0.0000  0.0000
  497TTP     S110027   4.657  -2.113   0.207  0.0000  0.0000  0.0000
  497TTP     S510028   4.558  -2.432  -0.050  0.0000  0.0000  0.0000
  497TTP     C110029   4.655  -2.495   0.082  0.0000  0.0000  0.0000
  497TTP     C210030   4.693  -2.398   0.170  0.0000  0.0000  0.0000
  497TTP     C310031   4.637  -2.275   0.137  0.0000  0.0000  0.0000
  497TTP     C410032   4.572  -2.052   0.076  0.0000  0.0000  0.0000
  497TTP    C1710033   4.521  -2.143  -0.015  0.0000  0.0000  0.0000
  497TTP    C1810034   4.565  -2.277   0.025  0.0000  0.0000  0.0000
  497TTP    C3210035   4.778  -2.415   0.298  0.0000  0.0000  0.0000
  497TTP    C3310036   4.688  -2.449   0.420  0.0000  0.0000  0.0000
  497TTP    C3410037   4.781  -2.472   0.541  0.0000  0.0000  0.0000
  497TTP    C3510038   4.722  -2.543   0.666  0.0000  0.0000  0.0000
  497TTP    C3610039   4.817  -2.637   0.747  0.0000  0.0000  0.0000
  497TTP    C3710040   4.936  -2.573   0.824  0.0000  0.0000  0.0000
  497TTP    C3810041   5.017  -2.441   0.836  0.0000  0.0000  0.0000
  497TTP    C3910042   5.099  -2.391   0.713  0.0000  0.0000  0.0000
  497TTP    C4010043   5.158  -2.493   0.613  0.0000  0.0000  0.0000
  497TTP    C4110044   5.145  -2.467   0.460  0.0000  0.0000  0.0000
  497TTP    C4210045   5.163  -2.588   0.365  0.0000  0.0000  0.0000
  498TTP     S110046   4.352  -1.444  -0.237  0.0000  0.0000  0.0000
  498TTP     S510047   4.150  -1.647  -0.545  0.0000  0.0000  0.0000
  498TTP     C110048   4.119  -1.474  -0.567  0.0000  0.0000  0.0000
  498TTP     C210049   4.184  -1.400  -0.466  0.0000  0.0000  0.0000
  498TTP     C310050   4.261  -1.480  -0.382  0.0000  0.0000  0.0000
  498TTP     C410051   4.375  -1.616  -0.216  0.0000  0.0000  0.0000
  498TTP    C1710052   4.321  -1.691  -0.320  0.0000  0.0000  0.0000
  498TTP    C1810053   4.251  -1.614  -0.415  0.0000  0.0000  0.0000
  498TTP    C3210054   4.191  -1.246  -0.459  0.0000  0.0000  0.0000
  498TTP    C3310055   4.297  -1.179  -0.553  0.0000  0.0000  0.0000
  498TTP    C3410056   4.303  -1.024  -0.537  0.0000  0.0000  0.0000
  498TTP    C3510057   4.412  -0.974  -0.635  0.0000  0.0000  0.0000
  498TTP    C3610058   4.396  -0.820  -0.641  0.0000  0.0000  0.0000
  498TTP    C3710059   4.429  -0.782  -0.493  0.0000  0.0000  0.0000
  498TTP    C3810060   4.435  -0.628  -0.464  0.0000  0.0000  0.0000
  498TTP    C3910061   4.497  -0.577  -0.332  0.0000  0.0000  0.0000
  498TTP    C4010062   4.406  -0.509  -0.225  0.0000  0.0000  0.0000
  498TTP    C4110063   4.331  -0.378  -0.259  0.0000  0.0000  0.0000
  498TTP    C4210064   4.309  -0.271  -0.150  0.0000  0.0000  0.0000
  499FIC     F110065   4.625  -3.122  -0.442  0.0000  0.0000  0.0000
  499FIC     F210066   4.734  -3.276  -0.250  0.0000  0.0000  0.0000
  499FIC     O110067   4.571  -2.663  -0.181  0.0000  0.0000  0.0000
  499FIC     N510068   4.887  -3.163   0.195  0.0000  0.0000  0.0000
  499FIC     N610069   4.839  -2.782   0.374  0.0000  0.0000  0.0000
  499FIC    C1910070   4.699  -2.632   0.092  0.0000  0.0000  0.0000
  499FIC    C2010071   4.690  -2.743   0.011  0.0000  0.0000  0.0000
  499FIC    C2110072   4.627  -2.751  -0.116  0.0000  0.0000  0.0000
  499FIC    C2210073   4.652  -2.885  -0.170  0.0000  0.0000  0.0000
  499FIC    C2310074   4.622  -2.935  -0.301  0.0000  0.0000  0.0000
  499FIC    C2410075   4.651  -3.064  -0.325  0.0000  0.0000  0.0000
  499FIC    C2510076   4.711  -3.143  -0.216  0.0000  0.0000  0.0000
  499FIC    C2610077   4.747  -3.098  -0.099  0.0000  0.0000  0.0000
  499FIC    C2710078   4.712  -2.963  -0.071  0.0000  0.0000  0.0000
  499FIC    C2810079   4.736  -2.877   0.045  0.0000  0.0000  0.0000
  499FIC    C2910080   4.796  -2.920   0.161  0.0000  0.0000  0.0000
  499FIC    C3010081   4.844  -3.063   0.174  0.0000  0.0000  0.0000
  499FIC    C3110082   4.813  -2.842   0.280  0.0000  0.0000  0.0000
  500FIC     F110083   3.663  -1.797  -1.158  0.0000  0.0000  0.0000
  500FIC     F210084   3.616  -1.554  -1.239  0.0000  0.0000  0.0000
  500FIC     O110085   3.975  -1.703  -0.736  0.0000  0.0000  0.0000
  500FIC     N510086   3.793  -1.134  -1.089  0.0000  0.0000  0.0000
  500FIC     N610087   3.983  -1.079  -0.711  0.0000  0.0000  0.0000
  500FIC    C1910088   4.043  -1.416  -0.668  0.0000  0.0000  0.0000
  500FIC    C2010089   3.963  -1.462  -0.767  0.0000  0.0000  0.0000
  500FIC    C2110090   3.932  -1.609  -0.800  0.0000  0.0000  0.0000
  500FIC    C2210091   3.853  -1.611  -0.915  0.0000  0.0000  0.0000
  500FIC    C2310092   3.796  -1.721  -0.982  0.0000  0.0000  0.0000
  500FIC    C2410093   3.720  -1.704  -1.091  0.0000  0.0000  0.0000
  500FIC    C2510094   3.691  -1.575  -1.134  0.0000  0.0000  0.0000
  500FIC    C2610095   3.747  -1.456  -1.075  0.0000  0.0000  0.0000
  500FIC    C2710096   3.830  -1.478  -0.963  0.0000  0.0000  0.0000
  500FIC    C2810097   3.896  -1.388  -0.870  0.0000  0.0000  0.0000
  500FIC    C2910098   3.892  -1.249  -0.882  0.0000  0.0000  0.0000
  500FIC    C3010099   3.835  -1.184  -1.001  0.0000  0.0000  0.0000
  500FIC    C3110100   3.948  -1.155  -0.789  0.0000  0.0000  0.0000
  501BTD     S210101   3.365   4.495  -1.196  0.0000  0.0000  0.0000
  501BTD     N110102   3.379   4.660  -1.192  0.0000  0.0000  0.0000
  501BTD     N210103   3.430   4.456  -1.054  0.0000  0.0000  0.0000
  501BTD     N310104   3.632   4.703  -0.704  0.0000  0.0000  0.0000
  501BTD     N410105   3.575   4.974  -0.897  0.0000  0.0000  0.0000
  501BTD     C510106   3.475   4.815  -1.035  0.0000  0.0000  0.0000
  501BTD     C610107   3.435   4.687  -1.079  0.0000  0.0000  0.0000
  501BTD     C710108   3.464   4.573  -0.999  0.0000  0.0000  0.0000
  501BTD     C810109   3.530   4.590  -0.875  0.0000  0.0000  0.0000
  501BTD    C1510110   3.566   4.717  -0.825  0.0000  0.0000  0.0000
  501BTD    C1610111   3.548   4.839  -0.910  0.0000  0.0000  0.0000
  501BTD    C4310112   3.679   5.040  -0.820  0.0000  0.0000  0.0000
  501BTD    C4410113   3.821   4.988  -0.856  0.0000  0.0000  0.0000
  501BTD    C4510114   3.859   4.963  -1.006  0.0000  0.0000  0.0000
  501BTD    C4610115   3.864   5.094  -1.087  0.0000  0.0000  0.0000
  501BTD    C4710116   3.936   5.068  -0.790  0.0000  0.0000  0.0000
  501BTD    C4810117   3.954   5.062  -0.637  0.0000  0.0000  0.0000
  501BTD    C4910118   4.042   5.168  -0.565  0.0000  0.0000  0.0000
  501BTD    C5010119   4.022   5.192  -0.413  0.0000  0.0000  0.0000
  501BTD    C7510120   3.643   4.801  -0.586  0.0000  0.0000  0.0000
  501BTD    C7610121   3.505   4.864  -0.551  0.0000  0.0000  0.0000
  501BTD    C7710122   3.507   4.950  -0.422  0.0000  0.0000  0.0000
  501BTD    C7810123   3.651   4.919  -0.376  0.0000  0.0000  0.0000
  501BTD    C7910124   3.384   4.770  -0.532  0.0000  0.0000  0.0000
  501BTD    C8010125   3.405   4.639  -0.453  0.0000  0.0000  0.0000
  501BTD    C8110126   3.309   4.519  -0.478  0.0000  0.0000  0.0000
  501BTD    C8210127   3.178   4.515  -0.394  0.0000  0.0000  0.0000
  502TTP     S110128   3.400   5.015  -1.234  0.0000  0.0000  0.0000
  502TTP     S510129   3.583   5.322  -1.016  0.0000  0.0000  0.0000
  502TTP     C110130   3.523   5.392  -1.162  0.0000  0.0000  0.0000
  502TTP     C210131   3.463   5.300  -1.239  0.0000  0.0000  0.0000
  502TTP     C310132   3.461   5.170  -1.188  0.0000  0.0000  0.0000
  502TTP     C410133   3.465   4.944  -1.092  0.0000  0.0000  0.0000
  502TTP    C1710134   3.526   5.036  -1.008  0.0000  0.0000  0.0000
  502TTP    C1810135   3.527   5.168  -1.060  0.0000  0.0000  0.0000
  502TTP    C3210136   3.405   5.325  -1.381  0.0000  0.0000  0.0000
  502TTP    C3310137   3.252   5.310  -1.403  0.0000  0.0000  0.0000
  502TTP    C3410138   3.194   5.345  -1.543  0.0000  0.0000  0.0000
  502TTP    C3510139   3.042   5.339  -1.514  0.0000  0.0000  0.0000
  502TTP    C3610140   2.995   5.485  -1.489  0.0000  0.0000  0.0000
  502TTP    C3710141   3.064   5.599  -1.572  0.0000  0.0000  0.0000
  502TTP    C3810142   2.979   5.718  -1.623  0.0000  0.0000  0.0000
  502TTP    C3910143   3.089   5.763  -1.721  0.0000  0.0000  0.0000
  502TTP    C4010144   3.045   5.805  -1.865  0.0000  0.0000  0.0000
  502TTP    C4110145   3.126   5.913  -1.943  0.0000  0.0000  0.0000
  502TTP    C4210146   3.063   5.978  -2.069  0.0000  0.0000  0.0000
  503TTP     S110147   3.564   4.324  -0.750  0.0000  0.0000  0.0000
  503TTP     S510148   3.786   4.500  -0.440  0.0000  0.0000  0.0000
  503TTP     C110149   3.792   4.324  -0.422  0.0000  0.0000  0.0000
  503TTP     C210150   3.721   4.259  -0.518  0.0000  0.0000  0.0000
  503TTP     C310151   3.660   4.347  -0.607  0.0000  0.0000  0.0000
  503TTP     C410152   3.566   4.495  -0.776  0.0000  0.0000  0.0000
  503TTP    C1710153   3.629   4.566  -0.674  0.0000  0.0000  0.0000
  503TTP    C1810154   3.687   4.482  -0.578  0.0000  0.0000  0.0000
  503TTP    C3210155   3.702   4.105  -0.528  0.0000  0.0000  0.0000
  503TTP    C3310156   3.585   4.052  -0.440  0.0000  0.0000  0.0000
  503TTP    C3410157   3.567   3.899  -0.445  0.0000  0.0000  0.0000
  503TTP    C3510158   3.538   3.856  -0.591  0.0000  0.0000  0.0000
  503TTP    C3610159   3.525   3.705  -0.624  0.0000  0.0000  0.0000
  503TTP    C3710160   3.648   3.612  -0.609  0.0000  0.0000  0.0000
  503TTP    C3810161   3.562   3.485  -0.638  0.0000  0.0000  0.0000
  503TTP    C3910162   3.655   3.384  -0.566  0.0000  0.0000  0.0000
  503TTP    C4010163   3.662   3.387  -0.411  0.0000  0.0000  0.0000
  503TTP    C4110164   3.768   3.474  -0.339  0.0000  0.0000  0.0000
  503TTP    C4210165   3.734   3.617  -0.290  0.0000  0.0000  0.0000
  504FIC     F110166   3.856   6.041  -0.789  0.0000  0.0000  0.0000
  504FIC     F210167   3.815   6.176  -1.018  0.0000  0.0000  0.0000
  504FIC     O110168   3.646   5.565  -0.926  0.0000  0.0000  0.0000
  504FIC     N510169   3.607   6.048  -1.428  0.0000  0.0000  0.0000
  504FIC     N610170   3.435   5.651  -1.516  0.0000  0.0000  0.0000
  504FIC    C1910171   3.540   5.526  -1.204  0.0000  0.0000  0.0000
  504FIC    C2010172   3.592   5.640  -1.152  0.0000  0.0000  0.0000
  504FIC    C2110173   3.647   5.651  -1.018  0.0000  0.0000  0.0000
  504FIC    C2210174   3.694   5.790  -1.002  0.0000  0.0000  0.0000
  504FIC    C2310175   3.755   5.844  -0.885  0.0000  0.0000  0.0000
  504FIC    C2410176   3.796   5.978  -0.907  0.0000  0.0000  0.0000
  504FIC    C2510177   3.777   6.045  -1.019  0.0000  0.0000  0.0000
  504FIC    C2610178   3.719   5.991  -1.124  0.0000  0.0000  0.0000
  504FIC    C2710179   3.676   5.863  -1.111  0.0000  0.0000  0.0000
  504FIC    C2810180   3.608   5.772  -1.211  0.0000  0.0000  0.0000
  504FIC    C2910181   3.566   5.800  -1.353  0.0000  0.0000  0.0000
  504FIC    C3010182   3.587   5.944  -1.392  0.0000  0.0000  0.0000
  504FIC    C3110183   3.500   5.714  -1.448  0.0000  0.0000  0.0000
  505FIC     F110184   4.250   4.597   0.191  0.0000  0.0000  0.0000
  505FIC     F210185   4.305   4.345   0.253  0.0000  0.0000  0.0000
  505FIC     O110186   3.930   4.533  -0.226  0.0000  0.0000  0.0000
  505FIC     N510187   4.156   3.931   0.047  0.0000  0.0000  0.0000
  505FIC     N610188   3.961   3.915  -0.326  0.0000  0.0000  0.0000
  505FIC    C1910189   3.868   4.254  -0.324  0.0000  0.0000  0.0000
  505FIC    C2010190   3.950   4.291  -0.222  0.0000  0.0000  0.0000
  505FIC    C2110191   3.975   4.431  -0.180  0.0000  0.0000  0.0000
  505FIC    C2210192   4.059   4.423  -0.060  0.0000  0.0000  0.0000
  505FIC    C2310193   4.112   4.529   0.013  0.0000  0.0000  0.0000
  505FIC    C2410194   4.187   4.499   0.118  0.0000  0.0000  0.0000
  505FIC    C2510195   4.220   4.366   0.150  0.0000  0.0000  0.0000
  505FIC    C2610196   4.171   4.262   0.076  0.0000  0.0000  0.0000
  505FIC    C2710197   4.090   4.291  -0.028  0.0000  0.0000  0.0000
  505FIC    C2810198   4.025   4.205  -0.133  0.0000  0.0000  0.0000
  505FIC    C2910199   4.039   4.067  -0.137  0.0000  0.0000  0.0000
  505FIC    C3010200   4.103   3.993  -0.036  0.0000  0.0000  0.0000
  505FIC    C3110201   3.994   3.985  -0.246  0.0000  0.0000  0.0000
  506BTD     S210202   4.492   4.487   1.199  0.0000  0.0000  0.0000
  506BTD     N110203   4.502   4.648   1.188  0.0000  0.0000  0.0000
  506BTD     N210204   4.413   4.456   1.061  0.0000  0.0000  0.0000
  506BTD     N310205   4.243   4.718   0.700  0.0000  0.0000  0.0000
  506BTD     N410206   4.357   4.978   0.877  0.0000  0.0000  0.0000
  506BTD     C510207   4.427   4.814   1.019  0.0000  0.0000  0.0000
  506BTD     C610208   4.444   4.683   1.075  0.0000  0.0000  0.0000
  506BTD     C710209   4.393   4.573   1.001  0.0000  0.0000  0.0000
  506BTD     C810210   4.331   4.594   0.877  0.0000  0.0000  0.0000
  506BTD    C1510211   4.312   4.727   0.824  0.0000  0.0000  0.0000
  506BTD    C1610212   4.360   4.838   0.900  0.0000  0.0000  0.0000
  506BTD    C4310213   4.268   5.055   0.789  0.0000  0.0000  0.0000
  506BTD    C4410214   4.116   5.045   0.819  0.0000  0.0000  0.0000
  506BTD    C4510215   4.043   5.144   0.724  0.0000  0.0000  0.0000
  506BTD    C4610216   3.893   5.102   0.726  0.0000  0.0000  0.0000
  506BTD    C4710217   4.083   5.071   0.968  0.0000  0.0000  0.0000
  506BTD    C4810218   4.068   5.212   1.032  0.0000  0.0000  0.0000
  506BTD    C4910219   4.054   5.181   1.183  0.0000  0.0000  0.0000
  506BTD    C5010220   3.958   5.135   1.296  0.0000  0.0000  0.0000
  506BTD    C7510221   4.257   4.805   0.583  0.0000  0.0000  0.0000
  506BTD    C7610222   4.405   4.835   0.548  0.0000  0.0000  0.0000
  506BTD    C7710223   4.414   4.923   0.421  0.0000  0.0000  0.0000
  506BTD    C7810224   4.555   4.977   0.385  0.0000  0.0000  0.0000
  506BTD    C7910225   4.491   4.708   0.527  0.0000  0.0000  0.0000
  506BTD    C8010226   4.463   4.620   0.403  0.0000  0.0000  0.0000
  506BTD    C8110227   4.555   4.494   0.409  0.0000  0.0000  0.0000
  506BTD    C8210228   4.524   4.369   0.496  0.0000  0.0000  0.0000
  507TTP     S110229   4.553   5.004   1.205  0.0000  0.0000  0.0000
  507TTP     S510230   4.455   5.322   0.949  0.0000  0.0000  0.0000
  507TTP     C110231   4.551   5.386   1.080  0.0000  0.0000  0.0000
  507TTP     C210232   4.589   5.288   1.169  0.0000  0.0000  0.0000
  507TTP     C310233   4.534   5.166   1.135  0.0000  0.0000  0.0000
  507TTP     C410234   4.469   4.943   1.074  0.0000  0.0000  0.0000
  507TTP    C1710235   4.418   5.033   0.983  0.0000  0.0000  0.0000
  507TTP    C1810236   4.462   5.168   1.023  0.0000  0.0000  0.0000
  507TTP    C3210237   4.675   5.306   1.297  0.0000  0.0000  0.0000
  507TTP    C3310238   4.584   5.340   1.418  0.0000  0.0000  0.0000
  507TTP    C3410239   4.677   5.363   1.540  0.0000  0.0000  0.0000
  507TTP    C3510240   4.619   5.433   1.664  0.0000  0.0000  0.0000
  507TTP    C3610241   4.713   5.527   1.745  0.0000  0.0000  0.0000
  507TTP    C3710242   4.833   5.463   1.822  0.0000  0.0000  0.0000
  507TTP    C3810243   4.913   5.331   1.834  0.0000  0.0000  0.0000
  507TTP    C3910244   4.995   5.281   1.712  0.0000  0.0000  0.0000
  507TTP    C4010245   5.054   5.384   1.611  0.0000  0.0000  0.0000
  507TTP    C4110246   5.041   5.357   1.458  0.0000  0.0000  0.0000
  507TTP    C4210247   5.060   5.479   1.363  0.0000  0.0000  0.0000
  508TTP     S110248   4.249   4.335   0.762  0.0000  0.0000  0.0000
  508TTP     S510249   4.047   4.538   0.453  0.0000  0.0000  0.0000
  508TTP     C110250   4.016   4.365   0.432  0.0000  0.0000  0.0000
  508TTP     C210251   4.080   4.291   0.533  0.0000  0.0000  0.0000
  508TTP     C310252   4.157   4.371   0.617  0.0000  0.0000  0.0000
  508TTP     C410253   4.272   4.506   0.783  0.0000  0.0000  0.0000
  508TTP    C1710254   4.218   4.581   0.679  0.0000  0.0000  0.0000
  508TTP    C1810255   4.147   4.504   0.583  0.0000  0.0000  0.0000
  508TTP    C3210256   4.088   4.136   0.539  0.0000  0.0000  0.0000
  508TTP    C3310257   4.193   4.069   0.446  0.0000  0.0000  0.0000
  508TTP    C3410258   4.200   3.915   0.461  0.0000  0.0000  0.0000
  508TTP    C3510259   4.309   3.864   0.363  0.0000  0.0000  0.0000
  508TTP    C3610260   4.293   3.710   0.358  0.0000  0.0000  0.0000
  508TTP    C3710261   4.326   3.672   0.505  0.0000  0.0000  0.0000
  508TTP    C3810262   4.331   3.518   0.535  0.0000  0.0000  0.0000
  508TTP    C3910263   4.393   3.468   0.667  0.0000  0.0000  0.0000
  508TTP    C4010264   4.302   3.400   0.774  0.0000  0.0000  0.0000
  508TTP    C4110265   4.227   3.269   0.739  0.0000  0.0000  0.0000
  508TTP    C4210266   4.205   3.161   0.848  0.0000  0.0000  0.0000
  509FIC     F110267   4.522   6.012   0.557  0.0000  0.0000  0.0000
  509FIC     F210268   4.631   6.166   0.748  0.0000  0.0000  0.0000
  509FIC     O110269   4.467   5.553   0.817  0.0000  0.0000  0.0000
  509FIC     N510270   4.783   6.054   1.193  0.0000  0.0000  0.0000
  509FIC     N610271   4.735   5.673   1.372  0.0000  0.0000  0.0000
  509FIC    C1910272   4.595   5.523   1.090  0.0000  0.0000  0.0000
  509FIC    C2010273   4.586   5.634   1.010  0.0000  0.0000  0.0000
  509FIC    C2110274   4.524   5.641   0.882  0.0000  0.0000  0.0000
  509FIC    C2210275   4.548   5.776   0.828  0.0000  0.0000  0.0000
  509FIC    C2310276   4.519   5.825   0.698  0.0000  0.0000  0.0000
  509FIC    C2410277   4.547   5.954   0.673  0.0000  0.0000  0.0000
  509FIC    C2510278   4.607   6.033   0.783  0.0000  0.0000  0.0000
  509FIC    C2610279   4.643   5.989   0.899  0.0000  0.0000  0.0000
  509FIC    C2710280   4.608   5.854   0.927  0.0000  0.0000  0.0000
  509FIC    C2810281   4.632   5.767   1.043  0.0000  0.0000  0.0000
  509FIC    C2910282   4.692   5.810   1.160  0.0000  0.0000  0.0000
  509FIC    C3010283   4.740   5.954   1.172  0.0000  0.0000  0.0000
  509FIC    C3110284   4.710   5.733   1.279  0.0000  0.0000  0.0000
  510FIC     F110285   3.559   4.687  -0.160  0.0000  0.0000  0.0000
  510FIC     F210286   3.512   4.445  -0.241  0.0000  0.0000  0.0000
  510FIC     O110287   3.871   4.593   0.263  0.0000  0.0000  0.0000
  510FIC     N510288   3.689   4.024  -0.091  0.0000  0.0000  0.0000
  510FIC     N610289   3.880   3.969   0.287  0.0000  0.0000  0.0000
  510FIC    C1910290   3.939   4.307   0.330  0.0000  0.0000  0.0000
  510FIC    C2010291   3.860   4.353   0.231  0.0000  0.0000  0.0000
  510FIC    C2110292   3.828   4.499   0.199  0.0000  0.0000  0.0000
  510FIC    C2210293   3.749   4.501   0.083  0.0000  0.0000  0.0000
  510FIC    C2310294   3.693   4.612   0.017  0.0000  0.0000  0.0000
  510FIC    C2410295   3.617   4.595  -0.093  0.0000  0.0000  0.0000
  510FIC    C2510296   3.588   4.466  -0.135  0.0000  0.0000  0.0000
  510FIC    C2610297   3.643   4.347  -0.077  0.0000  0.0000  0.0000
  510FIC    C2710298   3.726   4.368   0.036  0.0000  0.0000  0.0000
  510FIC    C2810299   3.793   4.279   0.128  0.0000  0.0000  0.0000
  510FIC    C2910300   3.788   4.139   0.116  0.0000  0.0000  0.0000
  510FIC    C3010301   3.731   4.075  -0.003  0.0000  0.0000  0.0000
  510FIC    C3110302   3.844   4.045   0.209  0.0000  0.0000  0.0000
  511BTD     S210303   5.705  -4.495   1.196  0.0000  0.0000  0.0000
  511BTD     N110304   5.691  -4.660   1.192  0.0000  0.0000  0.0000
  511BTD     N210305   5.640  -4.456   1.054  0.0000  0.0000  0.0000
  511BTD     N310306   5.438  -4.703   0.704  0.0000  0.0000  0.0000
  511BTD     N410307   5.495  -4.974   0.897  0.0000  0.0000  0.0000
  511BTD     C510308   5.595  -4.815   1.035  0.0000  0.0000  0.0000
  511BTD     C610309   5.635  -4.687   1.079  0.0000  0.0000  0.0000
  511BTD     C710310   5.606  -4.573   0.999  0.0000  0.0000  0.0000
  511BTD     C810311   5.540  -4.590   0.875  0.0000  0.0000  0.0000
  511BTD    C1510312   5.504  -4.717   0.825  0.0000  0.0000  0.0000
  511BTD    C1610313   5.522  -4.839   0.910  0.0000  0.0000  0.0000
  511BTD    C4310314   5.391  -5.040   0.820  0.0000  0.0000  0.0000
  511BTD    C4410315   5.249  -4.988   0.856  0.0000  0.0000  0.0000
  511BTD    C4510316   5.211  -4.963   1.006  0.0000  0.0000  0.0000
  511BTD    C4610317   5.206  -5.094   1.087  0.0000  0.0000  0.0000
  511BTD    C4710318   5.134  -5.068   0.790  0.0000  0.0000  0.0000
  511BTD    C4810319   5.116  -5.062   0.637  0.0000  0.0000  0.0000
  511BTD    C4910320   5.028  -5.168   0.565  0.0000  0.0000  0.0000
  511BTD    C5010321   5.048  -5.192   0.413  0.0000  0.0000  0.0000
  511BTD    C7510322   5.427  -4.801   0.586  0.0000  0.0000  0.0000
  511BTD    C7610323   5.565  -4.864   0.551  0.0000  0.0000  0.0000
  511BTD    C7710324   5.563  -4.950   0.422  0.0000  0.0000  0.0000
  511BTD    C7810325   5.419  -4.919   0.376  0.0000  0.0000  0.0000
  511BTD    C7910326   5.686  -4.770   0.532  0.0000  0.0000  0.0000
  511BTD    C8010327   5.665  -4.639   0.453  0.0000  0.0000  0.0000
  511BTD    C8110328   5.761  -4.519   0.478  0.0000  0.0000  0.0000
  511BTD    C8210329   5.892  -4.515   0.394  0.0000  0.0000  0.0000
  512TTP     S110330   5.670  -5.015   1.234  0.0000  0.0000  0.0000
  512TTP     S510331   5.487  -5.322   1.016  0.0000  0.0000  0.0000
  512TTP     C110332   5.547  -5.392   1.162  0.0000  0.0000  0.0000
  512TTP     C210333   5.607  -5.300   1.239  0.0000  0.0000  0.0000
  512TTP     C310334   5.609  -5.170   1.188  0.0000  0.0000  0.0000
  512TTP     C410335   5.605  -4.944   1.092  0.0000  0.0000  0.0000
  512TTP    C1710336   5.544  -5.036   1.008  0.0000  0.0000  0.0000
  512TTP    C1810337   5.543  -5.168   1.060  0.0000  0.0000  0.0000
  512TTP    C3210338   5.665  -5.325   1.381  0.0000  0.0000  0.0000
  512TTP    C3310339   5.818  -5.310   1.403  0.0000  0.0000  0.0000
  512TTP    C3410340   5.876  -5.345   1.543  0.0000  0.0000  0.0000
  512TTP    C3510341   6.028  -5.339   1.514  0.0000  0.0000  0.0000
  512TTP    C3610342   6.075  -5.485   1.489  0.0000  0.0000  0.0000
  512TTP    C3710343   6.006  -5.599   1.572  0.0000  0.0000  0.0000
  512TTP    C3810344   6.091  -5.718   1.623  0.0000  0.0000  0.0000
  512TTP    C3910345   5.981  -5.763   1.721  0.0000  0.0000  0.0000
  512TTP    C4010346   6.025  -5.805   1.865  0.0000  0.0000  0.0000
  512TTP    C4110347   5.944  -5.913   1.943  0.0000  0.0000  0.0000
  512TTP    C4210348   6.007  -5.978   2.069  0.0000  0.0000  0.0000
  513TTP     S110349   5.506  -4.324   0.750  0.0000  0.0000  0.0000
  513TTP     S510350   5.284  -4.500   0.440  0.0000  0.0000  0.0000
  513TTP     C110351   5.278  -4.324   0.422  0.0000  0.0000  0.0000
  513TTP     C210352   5.349  -4.259   0.518  0.0000  0.0000  0.0000
  513TTP     C310353   5.410  -4.347   0.607  0.0000  0.0000  0.0000
  513TTP     C410354   5.504  -4.495   0.776  0.0000  0.0000  0.0000
  513TTP    C1710355   5.441  -4.566   0.674  0.0000  0.0000  0.0000
  513TTP    C1810356   5.383  -4.482   0.578  0.0000  0.0000  0.0000
  513TTP    C3210357   5.368  -4.105   0.528  0.0000  0.0000  0.0000
  513TTP    C3310358   5.485  -4.052   0.440  0.0000  0.0000  0.0000
  513TTP    C3410359   5.503  -3.899   0.445  0.0000  0.0000  0.0000
  513TTP    C3510360   5.532  -3.856   0.591  0.0000  0.0000  0.0000
  513TTP    C3610361   5.545  -3.705   0.624  0.0000  0.0000  0.0000
  513TTP    C3710362   5.422  -3.612   0.609  0.0000  0.0000  0.0000
  513TTP    C3810363   5.508  -3.485   0.638  0.0000  0.0000  0.0000
  513TTP    C3910364   5.415  -3.384   0.566  0.0000  0.0000  0.0000
  513TTP    C4010365   5.408  -3.387   0.411  0.0000  0.0000  0.0000
  513TTP    C4110366   5.302  -3.474   0.339  0.0000  0.0000  0.0000
  513TTP    C4210367   5.336  -3.617   0.290  0.0000  0.0000  0.0000
  514FIC     F110368   5.214  -6.041   0.789  0.0000  0.0000  0.0000
  514FIC     F210369   5.255  -6.176   1.018  0.0000  0.0000  0.0000
  514FIC     O110370   5.424  -5.565   0.926  0.0000  0.0000  0.0000
  514FIC     N510371   5.463  -6.048   1.428  0.0000  0.0000  0.0000
  514FIC     N610372   5.635  -5.651   1.516  0.0000  0.0000  0.0000
  514FIC    C1910373   5.530  -5.526   1.204  0.0000  0.0000  0.0000
  514FIC    C2010374   5.478  -5.640   1.152  0.0000  0.0000  0.0000
  514FIC    C2110375   5.423  -5.651   1.018  0.0000  0.0000  0.0000
  514FIC    C2210376   5.376  -5.790   1.002  0.0000  0.0000  0.0000
  514FIC    C2310377   5.315  -5.844   0.885  0.0000  0.0000  0.0000
  514FIC    C2410378   5.274  -5.978   0.907  0.0000  0.0000  0.0000
  514FIC    C2510379   5.293  -6.045   1.019  0.0000  0.0000  0.0000
  514FIC    C2610380   5.351  -5.991   1.124  0.0000  0.0000  0.0000
  514FIC    C2710381   5.394  -5.863   1.111  0.0000  0.0000  0.0000
  514FIC    C2810382   5.462  -5.772   1.211  0.0000  0.0000  0.0000
  514FIC    C2910383   5.504  -5.800   1.353  0.0000  0.0000  0.0000
  514FIC    C3010384   5.483  -5.944   1.392  0.0000  0.0000  0.0000
  514FIC    C3110385   5.570  -5.714   1.448  0.0000  0.0000  0.0000
  515FIC     F110386   4.820  -4.597  -0.191  0.0000  0.0000  0.0000
  515FIC     F210387   4.765  -4.345  -0.253  0.0000  0.0000  0.0000
  515FIC     O110388   5.140  -4.533   0.226  0.0000  0.0000  0.0000
  515FIC     N510389   4.914  -3.931  -0.047  0.0000  0.0000  0.0000
  515FIC     N610390   5.109  -3.915   0.326  0.0000  0.0000  0.0000
  515FIC    C1910391   5.202  -4.254   0.324  0.0000  0.0000  0.0000
  515FIC    C2010392   5.120  -4.291   0.222  0.0000  0.0000  0.0000
  515FIC    C2110393   5.095  -4.431   0.180  0.0000  0.0000  0.0000
  515FIC    C2210394   5.011  -4.423   0.060  0.0000  0.0000  0.0000
  515FIC    C2310395   4.958  -4.529  -0.013  0.0000  0.0000  0.0000
  515FIC    C2410396   4.883  -4.499  -0.118  0.0000  0.0000  0.0000
  515FIC    C2510397   4.850  -4.366  -0.150  0.0000  0.0000  0.0000
  515FIC    C2610398   4.899  -4.262  -0.076  0.0000  0.0000  0.0000
  515FIC    C2710399   4.980  -4.291   0.028  0.0000  0.0000  0.0000
  515FIC    C2810400   5.045  -4.205   0.133  0.0000  0.0000  0.0000
  515FIC    C2910401   5.031  -4.067   0.137  0.0000  0.0000  0.0000
  515FIC    C3010402   4.967  -3.993   0.036  0.0000  0.0000  0.0000
  515FIC    C3110403   5.076  -3.985   0.246  0.0000  0.0000  0.0000
  516BTD     S210404   4.578  -4.487  -1.199  0.0000  0.0000  0.0000
  516BTD     N110405   4.568  -4.648  -1.188  0.0000  0.0000  0.0000
  516BTD     N210406   4.657  -4.456  -1.061  0.0000  0.0000  0.0000
  516BTD     N310407   4.827  -4.718  -0.700  0.0000  0.0000  0.0000
  516BTD     N410408   4.713  -4.978  -0.877  0.0000  0.0000  0.0000
  516BTD     C510409   4.643  -4.814  -1.019  0.0000  0.0000  0.0000
  516BTD     C610410   4.626  -4.683  -1.075  0.0000  0.0000  0.0000
  516BTD     C710411   4.677  -4.573  -1.001  0.0000  0.0000  0.0000
  516BTD     C810412   4.739  -4.594  -0.877  0.0000  0.0000  0.0000
  516BTD    C1510413   4.758  -4.727  -0.824  0.0000  0.0000  0.0000
  516BTD    C1610414   4.710  -4.838  -0.900  0.0000  0.0000  0.0000
  516BTD    C4310415   4.802  -5.055  -0.789  0.0000  0.0000  0.0000
  516BTD    C4410416   4.954  -5.045  -0.819  0.0000  0.0000  0.0000
  516BTD    C4510417   5.027  -5.144  -0.724  0.0000  0.0000  0.0000
  516BTD    C4610418   5.177  -5.102  -0.726  0.0000  0.0000  0.0000
  516BTD    C4710419   4.987  -5.071  -0.968  0.0000  0.0000  0.0000
  516BTD    C4810420   5.002  -5.212  -1.032  0.0000  0.0000  0.0000
  516BTD    C4910421   5.016  -5.181  -1.183  0.0000  0.0000  0.0000
  516BTD    C5010422   5.112  -5.135  -1.296  0.0000  0.0000  0.0000
  516BTD    C7510423   4.813  -4.805  -0.583  0.0000  0.0000  0.0000
  516BTD    C7610424   4.665  -4.835  -0.548  0.0000  0.0000  0.0000
  516BTD    C7710425   4.656  -4.923  -0.421  0.0000  0.0000  0.0000
  516BTD    C7810426   4.515  -4.977  -0.385  0.0000  0.0000  0.0000
  516BTD    C7910427   4.579  -4.708  -0.527  0.0000  0.0000  0.0000
  516BTD    C8010428   4.607  -4.620  -0.403  0.0000  0.0000  0.0000
  516BTD    C8110429   4.515  -4.494  -0.409  0.0000  0.0000  0.0000
  516BTD    C8210430   4.546  -4.369  -0.496  0.0000  0.0000  0.0000
  517TTP     S110431   4.517  -5.004  -1.205  0.0000  0.0000  0.0000
  517TTP     S510432   4.615  -5.322  -0.949  0.0000  0.0000  0.0000
  517TTP     C110433   4.519  -5.386  -1.080  0.0000  0.0000  0.0000
  517TTP     C210434   4.481  -5.288  -1.169  0.0000  0.0000  0.0000
  517TTP     C310435   4.536  -5.166  -1.135  0.0000  0.0000  0.0000
  517TTP     C410436   4.601  -4.943  -1.074  0.0000  0.0000  0.0000
  517TTP    C1710437   4.652  -5.033  -0.983  0.0000  0.0000  0.0000
  517TTP    C1810438   4.608  -5.168  -1.023  0.0000  0.0000  0.0000
  517TTP    C3210439   4.395  -5.306  -1.297  0.0000  0.0000  0.0000
  517TTP    C3310440   4.486  -5.340  -1.418  0.0000  0.0000  0.0000
  517TTP    C3410441   4.393  -5.363  -1.540  0.0000  0.0000  0.0000
  517TTP    C3510442   4.451  -5.433  -1.664  0.0000  0.0000  0.0000
  517TTP    C3610443   4.357  -5.527  -1.745  0.0000  0.0000  0.0000
  517TTP    C3710444   4.237  -5.463  -1.822  0.0000  0.0000  0.0000
  517TTP    C3810445   4.157  -5.331  -1.834  0.0000  0.0000  0.0000
  517TTP    C3910446   4.075  -5.281  -1.712  0.0000  0.0000  0.0000
  517TTP    C4010447   4.016  -5.384  -1.611  0.0000  0.0000  0.0000
  517TTP    C4110448   4.029  -5.357  -1.458  0.0000  0.0000  0.0000
  517TTP    C4210449   4.010  -5.479  -1.363  0.0000  0.0000  0.0000
  518TTP     S110450   4.821  -4.335  -0.762  0.0000  0.0000  0.0000
  518TTP     S510451   5.023  -4.538  -0.453  0.0000  0.0000  0.0000
  518TTP     C110452   5.054  -4.365  -0.432  0.0000  0.0000  0.0000
  518TTP     C210453   4.990  -4.291  -0.533  0.0000  0.0000  0.0000
  518TTP     C310454   4.913  -4.371  -0.617  0.0000  0.0000  0.0000
  518TTP     C410455   4.798  -4.506  -0.783  0.0000  0.0000  0.0000
  518TTP    C1710456   4.852  -4.581  -0.679  0.0000  0.0000  0.0000
  518TTP    C1810457   4.923  -4.504  -0.583  0.0000  0.0000  0.0000
  518TTP    C3210458   4.982  -4.136  -0.539  0.0000  0.0000  0.0000
  518TTP    C3310459   4.877  -4.069  -0.446  0.0000  0.0000  0.0000
  518TTP    C3410460   4.870  -3.915  -0.461  0.0000  0.0000  0.0000
  518TTP    C3510461   4.761  -3.864  -0.363  0.0000  0.0000  0.0000
  518TTP    C3610462   4.777  -3.710  -0.358  0.0000  0.0000  0.0000
  518TTP    C3710463   4.744  -3.672  -0.505  0.0000  0.0000  0.0000
  518TTP    C3810464   4.739  -3.518  -0.535  0.0000  0.0000  0.0000
  518TTP    C3910465   4.677  -3.468  -0.667  0.0000  0.0000  0.0000
  518TTP    C4010466   4.768  -3.400  -0.774  0.0000  0.0000  0.0000
  518TTP    C4110467   4.843  -3.269  -0.739  0.0000  0.0000  0.0000
  518TTP    C4210468   4.865  -3.161  -0.848  0.0000  0.0000  0.0000
  519FIC     F110469   4.548  -6.012  -0.557  0.0000  0.0000  0.0000
  519FIC     F210470   4.439  -6.166  -0.748  0.0000  0.0000  0.0000
  519FIC     O110471   4.603  -5.553  -0.817  0.0000  0.0000  0.0000
  519FIC     N510472   4.287  -6.054  -1.193  0.0000  0.0000  0.0000
  519FIC     N610473   4.335  -5.673  -1.372  0.0000  0.0000  0.0000
  519FIC    C1910474   4.475  -5.523  -1.090  0.0000  0.0000  0.0000
  519FIC    C2010475   4.484  -5.634  -1.010  0.0000  0.0000  0.0000
  519FIC    C2110476   4.546  -5.641  -0.882  0.0000  0.0000  0.0000
  519FIC    C2210477   4.522  -5.776  -0.828  0.0000  0.0000  0.0000
  519FIC    C2310478   4.551  -5.825  -0.698  0.0000  0.0000  0.0000
  519FIC    C2410479   4.523  -5.954  -0.673  0.0000  0.0000  0.0000
  519FIC    C2510480   4.463  -6.033  -0.783  0.0000  0.0000  0.0000
  519FIC    C2610481   4.427  -5.989  -0.899  0.0000  0.0000  0.0000
  519FIC    C2710482   4.462  -5.854  -0.927  0.0000  0.0000  0.0000
  519FIC    C2810483   4.438  -5.767  -1.043  0.0000  0.0000  0.0000
  519FIC    C2910484   4.378  -5.810  -1.160  0.0000  0.0000  0.0000
  519FIC    C3010485   4.330  -5.954  -1.172  0.0000  0.0000  0.0000
  519FIC    C3110486   4.360  -5.733  -1.279  0.0000  0.0000  0.0000
  520FIC     F110487   5.511  -4.687   0.160  0.0000  0.0000  0.0000
  520FIC     F210488   5.558  -4.445   0.241  0.0000  0.0000  0.0000
  520FIC     O110489   5.199  -4.593  -0.263  0.0000  0.0000  0.0000
  520FIC     N510490   5.381  -4.024   0.091  0.0000  0.0000  0.0000
  520FIC     N610491   5.190  -3.969  -0.287  0.0000  0.0000  0.0000
  520FIC    C1910492   5.131  -4.307  -0.330  0.0000  0.0000  0.0000
  520FIC    C2010493   5.210  -4.353  -0.231  0.0000  0.0000  0.0000
  520FIC    C2110494   5.242  -4.499  -0.199  0.0000  0.0000  0.0000
  520FIC    C2210495   5.321  -4.501  -0.083  0.0000  0.0000  0.0000
  520FIC    C2310496   5.377  -4.612  -0.017  0.0000  0.0000  0.0000
  520FIC    C2410497   5.453  -4.595   0.093  0.0000  0.0000  0.0000
  520FIC    C2510498   5.482  -4.466   0.135  0.0000  0.0000  0.0000
  520FIC    C2610499   5.427  -4.347   0.077  0.0000  0.0000  0.0000
  520FIC    C2710500   5.344  -4.368  -0.036  0.0000  0.0000  0.0000
  520FIC    C2810501   5.277  -4.279  -0.128  0.0000  0.0000  0.0000
  520FIC    C2910502   5.282  -4.139  -0.116  0.0000  0.0000  0.0000
  520FIC    C3010503   5.339  -4.075   0.003  0.0000  0.0000  0.0000
  520FIC    C3110504   5.226  -4.045  -0.209  0.0000  0.0000  0.0000
  521BTD     S210505   5.394   1.605   4.192  0.0000  0.0000  0.0000
  521BTD     N110506   5.381   1.769   4.187  0.0000  0.0000  0.0000
  521BTD     N210507   5.329   1.565   4.049  0.0000  0.0000  0.0000
  521BTD     N310508   5.128   1.812   3.700  0.0000  0.0000  0.0000
  521BTD     N410509   5.184   2.084   3.892  0.0000  0.0000  0.0000
  521BTD     C510510   5.285   1.925   4.031  0.0000  0.0000  0.0000
  521BTD     C610511   5.325   1.797   4.075  0.0000  0.0000  0.0000
  521BTD     C710512   5.296   1.682   3.995  0.0000  0.0000  0.0000
  521BTD     C810513   5.229   1.699   3.870  0.0000  0.0000  0.0000
  521BTD    C1510514   5.193   1.827   3.820  0.0000  0.0000  0.0000
  521BTD    C1610515   5.212   1.948   3.906  0.0000  0.0000  0.0000
  521BTD    C4310516   5.081   2.149   3.815  0.0000  0.0000  0.0000
  521BTD    C4410517   4.939   2.097   3.852  0.0000  0.0000  0.0000
  521BTD    C4510518   4.901   2.072   4.001  0.0000  0.0000  0.0000
  521BTD    C4610519   4.895   2.204   4.083  0.0000  0.0000  0.0000
  521BTD    C4710520   4.823   2.177   3.786  0.0000  0.0000  0.0000
  521BTD    C4810521   4.806   2.171   3.632  0.0000  0.0000  0.0000
  521BTD    C4910522   4.717   2.277   3.560  0.0000  0.0000  0.0000
  521BTD    C5010523   4.738   2.302   3.408  0.0000  0.0000  0.0000
  521BTD    C7510524   5.116   1.910   3.581  0.0000  0.0000  0.0000
  521BTD    C7610525   5.254   1.974   3.546  0.0000  0.0000  0.0000
  521BTD    C7710526   5.253   2.060   3.417  0.0000  0.0000  0.0000
  521BTD    C7810527   5.108   2.028   3.372  0.0000  0.0000  0.0000
  521BTD    C7910528   5.375   1.880   3.528  0.0000  0.0000  0.0000
  521BTD    C8010529   5.354   1.748   3.449  0.0000  0.0000  0.0000
  521BTD    C8110530   5.450   1.629   3.473  0.0000  0.0000  0.0000
  521BTD    C8210531   5.582   1.624   3.390  0.0000  0.0000  0.0000
  522TTP     S110532   5.360   2.124   4.230  0.0000  0.0000  0.0000
  522TTP     S510533   5.177   2.431   4.011  0.0000  0.0000  0.0000
  522TTP     C110534   5.236   2.501   4.157  0.0000  0.0000  0.0000
  522TTP     C210535   5.297   2.410   4.235  0.0000  0.0000  0.0000
  522TTP     C310536   5.299   2.279   4.183  0.0000  0.0000  0.0000
  522TTP     C410537   5.294   2.053   4.088  0.0000  0.0000  0.0000
  522TTP    C1710538   5.234   2.145   4.003  0.0000  0.0000  0.0000
  522TTP    C1810539   5.233   2.278   4.055  0.0000  0.0000  0.0000
  522TTP    C3210540   5.355   2.434   4.376  0.0000  0.0000  0.0000
  522TTP    C3310541   5.507   2.419   4.399  0.0000  0.0000  0.0000
  522TTP    C3410542   5.565   2.454   4.538  0.0000  0.0000  0.0000
  522TTP    C3510543   5.718   2.448   4.509  0.0000  0.0000  0.0000
  522TTP    C3610544   5.764   2.595   4.485  0.0000  0.0000  0.0000
  522TTP    C3710545   5.696   2.708   4.567  0.0000  0.0000  0.0000
  522TTP    C3810546   5.780   2.828   4.619  0.0000  0.0000  0.0000
  522TTP    C3910547   5.670   2.873   4.717  0.0000  0.0000  0.0000
  522TTP    C4010548   5.715   2.914   4.861  0.0000  0.0000  0.0000
  522TTP    C4110549   5.634   3.022   4.938  0.0000  0.0000  0.0000
  522TTP    C4210550   5.696   3.088   5.064  0.0000  0.0000  0.0000
  523TTP     S110551   5.196   1.434   3.746  0.0000  0.0000  0.0000
  523TTP     S510552   4.974   1.609   3.435  0.0000  0.0000  0.0000
  523TTP     C110553   4.968   1.434   3.418  0.0000  0.0000  0.0000
  523TTP     C210554   5.039   1.369   3.514  0.0000  0.0000  0.0000
  523TTP     C310555   5.100   1.457   3.603  0.0000  0.0000  0.0000
  523TTP     C410556   5.194   1.604   3.772  0.0000  0.0000  0.0000
  523TTP    C1710557   5.131   1.676   3.669  0.0000  0.0000  0.0000
  523TTP    C1810558   5.072   1.591   3.574  0.0000  0.0000  0.0000
  523TTP    C3210559   5.057   1.215   3.523  0.0000  0.0000  0.0000
  523TTP    C3310560   5.175   1.162   3.435  0.0000  0.0000  0.0000
  523TTP    C3410561   5.193   1.009   3.440  0.0000  0.0000  0.0000
  523TTP    C3510562   5.221   0.966   3.587  0.0000  0.0000  0.0000
  523TTP    C3610563   5.235   0.815   3.619  0.0000  0.0000  0.0000
  523TTP    C3710564   5.112   0.721   3.605  0.0000  0.0000  0.0000
  523TTP    C3810565   5.198   0.594   3.633  0.0000  0.0000  0.0000
  523TTP    C3910566   5.104   0.494   3.562  0.0000  0.0000  0.0000
  523TTP    C4010567   5.098   0.496   3.406  0.0000  0.0000  0.0000
  523TTP    C4110568   4.991   0.583   3.335  0.0000  0.0000  0.0000
  523TTP    C4210569   5.026   0.727   3.285  0.0000  0.0000  0.0000
  524FIC     F110570   4.904   3.150   3.785  0.0000  0.0000  0.0000
  524FIC     F210571   4.945   3.286   4.014  0.0000  0.0000  0.0000
  524FIC     O110572   5.114   2.674   3.922  0.0000  0.0000  0.0000
  524FIC     N510573   5.153   3.157   4.423  0.0000  0.0000  0.0000
  524FIC     N610574   5.324   2.760   4.512  0.0000  0.0000  0.0000
  524FIC    C1910575   5.219   2.636   4.199  0.0000  0.0000  0.0000
  524FIC    C2010576   5.167   2.750   4.147  0.0000  0.0000  0.0000
  524FIC    C2110577   5.112   2.761   4.013  0.0000  0.0000  0.0000
  524FIC    C2210578   5.066   2.900   3.998  0.0000  0.0000  0.0000
  524FIC    C2310579   5.005   2.954   3.881  0.0000  0.0000  0.0000
  524FIC    C2410580   4.963   3.087   3.902  0.0000  0.0000  0.0000
  524FIC    C2510581   4.983   3.155   4.014  0.0000  0.0000  0.0000
  524FIC    C2610582   5.040   3.101   4.119  0.0000  0.0000  0.0000
  524FIC    C2710583   5.083   2.973   4.106  0.0000  0.0000  0.0000
  524FIC    C2810584   5.151   2.881   4.207  0.0000  0.0000  0.0000
  524FIC    C2910585   5.193   2.909   4.348  0.0000  0.0000  0.0000
  524FIC    C3010586   5.173   3.053   4.387  0.0000  0.0000  0.0000
  524FIC    C3110587   5.260   2.823   4.443  0.0000  0.0000  0.0000
  525FIC     F110588   4.509   1.706   2.805  0.0000  0.0000  0.0000
  525FIC     F210589   4.455   1.455   2.742  0.0000  0.0000  0.0000
  525FIC     O110590   4.830   1.643   3.221  0.0000  0.0000  0.0000
  525FIC     N510591   4.604   1.041   2.948  0.0000  0.0000  0.0000
  525FIC     N610592   4.798   1.024   3.322  0.0000  0.0000  0.0000
  525FIC    C1910593   4.891   1.363   3.320  0.0000  0.0000  0.0000
  525FIC    C2010594   4.810   1.400   3.218  0.0000  0.0000  0.0000
  525FIC    C2110595   4.785   1.541   3.175  0.0000  0.0000  0.0000
  525FIC    C2210596   4.700   1.532   3.055  0.0000  0.0000  0.0000
  525FIC    C2310597   4.648   1.639   2.982  0.0000  0.0000  0.0000
  525FIC    C2410598   4.572   1.608   2.878  0.0000  0.0000  0.0000
  525FIC    C2510599   4.540   1.475   2.845  0.0000  0.0000  0.0000
  525FIC    C2610600   4.588   1.372   2.919  0.0000  0.0000  0.0000
  525FIC    C2710601   4.670   1.401   3.024  0.0000  0.0000  0.0000
  525FIC    C2810602   4.734   1.315   3.128  0.0000  0.0000  0.0000
  525FIC    C2910603   4.721   1.177   3.133  0.0000  0.0000  0.0000
  525FIC    C3010604   4.656   1.103   3.031  0.0000  0.0000  0.0000
  525FIC    C3110605   4.765   1.094   3.242  0.0000  0.0000  0.0000
  526BTD     S210606   4.268   1.597   1.797  0.0000  0.0000  0.0000
  526BTD     N110607   4.257   1.758   1.808  0.0000  0.0000  0.0000
  526BTD     N210608   4.347   1.565   1.934  0.0000  0.0000  0.0000
  526BTD     N310609   4.516   1.827   2.296  0.0000  0.0000  0.0000
  526BTD     N410610   4.403   2.087   2.118  0.0000  0.0000  0.0000
  526BTD     C510611   4.333   1.923   1.977  0.0000  0.0000  0.0000
  526BTD     C610612   4.316   1.793   1.921  0.0000  0.0000  0.0000
  526BTD     C710613   4.367   1.682   1.994  0.0000  0.0000  0.0000
  526BTD     C810614   4.428   1.703   2.119  0.0000  0.0000  0.0000
  526BTD    C1510615   4.447   1.836   2.172  0.0000  0.0000  0.0000
  526BTD    C1610616   4.399   1.948   2.095  0.0000  0.0000  0.0000
  526BTD    C4310617   4.491   2.164   2.207  0.0000  0.0000  0.0000
  526BTD    C4410618   4.644   2.154   2.177  0.0000  0.0000  0.0000
  526BTD    C4510619   4.716   2.253   2.271  0.0000  0.0000  0.0000
  526BTD    C4610620   4.866   2.211   2.270  0.0000  0.0000  0.0000
  526BTD    C4710621   4.677   2.181   2.027  0.0000  0.0000  0.0000
  526BTD    C4810622   4.691   2.322   1.964  0.0000  0.0000  0.0000
  526BTD    C4910623   4.705   2.290   1.813  0.0000  0.0000  0.0000
  526BTD    C5010624   4.802   2.244   1.699  0.0000  0.0000  0.0000
  526BTD    C7510625   4.503   1.915   2.412  0.0000  0.0000  0.0000
  526BTD    C7610626   4.354   1.945   2.448  0.0000  0.0000  0.0000
  526BTD    C7710627   4.345   2.033   2.575  0.0000  0.0000  0.0000
  526BTD    C7810628   4.204   2.086   2.610  0.0000  0.0000  0.0000
  526BTD    C7910629   4.269   1.818   2.468  0.0000  0.0000  0.0000
  526BTD    C8010630   4.296   1.729   2.592  0.0000  0.0000  0.0000
  526BTD    C8110631   4.204   1.604   2.587  0.0000  0.0000  0.0000
  526BTD    C8210632   4.235   1.478   2.500  0.0000  0.0000  0.0000
  527TTP     S110633   4.206   2.113   1.790  0.0000  0.0000  0.0000
  527TTP     S510634   4.305   2.432   2.047  0.0000  0.0000  0.0000
  527TTP     C110635   4.208   2.495   1.915  0.0000  0.0000  0.0000
  527TTP     C210636   4.170   2.398   1.827  0.0000  0.0000  0.0000
  527TTP     C310637   4.226   2.275   1.860  0.0000  0.0000  0.0000
  527TTP     C410638   4.291   2.052   1.921  0.0000  0.0000  0.0000
  527TTP    C1710639   4.342   2.143   2.012  0.0000  0.0000  0.0000
  527TTP    C1810640   4.298   2.277   1.972  0.0000  0.0000  0.0000
  527TTP    C3210641   4.085   2.415   1.699  0.0000  0.0000  0.0000
  527TTP    C3310642   4.175   2.449   1.577  0.0000  0.0000  0.0000
  527TTP    C3410643   4.082   2.472   1.456  0.0000  0.0000  0.0000
  527TTP    C3510644   4.141   2.543   1.331  0.0000  0.0000  0.0000
  527TTP    C3610645   4.046   2.637   1.250  0.0000  0.0000  0.0000
  527TTP    C3710646   3.927   2.573   1.173  0.0000  0.0000  0.0000
  527TTP    C3810647   3.846   2.441   1.161  0.0000  0.0000  0.0000
  527TTP    C3910648   3.764   2.391   1.284  0.0000  0.0000  0.0000
  527TTP    C4010649   3.705   2.493   1.384  0.0000  0.0000  0.0000
  527TTP    C4110650   3.718   2.467   1.537  0.0000  0.0000  0.0000
  527TTP    C4210651   3.700   2.588   1.632  0.0000  0.0000  0.0000
  528TTP     S110652   4.511   1.444   2.234  0.0000  0.0000  0.0000
  528TTP     S510653   4.713   1.647   2.542  0.0000  0.0000  0.0000
  528TTP     C110654   4.744   1.474   2.564  0.0000  0.0000  0.0000
  528TTP     C210655   4.679   1.400   2.463  0.0000  0.0000  0.0000
  528TTP     C310656   4.602   1.480   2.379  0.0000  0.0000  0.0000
  528TTP     C410657   4.488   1.616   2.213  0.0000  0.0000  0.0000
  528TTP    C1710658   4.542   1.691   2.317  0.0000  0.0000  0.0000
  528TTP    C1810659   4.612   1.614   2.412  0.0000  0.0000  0.0000
  528TTP    C3210660   4.672   1.246   2.456  0.0000  0.0000  0.0000
  528TTP    C3310661   4.567   1.179   2.550  0.0000  0.0000  0.0000
  528TTP    C3410662   4.560   1.024   2.534  0.0000  0.0000  0.0000
  528TTP    C3510663   4.451   0.974   2.632  0.0000  0.0000  0.0000
  528TTP    C3610664   4.467   0.820   2.638  0.0000  0.0000  0.0000
  528TTP    C3710665   4.434   0.782   2.490  0.0000  0.0000  0.0000
  528TTP    C3810666   4.428   0.628   2.461  0.0000  0.0000  0.0000
  528TTP    C3910667   4.366   0.577   2.329  0.0000  0.0000  0.0000
  528TTP    C4010668   4.457   0.509   2.222  0.0000  0.0000  0.0000
  528TTP    C4110669   4.532   0.378   2.256  0.0000  0.0000  0.0000
  528TTP    C4210670   4.554   0.271   2.147  0.0000  0.0000  0.0000
  529FIC     F110671   4.238   3.122   2.439  0.0000  0.0000  0.0000
  529FIC     F210672   4.129   3.276   2.247  0.0000  0.0000  0.0000
  529FIC     O110673   4.292   2.663   2.178  0.0000  0.0000  0.0000
  529FIC     N510674   3.976   3.163   1.802  0.0000  0.0000  0.0000
  529FIC     N610675   4.024   2.782   1.623  0.0000  0.0000  0.0000
  529FIC    C1910676   4.164   2.632   1.905  0.0000  0.0000  0.0000
  529FIC    C2010677   4.173   2.743   1.986  0.0000  0.0000  0.0000
  529FIC    C2110678   4.236   2.751   2.113  0.0000  0.0000  0.0000
  529FIC    C2210679   4.211   2.885   2.167  0.0000  0.0000  0.0000
  529FIC    C2310680   4.241   2.935   2.298  0.0000  0.0000  0.0000
  529FIC    C2410681   4.212   3.064   2.322  0.0000  0.0000  0.0000
  529FIC    C2510682   4.152   3.143   2.213  0.0000  0.0000  0.0000
  529FIC    C2610683   4.116   3.098   2.096  0.0000  0.0000  0.0000
  529FIC    C2710684   4.151   2.963   2.068  0.0000  0.0000  0.0000
  529FIC    C2810685   4.127   2.877   1.952  0.0000  0.0000  0.0000
  529FIC    C2910686   4.067   2.920   1.836  0.0000  0.0000  0.0000
  529FIC    C3010687   4.019   3.063   1.823  0.0000  0.0000  0.0000
  529FIC    C3110688   4.050   2.842   1.717  0.0000  0.0000  0.0000
  530FIC     F110689   5.200   1.797   3.155  0.0000  0.0000  0.0000
  530FIC     F210690   5.247   1.554   3.236  0.0000  0.0000  0.0000
  530FIC     O110691   4.888   1.703   2.733  0.0000  0.0000  0.0000
  530FIC     N510692   5.070   1.134   3.086  0.0000  0.0000  0.0000
  530FIC     N610693   4.880   1.079   2.708  0.0000  0.0000  0.0000
  530FIC    C1910694   4.820   1.416   2.665  0.0000  0.0000  0.0000
  530FIC    C2010695   4.900   1.462   2.764  0.0000  0.0000  0.0000
  530FIC    C2110696   4.931   1.609   2.797  0.0000  0.0000  0.0000
  530FIC    C2210697   5.010   1.611   2.912  0.0000  0.0000  0.0000
  530FIC    C2310698   5.067   1.721   2.979  0.0000  0.0000  0.0000
  530FIC    C2410699   5.143   1.704   3.088  0.0000  0.0000  0.0000
  530FIC    C2510700   5.172   1.575   3.131  0.0000  0.0000  0.0000
  530FIC    C2610701   5.116   1.456   3.072  0.0000  0.0000  0.0000
  530FIC    C2710702   5.033   1.478   2.960  0.0000  0.0000  0.0000
  530FIC    C2810703   4.967   1.388   2.867  0.0000  0.0000  0.0000
  530FIC    C2910704   4.971   1.249   2.879  0.0000  0.0000  0.0000
  530FIC    C3010705   5.028   1.184   2.998  0.0000  0.0000  0.0000
  530FIC    C3110706   4.915   1.155   2.786  0.0000  0.0000  0.0000
  531BTD     S210707   3.262  -1.605  -0.198  0.0000  0.0000  0.0000
  531BTD     N110708   3.275  -1.769  -0.193  0.0000  0.0000  0.0000
  531BTD     N210709   3.327  -1.565  -0.055  0.0000  0.0000  0.0000
  531BTD     N310710   3.528  -1.812   0.294  0.0000  0.0000  0.0000
  531BTD     N410711   3.472  -2.084   0.102  0.0000  0.0000  0.0000
  531BTD     C510712   3.371  -1.925  -0.037  0.0000  0.0000  0.0000
  531BTD     C610713   3.331  -1.797  -0.081  0.0000  0.0000  0.0000
  531BTD     C710714   3.360  -1.682  -0.001  0.0000  0.0000  0.0000
  531BTD     C810715   3.427  -1.699   0.124  0.0000  0.0000  0.0000
  531BTD    C1510716   3.463  -1.827   0.174  0.0000  0.0000  0.0000
  531BTD    C1610717   3.444  -1.948   0.088  0.0000  0.0000  0.0000
  531BTD    C4310718   3.575  -2.149   0.179  0.0000  0.0000  0.0000
  531BTD    C4410719   3.717  -2.097   0.142  0.0000  0.0000  0.0000
  531BTD    C4510720   3.755  -2.072  -0.007  0.0000  0.0000  0.0000
  531BTD    C4610721   3.761  -2.204  -0.089  0.0000  0.0000  0.0000
  531BTD    C4710722   3.833  -2.177   0.208  0.0000  0.0000  0.0000
  531BTD    C4810723   3.850  -2.171   0.362  0.0000  0.0000  0.0000
  531BTD    C4910724   3.939  -2.277   0.434  0.0000  0.0000  0.0000
  531BTD    C5010725   3.918  -2.302   0.586  0.0000  0.0000  0.0000
  531BTD    C7510726   3.540  -1.910   0.413  0.0000  0.0000  0.0000
  531BTD    C7610727   3.402  -1.974   0.448  0.0000  0.0000  0.0000
  531BTD    C7710728   3.403  -2.060   0.577  0.0000  0.0000  0.0000
  531BTD    C7810729   3.548  -2.028   0.622  0.0000  0.0000  0.0000
  531BTD    C7910730   3.281  -1.880   0.466  0.0000  0.0000  0.0000
  531BTD    C8010731   3.302  -1.748   0.545  0.0000  0.0000  0.0000
  531BTD    C8110732   3.206  -1.629   0.521  0.0000  0.0000  0.0000
  531BTD    C8210733   3.074  -1.624   0.604  0.0000  0.0000  0.0000
  532TTP     S110734   3.296  -2.124  -0.236  0.0000  0.0000  0.0000
  532TTP     S510735   3.479  -2.431  -0.017  0.0000  0.0000  0.0000
  532TTP     C110736   3.420  -2.501  -0.163  0.0000  0.0000  0.0000
  532TTP     C210737   3.359  -2.410  -0.241  0.0000  0.0000  0.0000
  532TTP     C310738   3.357  -2.279  -0.189  0.0000  0.0000  0.0000
  532TTP     C410739   3.362  -2.053  -0.094  0.0000  0.0000  0.0000
  532TTP    C1710740   3.422  -2.145  -0.009  0.0000  0.0000  0.0000
  532TTP    C1810741   3.423  -2.278  -0.061  0.0000  0.0000  0.0000
  532TTP    C3210742   3.301  -2.434  -0.382  0.0000  0.0000  0.0000
  532TTP    C3310743   3.149  -2.419  -0.405  0.0000  0.0000  0.0000
  532TTP    C3410744   3.091  -2.454  -0.544  0.0000  0.0000  0.0000
  532TTP    C3510745   2.938  -2.448  -0.515  0.0000  0.0000  0.0000
  532TTP    C3610746   2.892  -2.595  -0.491  0.0000  0.0000  0.0000
  532TTP    C3710747   2.960  -2.708  -0.573  0.0000  0.0000  0.0000
  532TTP    C3810748   2.876  -2.828  -0.625  0.0000  0.0000  0.0000
  532TTP    C3910749   2.986  -2.873  -0.723  0.0000  0.0000  0.0000
  532TTP    C4010750   2.941  -2.914  -0.867  0.0000  0.0000  0.0000
  532TTP    C4110751   3.022  -3.022  -0.944  0.0000  0.0000  0.0000
  532TTP    C4210752   2.960  -3.088  -1.070  0.0000  0.0000  0.0000
  533TTP     S110753   3.460  -1.434   0.248  0.0000  0.0000  0.0000
  533TTP     S510754   3.682  -1.609   0.559  0.0000  0.0000  0.0000
  533TTP     C110755   3.688  -1.434   0.576  0.0000  0.0000  0.0000
  533TTP     C210756   3.617  -1.369   0.480  0.0000  0.0000  0.0000
  533TTP     C310757   3.556  -1.457   0.391  0.0000  0.0000  0.0000
  533TTP     C410758   3.462  -1.604   0.222  0.0000  0.0000  0.0000
  533TTP    C1710759   3.525  -1.676   0.325  0.0000  0.0000  0.0000
  533TTP    C1810760   3.584  -1.591   0.420  0.0000  0.0000  0.0000
  533TTP    C3210761   3.599  -1.215   0.471  0.0000  0.0000  0.0000
  533TTP    C3310762   3.481  -1.162   0.559  0.0000  0.0000  0.0000
  533TTP    C3410763   3.463  -1.009   0.554  0.0000  0.0000  0.0000
  533TTP    C3510764   3.435  -0.966   0.407  0.0000  0.0000  0.0000
  533TTP    C3610765   3.421  -0.815   0.375  0.0000  0.0000  0.0000
  533TTP    C3710766   3.544  -0.721   0.389  0.0000  0.0000  0.0000
  533TTP    C3810767   3.458  -0.594   0.361  0.0000  0.0000  0.0000
  533TTP    C3910768   3.552  -0.494   0.432  0.0000  0.0000  0.0000
  533TTP    C4010769   3.558  -0.496   0.588  0.0000  0.0000  0.0000
  533TTP    C4110770   3.665  -0.583   0.659  0.0000  0.0000  0.0000
  533TTP    C4210771   3.630  -0.727   0.709  0.0000  0.0000  0.0000
  534FIC     F110772   3.752  -3.150   0.209  0.0000  0.0000  0.0000
  534FIC     F210773   3.711  -3.286  -0.020  0.0000  0.0000  0.0000
  534FIC     O110774   3.542  -2.674   0.072  0.0000  0.0000  0.0000
  534FIC     N510775   3.503  -3.157  -0.429  0.0000  0.0000  0.0000
  534FIC     N610776   3.332  -2.760  -0.518  0.0000  0.0000  0.0000
  534FIC    C1910777   3.437  -2.636  -0.205  0.0000  0.0000  0.0000
  534FIC    C2010778   3.489  -2.750  -0.153  0.0000  0.0000  0.0000
  534FIC    C2110779   3.544  -2.761  -0.019  0.0000  0.0000  0.0000
  534FIC    C2210780   3.590  -2.900  -0.004  0.0000  0.0000  0.0000
  534FIC    C2310781   3.651  -2.954   0.113  0.0000  0.0000  0.0000
  534FIC    C2410782   3.693  -3.087   0.092  0.0000  0.0000  0.0000
  534FIC    C2510783   3.673  -3.155  -0.020  0.0000  0.0000  0.0000
  534FIC    C2610784   3.616  -3.101  -0.125  0.0000  0.0000  0.0000
  534FIC    C2710785   3.573  -2.973  -0.112  0.0000  0.0000  0.0000
  534FIC    C2810786   3.505  -2.881  -0.213  0.0000  0.0000  0.0000
  534FIC    C2910787   3.463  -2.909  -0.354  0.0000  0.0000  0.0000
  534FIC    C3010788   3.484  -3.053  -0.393  0.0000  0.0000  0.0000
  534FIC    C3110789   3.396  -2.823  -0.449  0.0000  0.0000  0.0000
  535FIC     F110790   4.147  -1.706   1.189  0.0000  0.0000  0.0000
  535FIC     F210791   4.201  -1.455   1.252  0.0000  0.0000  0.0000
  535FIC     O110792   3.826  -1.643   0.773  0.0000  0.0000  0.0000
  535FIC     N510793   4.052  -1.041   1.046  0.0000  0.0000  0.0000
  535FIC     N610794   3.858  -1.024   0.672  0.0000  0.0000  0.0000
  535FIC    C1910795   3.765  -1.363   0.674  0.0000  0.0000  0.0000
  535FIC    C2010796   3.846  -1.400   0.776  0.0000  0.0000  0.0000
  535FIC    C2110797   3.871  -1.541   0.819  0.0000  0.0000  0.0000
  535FIC    C2210798   3.956  -1.532   0.939  0.0000  0.0000  0.0000
  535FIC    C2310799   4.008  -1.639   1.012  0.0000  0.0000  0.0000
  535FIC    C2410800   4.084  -1.608   1.116  0.0000  0.0000  0.0000
  535FIC    C2510801   4.116  -1.475   1.149  0.0000  0.0000  0.0000
  535FIC    C2610802   4.068  -1.372   1.075  0.0000  0.0000  0.0000
  535FIC    C2710803   3.986  -1.401   0.970  0.0000  0.0000  0.0000
  535FIC    C2810804   3.922  -1.315   0.866  0.0000  0.0000  0.0000
  535FIC    C2910805   3.935  -1.177   0.861  0.0000  0.0000  0.0000
  535FIC    C3010806   4.000  -1.103   0.963  0.0000  0.0000  0.0000
  535FIC    C3110807   3.891  -1.094   0.752  0.0000  0.0000  0.0000
  536BTD     S210808   4.388  -1.597   2.197  0.0000  0.0000  0.0000
  536BTD     N110809   4.399  -1.758   2.186  0.0000  0.0000  0.0000
  536BTD     N210810   4.309  -1.565   2.060  0.0000  0.0000  0.0000
  536BTD     N310811   4.140  -1.827   1.698  0.0000  0.0000  0.0000
  536BTD     N410812   4.253  -2.087   1.876  0.0000  0.0000  0.0000
  536BTD     C510813   4.323  -1.923   2.017  0.0000  0.0000  0.0000
  536BTD     C610814   4.340  -1.793   2.073  0.0000  0.0000  0.0000
  536BTD     C710815   4.289  -1.682   2.000  0.0000  0.0000  0.0000
  536BTD     C810816   4.228  -1.703   1.875  0.0000  0.0000  0.0000
  536BTD    C1510817   4.209  -1.836   1.822  0.0000  0.0000  0.0000
  536BTD    C1610818   4.257  -1.948   1.899  0.0000  0.0000  0.0000
  536BTD    C4310819   4.165  -2.164   1.787  0.0000  0.0000  0.0000
  536BTD    C4410820   4.012  -2.154   1.817  0.0000  0.0000  0.0000
  536BTD    C4510821   3.940  -2.253   1.723  0.0000  0.0000  0.0000
  536BTD    C4610822   3.790  -2.211   1.724  0.0000  0.0000  0.0000
  536BTD    C4710823   3.979  -2.181   1.967  0.0000  0.0000  0.0000
  536BTD    C4810824   3.965  -2.322   2.030  0.0000  0.0000  0.0000
  536BTD    C4910825   3.951  -2.290   2.181  0.0000  0.0000  0.0000
  536BTD    C5010826   3.854  -2.244   2.295  0.0000  0.0000  0.0000
  536BTD    C7510827   4.153  -1.915   1.582  0.0000  0.0000  0.0000
  536BTD    C7610828   4.302  -1.945   1.546  0.0000  0.0000  0.0000
  536BTD    C7710829   4.311  -2.033   1.419  0.0000  0.0000  0.0000
  536BTD    C7810830   4.452  -2.086   1.384  0.0000  0.0000  0.0000
  536BTD    C7910831   4.387  -1.818   1.526  0.0000  0.0000  0.0000
  536BTD    C8010832   4.360  -1.729   1.402  0.0000  0.0000  0.0000
  536BTD    C8110833   4.452  -1.604   1.407  0.0000  0.0000  0.0000
  536BTD    C8210834   4.421  -1.478   1.494  0.0000  0.0000  0.0000
  537TTP     S110835   4.450  -2.113   2.204  0.0000  0.0000  0.0000
  537TTP     S510836   4.351  -2.432   1.947  0.0000  0.0000  0.0000
  537TTP     C110837   4.448  -2.495   2.079  0.0000  0.0000  0.0000
  537TTP     C210838   4.486  -2.398   2.167  0.0000  0.0000  0.0000
  537TTP     C310839   4.430  -2.275   2.134  0.0000  0.0000  0.0000
  537TTP     C410840   4.365  -2.052   2.073  0.0000  0.0000  0.0000
  537TTP    C1710841   4.314  -2.143   1.982  0.0000  0.0000  0.0000
  537TTP    C1810842   4.358  -2.277   2.022  0.0000  0.0000  0.0000
  537TTP    C3210843   4.571  -2.415   2.295  0.0000  0.0000  0.0000
  537TTP    C3310844   4.481  -2.449   2.417  0.0000  0.0000  0.0000
  537TTP    C3410845   4.574  -2.472   2.538  0.0000  0.0000  0.0000
  537TTP    C3510846   4.515  -2.543   2.663  0.0000  0.0000  0.0000
  537TTP    C3610847   4.610  -2.637   2.744  0.0000  0.0000  0.0000
  537TTP    C3710848   4.729  -2.573   2.821  0.0000  0.0000  0.0000
  537TTP    C3810849   4.810  -2.441   2.833  0.0000  0.0000  0.0000
  537TTP    C3910850   4.892  -2.391   2.710  0.0000  0.0000  0.0000
  537TTP    C4010851   4.951  -2.493   2.610  0.0000  0.0000  0.0000
  537TTP    C4110852   4.938  -2.467   2.457  0.0000  0.0000  0.0000
  537TTP    C4210853   4.956  -2.588   2.362  0.0000  0.0000  0.0000
  538TTP     S110854   4.145  -1.444   1.760  0.0000  0.0000  0.0000
  538TTP     S510855   3.943  -1.647   1.452  0.0000  0.0000  0.0000
  538TTP     C110856   3.912  -1.474   1.430  0.0000  0.0000  0.0000
  538TTP     C210857   3.977  -1.400   1.531  0.0000  0.0000  0.0000
  538TTP     C310858   4.054  -1.480   1.615  0.0000  0.0000  0.0000
  538TTP     C410859   4.168  -1.616   1.781  0.0000  0.0000  0.0000
  538TTP    C1710860   4.114  -1.691   1.677  0.0000  0.0000  0.0000
  538TTP    C1810861   4.044  -1.614   1.582  0.0000  0.0000  0.0000
  538TTP    C3210862   3.984  -1.246   1.538  0.0000  0.0000  0.0000
  538TTP    C3310863   4.090  -1.179   1.444  0.0000  0.0000  0.0000
  538TTP    C3410864   4.096  -1.024   1.460  0.0000  0.0000  0.0000
  538TTP    C3510865   4.205  -0.974   1.362  0.0000  0.0000  0.0000
  538TTP    C3610866   4.189  -0.820   1.356  0.0000  0.0000  0.0000
  538TTP    C3710867   4.222  -0.782   1.504  0.0000  0.0000  0.0000
  538TTP    C3810868   4.228  -0.628   1.533  0.0000  0.0000  0.0000
  538TTP    C3910869   4.290  -0.577   1.665  0.0000  0.0000  0.0000
  538TTP    C4010870   4.199  -0.509   1.772  0.0000  0.0000  0.0000
  538TTP    C4110871   4.124  -0.378   1.738  0.0000  0.0000  0.0000
  538TTP    C4210872   4.102  -0.271   1.847  0.0000  0.0000  0.0000
  539FIC     F110873   4.418  -3.122   1.555  0.0000  0.0000  0.0000
  539FIC     F210874   4.527  -3.276   1.747  0.0000  0.0000  0.0000
  539FIC     O110875   4.364  -2.663   1.816  0.0000  0.0000  0.0000
  539FIC     N510876   4.680  -3.163   2.192  0.0000  0.0000  0.0000
  539FIC     N610877   4.632  -2.782   2.371  0.0000  0.0000  0.0000
  539FIC    C1910878   4.492  -2.632   2.089  0.0000  0.0000  0.0000
  539FIC    C2010879   4.483  -2.743   2.008  0.0000  0.0000  0.0000
  539FIC    C2110880   4.420  -2.751   1.881  0.0000  0.0000  0.0000
  539FIC    C2210881   4.445  -2.885   1.827  0.0000  0.0000  0.0000
  539FIC    C2310882   4.415  -2.935   1.696  0.0000  0.0000  0.0000
  539FIC    C2410883   4.444  -3.064   1.672  0.0000  0.0000  0.0000
  539FIC    C2510884   4.504  -3.143   1.781  0.0000  0.0000  0.0000
  539FIC    C2610885   4.540  -3.098   1.898  0.0000  0.0000  0.0000
  539FIC    C2710886   4.505  -2.963   1.926  0.0000  0.0000  0.0000
  539FIC    C2810887   4.529  -2.877   2.042  0.0000  0.0000  0.0000
  539FIC    C2910888   4.589  -2.920   2.158  0.0000  0.0000  0.0000
  539FIC    C3010889   4.637  -3.063   2.171  0.0000  0.0000  0.0000
  539FIC    C3110890   4.606  -2.842   2.277  0.0000  0.0000  0.0000
  540FIC     F110891   3.456  -1.797   0.839  0.0000  0.0000  0.0000
  540FIC     F210892   3.409  -1.554   0.758  0.0000  0.0000  0.0000
  540FIC     O110893   3.768  -1.703   1.261  0.0000  0.0000  0.0000
  540FIC     N510894   3.586  -1.134   0.908  0.0000  0.0000  0.0000
  540FIC     N610895   3.776  -1.079   1.286  0.0000  0.0000  0.0000
  540FIC    C1910896   3.836  -1.416   1.329  0.0000  0.0000  0.0000
  540FIC    C2010897   3.756  -1.462   1.230  0.0000  0.0000  0.0000
  540FIC    C2110898   3.725  -1.609   1.197  0.0000  0.0000  0.0000
  540FIC    C2210899   3.646  -1.611   1.082  0.0000  0.0000  0.0000
  540FIC    C2310900   3.589  -1.721   1.015  0.0000  0.0000  0.0000
  540FIC    C2410901   3.513  -1.704   0.906  0.0000  0.0000  0.0000
  540FIC    C2510902   3.484  -1.575   0.863  0.0000  0.0000  0.0000
  540FIC    C2610903   3.540  -1.456   0.922  0.0000  0.0000  0.0000
  540FIC    C2710904   3.623  -1.478   1.034  0.0000  0.0000  0.0000
  540FIC    C2810905   3.689  -1.388   1.127  0.0000  0.0000  0.0000
  540FIC    C2910906   3.685  -1.249   1.115  0.0000  0.0000  0.0000
  540FIC    C3010907   3.628  -1.184   0.996  0.0000  0.0000  0.0000
  540FIC    C3110908   3.741  -1.155   1.208  0.0000  0.0000  0.0000
  541BTD     S210909   3.158   4.495   0.801  0.0000  0.0000  0.0000
  541BTD     N110910   3.172   4.660   0.805  0.0000  0.0000  0.0000
  541BTD     N210911   3.223   4.456   0.943  0.0000  0.0000  0.0000
  541BTD     N310912   3.425   4.703   1.293  0.0000  0.0000  0.0000
  541BTD     N410913   3.368   4.974   1.100  0.0000  0.0000  0.0000
  541BTD     C510914   3.268   4.815   0.962  0.0000  0.0000  0.0000
  541BTD     C610915   3.228   4.687   0.918  0.0000  0.0000  0.0000
  541BTD     C710916   3.257   4.573   0.998  0.0000  0.0000  0.0000
  541BTD     C810917   3.323   4.590   1.122  0.0000  0.0000  0.0000
  541BTD    C1510918   3.359   4.717   1.172  0.0000  0.0000  0.0000
  541BTD    C1610919   3.341   4.839   1.087  0.0000  0.0000  0.0000
  541BTD    C4310920   3.472   5.040   1.177  0.0000  0.0000  0.0000
  541BTD    C4410921   3.614   4.988   1.141  0.0000  0.0000  0.0000
  541BTD    C4510922   3.652   4.963   0.991  0.0000  0.0000  0.0000
  541BTD    C4610923   3.657   5.094   0.910  0.0000  0.0000  0.0000
  541BTD    C4710924   3.729   5.068   1.207  0.0000  0.0000  0.0000
  541BTD    C4810925   3.747   5.062   1.360  0.0000  0.0000  0.0000
  541BTD    C4910926   3.835   5.168   1.432  0.0000  0.0000  0.0000
  541BTD    C5010927   3.815   5.192   1.584  0.0000  0.0000  0.0000
  541BTD    C7510928   3.436   4.801   1.411  0.0000  0.0000  0.0000
  541BTD    C7610929   3.298   4.864   1.446  0.0000  0.0000  0.0000
  541BTD    C7710930   3.300   4.950   1.575  0.0000  0.0000  0.0000
  541BTD    C7810931   3.444   4.919   1.621  0.0000  0.0000  0.0000
  541BTD    C7910932   3.177   4.770   1.465  0.0000  0.0000  0.0000
  541BTD    C8010933   3.198   4.639   1.544  0.0000  0.0000  0.0000
  541BTD    C8110934   3.102   4.519   1.519  0.0000  0.0000  0.0000
  541BTD    C8210935   2.971   4.515   1.603  0.0000  0.0000  0.0000
  542TTP     S110936   3.193   5.015   0.763  0.0000  0.0000  0.0000
  542TTP     S510937   3.376   5.322   0.981  0.0000  0.0000  0.0000
  542TTP     C110938   3.316   5.392   0.835  0.0000  0.0000  0.0000
  542TTP     C210939   3.256   5.300   0.758  0.0000  0.0000  0.0000
  542TTP     C310940   3.254   5.170   0.809  0.0000  0.0000  0.0000
  542TTP     C410941   3.258   4.944   0.905  0.0000  0.0000  0.0000
  542TTP    C1710942   3.319   5.036   0.989  0.0000  0.0000  0.0000
  542TTP    C1810943   3.320   5.168   0.937  0.0000  0.0000  0.0000
  542TTP    C3210944   3.198   5.325   0.616  0.0000  0.0000  0.0000
  542TTP    C3310945   3.045   5.310   0.594  0.0000  0.0000  0.0000
  542TTP    C3410946   2.987   5.345   0.454  0.0000  0.0000  0.0000
  542TTP    C3510947   2.835   5.339   0.483  0.0000  0.0000  0.0000
  542TTP    C3610948   2.788   5.485   0.508  0.0000  0.0000  0.0000
  542TTP    C3710949   2.857   5.599   0.425  0.0000  0.0000  0.0000
  542TTP    C3810950   2.772   5.718   0.374  0.0000  0.0000  0.0000
  542TTP    C3910951   2.882   5.763   0.276  0.0000  0.0000  0.0000
  542TTP    C4010952   2.838   5.805   0.132  0.0000  0.0000  0.0000
  542TTP    C4110953   2.919   5.913   0.054  0.0000  0.0000  0.0000
  542TTP    C4210954   2.856   5.978  -0.072  0.0000  0.0000  0.0000
  543TTP     S110955   3.357   4.324   1.247  0.0000  0.0000  0.0000
  543TTP     S510956   3.579   4.500   1.557  0.0000  0.0000  0.0000
  543TTP     C110957   3.585   4.324   1.575  0.0000  0.0000  0.0000
  543TTP     C210958   3.514   4.259   1.479  0.0000  0.0000  0.0000
  543TTP     C310959   3.453   4.347   1.390  0.0000  0.0000  0.0000
  543TTP     C410960   3.359   4.495   1.221  0.0000  0.0000  0.0000
  543TTP    C1710961   3.422   4.566   1.323  0.0000  0.0000  0.0000
  543TTP    C1810962   3.480   4.482   1.419  0.0000  0.0000  0.0000
  543TTP    C3210963   3.495   4.105   1.469  0.0000  0.0000  0.0000
  543TTP    C3310964   3.378   4.052   1.557  0.0000  0.0000  0.0000
  543TTP    C3410965   3.360   3.899   1.552  0.0000  0.0000  0.0000
  543TTP    C3510966   3.331   3.856   1.406  0.0000  0.0000  0.0000
  543TTP    C3610967   3.318   3.705   1.373  0.0000  0.0000  0.0000
  543TTP    C3710968   3.441   3.612   1.388  0.0000  0.0000  0.0000
  543TTP    C3810969   3.355   3.485   1.359  0.0000  0.0000  0.0000
  543TTP    C3910970   3.448   3.384   1.431  0.0000  0.0000  0.0000
  543TTP    C4010971   3.455   3.387   1.586  0.0000  0.0000  0.0000
  543TTP    C4110972   3.561   3.474   1.658  0.0000  0.0000  0.0000
  543TTP    C4210973   3.527   3.617   1.707  0.0000  0.0000  0.0000
  544FIC     F110974   3.649   6.041   1.208  0.0000  0.0000  0.0000
  544FIC     F210975   3.608   6.176   0.979  0.0000  0.0000  0.0000
  544FIC     O110976   3.439   5.565   1.071  0.0000  0.0000  0.0000
  544FIC     N510977   3.400   6.048   0.569  0.0000  0.0000  0.0000
  544FIC     N610978   3.228   5.651   0.481  0.0000  0.0000  0.0000
  544FIC    C1910979   3.333   5.526   0.793  0.0000  0.0000  0.0000
  544FIC    C2010980   3.385   5.640   0.845  0.0000  0.0000  0.0000
  544FIC    C2110981   3.440   5.651   0.979  0.0000  0.0000  0.0000
  544FIC    C2210982   3.487   5.790   0.995  0.0000  0.0000  0.0000
  544FIC    C2310983   3.548   5.844   1.112  0.0000  0.0000  0.0000
  544FIC    C2410984   3.589   5.978   1.090  0.0000  0.0000  0.0000
  544FIC    C2510985   3.570   6.045   0.978  0.0000  0.0000  0.0000
  544FIC    C2610986   3.512   5.991   0.873  0.0000  0.0000  0.0000
  544FIC    C2710987   3.469   5.863   0.886  0.0000  0.0000  0.0000
  544FIC    C2810988   3.401   5.772   0.786  0.0000  0.0000  0.0000
  544FIC    C2910989   3.359   5.800   0.644  0.0000  0.0000  0.0000
  544FIC    C3010990   3.380   5.944   0.605  0.0000  0.0000  0.0000
  544FIC    C3110991   3.293   5.714   0.549  0.0000  0.0000  0.0000
  545FIC     F110992   4.043   4.597   2.188  0.0000  0.0000  0.0000
  545FIC     F210993   4.098   4.345   2.250  0.0000  0.0000  0.0000
  545FIC     O110994   3.723   4.533   1.771  0.0000  0.0000  0.0000
  545FIC     N510995   3.949   3.931   2.044  0.0000  0.0000  0.0000
  545FIC     N610996   3.754   3.915   1.671  0.0000  0.0000  0.0000
  545FIC    C1910997   3.661   4.254   1.673  0.0000  0.0000  0.0000
  545FIC    C2010998   3.743   4.291   1.775  0.0000  0.0000  0.0000
  545FIC    C2110999   3.768   4.431   1.817  0.0000  0.0000  0.0000
  545FIC    C2211000   3.852   4.423   1.937  0.0000  0.0000  0.0000
  545FIC    C2311001   3.905   4.529   2.010  0.0000  0.0000  0.0000
  545FIC    C2411002   3.980   4.499   2.115  0.0000  0.0000  0.0000
  545FIC    C2511003   4.013   4.366   2.147  0.0000  0.0000  0.0000
  545FIC    C2611004   3.964   4.262   2.073  0.0000  0.0000  0.0000
  545FIC    C2711005   3.883   4.291   1.969  0.0000  0.0000  0.0000
  545FIC    C2811006   3.818   4.205   1.864  0.0000  0.0000  0.0000
  545FIC    C2911007   3.832   4.067   1.860  0.0000  0.0000  0.0000
  545FIC    C3011008   3.896   3.993   1.961  0.0000  0.0000  0.0000
  545FIC    C3111009   3.787   3.985   1.751  0.0000  0.0000  0.0000
  546BTD     S211010   4.285   4.487   3.196  0.0000  0.0000  0.0000
  546BTD     N111011   4.295   4.648   3.185  0.0000  0.0000  0.0000
  546BTD     N211012   4.206   4.456   3.058  0.0000  0.0000  0.0000
  546BTD     N311013   4.036   4.718   2.697  0.0000  0.0000  0.0000
  546BTD     N411014   4.150   4.978   2.874  0.0000  0.0000  0.0000
  546BTD     C511015   4.220   4.814   3.016  0.0000  0.0000  0.0000
  546BTD     C611016   4.237   4.683   3.072  0.0000  0.0000  0.0000
  546BTD     C711017   4.186   4.573   2.998  0.0000  0.0000  0.0000
  546BTD     C811018   4.124   4.594   2.874  0.0000  0.0000  0.0000
  546BTD    C1511019   4.105   4.727   2.821  0.0000  0.0000  0.0000
  546BTD    C1611020   4.153   4.838   2.897  0.0000  0.0000  0.0000
  546BTD    C4311021   4.061   5.055   2.786  0.0000  0.0000  0.0000
  546BTD    C4411022   3.909   5.045   2.816  0.0000  0.0000  0.0000
  546BTD    C4511023   3.836   5.144   2.721  0.0000  0.0000  0.0000
  546BTD    C4611024   3.686   5.102   2.723  0.0000  0.0000  0.0000
  546BTD    C4711025   3.876   5.071   2.965  0.0000  0.0000  0.0000
  546BTD    C4811026   3.861   5.212   3.029  0.0000  0.0000  0.0000
  546BTD    C4911027   3.847   5.181   3.180  0.0000  0.0000  0.0000
  546BTD    C5011028   3.751   5.135   3.293  0.0000  0.0000  0.0000
  546BTD    C7511029   4.050   4.805   2.580  0.0000  0.0000  0.0000
  546BTD    C7611030   4.198   4.835   2.545  0.0000  0.0000  0.0000
  546BTD    C7711031   4.207   4.923   2.418  0.0000  0.0000  0.0000
  546BTD    C7811032   4.348   4.977   2.382  0.0000  0.0000  0.0000
  546BTD    C7911033   4.284   4.708   2.524  0.0000  0.0000  0.0000
  546BTD    C8011034   4.256   4.620   2.400  0.0000  0.0000  0.0000
  546BTD    C8111035   4.348   4.494   2.406  0.0000  0.0000  0.0000
  546BTD    C8211036   4.317   4.369   2.493  0.0000  0.0000  0.0000
  547TTP     S111037   4.346   5.004   3.202  0.0000  0.0000  0.0000
  547TTP     S511038   4.248   5.322   2.946  0.0000  0.0000  0.0000
  547TTP     C111039   4.344   5.386   3.077  0.0000  0.0000  0.0000
  547TTP     C211040   4.382   5.288   3.166  0.0000  0.0000  0.0000
  547TTP     C311041   4.327   5.166   3.132  0.0000  0.0000  0.0000
  547TTP     C411042   4.262   4.943   3.071  0.0000  0.0000  0.0000
  547TTP    C1711043   4.211   5.033   2.980  0.0000  0.0000  0.0000
  547TTP    C1811044   4.255   5.168   3.020  0.0000  0.0000  0.0000
  547TTP    C3211045   4.468   5.306   3.294  0.0000  0.0000  0.0000
  547TTP    C3311046   4.377   5.340   3.415  0.0000  0.0000  0.0000
  547TTP    C3411047   4.470   5.363   3.537  0.0000  0.0000  0.0000
  547TTP    C3511048   4.412   5.433   3.661  0.0000  0.0000  0.0000
  547TTP    C3611049   4.506   5.527   3.742  0.0000  0.0000  0.0000
  547TTP    C3711050   4.626   5.463   3.819  0.0000  0.0000  0.0000
  547TTP    C3811051   4.706   5.331   3.831  0.0000  0.0000  0.0000
  547TTP    C3911052   4.788   5.281   3.709  0.0000  0.0000  0.0000
  547TTP    C4011053   4.847   5.384   3.608  0.0000  0.0000  0.0000
  547TTP    C4111054   4.834   5.357   3.455  0.0000  0.0000  0.0000
  547TTP    C4211055   4.853   5.479   3.360  0.0000  0.0000  0.0000
  548TTP     S111056   4.042   4.335   2.759  0.0000  0.0000  0.0000
  548TTP     S511057   3.840   4.538   2.450  0.0000  0.0000  0.0000
  548TTP     C111058   3.809   4.365   2.429  0.0000  0.0000  0.0000
  548TTP     C211059   3.873   4.291   2.530  0.0000  0.0000  0.0000
  548TTP     C311060   3.950   4.371   2.614  0.0000  0.0000  0.0000
  548TTP     C411061   4.065   4.506   2.780  0.0000  0.0000  0.0000
  548TTP    C1711062   4.011   4.581   2.676  0.0000  0.0000  0.0000
  548TTP    C1811063   3.940   4.504   2.580  0.0000  0.0000  0.0000
  548TTP    C3211064   3.881   4.136   2.536  0.0000  0.0000  0.0000
  548TTP    C3311065   3.986   4.069   2.443  0.0000  0.0000  0.0000
  548TTP    C3411066   3.993   3.915   2.458  0.0000  0.0000  0.0000
  548TTP    C3511067   4.102   3.864   2.360  0.0000  0.0000  0.0000
  548TTP    C3611068   4.086   3.710   2.355  0.0000  0.0000  0.0000
  548TTP    C3711069   4.119   3.672   2.502  0.0000  0.0000  0.0000
  548TTP    C3811070   4.124   3.518   2.532  0.0000  0.0000  0.0000
  548TTP    C3911071   4.186   3.468   2.664  0.0000  0.0000  0.0000
  548TTP    C4011072   4.095   3.400   2.771  0.0000  0.0000  0.0000
  548TTP    C4111073   4.020   3.269   2.736  0.0000  0.0000  0.0000
  548TTP    C4211074   3.998   3.161   2.845  0.0000  0.0000  0.0000
  549FIC     F111075   4.315   6.012   2.554  0.0000  0.0000  0.0000
  549FIC     F211076   4.424   6.166   2.745  0.0000  0.0000  0.0000
  549FIC     O111077   4.260   5.553   2.814  0.0000  0.0000  0.0000
  549FIC     N511078   4.576   6.054   3.190  0.0000  0.0000  0.0000
  549FIC     N611079   4.528   5.673   3.369  0.0000  0.0000  0.0000
  549FIC    C1911080   4.388   5.523   3.087  0.0000  0.0000  0.0000
  549FIC    C2011081   4.379   5.634   3.007  0.0000  0.0000  0.0000
  549FIC    C2111082   4.317   5.641   2.879  0.0000  0.0000  0.0000
  549FIC    C2211083   4.341   5.776   2.825  0.0000  0.0000  0.0000
  549FIC    C2311084   4.312   5.825   2.695  0.0000  0.0000  0.0000
  549FIC    C2411085   4.340   5.954   2.670  0.0000  0.0000  0.0000
  549FIC    C2511086   4.400   6.033   2.780  0.0000  0.0000  0.0000
  549FIC    C2611087   4.436   5.989   2.896  0.0000  0.0000  0.0000
  549FIC    C2711088   4.401   5.854   2.924  0.0000  0.0000  0.0000
  549FIC    C2811089   4.425   5.767   3.040  0.0000  0.0000  0.0000
  549FIC    C2911090   4.485   5.810   3.157  0.0000  0.0000  0.0000
  549FIC    C3011091   4.533   5.954   3.169  0.0000  0.0000  0.0000
  549FIC    C3111092   4.503   5.733   3.276  0.0000  0.0000  0.0000
  550FIC     F111093   3.352   4.687   1.837  0.0000  0.0000  0.0000
  550FIC     F211094   3.305   4.445   1.756  0.0000  0.0000  0.0000
  550FIC     O111095   3.664   4.593   2.260  0.0000  0.0000  0.0000
  550FIC     N511096   3.482   4.024   1.906  0.0000  0.0000  0.0000
  550FIC     N611097   3.673   3.969   2.284  0.0000  0.0000  0.0000
  550FIC    C1911098   3.732   4.307   2.327  0.0000  0.0000  0.0000
  550FIC    C2011099   3.653   4.353   2.228  0.0000  0.0000  0.0000
  550FIC    C2111100   3.621   4.499   2.196  0.0000  0.0000  0.0000
  550FIC    C2211101   3.542   4.501   2.080  0.0000  0.0000  0.0000
  550FIC    C2311102   3.486   4.612   2.014  0.0000  0.0000  0.0000
  550FIC    C2411103   3.410   4.595   1.904  0.0000  0.0000  0.0000
  550FIC    C2511104   3.381   4.466   1.862  0.0000  0.0000  0.0000
  550FIC    C2611105   3.436   4.347   1.920  0.0000  0.0000  0.0000
  550FIC    C2711106   3.519   4.368   2.033  0.0000  0.0000  0.0000
  550FIC    C2811107   3.586   4.279   2.125  0.0000  0.0000  0.0000
  550FIC    C2911108   3.581   4.139   2.113  0.0000  0.0000  0.0000
  550FIC    C3011109   3.524   4.075   1.994  0.0000  0.0000  0.0000
  550FIC    C3111110   3.637   4.045   2.206  0.0000  0.0000  0.0000
  551BTD     S211111   5.498  -4.495   3.193  0.0000  0.0000  0.0000
  551BTD     N111112   5.484  -4.660   3.189  0.0000  0.0000  0.0000
  551BTD     N211113   5.433  -4.456   3.051  0.0000  0.0000  0.0000
  551BTD     N311114   5.231  -4.703   2.701  0.0000  0.0000  0.0000
  551BTD     N411115   5.288  -4.974   2.894  0.0000  0.0000  0.0000
  551BTD     C511116   5.388  -4.815   3.032  0.0000  0.0000  0.0000
  551BTD     C611117   5.428  -4.687   3.076  0.0000  0.0000  0.0000
  551BTD     C711118   5.399  -4.573   2.996  0.0000  0.0000  0.0000
  551BTD     C811119   5.333  -4.590   2.872  0.0000  0.0000  0.0000
  551BTD    C1511120   5.297  -4.717   2.822  0.0000  0.0000  0.0000
  551BTD    C1611121   5.315  -4.839   2.907  0.0000  0.0000  0.0000
  551BTD    C4311122   5.184  -5.040   2.817  0.0000  0.0000  0.0000
  551BTD    C4411123   5.042  -4.988   2.853  0.0000  0.0000  0.0000
  551BTD    C4511124   5.004  -4.963   3.003  0.0000  0.0000  0.0000
  551BTD    C4611125   4.999  -5.094   3.084  0.0000  0.0000  0.0000
  551BTD    C4711126   4.927  -5.068   2.787  0.0000  0.0000  0.0000
  551BTD    C4811127   4.909  -5.062   2.634  0.0000  0.0000  0.0000
  551BTD    C4911128   4.821  -5.168   2.562  0.0000  0.0000  0.0000
  551BTD    C5011129   4.841  -5.192   2.410  0.0000  0.0000  0.0000
  551BTD    C7511130   5.220  -4.801   2.583  0.0000  0.0000  0.0000
  551BTD    C7611131   5.358  -4.864   2.548  0.0000  0.0000  0.0000
  551BTD    C7711132   5.356  -4.950   2.419  0.0000  0.0000  0.0000
  551BTD    C7811133   5.212  -4.919   2.373  0.0000  0.0000  0.0000
  551BTD    C7911134   5.479  -4.770   2.529  0.0000  0.0000  0.0000
  551BTD    C8011135   5.458  -4.639   2.450  0.0000  0.0000  0.0000
  551BTD    C8111136   5.554  -4.519   2.475  0.0000  0.0000  0.0000
  551BTD    C8211137   5.685  -4.515   2.391  0.0000  0.0000  0.0000
  552TTP     S111138   5.463  -5.015   3.231  0.0000  0.0000  0.0000
  552TTP     S511139   5.280  -5.322   3.013  0.0000  0.0000  0.0000
  552TTP     C111140   5.340  -5.392   3.159  0.0000  0.0000  0.0000
  552TTP     C211141   5.400  -5.300   3.236  0.0000  0.0000  0.0000
  552TTP     C311142   5.402  -5.170   3.185  0.0000  0.0000  0.0000
  552TTP     C411143   5.398  -4.944   3.089  0.0000  0.0000  0.0000
  552TTP    C1711144   5.337  -5.036   3.005  0.0000  0.0000  0.0000
  552TTP    C1811145   5.336  -5.168   3.057  0.0000  0.0000  0.0000
  552TTP    C3211146   5.458  -5.325   3.378  0.0000  0.0000  0.0000
  552TTP    C3311147   5.611  -5.310   3.400  0.0000  0.0000  0.0000
  552TTP    C3411148   5.669  -5.345   3.540  0.0000  0.0000  0.0000
  552TTP    C3511149   5.821  -5.339   3.511  0.0000  0.0000  0.0000
  552TTP    C3611150   5.868  -5.485   3.486  0.0000  0.0000  0.0000
  552TTP    C3711151   5.799  -5.599   3.569  0.0000  0.0000  0.0000
  552TTP    C3811152   5.884  -5.718   3.620  0.0000  0.0000  0.0000
  552TTP    C3911153   5.774  -5.763   3.718  0.0000  0.0000  0.0000
  552TTP    C4011154   5.818  -5.805   3.862  0.0000  0.0000  0.0000
  552TTP    C4111155   5.737  -5.913   3.940  0.0000  0.0000  0.0000
  552TTP    C4211156   5.800  -5.978   4.066  0.0000  0.0000  0.0000
  553TTP     S111157   5.299  -4.324   2.747  0.0000  0.0000  0.0000
  553TTP     S511158   5.077  -4.500   2.437  0.0000  0.0000  0.0000
  553TTP     C111159   5.071  -4.324   2.419  0.0000  0.0000  0.0000
  553TTP     C211160   5.142  -4.259   2.515  0.0000  0.0000  0.0000
  553TTP     C311161   5.203  -4.347   2.604  0.0000  0.0000  0.0000
  553TTP     C411162   5.297  -4.495   2.773  0.0000  0.0000  0.0000
  553TTP    C1711163   5.234  -4.566   2.671  0.0000  0.0000  0.0000
  553TTP    C1811164   5.176  -4.482   2.575  0.0000  0.0000  0.0000
  553TTP    C3211165   5.161  -4.105   2.525  0.0000  0.0000  0.0000
  553TTP    C3311166   5.278  -4.052   2.437  0.0000  0.0000  0.0000
  553TTP    C3411167   5.296  -3.899   2.442  0.0000  0.0000  0.0000
  553TTP    C3511168   5.325  -3.856   2.588  0.0000  0.0000  0.0000
  553TTP    C3611169   5.338  -3.705   2.621  0.0000  0.0000  0.0000
  553TTP    C3711170   5.215  -3.612   2.606  0.0000  0.0000  0.0000
  553TTP    C3811171   5.301  -3.485   2.635  0.0000  0.0000  0.0000
  553TTP    C3911172   5.208  -3.384   2.563  0.0000  0.0000  0.0000
  553TTP    C4011173   5.201  -3.387   2.408  0.0000  0.0000  0.0000
  553TTP    C4111174   5.095  -3.474   2.336  0.0000  0.0000  0.0000
  553TTP    C4211175   5.129  -3.617   2.287  0.0000  0.0000  0.0000
  554FIC     F111176   5.007  -6.041   2.786  0.0000  0.0000  0.0000
  554FIC     F211177   5.048  -6.176   3.015  0.0000  0.0000  0.0000
  554FIC     O111178   5.217  -5.565   2.923  0.0000  0.0000  0.0000
  554FIC     N511179   5.256  -6.048   3.425  0.0000  0.0000  0.0000
  554FIC     N611180   5.428  -5.651   3.513  0.0000  0.0000  0.0000
  554FIC    C1911181   5.323  -5.526   3.201  0.0000  0.0000  0.0000
  554FIC    C2011182   5.271  -5.640   3.149  0.0000  0.0000  0.0000
  554FIC    C2111183   5.216  -5.651   3.015  0.0000  0.0000  0.0000
  554FIC    C2211184   5.169  -5.790   2.999  0.0000  0.0000  0.0000
  554FIC    C2311185   5.108  -5.844   2.882  0.0000  0.0000  0.0000
  554FIC    C2411186   5.067  -5.978   2.904  0.0000  0.0000  0.0000
  554FIC    C2511187   5.086  -6.045   3.016  0.0000  0.0000  0.0000
  554FIC    C2611188   5.144  -5.991   3.121  0.0000  0.0000  0.0000
  554FIC    C2711189   5.187  -5.863   3.108  0.0000  0.0000  0.0000
  554FIC    C2811190   5.255  -5.772   3.208  0.0000  0.0000  0.0000
  554FIC    C2911191   5.297  -5.800   3.350  0.0000  0.0000  0.0000
  554FIC    C3011192   5.276  -5.944   3.389  0.0000  0.0000  0.0000
  554FIC    C3111193   5.363  -5.714   3.445  0.0000  0.0000  0.0000
  555FIC     F111194   4.613  -4.597   1.806  0.0000  0.0000  0.0000
  555FIC     F211195   4.558  -4.345   1.744  0.0000  0.0000  0.0000
  555FIC     O111196   4.933  -4.533   2.223  0.0000  0.0000  0.0000
  555FIC     N511197   4.707  -3.931   1.950  0.0000  0.0000  0.0000
  555FIC     N611198   4.902  -3.915   2.323  0.0000  0.0000  0.0000
  555FIC    C1911199   4.995  -4.254   2.321  0.0000  0.0000  0.0000
  555FIC    C2011200   4.913  -4.291   2.219  0.0000  0.0000  0.0000
  555FIC    C2111201   4.888  -4.431   2.177  0.0000  0.0000  0.0000
  555FIC    C2211202   4.804  -4.423   2.057  0.0000  0.0000  0.0000
  555FIC    C2311203   4.751  -4.529   1.984  0.0000  0.0000  0.0000
  555FIC    C2411204   4.676  -4.499   1.879  0.0000  0.0000  0.0000
  555FIC    C2511205   4.643  -4.366   1.847  0.0000  0.0000  0.0000
  555FIC    C2611206   4.692  -4.262   1.921  0.0000  0.0000  0.0000
  555FIC    C2711207   4.773  -4.291   2.025  0.0000  0.0000  0.0000
  555FIC    C2811208   4.838  -4.205   2.130  0.0000  0.0000  0.0000
  555FIC    C2911209   4.824  -4.067   2.134  0.0000  0.0000  0.0000
  555FIC    C3011210   4.760  -3.993   2.033  0.0000  0.0000  0.0000
  555FIC    C3111211   4.869  -3.985   2.243  0.0000  0.0000  0.0000
  556BTD     S211212   4.371  -4.487   0.798  0.0000  0.0000  0.0000
  556BTD     N111213   4.361  -4.648   0.809  0.0000  0.0000  0.0000
  556BTD     N211214   4.450  -4.456   0.936  0.0000  0.0000  0.0000
  556BTD     N311215   4.620  -4.718   1.297  0.0000  0.0000  0.0000
  556BTD     N411216   4.506  -4.978   1.120  0.0000  0.0000  0.0000
  556BTD     C511217   4.436  -4.814   0.978  0.0000  0.0000  0.0000
  556BTD     C611218   4.419  -4.683   0.922  0.0000  0.0000  0.0000
  556BTD     C711219   4.470  -4.573   0.996  0.0000  0.0000  0.0000
  556BTD     C811220   4.532  -4.594   1.120  0.0000  0.0000  0.0000
  556BTD    C1511221   4.551  -4.727   1.173  0.0000  0.0000  0.0000
  556BTD    C1611222   4.503  -4.838   1.097  0.0000  0.0000  0.0000
  556BTD    C4311223   4.595  -5.055   1.208  0.0000  0.0000  0.0000
  556BTD    C4411224   4.747  -5.045   1.178  0.0000  0.0000  0.0000
  556BTD    C4511225   4.820  -5.144   1.273  0.0000  0.0000  0.0000
  556BTD    C4611226   4.970  -5.102   1.271  0.0000  0.0000  0.0000
  556BTD    C4711227   4.780  -5.071   1.029  0.0000  0.0000  0.0000
  556BTD    C4811228   4.795  -5.212   0.965  0.0000  0.0000  0.0000
  556BTD    C4911229   4.809  -5.181   0.814  0.0000  0.0000  0.0000
  556BTD    C5011230   4.905  -5.135   0.701  0.0000  0.0000  0.0000
  556BTD    C7511231   4.606  -4.805   1.414  0.0000  0.0000  0.0000
  556BTD    C7611232   4.458  -4.835   1.449  0.0000  0.0000  0.0000
  556BTD    C7711233   4.449  -4.923   1.576  0.0000  0.0000  0.0000
  556BTD    C7811234   4.308  -4.977   1.612  0.0000  0.0000  0.0000
  556BTD    C7911235   4.372  -4.708   1.470  0.0000  0.0000  0.0000
  556BTD    C8011236   4.400  -4.620   1.594  0.0000  0.0000  0.0000
  556BTD    C8111237   4.308  -4.494   1.588  0.0000  0.0000  0.0000
  556BTD    C8211238   4.339  -4.369   1.501  0.0000  0.0000  0.0000
  557TTP     S111239   4.310  -5.004   0.792  0.0000  0.0000  0.0000
  557TTP     S511240   4.408  -5.322   1.048  0.0000  0.0000  0.0000
  557TTP     C111241   4.312  -5.386   0.917  0.0000  0.0000  0.0000
  557TTP     C211242   4.274  -5.288   0.828  0.0000  0.0000  0.0000
  557TTP     C311243   4.329  -5.166   0.862  0.0000  0.0000  0.0000
  557TTP     C411244   4.394  -4.943   0.923  0.0000  0.0000  0.0000
  557TTP    C1711245   4.445  -5.033   1.014  0.0000  0.0000  0.0000
  557TTP    C1811246   4.401  -5.168   0.974  0.0000  0.0000  0.0000
  557TTP    C3211247   4.188  -5.306   0.700  0.0000  0.0000  0.0000
  557TTP    C3311248   4.279  -5.340   0.579  0.0000  0.0000  0.0000
  557TTP    C3411249   4.186  -5.363   0.457  0.0000  0.0000  0.0000
  557TTP    C3511250   4.244  -5.433   0.333  0.0000  0.0000  0.0000
  557TTP    C3611251   4.150  -5.527   0.252  0.0000  0.0000  0.0000
  557TTP    C3711252   4.030  -5.463   0.175  0.0000  0.0000  0.0000
  557TTP    C3811253   3.950  -5.331   0.163  0.0000  0.0000  0.0000
  557TTP    C3911254   3.868  -5.281   0.285  0.0000  0.0000  0.0000
  557TTP    C4011255   3.809  -5.384   0.386  0.0000  0.0000  0.0000
  557TTP    C4111256   3.822  -5.357   0.539  0.0000  0.0000  0.0000
  557TTP    C4211257   3.803  -5.479   0.634  0.0000  0.0000  0.0000
  558TTP     S111258   4.614  -4.335   1.235  0.0000  0.0000  0.0000
  558TTP     S511259   4.816  -4.538   1.544  0.0000  0.0000  0.0000
  558TTP     C111260   4.847  -4.365   1.565  0.0000  0.0000  0.0000
  558TTP     C211261   4.783  -4.291   1.464  0.0000  0.0000  0.0000
  558TTP     C311262   4.706  -4.371   1.380  0.0000  0.0000  0.0000
  558TTP     C411263   4.591  -4.506   1.214  0.0000  0.0000  0.0000
  558TTP    C1711264   4.645  -4.581   1.318  0.0000  0.0000  0.0000
  558TTP    C1811265   4.716  -4.504   1.414  0.0000  0.0000  0.0000
  558TTP    C3211266   4.775  -4.136   1.458  0.0000  0.0000  0.0000
  558TTP    C3311267   4.670  -4.069   1.551  0.0000  0.0000  0.0000
  558TTP    C3411268   4.663  -3.915   1.536  0.0000  0.0000  0.0000
  558TTP    C3511269   4.554  -3.864   1.634  0.0000  0.0000  0.0000
  558TTP    C3611270   4.570  -3.710   1.639  0.0000  0.0000  0.0000
  558TTP    C3711271   4.537  -3.672   1.492  0.0000  0.0000  0.0000
  558TTP    C3811272   4.532  -3.518   1.462  0.0000  0.0000  0.0000
  558TTP    C3911273   4.470  -3.468   1.330  0.0000  0.0000  0.0000
  558TTP    C4011274   4.561  -3.400   1.223  0.0000  0.0000  0.0000
  558TTP    C4111275   4.636  -3.269   1.258  0.0000  0.0000  0.0000
  558TTP    C4211276   4.658  -3.161   1.149  0.0000  0.0000  0.0000
  559FIC     F111277   4.341  -6.012   1.440  0.0000  0.0000  0.0000
  559FIC     F211278   4.232  -6.166   1.249  0.0000  0.0000  0.0000
  559FIC     O111279   4.396  -5.553   1.180  0.0000  0.0000  0.0000
  559FIC     N511280   4.080  -6.054   0.804  0.0000  0.0000  0.0000
  559FIC     N611281   4.128  -5.673   0.625  0.0000  0.0000  0.0000
  559FIC    C1911282   4.268  -5.523   0.907  0.0000  0.0000  0.0000
  559FIC    C2011283   4.277  -5.634   0.987  0.0000  0.0000  0.0000
  559FIC    C2111284   4.339  -5.641   1.115  0.0000  0.0000  0.0000
  559FIC    C2211285   4.315  -5.776   1.169  0.0000  0.0000  0.0000
  559FIC    C2311286   4.344  -5.825   1.299  0.0000  0.0000  0.0000
  559FIC    C2411287   4.316  -5.954   1.324  0.0000  0.0000  0.0000
  559FIC    C2511288   4.256  -6.033   1.214  0.0000  0.0000  0.0000
  559FIC    C2611289   4.220  -5.989   1.098  0.0000  0.0000  0.0000
  559FIC    C2711290   4.255  -5.854   1.070  0.0000  0.0000  0.0000
  559FIC    C2811291   4.231  -5.767   0.954  0.0000  0.0000  0.0000
  559FIC    C2911292   4.171  -5.810   0.837  0.0000  0.0000  0.0000
  559FIC    C3011293   4.123  -5.954   0.825  0.0000  0.0000  0.0000
  559FIC    C3111294   4.153  -5.733   0.718  0.0000  0.0000  0.0000
  560FIC     F111295   5.304  -4.687   2.157  0.0000  0.0000  0.0000
  560FIC     F211296   5.351  -4.445   2.238  0.0000  0.0000  0.0000
  560FIC     O111297   4.992  -4.593   1.734  0.0000  0.0000  0.0000
  560FIC     N511298   5.174  -4.024   2.088  0.0000  0.0000  0.0000
  560FIC     N611299   4.983  -3.969   1.710  0.0000  0.0000  0.0000
  560FIC    C1911300   4.924  -4.307   1.667  0.0000  0.0000  0.0000
  560FIC    C2011301   5.003  -4.353   1.766  0.0000  0.0000  0.0000
  560FIC    C2111302   5.035  -4.499   1.798  0.0000  0.0000  0.0000
  560FIC    C2211303   5.114  -4.501   1.914  0.0000  0.0000  0.0000
  560FIC    C2311304   5.170  -4.612   1.980  0.0000  0.0000  0.0000
  560FIC    C2411305   5.246  -4.595   2.090  0.0000  0.0000  0.0000
  560FIC    C2511306   5.275  -4.466   2.132  0.0000  0.0000  0.0000
  560FIC    C2611307   5.220  -4.347   2.074  0.0000  0.0000  0.0000
  560FIC    C2711308   5.137  -4.368   1.961  0.0000  0.0000  0.0000
  560FIC    C2811309   5.070  -4.279   1.869  0.0000  0.0000  0.0000
  560FIC    C2911310   5.075  -4.139   1.881  0.0000  0.0000  0.0000
  560FIC    C3011311   5.132  -4.075   2.000  0.0000  0.0000  0.0000
  560FIC    C3111312   5.019  -4.045   1.788  0.0000  0.0000  0.0000
  561BTD     S211313   5.601   7.386   2.195  0.0000  0.0000  0.0000
  561BTD     N111314   5.588   7.550   2.190  0.0000  0.0000  0.0000
  561BTD     N211315   5.536   7.346   2.052  0.0000  0.0000  0.0000
  561BTD     N311316   5.335   7.593   1.703  0.0000  0.0000  0.0000
  561BTD     N411317   5.391   7.865   1.895  0.0000  0.0000  0.0000
  561BTD     C511318   5.492   7.706   2.034  0.0000  0.0000  0.0000
  561BTD     C611319   5.532   7.578   2.078  0.0000  0.0000  0.0000
  561BTD     C711320   5.503   7.463   1.998  0.0000  0.0000  0.0000
  561BTD     C811321   5.436   7.480   1.873  0.0000  0.0000  0.0000
  561BTD    C1511322   5.400   7.608   1.823  0.0000  0.0000  0.0000
  561BTD    C1611323   5.419   7.729   1.909  0.0000  0.0000  0.0000
  561BTD    C4311324   5.288   7.930   1.818  0.0000  0.0000  0.0000
  561BTD    C4411325   5.146   7.878   1.855  0.0000  0.0000  0.0000
  561BTD    C4511326   5.108   7.853   2.004  0.0000  0.0000  0.0000
  561BTD    C4611327   5.102   7.985   2.086  0.0000  0.0000  0.0000
  561BTD    C4711328   5.030   7.958   1.789  0.0000  0.0000  0.0000
  561BTD    C4811329   5.013   7.952   1.635  0.0000  0.0000  0.0000
  561BTD    C4911330   4.924   8.058   1.563  0.0000  0.0000  0.0000
  561BTD    C5011331   4.945   8.083   1.411  0.0000  0.0000  0.0000
  561BTD    C7511332   5.323   7.691   1.584  0.0000  0.0000  0.0000
  561BTD    C7611333   5.461   7.755   1.549  0.0000  0.0000  0.0000
  561BTD    C7711334   5.460   7.841   1.420  0.0000  0.0000  0.0000
  561BTD    C7811335   5.315   7.809   1.375  0.0000  0.0000  0.0000
  561BTD    C7911336   5.582   7.661   1.531  0.0000  0.0000  0.0000
  561BTD    C8011337   5.561   7.529   1.452  0.0000  0.0000  0.0000
  561BTD    C8111338   5.657   7.410   1.476  0.0000  0.0000  0.0000
  561BTD    C8211339   5.789   7.405   1.393  0.0000  0.0000  0.0000
  562TTP     S111340   5.567   7.905   2.233  0.0000  0.0000  0.0000
  562TTP     S511341   5.384   8.212   2.014  0.0000  0.0000  0.0000
  562TTP     C111342   5.443   8.282   2.160  0.0000  0.0000  0.0000
  562TTP     C211343   5.504   8.191   2.238  0.0000  0.0000  0.0000
  562TTP     C311344   5.506   8.060   2.186  0.0000  0.0000  0.0000
  562TTP     C411345   5.501   7.834   2.091  0.0000  0.0000  0.0000
  562TTP    C1711346   5.441   7.926   2.006  0.0000  0.0000  0.0000
  562TTP    C1811347   5.440   8.059   2.058  0.0000  0.0000  0.0000
  562TTP    C3211348   5.562   8.215   2.379  0.0000  0.0000  0.0000
  562TTP    C3311349   5.714   8.200   2.402  0.0000  0.0000  0.0000
  562TTP    C3411350   5.772   8.235   2.541  0.0000  0.0000  0.0000
  562TTP    C3511351   5.925   8.229   2.512  0.0000  0.0000  0.0000
  562TTP    C3611352   5.971   8.376   2.488  0.0000  0.0000  0.0000
  562TTP    C3711353   5.903   8.489   2.570  0.0000  0.0000  0.0000
  562TTP    C3811354   5.987   8.609   2.622  0.0000  0.0000  0.0000
  562TTP    C3911355   5.877   8.654   2.720  0.0000  0.0000  0.0000
  562TTP    C4011356   5.922   8.695   2.864  0.0000  0.0000  0.0000
  562TTP    C4111357   5.841   8.803   2.941  0.0000  0.0000  0.0000
  562TTP    C4211358   5.903   8.869   3.067  0.0000  0.0000  0.0000
  563TTP     S111359   5.403   7.215   1.749  0.0000  0.0000  0.0000
  563TTP     S511360   5.181   7.390   1.438  0.0000  0.0000  0.0000
  563TTP     C111361   5.175   7.215   1.421  0.0000  0.0000  0.0000
  563TTP     C211362   5.246   7.150   1.517  0.0000  0.0000  0.0000
  563TTP     C311363   5.307   7.238   1.606  0.0000  0.0000  0.0000
  563TTP     C411364   5.401   7.385   1.775  0.0000  0.0000  0.0000
  563TTP    C1711365   5.338   7.457   1.672  0.0000  0.0000  0.0000
  563TTP    C1811366   5.279   7.372   1.577  0.0000  0.0000  0.0000
  563TTP    C3211367   5.264   6.996   1.526  0.0000  0.0000  0.0000
  563TTP    C3311368   5.382   6.943   1.438  0.0000  0.0000  0.0000
  563TTP    C3411369   5.400   6.790   1.443  0.0000  0.0000  0.0000
  563TTP    C3511370   5.428   6.747   1.590  0.0000  0.0000  0.0000
  563TTP    C3611371   5.442   6.596   1.622  0.0000  0.0000  0.0000
  563TTP    C3711372   5.319   6.502   1.608  0.0000  0.0000  0.0000
  563TTP    C3811373   5.405   6.375   1.636  0.0000  0.0000  0.0000
  563TTP    C3911374   5.311   6.275   1.565  0.0000  0.0000  0.0000
  563TTP    C4011375   5.305   6.277   1.409  0.0000  0.0000  0.0000
  563TTP    C4111376   5.198   6.364   1.338  0.0000  0.0000  0.0000
  563TTP    C4211377   5.233   6.508   1.288  0.0000  0.0000  0.0000
  564FIC     F111378   5.111   8.931   1.788  0.0000  0.0000  0.0000
  564FIC     F211379   5.152   9.067   2.017  0.0000  0.0000  0.0000
  564FIC     O111380   5.321   8.455   1.925  0.0000  0.0000  0.0000
  564FIC     N511381   5.360   8.938   2.426  0.0000  0.0000  0.0000
  564FIC     N611382   5.531   8.541   2.515  0.0000  0.0000  0.0000
  564FIC    C1911383   5.426   8.417   2.202  0.0000  0.0000  0.0000
  564FIC    C2011384   5.374   8.531   2.150  0.0000  0.0000  0.0000
  564FIC    C2111385   5.319   8.542   2.016  0.0000  0.0000  0.0000
  564FIC    C2211386   5.273   8.681   2.001  0.0000  0.0000  0.0000
  564FIC    C2311387   5.212   8.735   1.884  0.0000  0.0000  0.0000
  564FIC    C2411388   5.170   8.868   1.905  0.0000  0.0000  0.0000
  564FIC    C2511389   5.190   8.936   2.017  0.0000  0.0000  0.0000
  564FIC    C2611390   5.247   8.882   2.122  0.0000  0.0000  0.0000
  564FIC    C2711391   5.290   8.754   2.109  0.0000  0.0000  0.0000
  564FIC    C2811392   5.358   8.662   2.210  0.0000  0.0000  0.0000
  564FIC    C2911393   5.400   8.690   2.351  0.0000  0.0000  0.0000
  564FIC    C3011394   5.380   8.834   2.390  0.0000  0.0000  0.0000
  564FIC    C3111395   5.467   8.604   2.446  0.0000  0.0000  0.0000
  565FIC     F111396   4.716   7.487   0.808  0.0000  0.0000  0.0000
  565FIC     F211397   4.662   7.236   0.745  0.0000  0.0000  0.0000
  565FIC     O111398   5.037   7.424   1.224  0.0000  0.0000  0.0000
  565FIC     N511399   4.811   6.822   0.951  0.0000  0.0000  0.0000
  565FIC     N611400   5.005   6.805   1.325  0.0000  0.0000  0.0000
  565FIC    C1911401   5.098   7.144   1.323  0.0000  0.0000  0.0000
  565FIC    C2011402   5.017   7.181   1.221  0.0000  0.0000  0.0000
  565FIC    C2111403   4.992   7.322   1.178  0.0000  0.0000  0.0000
  565FIC    C2211404   4.907   7.313   1.058  0.0000  0.0000  0.0000
  565FIC    C2311405   4.855   7.420   0.985  0.0000  0.0000  0.0000
  565FIC    C2411406   4.779   7.389   0.881  0.0000  0.0000  0.0000
  565FIC    C2511407   4.747   7.256   0.848  0.0000  0.0000  0.0000
  565FIC    C2611408   4.795   7.153   0.922  0.0000  0.0000  0.0000
  565FIC    C2711409   4.877   7.182   1.027  0.0000  0.0000  0.0000
  565FIC    C2811410   4.941   7.096   1.131  0.0000  0.0000  0.0000
  565FIC    C2911411   4.928   6.958   1.136  0.0000  0.0000  0.0000
  565FIC    C3011412   4.863   6.884   1.034  0.0000  0.0000  0.0000
  565FIC    C3111413   4.972   6.875   1.245  0.0000  0.0000  0.0000
  566BTD     S211414   4.475   7.378  -0.200  0.0000  0.0000  0.0000
  566BTD     N111415   4.464   7.539  -0.189  0.0000  0.0000  0.0000
  566BTD     N211416   4.554   7.346  -0.063  0.0000  0.0000  0.0000
  566BTD     N311417   4.723   7.608   0.299  0.0000  0.0000  0.0000
  566BTD     N411418   4.610   7.868   0.121  0.0000  0.0000  0.0000
  566BTD     C511419   4.540   7.704  -0.020  0.0000  0.0000  0.0000
  566BTD     C611420   4.523   7.574  -0.076  0.0000  0.0000  0.0000
  566BTD     C711421   4.574   7.463  -0.003  0.0000  0.0000  0.0000
  566BTD     C811422   4.635   7.484   0.122  0.0000  0.0000  0.0000
  566BTD    C1511423   4.654   7.617   0.175  0.0000  0.0000  0.0000
  566BTD    C1611424   4.606   7.729   0.098  0.0000  0.0000  0.0000
  566BTD    C4311425   4.698   7.945   0.210  0.0000  0.0000  0.0000
  566BTD    C4411426   4.851   7.935   0.180  0.0000  0.0000  0.0000
  566BTD    C4511427   4.923   8.034   0.274  0.0000  0.0000  0.0000
  566BTD    C4611428   5.073   7.992   0.273  0.0000  0.0000  0.0000
  566BTD    C4711429   4.884   7.962   0.030  0.0000  0.0000  0.0000
  566BTD    C4811430   4.898   8.103  -0.033  0.0000  0.0000  0.0000
  566BTD    C4911431   4.912   8.071  -0.184  0.0000  0.0000  0.0000
  566BTD    C5011432   5.009   8.025  -0.298  0.0000  0.0000  0.0000
  566BTD    C7511433   4.710   7.696   0.415  0.0000  0.0000  0.0000
  566BTD    C7611434   4.561   7.726   0.451  0.0000  0.0000  0.0000
  566BTD    C7711435   4.552   7.814   0.578  0.0000  0.0000  0.0000
  566BTD    C7811436   4.411   7.867   0.613  0.0000  0.0000  0.0000
  566BTD    C7911437   4.476   7.599   0.471  0.0000  0.0000  0.0000
  566BTD    C8011438   4.503   7.510   0.595  0.0000  0.0000  0.0000
  566BTD    C8111439   4.411   7.385   0.590  0.0000  0.0000  0.0000
  566BTD    C8211440   4.442   7.259   0.503  0.0000  0.0000  0.0000
  567TTP     S111441   4.413   7.894  -0.207  0.0000  0.0000  0.0000
  567TTP     S511442   4.512   8.213   0.050  0.0000  0.0000  0.0000
  567TTP     C111443   4.415   8.276  -0.082  0.0000  0.0000  0.0000
  567TTP     C211444   4.377   8.179  -0.170  0.0000  0.0000  0.0000
  567TTP     C311445   4.433   8.056  -0.137  0.0000  0.0000  0.0000
  567TTP     C411446   4.498   7.833  -0.076  0.0000  0.0000  0.0000
  567TTP    C1711447   4.549   7.924   0.015  0.0000  0.0000  0.0000
  567TTP    C1811448   4.505   8.058  -0.025  0.0000  0.0000  0.0000
  567TTP    C3211449   4.292   8.196  -0.298  0.0000  0.0000  0.0000
  567TTP    C3311450   4.382   8.230  -0.420  0.0000  0.0000  0.0000
  567TTP    C3411451   4.289   8.253  -0.541  0.0000  0.0000  0.0000
  567TTP    C3511452   4.348   8.324  -0.666  0.0000  0.0000  0.0000
  567TTP    C3611453   4.253   8.418  -0.747  0.0000  0.0000  0.0000
  567TTP    C3711454   4.134   8.354  -0.824  0.0000  0.0000  0.0000
  567TTP    C3811455   4.053   8.222  -0.836  0.0000  0.0000  0.0000
  567TTP    C3911456   3.971   8.172  -0.713  0.0000  0.0000  0.0000
  567TTP    C4011457   3.912   8.274  -0.613  0.0000  0.0000  0.0000
  567TTP    C4111458   3.925   8.248  -0.460  0.0000  0.0000  0.0000
  567TTP    C4211459   3.907   8.369  -0.365  0.0000  0.0000  0.0000
  568TTP     S111460   4.718   7.225   0.237  0.0000  0.0000  0.0000
  568TTP     S511461   4.920   7.428   0.545  0.0000  0.0000  0.0000
  568TTP     C111462   4.951   7.255   0.567  0.0000  0.0000  0.0000
  568TTP     C211463   4.886   7.181   0.466  0.0000  0.0000  0.0000
  568TTP     C311464   4.809   7.261   0.382  0.0000  0.0000  0.0000
  568TTP     C411465   4.695   7.397   0.216  0.0000  0.0000  0.0000
  568TTP    C1711466   4.749   7.472   0.320  0.0000  0.0000  0.0000
  568TTP    C1811467   4.819   7.395   0.415  0.0000  0.0000  0.0000
  568TTP    C3211468   4.879   7.027   0.459  0.0000  0.0000  0.0000
  568TTP    C3311469   4.774   6.960   0.553  0.0000  0.0000  0.0000
  568TTP    C3411470   4.767   6.805   0.537  0.0000  0.0000  0.0000
  568TTP    C3511471   4.658   6.755   0.635  0.0000  0.0000  0.0000
  568TTP    C3611472   4.674   6.601   0.641  0.0000  0.0000  0.0000
  568TTP    C3711473   4.641   6.563   0.493  0.0000  0.0000  0.0000
  568TTP    C3811474   4.635   6.409   0.464  0.0000  0.0000  0.0000
  568TTP    C3911475   4.573   6.358   0.332  0.0000  0.0000  0.0000
  568TTP    C4011476   4.664   6.290   0.225  0.0000  0.0000  0.0000
  568TTP    C4111477   4.739   6.159   0.259  0.0000  0.0000  0.0000
  568TTP    C4211478   4.761   6.052   0.150  0.0000  0.0000  0.0000
  569FIC     F111479   4.445   8.903   0.442  0.0000  0.0000  0.0000
  569FIC     F211480   4.336   9.057   0.250  0.0000  0.0000  0.0000
  569FIC     O111481   4.499   8.444   0.181  0.0000  0.0000  0.0000
  569FIC     N511482   4.183   8.944  -0.195  0.0000  0.0000  0.0000
  569FIC     N611483   4.231   8.563  -0.374  0.0000  0.0000  0.0000
  569FIC    C1911484   4.371   8.413  -0.092  0.0000  0.0000  0.0000
  569FIC    C2011485   4.380   8.524  -0.011  0.0000  0.0000  0.0000
  569FIC    C2111486   4.443   8.532   0.116  0.0000  0.0000  0.0000
  569FIC    C2211487   4.418   8.666   0.170  0.0000  0.0000  0.0000
  569FIC    C2311488   4.448   8.716   0.301  0.0000  0.0000  0.0000
  569FIC    C2411489   4.419   8.845   0.325  0.0000  0.0000  0.0000
  569FIC    C2511490   4.359   8.924   0.216  0.0000  0.0000  0.0000
  569FIC    C2611491   4.323   8.879   0.099  0.0000  0.0000  0.0000
  569FIC    C2711492   4.358   8.744   0.071  0.0000  0.0000  0.0000
  569FIC    C2811493   4.334   8.658  -0.045  0.0000  0.0000  0.0000
  569FIC    C2911494   4.274   8.701  -0.161  0.0000  0.0000  0.0000
  569FIC    C3011495   4.226   8.844  -0.174  0.0000  0.0000  0.0000
  569FIC    C3111496   4.257   8.623  -0.280  0.0000  0.0000  0.0000
  570FIC     F111497   5.407   7.578   1.158  0.0000  0.0000  0.0000
  570FIC     F211498   5.454   7.335   1.239  0.0000  0.0000  0.0000
  570FIC     O111499   5.095   7.484   0.736  0.0000  0.0000  0.0000
  570FIC     N511500   5.277   6.915   1.089  0.0000  0.0000  0.0000
  570FIC     N611501   5.087   6.860   0.711  0.0000  0.0000  0.0000
  570FIC    C1911502   5.027   7.197   0.668  0.0000  0.0000  0.0000
  570FIC    C2011503   5.107   7.243   0.767  0.0000  0.0000  0.0000
  570FIC    C2111504   5.138   7.390   0.800  0.0000  0.0000  0.0000
  570FIC    C2211505   5.217   7.392   0.915  0.0000  0.0000  0.0000
  570FIC    C2311506   5.274   7.502   0.982  0.0000  0.0000  0.0000
  570FIC    C2411507   5.350   7.485   1.091  0.0000  0.0000  0.0000
  570FIC    C2511508   5.379   7.356   1.134  0.0000  0.0000  0.0000
  570FIC    C2611509   5.323   7.237   1.075  0.0000  0.0000  0.0000
  570FIC    C2711510   5.240   7.259   0.963  0.0000  0.0000  0.0000
  570FIC    C2811511   5.174   7.169   0.870  0.0000  0.0000  0.0000
  570FIC    C2911512   5.178   7.030   0.882  0.0000  0.0000  0.0000
  570FIC    C3011513   5.235   6.965   1.001  0.0000  0.0000  0.0000
  570FIC    C3111514   5.122   6.936   0.789  0.0000  0.0000  0.0000
  571BTD     S211515   3.469   4.176  -2.195  0.0000  0.0000  0.0000
  571BTD     N111516   3.482   4.012  -2.190  0.0000  0.0000  0.0000
  571BTD     N211517   3.534   4.216  -2.052  0.0000  0.0000  0.0000
  571BTD     N311518   3.735   3.969  -1.703  0.0000  0.0000  0.0000
  571BTD     N411519   3.679   3.697  -1.895  0.0000  0.0000  0.0000
  571BTD     C511520   3.578   3.856  -2.034  0.0000  0.0000  0.0000
  571BTD     C611521   3.538   3.984  -2.078  0.0000  0.0000  0.0000
  571BTD     C711522   3.567   4.099  -1.998  0.0000  0.0000  0.0000
  571BTD     C811523   3.634   4.082  -1.873  0.0000  0.0000  0.0000
  571BTD    C1511524   3.670   3.954  -1.823  0.0000  0.0000  0.0000
  571BTD    C1611525   3.651   3.833  -1.909  0.0000  0.0000  0.0000
  571BTD    C4311526   3.782   3.632  -1.818  0.0000  0.0000  0.0000
  571BTD    C4411527   3.924   3.684  -1.855  0.0000  0.0000  0.0000
  571BTD    C4511528   3.962   3.709  -2.004  0.0000  0.0000  0.0000
  571BTD    C4611529   3.968   3.577  -2.086  0.0000  0.0000  0.0000
  571BTD    C4711530   4.040   3.604  -1.789  0.0000  0.0000  0.0000
  571BTD    C4811531   4.057   3.610  -1.635  0.0000  0.0000  0.0000
  571BTD    C4911532   4.146   3.504  -1.563  0.0000  0.0000  0.0000
  571BTD    C5011533   4.125   3.479  -1.411  0.0000  0.0000  0.0000
  571BTD    C7511534   3.747   3.871  -1.584  0.0000  0.0000  0.0000
  571BTD    C7611535   3.609   3.807  -1.549  0.0000  0.0000  0.0000
  571BTD    C7711536   3.610   3.721  -1.420  0.0000  0.0000  0.0000
  571BTD    C7811537   3.755   3.753  -1.375  0.0000  0.0000  0.0000
  571BTD    C7911538   3.488   3.901  -1.531  0.0000  0.0000  0.0000
  571BTD    C8011539   3.509   4.033  -1.452  0.0000  0.0000  0.0000
  571BTD    C8111540   3.413   4.152  -1.476  0.0000  0.0000  0.0000
  571BTD    C8211541   3.281   4.157  -1.393  0.0000  0.0000  0.0000
  572TTP     S111542   3.503   3.657  -2.233  0.0000  0.0000  0.0000
  572TTP     S511543   3.686   3.350  -2.014  0.0000  0.0000  0.0000
  572TTP     C111544   3.627   3.280  -2.160  0.0000  0.0000  0.0000
  572TTP     C211545   3.566   3.371  -2.238  0.0000  0.0000  0.0000
  572TTP     C311546   3.564   3.502  -2.186  0.0000  0.0000  0.0000
  572TTP     C411547   3.569   3.728  -2.091  0.0000  0.0000  0.0000
  572TTP    C1711548   3.629   3.636  -2.006  0.0000  0.0000  0.0000
  572TTP    C1811549   3.630   3.503  -2.058  0.0000  0.0000  0.0000
  572TTP    C3211550   3.508   3.347  -2.379  0.0000  0.0000  0.0000
  572TTP    C3311551   3.356   3.362  -2.402  0.0000  0.0000  0.0000
  572TTP    C3411552   3.298   3.327  -2.541  0.0000  0.0000  0.0000
  572TTP    C3511553   3.145   3.333  -2.512  0.0000  0.0000  0.0000
  572TTP    C3611554   3.099   3.186  -2.488  0.0000  0.0000  0.0000
  572TTP    C3711555   3.167   3.073  -2.570  0.0000  0.0000  0.0000
  572TTP    C3811556   3.083   2.953  -2.622  0.0000  0.0000  0.0000
  572TTP    C3911557   3.193   2.908  -2.720  0.0000  0.0000  0.0000
  572TTP    C4011558   3.148   2.867  -2.864  0.0000  0.0000  0.0000
  572TTP    C4111559   3.229   2.759  -2.941  0.0000  0.0000  0.0000
  572TTP    C4211560   3.167   2.693  -3.067  0.0000  0.0000  0.0000
  573TTP     S111561   3.667   4.347  -1.749  0.0000  0.0000  0.0000
  573TTP     S511562   3.889   4.172  -1.438  0.0000  0.0000  0.0000
  573TTP     C111563   3.895   4.347  -1.421  0.0000  0.0000  0.0000
  573TTP     C211564   3.824   4.412  -1.517  0.0000  0.0000  0.0000
  573TTP     C311565   3.763   4.324  -1.606  0.0000  0.0000  0.0000
  573TTP     C411566   3.669   4.177  -1.775  0.0000  0.0000  0.0000
  573TTP    C1711567   3.732   4.105  -1.672  0.0000  0.0000  0.0000
  573TTP    C1811568   3.791   4.190  -1.577  0.0000  0.0000  0.0000
  573TTP    C3211569   3.806   4.566  -1.526  0.0000  0.0000  0.0000
  573TTP    C3311570   3.688   4.619  -1.438  0.0000  0.0000  0.0000
  573TTP    C3411571   3.670   4.772  -1.443  0.0000  0.0000  0.0000
  573TTP    C3511572   3.642   4.815  -1.590  0.0000  0.0000  0.0000
  573TTP    C3611573   3.628   4.966  -1.622  0.0000  0.0000  0.0000
  573TTP    C3711574   3.751   5.060  -1.608  0.0000  0.0000  0.0000
  573TTP    C3811575   3.665   5.187  -1.636  0.0000  0.0000  0.0000
  573TTP    C3911576   3.759   5.287  -1.565  0.0000  0.0000  0.0000
  573TTP    C4011577   3.765   5.285  -1.409  0.0000  0.0000  0.0000
  573TTP    C4111578   3.872   5.198  -1.338  0.0000  0.0000  0.0000
  573TTP    C4211579   3.837   5.054  -1.288  0.0000  0.0000  0.0000
  574FIC     F111580   3.959   2.631  -1.788  0.0000  0.0000  0.0000
  574FIC     F211581   3.918   2.495  -2.017  0.0000  0.0000  0.0000
  574FIC     O111582   3.749   3.107  -1.925  0.0000  0.0000  0.0000
  574FIC     N511583   3.710   2.624  -2.426  0.0000  0.0000  0.0000
  574FIC     N611584   3.539   3.021  -2.515  0.0000  0.0000  0.0000
  574FIC    C1911585   3.644   3.145  -2.202  0.0000  0.0000  0.0000
  574FIC    C2011586   3.696   3.031  -2.150  0.0000  0.0000  0.0000
  574FIC    C2111587   3.751   3.020  -2.016  0.0000  0.0000  0.0000
  574FIC    C2211588   3.797   2.881  -2.001  0.0000  0.0000  0.0000
  574FIC    C2311589   3.858   2.827  -1.884  0.0000  0.0000  0.0000
  574FIC    C2411590   3.900   2.694  -1.905  0.0000  0.0000  0.0000
  574FIC    C2511591   3.880   2.626  -2.017  0.0000  0.0000  0.0000
  574FIC    C2611592   3.823   2.680  -2.122  0.0000  0.0000  0.0000
  574FIC    C2711593   3.780   2.808  -2.109  0.0000  0.0000  0.0000
  574FIC    C2811594   3.712   2.900  -2.210  0.0000  0.0000  0.0000
  574FIC    C2911595   3.670   2.872  -2.351  0.0000  0.0000  0.0000
  574FIC    C3011596   3.691   2.728  -2.390  0.0000  0.0000  0.0000
  574FIC    C3111597   3.603   2.958  -2.446  0.0000  0.0000  0.0000
  575FIC     F111598   4.354   4.075  -0.808  0.0000  0.0000  0.0000
  575FIC     F211599   4.408   4.326  -0.745  0.0000  0.0000  0.0000
  575FIC     O111600   4.033   4.138  -1.224  0.0000  0.0000  0.0000
  575FIC     N511601   4.259   4.740  -0.951  0.0000  0.0000  0.0000
  575FIC     N611602   4.065   4.757  -1.325  0.0000  0.0000  0.0000
  575FIC    C1911603   3.972   4.418  -1.323  0.0000  0.0000  0.0000
  575FIC    C2011604   4.053   4.381  -1.221  0.0000  0.0000  0.0000
  575FIC    C2111605   4.078   4.240  -1.178  0.0000  0.0000  0.0000
  575FIC    C2211606   4.163   4.249  -1.058  0.0000  0.0000  0.0000
  575FIC    C2311607   4.215   4.142  -0.985  0.0000  0.0000  0.0000
  575FIC    C2411608   4.291   4.173  -0.881  0.0000  0.0000  0.0000
  575FIC    C2511609   4.323   4.306  -0.848  0.0000  0.0000  0.0000
  575FIC    C2611610   4.275   4.409  -0.922  0.0000  0.0000  0.0000
  575FIC    C2711611   4.193   4.380  -1.027  0.0000  0.0000  0.0000
  575FIC    C2811612   4.129   4.466  -1.131  0.0000  0.0000  0.0000
  575FIC    C2911613   4.142   4.604  -1.136  0.0000  0.0000  0.0000
  575FIC    C3011614   4.207   4.678  -1.034  0.0000  0.0000  0.0000
  575FIC    C3111615   4.098   4.687  -1.245  0.0000  0.0000  0.0000
  576BTD     S211616   4.595   4.184   0.200  0.0000  0.0000  0.0000
  576BTD     N111617   4.606   4.023   0.189  0.0000  0.0000  0.0000
  576BTD     N211618   4.516   4.216   0.063  0.0000  0.0000  0.0000
  576BTD     N311619   4.347   3.954  -0.299  0.0000  0.0000  0.0000
  576BTD     N411620   4.460   3.694  -0.121  0.0000  0.0000  0.0000
  576BTD     C511621   4.530   3.858   0.020  0.0000  0.0000  0.0000
  576BTD     C611622   4.547   3.988   0.076  0.0000  0.0000  0.0000
  576BTD     C711623   4.496   4.099   0.003  0.0000  0.0000  0.0000
  576BTD     C811624   4.435   4.078  -0.122  0.0000  0.0000  0.0000
  576BTD    C1511625   4.416   3.945  -0.175  0.0000  0.0000  0.0000
  576BTD    C1611626   4.464   3.833  -0.098  0.0000  0.0000  0.0000
  576BTD    C4311627   4.372   3.617  -0.210  0.0000  0.0000  0.0000
  576BTD    C4411628   4.219   3.627  -0.180  0.0000  0.0000  0.0000
  576BTD    C4511629   4.147   3.528  -0.274  0.0000  0.0000  0.0000
  576BTD    C4611630   3.997   3.570  -0.273  0.0000  0.0000  0.0000
  576BTD    C4711631   4.186   3.600  -0.030  0.0000  0.0000  0.0000
  576BTD    C4811632   4.172   3.459   0.033  0.0000  0.0000  0.0000
  576BTD    C4911633   4.158   3.491   0.184  0.0000  0.0000  0.0000
  576BTD    C5011634   4.061   3.537   0.298  0.0000  0.0000  0.0000
  576BTD    C7511635   4.360   3.866  -0.415  0.0000  0.0000  0.0000
  576BTD    C7611636   4.509   3.836  -0.451  0.0000  0.0000  0.0000
  576BTD    C7711637   4.518   3.748  -0.578  0.0000  0.0000  0.0000
  576BTD    C7811638   4.659   3.695  -0.613  0.0000  0.0000  0.0000
  576BTD    C7911639   4.594   3.963  -0.471  0.0000  0.0000  0.0000
  576BTD    C8011640   4.567   4.052  -0.595  0.0000  0.0000  0.0000
  576BTD    C8111641   4.659   4.177  -0.590  0.0000  0.0000  0.0000
  576BTD    C8211642   4.628   4.303  -0.503  0.0000  0.0000  0.0000
  577TTP     S111643   4.657   3.668   0.207  0.0000  0.0000  0.0000
  577TTP     S511644   4.558   3.349  -0.050  0.0000  0.0000  0.0000
  577TTP     C111645   4.655   3.286   0.082  0.0000  0.0000  0.0000
  577TTP     C211646   4.693   3.383   0.170  0.0000  0.0000  0.0000
  577TTP     C311647   4.637   3.506   0.137  0.0000  0.0000  0.0000
  577TTP     C411648   4.572   3.729   0.076  0.0000  0.0000  0.0000
  577TTP    C1711649   4.521   3.638  -0.015  0.0000  0.0000  0.0000
  577TTP    C1811650   4.565   3.504   0.025  0.0000  0.0000  0.0000
  577TTP    C3211651   4.778   3.366   0.298  0.0000  0.0000  0.0000
  577TTP    C3311652   4.688   3.332   0.420  0.0000  0.0000  0.0000
  577TTP    C3411653   4.781   3.309   0.541  0.0000  0.0000  0.0000
  577TTP    C3511654   4.722   3.238   0.666  0.0000  0.0000  0.0000
  577TTP    C3611655   4.817   3.144   0.747  0.0000  0.0000  0.0000
  577TTP    C3711656   4.936   3.208   0.824  0.0000  0.0000  0.0000
  577TTP    C3811657   5.017   3.340   0.836  0.0000  0.0000  0.0000
  577TTP    C3911658   5.099   3.390   0.713  0.0000  0.0000  0.0000
  577TTP    C4011659   5.158   3.288   0.613  0.0000  0.0000  0.0000
  577TTP    C4111660   5.145   3.314   0.460  0.0000  0.0000  0.0000
  577TTP    C4211661   5.163   3.193   0.365  0.0000  0.0000  0.0000
  578TTP     S111662   4.352   4.337  -0.237  0.0000  0.0000  0.0000
  578TTP     S511663   4.150   4.134  -0.545  0.0000  0.0000  0.0000
  578TTP     C111664   4.119   4.307  -0.567  0.0000  0.0000  0.0000
  578TTP     C211665   4.184   4.381  -0.466  0.0000  0.0000  0.0000
  578TTP     C311666   4.261   4.301  -0.382  0.0000  0.0000  0.0000
  578TTP     C411667   4.375   4.165  -0.216  0.0000  0.0000  0.0000
  578TTP    C1711668   4.321   4.090  -0.320  0.0000  0.0000  0.0000
  578TTP    C1811669   4.251   4.167  -0.415  0.0000  0.0000  0.0000
  578TTP    C3211670   4.191   4.535  -0.459  0.0000  0.0000  0.0000
  578TTP    C3311671   4.297   4.602  -0.553  0.0000  0.0000  0.0000
  578TTP    C3411672   4.303   4.757  -0.537  0.0000  0.0000  0.0000
  578TTP    C3511673   4.412   4.807  -0.635  0.0000  0.0000  0.0000
  578TTP    C3611674   4.396   4.961  -0.641  0.0000  0.0000  0.0000
  578TTP    C3711675   4.429   4.999  -0.493  0.0000  0.0000  0.0000
  578TTP    C3811676   4.435   5.153  -0.464  0.0000  0.0000  0.0000
  578TTP    C3911677   4.497   5.204  -0.332  0.0000  0.0000  0.0000
  578TTP    C4011678   4.406   5.272  -0.225  0.0000  0.0000  0.0000
  578TTP    C4111679   4.331   5.403  -0.259  0.0000  0.0000  0.0000
  578TTP    C4211680   4.309   5.510  -0.150  0.0000  0.0000  0.0000
  579FIC     F111681   4.625   2.659  -0.442  0.0000  0.0000  0.0000
  579FIC     F211682   4.734   2.505  -0.250  0.0000  0.0000  0.0000
  579FIC     O111683   4.571   3.118  -0.181  0.0000  0.0000  0.0000
  579FIC     N511684   4.887   2.618   0.195  0.0000  0.0000  0.0000
  579FIC     N611685   4.839   2.999   0.374  0.0000  0.0000  0.0000
  579FIC    C1911686   4.699   3.149   0.092  0.0000  0.0000  0.0000
  579FIC    C2011687   4.690   3.038   0.011  0.0000  0.0000  0.0000
  579FIC    C2111688   4.627   3.030  -0.116  0.0000  0.0000  0.0000
  579FIC    C2211689   4.652   2.896  -0.170  0.0000  0.0000  0.0000
  579FIC    C2311690   4.622   2.846  -0.301  0.0000  0.0000  0.0000
  579FIC    C2411691   4.651   2.717  -0.325  0.0000  0.0000  0.0000
  579FIC    C2511692   4.711   2.638  -0.216  0.0000  0.0000  0.0000
  579FIC    C2611693   4.747   2.683  -0.099  0.0000  0.0000  0.0000
  579FIC    C2711694   4.712   2.818  -0.071  0.0000  0.0000  0.0000
  579FIC    C2811695   4.736   2.904   0.045  0.0000  0.0000  0.0000
  579FIC    C2911696   4.796   2.861   0.161  0.0000  0.0000  0.0000
  579FIC    C3011697   4.844   2.718   0.174  0.0000  0.0000  0.0000
  579FIC    C3111698   4.813   2.939   0.280  0.0000  0.0000  0.0000
  580FIC     F111699   3.663   3.984  -1.158  0.0000  0.0000  0.0000
  580FIC     F211700   3.616   4.227  -1.239  0.0000  0.0000  0.0000
  580FIC     O111701   3.975   4.078  -0.736  0.0000  0.0000  0.0000
  580FIC     N511702   3.793   4.647  -1.089  0.0000  0.0000  0.0000
  580FIC     N611703   3.983   4.702  -0.711  0.0000  0.0000  0.0000
  580FIC    C1911704   4.043   4.365  -0.668  0.0000  0.0000  0.0000
  580FIC    C2011705   3.963   4.319  -0.767  0.0000  0.0000  0.0000
  580FIC    C2111706   3.932   4.172  -0.800  0.0000  0.0000  0.0000
  580FIC    C2211707   3.853   4.170  -0.915  0.0000  0.0000  0.0000
  580FIC    C2311708   3.796   4.060  -0.982  0.0000  0.0000  0.0000
  580FIC    C2411709   3.720   4.077  -1.091  0.0000  0.0000  0.0000
  580FIC    C2511710   3.691   4.206  -1.134  0.0000  0.0000  0.0000
  580FIC    C2611711   3.747   4.325  -1.075  0.0000  0.0000  0.0000
  580FIC    C2711712   3.830   4.303  -0.963  0.0000  0.0000  0.0000
  580FIC    C2811713   3.896   4.393  -0.870  0.0000  0.0000  0.0000
  580FIC    C2911714   3.892   4.532  -0.882  0.0000  0.0000  0.0000
  580FIC    C3011715   3.835   4.597  -1.001  0.0000  0.0000  0.0000
  580FIC    C3111716   3.948   4.626  -0.789  0.0000  0.0000  0.0000
  581BTD     S211717   3.365  10.276  -1.196  0.0000  0.0000  0.0000
  581BTD     N111718   3.379  10.441  -1.192  0.0000  0.0000  0.0000
  581BTD     N211719   3.430  10.237  -1.054  0.0000  0.0000  0.0000
  581BTD     N311720   3.632  10.484  -0.704  0.0000  0.0000  0.0000
  581BTD     N411721   3.575  10.755  -0.897  0.0000  0.0000  0.0000
  581BTD     C511722   3.475  10.596  -1.035  0.0000  0.0000  0.0000
  581BTD     C611723   3.435  10.468  -1.079  0.0000  0.0000  0.0000
  581BTD     C711724   3.464  10.354  -0.999  0.0000  0.0000  0.0000
  581BTD     C811725   3.530  10.371  -0.875  0.0000  0.0000  0.0000
  581BTD    C1511726   3.566  10.498  -0.825  0.0000  0.0000  0.0000
  581BTD    C1611727   3.548  10.620  -0.910  0.0000  0.0000  0.0000
  581BTD    C4311728   3.679  10.821  -0.820  0.0000  0.0000  0.0000
  581BTD    C4411729   3.821  10.769  -0.856  0.0000  0.0000  0.0000
  581BTD    C4511730   3.859  10.744  -1.006  0.0000  0.0000  0.0000
  581BTD    C4611731   3.864  10.875  -1.087  0.0000  0.0000  0.0000
  581BTD    C4711732   3.936  10.849  -0.790  0.0000  0.0000  0.0000
  581BTD    C4811733   3.954  10.843  -0.637  0.0000  0.0000  0.0000
  581BTD    C4911734   4.042  10.949  -0.565  0.0000  0.0000  0.0000
  581BTD    C5011735   4.022  10.973  -0.413  0.0000  0.0000  0.0000
  581BTD    C7511736   3.643  10.582  -0.586  0.0000  0.0000  0.0000
  581BTD    C7611737   3.505  10.645  -0.551  0.0000  0.0000  0.0000
  581BTD    C7711738   3.507  10.731  -0.422  0.0000  0.0000  0.0000
  581BTD    C7811739   3.651  10.700  -0.376  0.0000  0.0000  0.0000
  581BTD    C7911740   3.384  10.551  -0.532  0.0000  0.0000  0.0000
  581BTD    C8011741   3.405  10.420  -0.453  0.0000  0.0000  0.0000
  581BTD    C8111742   3.309  10.300  -0.478  0.0000  0.0000  0.0000
  581BTD    C8211743   3.178  10.296  -0.394  0.0000  0.0000  0.0000
  582TTP     S111744   3.400  10.796  -1.234  0.0000  0.0000  0.0000
  582TTP     S511745   3.583  11.103  -1.016  0.0000  0.0000  0.0000
  582TTP     C111746   3.523  11.173  -1.162  0.0000  0.0000  0.0000
  582TTP     C211747   3.463  11.081  -1.239  0.0000  0.0000  0.0000
  582TTP     C311748   3.461  10.951  -1.188  0.0000  0.0000  0.0000
  582TTP     C411749   3.465  10.725  -1.092  0.0000  0.0000  0.0000
  582TTP    C1711750   3.526  10.817  -1.008  0.0000  0.0000  0.0000
  582TTP    C1811751   3.527  10.949  -1.060  0.0000  0.0000  0.0000
  582TTP    C3211752   3.405  11.106  -1.381  0.0000  0.0000  0.0000
  582TTP    C3311753   3.252  11.091  -1.403  0.0000  0.0000  0.0000
  582TTP    C3411754   3.194  11.126  -1.543  0.0000  0.0000  0.0000
  582TTP    C3511755   3.042  11.120  -1.514  0.0000  0.0000  0.0000
  582TTP    C3611756   2.995  11.266  -1.489  0.0000  0.0000  0.0000
  582TTP    C3711757   3.064  11.380  -1.572  0.0000  0.0000  0.0000
  582TTP    C3811758   2.979  11.499  -1.623  0.0000  0.0000  0.0000
  582TTP    C3911759   3.089  11.544  -1.721  0.0000  0.0000  0.0000
  582TTP    C4011760   3.045  11.586  -1.865  0.0000  0.0000  0.0000
  582TTP    C4111761   3.126  11.694  -1.943  0.0000  0.0000  0.0000
  582TTP    C4211762   3.063  11.759  -2.069  0.0000  0.0000  0.0000
  583TTP     S111763   3.564  10.105  -0.750  0.0000  0.0000  0.0000
  583TTP     S511764   3.786  10.281  -0.440  0.0000  0.0000  0.0000
  583TTP     C111765   3.792  10.105  -0.422  0.0000  0.0000  0.0000
  583TTP     C211766   3.721  10.040  -0.518  0.0000  0.0000  0.0000
  583TTP     C311767   3.660  10.128  -0.607  0.0000  0.0000  0.0000
  583TTP     C411768   3.566  10.276  -0.776  0.0000  0.0000  0.0000
  583TTP    C1711769   3.629  10.347  -0.674  0.0000  0.0000  0.0000
  583TTP    C1811770   3.687  10.263  -0.578  0.0000  0.0000  0.0000
  583TTP    C3211771   3.702   9.886  -0.528  0.0000  0.0000  0.0000
  583TTP    C3311772   3.585   9.833  -0.440  0.0000  0.0000  0.0000
  583TTP    C3411773   3.567   9.680  -0.445  0.0000  0.0000  0.0000
  583TTP    C3511774   3.538   9.637  -0.591  0.0000  0.0000  0.0000
  583TTP    C3611775   3.525   9.486  -0.624  0.0000  0.0000  0.0000
  583TTP    C3711776   3.648   9.393  -0.609  0.0000  0.0000  0.0000
  583TTP    C3811777   3.562   9.266  -0.638  0.0000  0.0000  0.0000
  583TTP    C3911778   3.655   9.165  -0.566  0.0000  0.0000  0.0000
  583TTP    C4011779   3.662   9.168  -0.411  0.0000  0.0000  0.0000
  583TTP    C4111780   3.768   9.255  -0.339  0.0000  0.0000  0.0000
  583TTP    C4211781   3.734   9.398  -0.290  0.0000  0.0000  0.0000
  584FIC     F111782   3.856  11.822  -0.789  0.0000  0.0000  0.0000
  584FIC     F211783   3.815  11.957  -1.018  0.0000  0.0000  0.0000
  584FIC     O111784   3.646  11.346  -0.926  0.0000  0.0000  0.0000
  584FIC     N511785   3.607  11.829  -1.428  0.0000  0.0000  0.0000
  584FIC     N611786   3.435  11.432  -1.516  0.0000  0.0000  0.0000
  584FIC    C1911787   3.540  11.307  -1.204  0.0000  0.0000  0.0000
  584FIC    C2011788   3.592  11.421  -1.152  0.0000  0.0000  0.0000
  584FIC    C2111789   3.647  11.432  -1.018  0.0000  0.0000  0.0000
  584FIC    C2211790   3.694  11.571  -1.002  0.0000  0.0000  0.0000
  584FIC    C2311791   3.755  11.625  -0.885  0.0000  0.0000  0.0000
  584FIC    C2411792   3.796  11.759  -0.907  0.0000  0.0000  0.0000
  584FIC    C2511793   3.777  11.826  -1.019  0.0000  0.0000  0.0000
  584FIC    C2611794   3.719  11.772  -1.124  0.0000  0.0000  0.0000
  584FIC    C2711795   3.676  11.644  -1.111  0.0000  0.0000  0.0000
  584FIC    C2811796   3.608  11.553  -1.211  0.0000  0.0000  0.0000
  584FIC    C2911797   3.566  11.581  -1.353  0.0000  0.0000  0.0000
  584FIC    C3011798   3.587  11.725  -1.392  0.0000  0.0000  0.0000
  584FIC    C3111799   3.500  11.495  -1.448  0.0000  0.0000  0.0000
  585FIC     F111800   4.250  10.378   0.191  0.0000  0.0000  0.0000
  585FIC     F211801   4.305  10.126   0.253  0.0000  0.0000  0.0000
  585FIC     O111802   3.930  10.314  -0.226  0.0000  0.0000  0.0000
  585FIC     N511803   4.156   9.712   0.047  0.0000  0.0000  0.0000
  585FIC     N611804   3.961   9.696  -0.326  0.0000  0.0000  0.0000
  585FIC    C1911805   3.868  10.035  -0.324  0.0000  0.0000  0.0000
  585FIC    C2011806   3.950  10.072  -0.222  0.0000  0.0000  0.0000
  585FIC    C2111807   3.975  10.212  -0.180  0.0000  0.0000  0.0000
  585FIC    C2211808   4.059  10.204  -0.060  0.0000  0.0000  0.0000
  585FIC    C2311809   4.112  10.310   0.013  0.0000  0.0000  0.0000
  585FIC    C2411810   4.187  10.280   0.118  0.0000  0.0000  0.0000
  585FIC    C2511811   4.220  10.147   0.150  0.0000  0.0000  0.0000
  585FIC    C2611812   4.171  10.043   0.076  0.0000  0.0000  0.0000
  585FIC    C2711813   4.090  10.072  -0.028  0.0000  0.0000  0.0000
  585FIC    C2811814   4.025   9.986  -0.133  0.0000  0.0000  0.0000
  585FIC    C2911815   4.039   9.848  -0.137  0.0000  0.0000  0.0000
  585FIC    C3011816   4.103   9.774  -0.036  0.0000  0.0000  0.0000
  585FIC    C3111817   3.994   9.766  -0.246  0.0000  0.0000  0.0000
  586BTD     S211818   4.492  10.268   1.199  0.0000  0.0000  0.0000
  586BTD     N111819   4.502  10.429   1.188  0.0000  0.0000  0.0000
  586BTD     N211820   4.413  10.237   1.061  0.0000  0.0000  0.0000
  586BTD     N311821   4.243  10.499   0.700  0.0000  0.0000  0.0000
  586BTD     N411822   4.357  10.759   0.877  0.0000  0.0000  0.0000
  586BTD     C511823   4.427  10.595   1.019  0.0000  0.0000  0.0000
  586BTD     C611824   4.444  10.464   1.075  0.0000  0.0000  0.0000
  586BTD     C711825   4.393  10.354   1.001  0.0000  0.0000  0.0000
  586BTD     C811826   4.331  10.375   0.877  0.0000  0.0000  0.0000
  586BTD    C1511827   4.312  10.508   0.824  0.0000  0.0000  0.0000
  586BTD    C1611828   4.360  10.619   0.900  0.0000  0.0000  0.0000
  586BTD    C4311829   4.268  10.836   0.789  0.0000  0.0000  0.0000
  586BTD    C4411830   4.116  10.826   0.819  0.0000  0.0000  0.0000
  586BTD    C4511831   4.043  10.925   0.724  0.0000  0.0000  0.0000
  586BTD    C4611832   3.893  10.883   0.726  0.0000  0.0000  0.0000
  586BTD    C4711833   4.083  10.852   0.968  0.0000  0.0000  0.0000
  586BTD    C4811834   4.068  10.993   1.032  0.0000  0.0000  0.0000
  586BTD    C4911835   4.054  10.962   1.183  0.0000  0.0000  0.0000
  586BTD    C5011836   3.958  10.916   1.296  0.0000  0.0000  0.0000
  586BTD    C7511837   4.257  10.586   0.583  0.0000  0.0000  0.0000
  586BTD    C7611838   4.405  10.616   0.548  0.0000  0.0000  0.0000
  586BTD    C7711839   4.414  10.704   0.421  0.0000  0.0000  0.0000
  586BTD    C7811840   4.555  10.758   0.385  0.0000  0.0000  0.0000
  586BTD    C7911841   4.491  10.489   0.527  0.0000  0.0000  0.0000
  586BTD    C8011842   4.463  10.401   0.403  0.0000  0.0000  0.0000
  586BTD    C8111843   4.555  10.275   0.409  0.0000  0.0000  0.0000
  586BTD    C8211844   4.524  10.150   0.496  0.0000  0.0000  0.0000
  587TTP     S111845   4.553  10.785   1.205  0.0000  0.0000  0.0000
  587TTP     S511846   4.455  11.103   0.949  0.0000  0.0000  0.0000
  587TTP     C111847   4.551  11.167   1.080  0.0000  0.0000  0.0000
  587TTP     C211848   4.589  11.069   1.169  0.0000  0.0000  0.0000
  587TTP     C311849   4.534  10.947   1.135  0.0000  0.0000  0.0000
  587TTP     C411850   4.469  10.724   1.074  0.0000  0.0000  0.0000
  587TTP    C1711851   4.418  10.814   0.983  0.0000  0.0000  0.0000
  587TTP    C1811852   4.462  10.949   1.023  0.0000  0.0000  0.0000
  587TTP    C3211853   4.675  11.087   1.297  0.0000  0.0000  0.0000
  587TTP    C3311854   4.584  11.121   1.418  0.0000  0.0000  0.0000
  587TTP    C3411855   4.677  11.144   1.540  0.0000  0.0000  0.0000
  587TTP    C3511856   4.619  11.214   1.664  0.0000  0.0000  0.0000
  587TTP    C3611857   4.713  11.308   1.745  0.0000  0.0000  0.0000
  587TTP    C3711858   4.833  11.244   1.822  0.0000  0.0000  0.0000
  587TTP    C3811859   4.913  11.112   1.834  0.0000  0.0000  0.0000
  587TTP    C3911860   4.995  11.062   1.712  0.0000  0.0000  0.0000
  587TTP    C4011861   5.054  11.165   1.611  0.0000  0.0000  0.0000
  587TTP    C4111862   5.041  11.138   1.458  0.0000  0.0000  0.0000
  587TTP    C4211863   5.060  11.260   1.363  0.0000  0.0000  0.0000
  588TTP     S111864   4.249  10.116   0.762  0.0000  0.0000  0.0000
  588TTP     S511865   4.047  10.319   0.453  0.0000  0.0000  0.0000
  588TTP     C111866   4.016  10.146   0.432  0.0000  0.0000  0.0000
  588TTP     C211867   4.080  10.072   0.533  0.0000  0.0000  0.0000
  588TTP     C311868   4.157  10.152   0.617  0.0000  0.0000  0.0000
  588TTP     C411869   4.272  10.287   0.783  0.0000  0.0000  0.0000
  588TTP    C1711870   4.218  10.362   0.679  0.0000  0.0000  0.0000
  588TTP    C1811871   4.147  10.285   0.583  0.0000  0.0000  0.0000
  588TTP    C3211872   4.088   9.917   0.539  0.0000  0.0000  0.0000
  588TTP    C3311873   4.193   9.850   0.446  0.0000  0.0000  0.0000
  588TTP    C3411874   4.200   9.696   0.461  0.0000  0.0000  0.0000
  588TTP    C3511875   4.309   9.645   0.363  0.0000  0.0000  0.0000
  588TTP    C3611876   4.293   9.491   0.358  0.0000  0.0000  0.0000
  588TTP    C3711877   4.326   9.453   0.505  0.0000  0.0000  0.0000
  588TTP    C3811878   4.331   9.299   0.535  0.0000  0.0000  0.0000
  588TTP    C3911879   4.393   9.249   0.667  0.0000  0.0000  0.0000
  588TTP    C4011880   4.302   9.181   0.774  0.0000  0.0000  0.0000
  588TTP    C4111881   4.227   9.050   0.739  0.0000  0.0000  0.0000
  588TTP    C4211882   4.205   8.942   0.848  0.0000  0.0000  0.0000
  589FIC     F111883   4.522  11.793   0.557  0.0000  0.0000  0.0000
  589FIC     F211884   4.631  11.947   0.748  0.0000  0.0000  0.0000
  589FIC     O111885   4.467  11.334   0.817  0.0000  0.0000  0.0000
  589FIC     N511886   4.783  11.835   1.193  0.0000  0.0000  0.0000
  589FIC     N611887   4.735  11.454   1.372  0.0000  0.0000  0.0000
  589FIC    C1911888   4.595  11.304   1.090  0.0000  0.0000  0.0000
  589FIC    C2011889   4.586  11.415   1.010  0.0000  0.0000  0.0000
  589FIC    C2111890   4.524  11.422   0.882  0.0000  0.0000  0.0000
  589FIC    C2211891   4.548  11.557   0.828  0.0000  0.0000  0.0000
  589FIC    C2311892   4.519  11.606   0.698  0.0000  0.0000  0.0000
  589FIC    C2411893   4.547  11.735   0.673  0.0000  0.0000  0.0000
  589FIC    C2511894   4.607  11.814   0.783  0.0000  0.0000  0.0000
  589FIC    C2611895   4.643  11.770   0.899  0.0000  0.0000  0.0000
  589FIC    C2711896   4.608  11.635   0.927  0.0000  0.0000  0.0000
  589FIC    C2811897   4.632  11.548   1.043  0.0000  0.0000  0.0000
  589FIC    C2911898   4.692  11.591   1.160  0.0000  0.0000  0.0000
  589FIC    C3011899   4.740  11.735   1.172  0.0000  0.0000  0.0000
  589FIC    C3111900   4.710  11.514   1.279  0.0000  0.0000  0.0000
  590FIC     F111901   3.559  10.468  -0.160  0.0000  0.0000  0.0000
  590FIC     F211902   3.512  10.226  -0.241  0.0000  0.0000  0.0000
  590FIC     O111903   3.871  10.374   0.263  0.0000  0.0000  0.0000
  590FIC     N511904   3.689   9.805  -0.091  0.0000  0.0000  0.0000
  590FIC     N611905   3.880   9.750   0.287  0.0000  0.0000  0.0000
  590FIC    C1911906   3.939  10.088   0.330  0.0000  0.0000  0.0000
  590FIC    C2011907   3.860  10.134   0.231  0.0000  0.0000  0.0000
  590FIC    C2111908   3.828  10.280   0.199  0.0000  0.0000  0.0000
  590FIC    C2211909   3.749  10.282   0.083  0.0000  0.0000  0.0000
  590FIC    C2311910   3.693  10.393   0.017  0.0000  0.0000  0.0000
  590FIC    C2411911   3.617  10.376  -0.093  0.0000  0.0000  0.0000
  590FIC    C2511912   3.588  10.247  -0.135  0.0000  0.0000  0.0000
  590FIC    C2611913   3.643  10.128  -0.077  0.0000  0.0000  0.0000
  590FIC    C2711914   3.726  10.149   0.036  0.0000  0.0000  0.0000
  590FIC    C2811915   3.793  10.060   0.128  0.0000  0.0000  0.0000
  590FIC    C2911916   3.788   9.920   0.116  0.0000  0.0000  0.0000
  590FIC    C3011917   3.731   9.856  -0.003  0.0000  0.0000  0.0000
  590FIC    C3111918   3.844   9.826   0.209  0.0000  0.0000  0.0000
  591BTD     S211919   5.705   1.286   1.196  0.0000  0.0000  0.0000
  591BTD     N111920   5.691   1.121   1.192  0.0000  0.0000  0.0000
  591BTD     N211921   5.640   1.325   1.054  0.0000  0.0000  0.0000
  591BTD     N311922   5.438   1.078   0.704  0.0000  0.0000  0.0000
  591BTD     N411923   5.495   0.807   0.897  0.0000  0.0000  0.0000
  591BTD     C511924   5.595   0.966   1.035  0.0000  0.0000  0.0000
  591BTD     C611925   5.635   1.094   1.079  0.0000  0.0000  0.0000
  591BTD     C711926   5.606   1.208   0.999  0.0000  0.0000  0.0000
  591BTD     C811927   5.540   1.191   0.875  0.0000  0.0000  0.0000
  591BTD    C1511928   5.504   1.064   0.825  0.0000  0.0000  0.0000
  591BTD    C1611929   5.522   0.942   0.910  0.0000  0.0000  0.0000
  591BTD    C4311930   5.391   0.741   0.820  0.0000  0.0000  0.0000
  591BTD    C4411931   5.249   0.793   0.856  0.0000  0.0000  0.0000
  591BTD    C4511932   5.211   0.818   1.006  0.0000  0.0000  0.0000
  591BTD    C4611933   5.206   0.687   1.087  0.0000  0.0000  0.0000
  591BTD    C4711934   5.134   0.713   0.790  0.0000  0.0000  0.0000
  591BTD    C4811935   5.116   0.719   0.637  0.0000  0.0000  0.0000
  591BTD    C4911936   5.028   0.613   0.565  0.0000  0.0000  0.0000
  591BTD    C5011937   5.048   0.589   0.413  0.0000  0.0000  0.0000
  591BTD    C7511938   5.427   0.980   0.586  0.0000  0.0000  0.0000
  591BTD    C7611939   5.565   0.917   0.551  0.0000  0.0000  0.0000
  591BTD    C7711940   5.563   0.831   0.422  0.0000  0.0000  0.0000
  591BTD    C7811941   5.419   0.862   0.376  0.0000  0.0000  0.0000
  591BTD    C7911942   5.686   1.011   0.532  0.0000  0.0000  0.0000
  591BTD    C8011943   5.665   1.142   0.453  0.0000  0.0000  0.0000
  591BTD    C8111944   5.761   1.262   0.478  0.0000  0.0000  0.0000
  591BTD    C8211945   5.892   1.266   0.394  0.0000  0.0000  0.0000
  592TTP     S111946   5.670   0.766   1.234  0.0000  0.0000  0.0000
  592TTP     S511947   5.487   0.459   1.016  0.0000  0.0000  0.0000
  592TTP     C111948   5.547   0.389   1.162  0.0000  0.0000  0.0000
  592TTP     C211949   5.607   0.481   1.239  0.0000  0.0000  0.0000
  592TTP     C311950   5.609   0.611   1.188  0.0000  0.0000  0.0000
  592TTP     C411951   5.605   0.837   1.092  0.0000  0.0000  0.0000
  592TTP    C1711952   5.544   0.745   1.008  0.0000  0.0000  0.0000
  592TTP    C1811953   5.543   0.613   1.060  0.0000  0.0000  0.0000
  592TTP    C3211954   5.665   0.456   1.381  0.0000  0.0000  0.0000
  592TTP    C3311955   5.818   0.471   1.403  0.0000  0.0000  0.0000
  592TTP    C3411956   5.876   0.436   1.543  0.0000  0.0000  0.0000
  592TTP    C3511957   6.028   0.442   1.514  0.0000  0.0000  0.0000
  592TTP    C3611958   6.075   0.296   1.489  0.0000  0.0000  0.0000
  592TTP    C3711959   6.006   0.182   1.572  0.0000  0.0000  0.0000
  592TTP    C3811960   6.091   0.063   1.623  0.0000  0.0000  0.0000
  592TTP    C3911961   5.981   0.018   1.721  0.0000  0.0000  0.0000
  592TTP    C4011962   6.025  -0.024   1.865  0.0000  0.0000  0.0000
  592TTP    C4111963   5.944  -0.132   1.943  0.0000  0.0000  0.0000
  592TTP    C4211964   6.007  -0.197   2.069  0.0000  0.0000  0.0000
  593TTP     S111965   5.506   1.457   0.750  0.0000  0.0000  0.0000
  593TTP     S511966   5.284   1.281   0.440  0.0000  0.0000  0.0000
  593TTP     C111967   5.278   1.457   0.422  0.0000  0.0000  0.0000
  593TTP     C211968   5.349   1.522   0.518  0.0000  0.0000  0.0000
  593TTP     C311969   5.410   1.434   0.607  0.0000  0.0000  0.0000
  593TTP     C411970   5.504   1.286   0.776  0.0000  0.0000  0.0000
  593TTP    C1711971   5.441   1.215   0.674  0.0000  0.0000  0.0000
  593TTP    C1811972   5.383   1.299   0.578  0.0000  0.0000  0.0000
  593TTP    C3211973   5.368   1.676   0.528  0.0000  0.0000  0.0000
  593TTP    C3311974   5.485   1.729   0.440  0.0000  0.0000  0.0000
  593TTP    C3411975   5.503   1.882   0.445  0.0000  0.0000  0.0000
  593TTP    C3511976   5.532   1.925   0.591  0.0000  0.0000  0.0000
  593TTP    C3611977   5.545   2.076   0.624  0.0000  0.0000  0.0000
  593TTP    C3711978   5.422   2.169   0.609  0.0000  0.0000  0.0000
  593TTP    C3811979   5.508   2.296   0.638  0.0000  0.0000  0.0000
  593TTP    C3911980   5.415   2.397   0.566  0.0000  0.0000  0.0000
  593TTP    C4011981   5.408   2.394   0.411  0.0000  0.0000  0.0000
  593TTP    C4111982   5.302   2.307   0.339  0.0000  0.0000  0.0000
  593TTP    C4211983   5.336   2.164   0.290  0.0000  0.0000  0.0000
  594FIC     F111984   5.214  -0.260   0.789  0.0000  0.0000  0.0000
  594FIC     F211985   5.255  -0.395   1.018  0.0000  0.0000  0.0000
  594FIC     O111986   5.424   0.216   0.926  0.0000  0.0000  0.0000
  594FIC     N511987   5.463  -0.267   1.428  0.0000  0.0000  0.0000
  594FIC     N611988   5.635   0.130   1.516  0.0000  0.0000  0.0000
  594FIC    C1911989   5.530   0.255   1.204  0.0000  0.0000  0.0000
  594FIC    C2011990   5.478   0.141   1.152  0.0000  0.0000  0.0000
  594FIC    C2111991   5.423   0.130   1.018  0.0000  0.0000  0.0000
  594FIC    C2211992   5.376  -0.009   1.002  0.0000  0.0000  0.0000
  594FIC    C2311993   5.315  -0.063   0.885  0.0000  0.0000  0.0000
  594FIC    C2411994   5.274  -0.197   0.907  0.0000  0.0000  0.0000
  594FIC    C2511995   5.293  -0.264   1.019  0.0000  0.0000  0.0000
  594FIC    C2611996   5.351  -0.210   1.124  0.0000  0.0000  0.0000
  594FIC    C2711997   5.394  -0.082   1.111  0.0000  0.0000  0.0000
  594FIC    C2811998   5.462   0.009   1.211  0.0000  0.0000  0.0000
  594FIC    C2911999   5.504  -0.019   1.353  0.0000  0.0000  0.0000
  594FIC    C3012000   5.483  -0.163   1.392  0.0000  0.0000  0.0000
  594FIC    C3112001   5.570   0.067   1.448  0.0000  0.0000  0.0000
  595FIC     F112002   4.820   1.184  -0.191  0.0000  0.0000  0.0000
  595FIC     F212003   4.765   1.436  -0.253  0.0000  0.0000  0.0000
  595FIC     O112004   5.140   1.248   0.226  0.0000  0.0000  0.0000
  595FIC     N512005   4.914   1.850  -0.047  0.0000  0.0000  0.0000
  595FIC     N612006   5.109   1.866   0.326  0.0000  0.0000  0.0000
  595FIC    C1912007   5.202   1.527   0.324  0.0000  0.0000  0.0000
  595FIC    C2012008   5.120   1.490   0.222  0.0000  0.0000  0.0000
  595FIC    C2112009   5.095   1.350   0.180  0.0000  0.0000  0.0000
  595FIC    C2212010   5.011   1.358   0.060  0.0000  0.0000  0.0000
  595FIC    C2312011   4.958   1.252  -0.013  0.0000  0.0000  0.0000
  595FIC    C2412012   4.883   1.282  -0.118  0.0000  0.0000  0.0000
  595FIC    C2512013   4.850   1.415  -0.150  0.0000  0.0000  0.0000
  595FIC    C2612014   4.899   1.519  -0.076  0.0000  0.0000  0.0000
  595FIC    C2712015   4.980   1.490   0.028  0.0000  0.0000  0.0000
  595FIC    C2812016   5.045   1.576   0.133  0.0000  0.0000  0.0000
  595FIC    C2912017   5.031   1.714   0.137  0.0000  0.0000  0.0000
  595FIC    C3012018   4.967   1.788   0.036  0.0000  0.0000  0.0000
  595FIC    C3112019   5.076   1.796   0.246  0.0000  0.0000  0.0000
  596BTD     S212020   4.578   1.294  -1.199  0.0000  0.0000  0.0000
  596BTD     N112021   4.568   1.133  -1.188  0.0000  0.0000  0.0000
  596BTD     N212022   4.657   1.325  -1.061  0.0000  0.0000  0.0000
  596BTD     N312023   4.827   1.063  -0.700  0.0000  0.0000  0.0000
  596BTD     N412024   4.713   0.803  -0.877  0.0000  0.0000  0.0000
  596BTD     C512025   4.643   0.967  -1.019  0.0000  0.0000  0.0000
  596BTD     C612026   4.626   1.098  -1.075  0.0000  0.0000  0.0000
  596BTD     C712027   4.677   1.208  -1.001  0.0000  0.0000  0.0000
  596BTD     C812028   4.739   1.187  -0.877  0.0000  0.0000  0.0000
  596BTD    C1512029   4.758   1.054  -0.824  0.0000  0.0000  0.0000
  596BTD    C1612030   4.710   0.943  -0.900  0.0000  0.0000  0.0000
  596BTD    C4312031   4.802   0.726  -0.789  0.0000  0.0000  0.0000
  596BTD    C4412032   4.954   0.736  -0.819  0.0000  0.0000  0.0000
  596BTD    C4512033   5.027   0.637  -0.724  0.0000  0.0000  0.0000
  596BTD    C4612034   5.177   0.679  -0.726  0.0000  0.0000  0.0000
  596BTD    C4712035   4.987   0.710  -0.968  0.0000  0.0000  0.0000
  596BTD    C4812036   5.002   0.569  -1.032  0.0000  0.0000  0.0000
  596BTD    C4912037   5.016   0.600  -1.183  0.0000  0.0000  0.0000
  596BTD    C5012038   5.112   0.646  -1.296  0.0000  0.0000  0.0000
  596BTD    C7512039   4.813   0.976  -0.583  0.0000  0.0000  0.0000
  596BTD    C7612040   4.665   0.946  -0.548  0.0000  0.0000  0.0000
  596BTD    C7712041   4.656   0.858  -0.421  0.0000  0.0000  0.0000
  596BTD    C7812042   4.515   0.804  -0.385  0.0000  0.0000  0.0000
  596BTD    C7912043   4.579   1.073  -0.527  0.0000  0.0000  0.0000
  596BTD    C8012044   4.607   1.161  -0.403  0.0000  0.0000  0.0000
  596BTD    C8112045   4.515   1.287  -0.409  0.0000  0.0000  0.0000
  596BTD    C8212046   4.546   1.412  -0.496  0.0000  0.0000  0.0000
  597TTP     S112047   4.517   0.777  -1.205  0.0000  0.0000  0.0000
  597TTP     S512048   4.615   0.459  -0.949  0.0000  0.0000  0.0000
  597TTP     C112049   4.519   0.395  -1.080  0.0000  0.0000  0.0000
  597TTP     C212050   4.481   0.493  -1.169  0.0000  0.0000  0.0000
  597TTP     C312051   4.536   0.615  -1.135  0.0000  0.0000  0.0000
  597TTP     C412052   4.601   0.838  -1.074  0.0000  0.0000  0.0000
  597TTP    C1712053   4.652   0.748  -0.983  0.0000  0.0000  0.0000
  597TTP    C1812054   4.608   0.613  -1.023  0.0000  0.0000  0.0000
  597TTP    C3212055   4.395   0.475  -1.297  0.0000  0.0000  0.0000
  597TTP    C3312056   4.486   0.441  -1.418  0.0000  0.0000  0.0000
  597TTP    C3412057   4.393   0.418  -1.540  0.0000  0.0000  0.0000
  597TTP    C3512058   4.451   0.348  -1.664  0.0000  0.0000  0.0000
  597TTP    C3612059   4.357   0.254  -1.745  0.0000  0.0000  0.0000
  597TTP    C3712060   4.237   0.318  -1.822  0.0000  0.0000  0.0000
  597TTP    C3812061   4.157   0.450  -1.834  0.0000  0.0000  0.0000
  597TTP    C3912062   4.075   0.500  -1.712  0.0000  0.0000  0.0000
  597TTP    C4012063   4.016   0.397  -1.611  0.0000  0.0000  0.0000
  597TTP    C4112064   4.029   0.424  -1.458  0.0000  0.0000  0.0000
  597TTP    C4212065   4.010   0.302  -1.363  0.0000  0.0000  0.0000
  598TTP     S112066   4.821   1.446  -0.762  0.0000  0.0000  0.0000
  598TTP     S512067   5.023   1.243  -0.453  0.0000  0.0000  0.0000
  598TTP     C112068   5.054   1.416  -0.432  0.0000  0.0000  0.0000
  598TTP     C212069   4.990   1.490  -0.533  0.0000  0.0000  0.0000
  598TTP     C312070   4.913   1.410  -0.617  0.0000  0.0000  0.0000
  598TTP     C412071   4.798   1.275  -0.783  0.0000  0.0000  0.0000
  598TTP    C1712072   4.852   1.200  -0.679  0.0000  0.0000  0.0000
  598TTP    C1812073   4.923   1.277  -0.583  0.0000  0.0000  0.0000
  598TTP    C3212074   4.982   1.645  -0.539  0.0000  0.0000  0.0000
  598TTP    C3312075   4.877   1.712  -0.446  0.0000  0.0000  0.0000
  598TTP    C3412076   4.870   1.866  -0.461  0.0000  0.0000  0.0000
  598TTP    C3512077   4.761   1.917  -0.363  0.0000  0.0000  0.0000
  598TTP    C3612078   4.777   2.071  -0.358  0.0000  0.0000  0.0000
  598TTP    C3712079   4.744   2.109  -0.505  0.0000  0.0000  0.0000
  598TTP    C3812080   4.739   2.263  -0.535  0.0000  0.0000  0.0000
  598TTP    C3912081   4.677   2.313  -0.667  0.0000  0.0000  0.0000
  598TTP    C4012082   4.768   2.381  -0.774  0.0000  0.0000  0.0000
  598TTP    C4112083   4.843   2.512  -0.739  0.0000  0.0000  0.0000
  598TTP    C4212084   4.865   2.620  -0.848  0.0000  0.0000  0.0000
  599FIC     F112085   4.548  -0.231  -0.557  0.0000  0.0000  0.0000
  599FIC     F212086   4.439  -0.385  -0.748  0.0000  0.0000  0.0000
  599FIC     O112087   4.603   0.228  -0.817  0.0000  0.0000  0.0000
  599FIC     N512088   4.287  -0.273  -1.193  0.0000  0.0000  0.0000
  599FIC     N612089   4.335   0.108  -1.372  0.0000  0.0000  0.0000
  599FIC    C1912090   4.475   0.258  -1.090  0.0000  0.0000  0.0000
  599FIC    C2012091   4.484   0.147  -1.010  0.0000  0.0000  0.0000
  599FIC    C2112092   4.546   0.140  -0.882  0.0000  0.0000  0.0000
  599FIC    C2212093   4.522   0.005  -0.828  0.0000  0.0000  0.0000
  599FIC    C2312094   4.551  -0.044  -0.698  0.0000  0.0000  0.0000
  599FIC    C2412095   4.523  -0.173  -0.673  0.0000  0.0000  0.0000
  599FIC    C2512096   4.463  -0.252  -0.783  0.0000  0.0000  0.0000
  599FIC    C2612097   4.427  -0.208  -0.899  0.0000  0.0000  0.0000
  599FIC    C2712098   4.462  -0.073  -0.927  0.0000  0.0000  0.0000
  599FIC    C2812099   4.438   0.014  -1.043  0.0000  0.0000  0.0000
  599FIC    C2912100   4.378  -0.029  -1.160  0.0000  0.0000  0.0000
  599FIC    C3012101   4.330  -0.173  -1.172  0.0000  0.0000  0.0000
  599FIC    C3112102   4.360   0.048  -1.279  0.0000  0.0000  0.0000
  600FIC     F112103   5.511   1.094   0.160  0.0000  0.0000  0.0000
  600FIC     F212104   5.558   1.336   0.241  0.0000  0.0000  0.0000
  600FIC     O112105   5.199   1.188  -0.263  0.0000  0.0000  0.0000
  600FIC     N512106   5.381   1.757   0.091  0.0000  0.0000  0.0000
  600FIC     N612107   5.190   1.812  -0.287  0.0000  0.0000  0.0000
  600FIC    C1912108   5.131   1.474  -0.330  0.0000  0.0000  0.0000
  600FIC    C2012109   5.210   1.428  -0.231  0.0000  0.0000  0.0000
  600FIC    C2112110   5.242   1.282  -0.199  0.0000  0.0000  0.0000
  600FIC    C2212111   5.321   1.280  -0.083  0.0000  0.0000  0.0000
  600FIC    C2312112   5.377   1.169  -0.017  0.0000  0.0000  0.0000
  600FIC    C2412113   5.453   1.186   0.093  0.0000  0.0000  0.0000
  600FIC    C2512114   5.482   1.315   0.135  0.0000  0.0000  0.0000
  600FIC    C2612115   5.427   1.434   0.077  0.0000  0.0000  0.0000
  600FIC    C2712116   5.344   1.413  -0.036  0.0000  0.0000  0.0000
  600FIC    C2812117   5.277   1.502  -0.128  0.0000  0.0000  0.0000
  600FIC    C2912118   5.282   1.642  -0.116  0.0000  0.0000  0.0000
  600FIC    C3012119   5.339   1.706   0.003  0.0000  0.0000  0.0000
  600FIC    C3112120   5.226   1.736  -0.209  0.0000  0.0000  0.0000
  601BTD     S212121   5.394   7.386   4.192  0.0000  0.0000  0.0000
  601BTD     N112122   5.381   7.550   4.187  0.0000  0.0000  0.0000
  601BTD     N212123   5.329   7.346   4.049  0.0000  0.0000  0.0000
  601BTD     N312124   5.128   7.593   3.700  0.0000  0.0000  0.0000
  601BTD     N412125   5.184   7.865   3.892  0.0000  0.0000  0.0000
  601BTD     C512126   5.285   7.706   4.031  0.0000  0.0000  0.0000
  601BTD     C612127   5.325   7.578   4.075  0.0000  0.0000  0.0000
  601BTD     C712128   5.296   7.463   3.995  0.0000  0.0000  0.0000
  601BTD     C812129   5.229   7.480   3.870  0.0000  0.0000  0.0000
  601BTD    C1512130   5.193   7.608   3.820  0.0000  0.0000  0.0000
  601BTD    C1612131   5.212   7.729   3.906  0.0000  0.0000  0.0000
  601BTD    C4312132   5.081   7.930   3.815  0.0000  0.0000  0.0000
  601BTD    C4412133   4.939   7.878   3.852  0.0000  0.0000  0.0000
  601BTD    C4512134   4.901   7.853   4.001  0.0000  0.0000  0.0000
  601BTD    C4612135   4.895   7.985   4.083  0.0000  0.0000  0.0000
  601BTD    C4712136   4.823   7.958   3.786  0.0000  0.0000  0.0000
  601BTD    C4812137   4.806   7.952   3.632  0.0000  0.0000  0.0000
  601BTD    C4912138   4.717   8.058   3.560  0.0000  0.0000  0.0000
  601BTD    C5012139   4.738   8.083   3.408  0.0000  0.0000  0.0000
  601BTD    C7512140   5.116   7.691   3.581  0.0000  0.0000  0.0000
  601BTD    C7612141   5.254   7.755   3.546  0.0000  0.0000  0.0000
  601BTD    C7712142   5.253   7.841   3.417  0.0000  0.0000  0.0000
  601BTD    C7812143   5.108   7.809   3.372  0.0000  0.0000  0.0000
  601BTD    C7912144   5.375   7.661   3.528  0.0000  0.0000  0.0000
  601BTD    C8012145   5.354   7.529   3.449  0.0000  0.0000  0.0000
  601BTD    C8112146   5.450   7.410   3.473  0.0000  0.0000  0.0000
  601BTD    C8212147   5.582   7.405   3.390  0.0000  0.0000  0.0000
  602TTP     S112148   5.360   7.905   4.230  0.0000  0.0000  0.0000
  602TTP     S512149   5.177   8.212   4.011  0.0000  0.0000  0.0000
  602TTP     C112150   5.236   8.282   4.157  0.0000  0.0000  0.0000
  602TTP     C212151   5.297   8.191   4.235  0.0000  0.0000  0.0000
  602TTP     C312152   5.299   8.060   4.183  0.0000  0.0000  0.0000
  602TTP     C412153   5.294   7.834   4.088  0.0000  0.0000  0.0000
  602TTP    C1712154   5.234   7.926   4.003  0.0000  0.0000  0.0000
  602TTP    C1812155   5.233   8.059   4.055  0.0000  0.0000  0.0000
  602TTP    C3212156   5.355   8.215   4.376  0.0000  0.0000  0.0000
  602TTP    C3312157   5.507   8.200   4.399  0.0000  0.0000  0.0000
  602TTP    C3412158   5.565   8.235   4.538  0.0000  0.0000  0.0000
  602TTP    C3512159   5.718   8.229   4.509  0.0000  0.0000  0.0000
  602TTP    C3612160   5.764   8.376   4.485  0.0000  0.0000  0.0000
  602TTP    C3712161   5.696   8.489   4.567  0.0000  0.0000  0.0000
  602TTP    C3812162   5.780   8.609   4.619  0.0000  0.0000  0.0000
  602TTP    C3912163   5.670   8.654   4.717  0.0000  0.0000  0.0000
  602TTP    C4012164   5.715   8.695   4.861  0.0000  0.0000  0.0000
  602TTP    C4112165   5.634   8.803   4.938  0.0000  0.0000  0.0000
  602TTP    C4212166   5.696   8.869   5.064  0.0000  0.0000  0.0000
  603TTP     S112167   5.196   7.215   3.746  0.0000  0.0000  0.0000
  603TTP     S512168   4.974   7.390   3.435  0.0000  0.0000  0.0000
  603TTP     C112169   4.968   7.215   3.418  0.0000  0.0000  0.0000
  603TTP     C212170   5.039   7.150   3.514  0.0000  0.0000  0.0000
  603TTP     C312171   5.100   7.238   3.603  0.0000  0.0000  0.0000
  603TTP     C412172   5.194   7.385   3.772  0.0000  0.0000  0.0000
  603TTP    C1712173   5.131   7.457   3.669  0.0000  0.0000  0.0000
  603TTP    C1812174   5.072   7.372   3.574  0.0000  0.0000  0.0000
  603TTP    C3212175   5.057   6.996   3.523  0.0000  0.0000  0.0000
  603TTP    C3312176   5.175   6.943   3.435  0.0000  0.0000  0.0000
  603TTP    C3412177   5.193   6.790   3.440  0.0000  0.0000  0.0000
  603TTP    C3512178   5.221   6.747   3.587  0.0000  0.0000  0.0000
  603TTP    C3612179   5.235   6.596   3.619  0.0000  0.0000  0.0000
  603TTP    C3712180   5.112   6.502   3.605  0.0000  0.0000  0.0000
  603TTP    C3812181   5.198   6.375   3.633  0.0000  0.0000  0.0000
  603TTP    C3912182   5.104   6.275   3.562  0.0000  0.0000  0.0000
  603TTP    C4012183   5.098   6.277   3.406  0.0000  0.0000  0.0000
  603TTP    C4112184   4.991   6.364   3.335  0.0000  0.0000  0.0000
  603TTP    C4212185   5.026   6.508   3.285  0.0000  0.0000  0.0000
  604FIC     F112186   4.904   8.931   3.785  0.0000  0.0000  0.0000
  604FIC     F212187   4.945   9.067   4.014  0.0000  0.0000  0.0000
  604FIC     O112188   5.114   8.455   3.922  0.0000  0.0000  0.0000
  604FIC     N512189   5.153   8.938   4.423  0.0000  0.0000  0.0000
  604FIC     N612190   5.324   8.541   4.512  0.0000  0.0000  0.0000
  604FIC    C1912191   5.219   8.417   4.199  0.0000  0.0000  0.0000
  604FIC    C2012192   5.167   8.531   4.147  0.0000  0.0000  0.0000
  604FIC    C2112193   5.112   8.542   4.013  0.0000  0.0000  0.0000
  604FIC    C2212194   5.066   8.681   3.998  0.0000  0.0000  0.0000
  604FIC    C2312195   5.005   8.735   3.881  0.0000  0.0000  0.0000
  604FIC    C2412196   4.963   8.868   3.902  0.0000  0.0000  0.0000
  604FIC    C2512197   4.983   8.936   4.014  0.0000  0.0000  0.0000
  604FIC    C2612198   5.040   8.882   4.119  0.0000  0.0000  0.0000
  604FIC    C2712199   5.083   8.754   4.106  0.0000  0.0000  0.0000
  604FIC    C2812200   5.151   8.662   4.207  0.0000  0.0000  0.0000
  604FIC    C2912201   5.193   8.690   4.348  0.0000  0.0000  0.0000
  604FIC    C3012202   5.173   8.834   4.387  0.0000  0.0000  0.0000
  604FIC    C3112203   5.260   8.604   4.443  0.0000  0.0000  0.0000
  605FIC     F112204   4.509   7.487   2.805  0.0000  0.0000  0.0000
  605FIC     F212205   4.455   7.236   2.742  0.0000  0.0000  0.0000
  605FIC     O112206   4.830   7.424   3.221  0.0000  0.0000  0.0000
  605FIC     N512207   4.604   6.822   2.948  0.0000  0.0000  0.0000
  605FIC     N612208   4.798   6.805   3.322  0.0000  0.0000  0.0000
  605FIC    C1912209   4.891   7.144   3.320  0.0000  0.0000  0.0000
  605FIC    C2012210   4.810   7.181   3.218  0.0000  0.0000  0.0000
  605FIC    C2112211   4.785   7.322   3.175  0.0000  0.0000  0.0000
  605FIC    C2212212   4.700   7.313   3.055  0.0000  0.0000  0.0000
  605FIC    C2312213   4.648   7.420   2.982  0.0000  0.0000  0.0000
  605FIC    C2412214   4.572   7.389   2.878  0.0000  0.0000  0.0000
  605FIC    C2512215   4.540   7.256   2.845  0.0000  0.0000  0.0000
  605FIC    C2612216   4.588   7.153   2.919  0.0000  0.0000  0.0000
  605FIC    C2712217   4.670   7.182   3.024  0.0000  0.0000  0.0000
  605FIC    C2812218   4.734   7.096   3.128  0.0000  0.0000  0.0000
  605FIC    C2912219   4.721   6.958   3.133  0.0000  0.0000  0.0000
  605FIC    C3012220   4.656   6.884   3.031  0.0000  0.0000  0.0000
  605FIC    C3112221   4.765   6.875   3.242  0.0000  0.0000  0.0000
  606BTD     S212222   4.268   7.378   1.797  0.0000  0.0000  0.0000
  606BTD     N112223   4.257   7.539   1.808  0.0000  0.0000  0.0000
  606BTD     N212224   4.347   7.346   1.934  0.0000  0.0000  0.0000
  606BTD     N312225   4.516   7.608   2.296  0.0000  0.0000  0.0000
  606BTD     N412226   4.403   7.868   2.118  0.0000  0.0000  0.0000
  606BTD     C512227   4.333   7.704   1.977  0.0000  0.0000  0.0000
  606BTD     C612228   4.316   7.574   1.921  0.0000  0.0000  0.0000
  606BTD     C712229   4.367   7.463   1.994  0.0000  0.0000  0.0000
  606BTD     C812230   4.428   7.484   2.119  0.0000  0.0000  0.0000
  606BTD    C1512231   4.447   7.617   2.172  0.0000  0.0000  0.0000
  606BTD    C1612232   4.399   7.729   2.095  0.0000  0.0000  0.0000
  606BTD    C4312233   4.491   7.945   2.207  0.0000  0.0000  0.0000
  606BTD    C4412234   4.644   7.935   2.177  0.0000  0.0000  0.0000
  606BTD    C4512235   4.716   8.034   2.271  0.0000  0.0000  0.0000
  606BTD    C4612236   4.866   7.992   2.270  0.0000  0.0000  0.0000
  606BTD    C4712237   4.677   7.962   2.027  0.0000  0.0000  0.0000
  606BTD    C4812238   4.691   8.103   1.964  0.0000  0.0000  0.0000
  606BTD    C4912239   4.705   8.071   1.813  0.0000  0.0000  0.0000
  606BTD    C5012240   4.802   8.025   1.699  0.0000  0.0000  0.0000
  606BTD    C7512241   4.503   7.696   2.412  0.0000  0.0000  0.0000
  606BTD    C7612242   4.354   7.726   2.448  0.0000  0.0000  0.0000
  606BTD    C7712243   4.345   7.814   2.575  0.0000  0.0000  0.0000
  606BTD    C7812244   4.204   7.867   2.610  0.0000  0.0000  0.0000
  606BTD    C7912245   4.269   7.599   2.468  0.0000  0.0000  0.0000
  606BTD    C8012246   4.296   7.510   2.592  0.0000  0.0000  0.0000
  606BTD    C8112247   4.204   7.385   2.587  0.0000  0.0000  0.0000
  606BTD    C8212248   4.235   7.259   2.500  0.0000  0.0000  0.0000
  607TTP     S112249   4.206   7.894   1.790  0.0000  0.0000  0.0000
  607TTP     S512250   4.305   8.213   2.047  0.0000  0.0000  0.0000
  607TTP     C112251   4.208   8.276   1.915  0.0000  0.0000  0.0000
  607TTP     C212252   4.170   8.179   1.827  0.0000  0.0000  0.0000
  607TTP     C312253   4.226   8.056   1.860  0.0000  0.0000  0.0000
  607TTP     C412254   4.291   7.833   1.921  0.0000  0.0000  0.0000
  607TTP    C1712255   4.342   7.924   2.012  0.0000  0.0000  0.0000
  607TTP    C1812256   4.298   8.058   1.972  0.0000  0.0000  0.0000
  607TTP    C3212257   4.085   8.196   1.699  0.0000  0.0000  0.0000
  607TTP    C3312258   4.175   8.230   1.577  0.0000  0.0000  0.0000
  607TTP    C3412259   4.082   8.253   1.456  0.0000  0.0000  0.0000
  607TTP    C3512260   4.141   8.324   1.331  0.0000  0.0000  0.0000
  607TTP    C3612261   4.046   8.418   1.250  0.0000  0.0000  0.0000
  607TTP    C3712262   3.927   8.354   1.173  0.0000  0.0000  0.0000
  607TTP    C3812263   3.846   8.222   1.161  0.0000  0.0000  0.0000
  607TTP    C3912264   3.764   8.172   1.284  0.0000  0.0000  0.0000
  607TTP    C4012265   3.705   8.274   1.384  0.0000  0.0000  0.0000
  607TTP    C4112266   3.718   8.248   1.537  0.0000  0.0000  0.0000
  607TTP    C4212267   3.700   8.369   1.632  0.0000  0.0000  0.0000
  608TTP     S112268   4.511   7.225   2.234  0.0000  0.0000  0.0000
  608TTP     S512269   4.713   7.428   2.542  0.0000  0.0000  0.0000
  608TTP     C112270   4.744   7.255   2.564  0.0000  0.0000  0.0000
  608TTP     C212271   4.679   7.181   2.463  0.0000  0.0000  0.0000
  608TTP     C312272   4.602   7.261   2.379  0.0000  0.0000  0.0000
  608TTP     C412273   4.488   7.397   2.213  0.0000  0.0000  0.0000
  608TTP    C1712274   4.542   7.472   2.317  0.0000  0.0000  0.0000
  608TTP    C1812275   4.612   7.395   2.412  0.0000  0.0000  0.0000
  608TTP    C3212276   4.672   7.027   2.456  0.0000  0.0000  0.0000
  608TTP    C3312277   4.567   6.960   2.550  0.0000  0.0000  0.0000
  608TTP    C3412278   4.560   6.805   2.534  0.0000  0.0000  0.0000
  608TTP    C3512279   4.451   6.755   2.632  0.0000  0.0000  0.0000
  608TTP    C3612280   4.467   6.601   2.638  0.0000  0.0000  0.0000
  608TTP    C3712281   4.434   6.563   2.490  0.0000  0.0000  0.0000
  608TTP    C3812282   4.428   6.409   2.461  0.0000  0.0000  0.0000
  608TTP    C3912283   4.366   6.358   2.329  0.0000  0.0000  0.0000
  608TTP    C4012284   4.457   6.290   2.222  0.0000  0.0000  0.0000
  608TTP    C4112285   4.532   6.159   2.256  0.0000  0.0000  0.0000
  608TTP    C4212286   4.554   6.052   2.147  0.0000  0.0000  0.0000
  609FIC     F112287   4.238   8.903   2.439  0.0000  0.0000  0.0000
  609FIC     F212288   4.129   9.057   2.247  0.0000  0.0000  0.0000
  609FIC     O112289   4.292   8.444   2.178  0.0000  0.0000  0.0000
  609FIC     N512290   3.976   8.944   1.802  0.0000  0.0000  0.0000
  609FIC     N612291   4.024   8.563   1.623  0.0000  0.0000  0.0000
  609FIC    C1912292   4.164   8.413   1.905  0.0000  0.0000  0.0000
  609FIC    C2012293   4.173   8.524   1.986  0.0000  0.0000  0.0000
  609FIC    C2112294   4.236   8.532   2.113  0.0000  0.0000  0.0000
  609FIC    C2212295   4.211   8.666   2.167  0.0000  0.0000  0.0000
  609FIC    C2312296   4.241   8.716   2.298  0.0000  0.0000  0.0000
  609FIC    C2412297   4.212   8.845   2.322  0.0000  0.0000  0.0000
  609FIC    C2512298   4.152   8.924   2.213  0.0000  0.0000  0.0000
  609FIC    C2612299   4.116   8.879   2.096  0.0000  0.0000  0.0000
  609FIC    C2712300   4.151   8.744   2.068  0.0000  0.0000  0.0000
  609FIC    C2812301   4.127   8.658   1.952  0.0000  0.0000  0.0000
  609FIC    C2912302   4.067   8.701   1.836  0.0000  0.0000  0.0000
  609FIC    C3012303   4.019   8.844   1.823  0.0000  0.0000  0.0000
  609FIC    C3112304   4.050   8.623   1.717  0.0000  0.0000  0.0000
  610FIC     F112305   5.200   7.578   3.155  0.0000  0.0000  0.0000
  610FIC     F212306   5.247   7.335   3.236  0.0000  0.0000  0.0000
  610FIC     O112307   4.888   7.484   2.733  0.0000  0.0000  0.0000
  610FIC     N512308   5.070   6.915   3.086  0.0000  0.0000  0.0000
  610FIC     N612309   4.880   6.860   2.708  0.0000  0.0000  0.0000
  610FIC    C1912310   4.820   7.197   2.665  0.0000  0.0000  0.0000
  610FIC    C2012311   4.900   7.243   2.764  0.0000  0.0000  0.0000
  610FIC    C2112312   4.931   7.390   2.797  0.0000  0.0000  0.0000
  610FIC    C2212313   5.010   7.392   2.912  0.0000  0.0000  0.0000
  610FIC    C2312314   5.067   7.502   2.979  0.0000  0.0000  0.0000
  610FIC    C2412315   5.143   7.485   3.088  0.0000  0.0000  0.0000
  610FIC    C2512316   5.172   7.356   3.131  0.0000  0.0000  0.0000
  610FIC    C2612317   5.116   7.237   3.072  0.0000  0.0000  0.0000
  610FIC    C2712318   5.033   7.259   2.960  0.0000  0.0000  0.0000
  610FIC    C2812319   4.967   7.169   2.867  0.0000  0.0000  0.0000
  610FIC    C2912320   4.971   7.030   2.879  0.0000  0.0000  0.0000
  610FIC    C3012321   5.028   6.965   2.998  0.0000  0.0000  0.0000
  610FIC    C3112322   4.915   6.936   2.786  0.0000  0.0000  0.0000
  611BTD     S212323   3.262   4.176  -0.198  0.0000  0.0000  0.0000
  611BTD     N112324   3.275   4.012  -0.193  0.0000  0.0000  0.0000
  611BTD     N212325   3.327   4.216  -0.055  0.0000  0.0000  0.0000
  611BTD     N312326   3.528   3.969   0.294  0.0000  0.0000  0.0000
  611BTD     N412327   3.472   3.697   0.102  0.0000  0.0000  0.0000
  611BTD     C512328   3.371   3.856  -0.037  0.0000  0.0000  0.0000
  611BTD     C612329   3.331   3.984  -0.081  0.0000  0.0000  0.0000
  611BTD     C712330   3.360   4.099  -0.001  0.0000  0.0000  0.0000
  611BTD     C812331   3.427   4.082   0.124  0.0000  0.0000  0.0000
  611BTD    C1512332   3.463   3.954   0.174  0.0000  0.0000  0.0000
  611BTD    C1612333   3.444   3.833   0.088  0.0000  0.0000  0.0000
  611BTD    C4312334   3.575   3.632   0.179  0.0000  0.0000  0.0000
  611BTD    C4412335   3.717   3.684   0.142  0.0000  0.0000  0.0000
  611BTD    C4512336   3.755   3.709  -0.007  0.0000  0.0000  0.0000
  611BTD    C4612337   3.761   3.577  -0.089  0.0000  0.0000  0.0000
  611BTD    C4712338   3.833   3.604   0.208  0.0000  0.0000  0.0000
  611BTD    C4812339   3.850   3.610   0.362  0.0000  0.0000  0.0000
  611BTD    C4912340   3.939   3.504   0.434  0.0000  0.0000  0.0000
  611BTD    C5012341   3.918   3.479   0.586  0.0000  0.0000  0.0000
  611BTD    C7512342   3.540   3.871   0.413  0.0000  0.0000  0.0000
  611BTD    C7612343   3.402   3.807   0.448  0.0000  0.0000  0.0000
  611BTD    C7712344   3.403   3.721   0.577  0.0000  0.0000  0.0000
  611BTD    C7812345   3.548   3.753   0.622  0.0000  0.0000  0.0000
  611BTD    C7912346   3.281   3.901   0.466  0.0000  0.0000  0.0000
  611BTD    C8012347   3.302   4.033   0.545  0.0000  0.0000  0.0000
  611BTD    C8112348   3.206   4.152   0.521  0.0000  0.0000  0.0000
  611BTD    C8212349   3.074   4.157   0.604  0.0000  0.0000  0.0000
  612TTP     S112350   3.296   3.657  -0.236  0.0000  0.0000  0.0000
  612TTP     S512351   3.479   3.350  -0.017  0.0000  0.0000  0.0000
  612TTP     C112352   3.420   3.280  -0.163  0.0000  0.0000  0.0000
  612TTP     C212353   3.359   3.371  -0.241  0.0000  0.0000  0.0000
  612TTP     C312354   3.357   3.502  -0.189  0.0000  0.0000  0.0000
  612TTP     C412355   3.362   3.728  -0.094  0.0000  0.0000  0.0000
  612TTP    C1712356   3.422   3.636  -0.009  0.0000  0.0000  0.0000
  612TTP    C1812357   3.423   3.503  -0.061  0.0000  0.0000  0.0000
  612TTP    C3212358   3.301   3.347  -0.382  0.0000  0.0000  0.0000
  612TTP    C3312359   3.149   3.362  -0.405  0.0000  0.0000  0.0000
  612TTP    C3412360   3.091   3.327  -0.544  0.0000  0.0000  0.0000
  612TTP    C3512361   2.938   3.333  -0.515  0.0000  0.0000  0.0000
  612TTP    C3612362   2.892   3.186  -0.491  0.0000  0.0000  0.0000
  612TTP    C3712363   2.960   3.073  -0.573  0.0000  0.0000  0.0000
  612TTP    C3812364   2.876   2.953  -0.625  0.0000  0.0000  0.0000
  612TTP    C3912365   2.986   2.908  -0.723  0.0000  0.0000  0.0000
  612TTP    C4012366   2.941   2.867  -0.867  0.0000  0.0000  0.0000
  612TTP    C4112367   3.022   2.759  -0.944  0.0000  0.0000  0.0000
  612TTP    C4212368   2.960   2.693  -1.070  0.0000  0.0000  0.0000
  613TTP     S112369   3.460   4.347   0.248  0.0000  0.0000  0.0000
  613TTP     S512370   3.682   4.172   0.559  0.0000  0.0000  0.0000
  613TTP     C112371   3.688   4.347   0.576  0.0000  0.0000  0.0000
  613TTP     C212372   3.617   4.412   0.480  0.0000  0.0000  0.0000
  613TTP     C312373   3.556   4.324   0.391  0.0000  0.0000  0.0000
  613TTP     C412374   3.462   4.177   0.222  0.0000  0.0000  0.0000
  613TTP    C1712375   3.525   4.105   0.325  0.0000  0.0000  0.0000
  613TTP    C1812376   3.584   4.190   0.420  0.0000  0.0000  0.0000
  613TTP    C3212377   3.599   4.566   0.471  0.0000  0.0000  0.0000
  613TTP    C3312378   3.481   4.619   0.559  0.0000  0.0000  0.0000
  613TTP    C3412379   3.463   4.772   0.554  0.0000  0.0000  0.0000
  613TTP    C3512380   3.435   4.815   0.407  0.0000  0.0000  0.0000
  613TTP    C3612381   3.421   4.966   0.375  0.0000  0.0000  0.0000
  613TTP    C3712382   3.544   5.060   0.389  0.0000  0.0000  0.0000
  613TTP    C3812383   3.458   5.187   0.361  0.0000  0.0000  0.0000
  613TTP    C3912384   3.552   5.287   0.432  0.0000  0.0000  0.0000
  613TTP    C4012385   3.558   5.285   0.588  0.0000  0.0000  0.0000
  613TTP    C4112386   3.665   5.198   0.659  0.0000  0.0000  0.0000
  613TTP    C4212387   3.630   5.054   0.709  0.0000  0.0000  0.0000
  614FIC     F112388   3.752   2.631   0.209  0.0000  0.0000  0.0000
  614FIC     F212389   3.711   2.495  -0.020  0.0000  0.0000  0.0000
  614FIC     O112390   3.542   3.107   0.072  0.0000  0.0000  0.0000
  614FIC     N512391   3.503   2.624  -0.429  0.0000  0.0000  0.0000
  614FIC     N612392   3.332   3.021  -0.518  0.0000  0.0000  0.0000
  614FIC    C1912393   3.437   3.145  -0.205  0.0000  0.0000  0.0000
  614FIC    C2012394   3.489   3.031  -0.153  0.0000  0.0000  0.0000
  614FIC    C2112395   3.544   3.020  -0.019  0.0000  0.0000  0.0000
  614FIC    C2212396   3.590   2.881  -0.004  0.0000  0.0000  0.0000
  614FIC    C2312397   3.651   2.827   0.113  0.0000  0.0000  0.0000
  614FIC    C2412398   3.693   2.694   0.092  0.0000  0.0000  0.0000
  614FIC    C2512399   3.673   2.626  -0.020  0.0000  0.0000  0.0000
  614FIC    C2612400   3.616   2.680  -0.125  0.0000  0.0000  0.0000
  614FIC    C2712401   3.573   2.808  -0.112  0.0000  0.0000  0.0000
  614FIC    C2812402   3.505   2.900  -0.213  0.0000  0.0000  0.0000
  614FIC    C2912403   3.463   2.872  -0.354  0.0000  0.0000  0.0000
  614FIC    C3012404   3.484   2.728  -0.393  0.0000  0.0000  0.0000
  614FIC    C3112405   3.396   2.958  -0.449  0.0000  0.0000  0.0000
  615FIC     F112406   4.147   4.075   1.189  0.0000  0.0000  0.0000
  615FIC     F212407   4.201   4.326   1.252  0.0000  0.0000  0.0000
  615FIC     O112408   3.826   4.138   0.773  0.0000  0.0000  0.0000
  615FIC     N512409   4.052   4.740   1.046  0.0000  0.0000  0.0000
  615FIC     N612410   3.858   4.757   0.672  0.0000  0.0000  0.0000
  615FIC    C1912411   3.765   4.418   0.674  0.0000  0.0000  0.0000
  615FIC    C2012412   3.846   4.381   0.776  0.0000  0.0000  0.0000
  615FIC    C2112413   3.871   4.240   0.819  0.0000  0.0000  0.0000
  615FIC    C2212414   3.956   4.249   0.939  0.0000  0.0000  0.0000
  615FIC    C2312415   4.008   4.142   1.012  0.0000  0.0000  0.0000
  615FIC    C2412416   4.084   4.173   1.116  0.0000  0.0000  0.0000
  615FIC    C2512417   4.116   4.306   1.149  0.0000  0.0000  0.0000
  615FIC    C2612418   4.068   4.409   1.075  0.0000  0.0000  0.0000
  615FIC    C2712419   3.986   4.380   0.970  0.0000  0.0000  0.0000
  615FIC    C2812420   3.922   4.466   0.866  0.0000  0.0000  0.0000
  615FIC    C2912421   3.935   4.604   0.861  0.0000  0.0000  0.0000
  615FIC    C3012422   4.000   4.678   0.963  0.0000  0.0000  0.0000
  615FIC    C3112423   3.891   4.687   0.752  0.0000  0.0000  0.0000
  616BTD     S212424   4.388   4.184   2.197  0.0000  0.0000  0.0000
  616BTD     N112425   4.399   4.023   2.186  0.0000  0.0000  0.0000
  616BTD     N212426   4.309   4.216   2.060  0.0000  0.0000  0.0000
  616BTD     N312427   4.140   3.954   1.698  0.0000  0.0000  0.0000
  616BTD     N412428   4.253   3.694   1.876  0.0000  0.0000  0.0000
  616BTD     C512429   4.323   3.858   2.017  0.0000  0.0000  0.0000
  616BTD     C612430   4.340   3.988   2.073  0.0000  0.0000  0.0000
  616BTD     C712431   4.289   4.099   2.000  0.0000  0.0000  0.0000
  616BTD     C812432   4.228   4.078   1.875  0.0000  0.0000  0.0000
  616BTD    C1512433   4.209   3.945   1.822  0.0000  0.0000  0.0000
  616BTD    C1612434   4.257   3.833   1.899  0.0000  0.0000  0.0000
  616BTD    C4312435   4.165   3.617   1.787  0.0000  0.0000  0.0000
  616BTD    C4412436   4.012   3.627   1.817  0.0000  0.0000  0.0000
  616BTD    C4512437   3.940   3.528   1.723  0.0000  0.0000  0.0000
  616BTD    C4612438   3.790   3.570   1.724  0.0000  0.0000  0.0000
  616BTD    C4712439   3.979   3.600   1.967  0.0000  0.0000  0.0000
  616BTD    C4812440   3.965   3.459   2.030  0.0000  0.0000  0.0000
  616BTD    C4912441   3.951   3.491   2.181  0.0000  0.0000  0.0000
  616BTD    C5012442   3.854   3.537   2.295  0.0000  0.0000  0.0000
  616BTD    C7512443   4.153   3.866   1.582  0.0000  0.0000  0.0000
  616BTD    C7612444   4.302   3.836   1.546  0.0000  0.0000  0.0000
  616BTD    C7712445   4.311   3.748   1.419  0.0000  0.0000  0.0000
  616BTD    C7812446   4.452   3.695   1.384  0.0000  0.0000  0.0000
  616BTD    C7912447   4.387   3.963   1.526  0.0000  0.0000  0.0000
  616BTD    C8012448   4.360   4.052   1.402  0.0000  0.0000  0.0000
  616BTD    C8112449   4.452   4.177   1.407  0.0000  0.0000  0.0000
  616BTD    C8212450   4.421   4.303   1.494  0.0000  0.0000  0.0000
  617TTP     S112451   4.450   3.668   2.204  0.0000  0.0000  0.0000
  617TTP     S512452   4.351   3.349   1.947  0.0000  0.0000  0.0000
  617TTP     C112453   4.448   3.286   2.079  0.0000  0.0000  0.0000
  617TTP     C212454   4.486   3.383   2.167  0.0000  0.0000  0.0000
  617TTP     C312455   4.430   3.506   2.134  0.0000  0.0000  0.0000
  617TTP     C412456   4.365   3.729   2.073  0.0000  0.0000  0.0000
  617TTP    C1712457   4.314   3.638   1.982  0.0000  0.0000  0.0000
  617TTP    C1812458   4.358   3.504   2.022  0.0000  0.0000  0.0000
  617TTP    C3212459   4.571   3.366   2.295  0.0000  0.0000  0.0000
  617TTP    C3312460   4.481   3.332   2.417  0.0000  0.0000  0.0000
  617TTP    C3412461   4.574   3.309   2.538  0.0000  0.0000  0.0000
  617TTP    C3512462   4.515   3.238   2.663  0.0000  0.0000  0.0000
  617TTP    C3612463   4.610   3.144   2.744  0.0000  0.0000  0.0000
  617TTP    C3712464   4.729   3.208   2.821  0.0000  0.0000  0.0000
  617TTP    C3812465   4.810   3.340   2.833  0.0000  0.0000  0.0000
  617TTP    C3912466   4.892   3.390   2.710  0.0000  0.0000  0.0000
  617TTP    C4012467   4.951   3.288   2.610  0.0000  0.0000  0.0000
  617TTP    C4112468   4.938   3.314   2.457  0.0000  0.0000  0.0000
  617TTP    C4212469   4.956   3.193   2.362  0.0000  0.0000  0.0000
  618TTP     S112470   4.145   4.337   1.760  0.0000  0.0000  0.0000
  618TTP     S512471   3.943   4.134   1.452  0.0000  0.0000  0.0000
  618TTP     C112472   3.912   4.307   1.430  0.0000  0.0000  0.0000
  618TTP     C212473   3.977   4.381   1.531  0.0000  0.0000  0.0000
  618TTP     C312474   4.054   4.301   1.615  0.0000  0.0000  0.0000
  618TTP     C412475   4.168   4.165   1.781  0.0000  0.0000  0.0000
  618TTP    C1712476   4.114   4.090   1.677  0.0000  0.0000  0.0000
  618TTP    C1812477   4.044   4.167   1.582  0.0000  0.0000  0.0000
  618TTP    C3212478   3.984   4.535   1.538  0.0000  0.0000  0.0000
  618TTP    C3312479   4.090   4.602   1.444  0.0000  0.0000  0.0000
  618TTP    C3412480   4.096   4.757   1.460  0.0000  0.0000  0.0000
  618TTP    C3512481   4.205   4.807   1.362  0.0000  0.0000  0.0000
  618TTP    C3612482   4.189   4.961   1.356  0.0000  0.0000  0.0000
  618TTP    C3712483   4.222   4.999   1.504  0.0000  0.0000  0.0000
  618TTP    C3812484   4.228   5.153   1.533  0.0000  0.0000  0.0000
  618TTP    C3912485   4.290   5.204   1.665  0.0000  0.0000  0.0000
  618TTP    C4012486   4.199   5.272   1.772  0.0000  0.0000  0.0000
  618TTP    C4112487   4.124   5.403   1.738  0.0000  0.0000  0.0000
  618TTP    C4212488   4.102   5.510   1.847  0.0000  0.0000  0.0000
  619FIC     F112489   4.418   2.659   1.555  0.0000  0.0000  0.0000
  619FIC     F212490   4.527   2.505   1.747  0.0000  0.0000  0.0000
  619FIC     O112491   4.364   3.118   1.816  0.0000  0.0000  0.0000
  619FIC     N512492   4.680   2.618   2.192  0.0000  0.0000  0.0000
  619FIC     N612493   4.632   2.999   2.371  0.0000  0.0000  0.0000
  619FIC    C1912494   4.492   3.149   2.089  0.0000  0.0000  0.0000
  619FIC    C2012495   4.483   3.038   2.008  0.0000  0.0000  0.0000
  619FIC    C2112496   4.420   3.030   1.881  0.0000  0.0000  0.0000
  619FIC    C2212497   4.445   2.896   1.827  0.0000  0.0000  0.0000
  619FIC    C2312498   4.415   2.846   1.696  0.0000  0.0000  0.0000
  619FIC    C2412499   4.444   2.717   1.672  0.0000  0.0000  0.0000
  619FIC    C2512500   4.504   2.638   1.781  0.0000  0.0000  0.0000
  619FIC    C2612501   4.540   2.683   1.898  0.0000  0.0000  0.0000
  619FIC    C2712502   4.505   2.818   1.926  0.0000  0.0000  0.0000
  619FIC    C2812503   4.529   2.904   2.042  0.0000  0.0000  0.0000
  619FIC    C2912504   4.589   2.861   2.158  0.0000  0.0000  0.0000
  619FIC    C3012505   4.637   2.718   2.171  0.0000  0.0000  0.0000
  619FIC    C3112506   4.606   2.939   2.277  0.0000  0.0000  0.0000
  620FIC     F112507   3.456   3.984   0.839  0.0000  0.0000  0.0000
  620FIC     F212508   3.409   4.227   0.758  0.0000  0.0000  0.0000
  620FIC     O112509   3.768   4.078   1.261  0.0000  0.0000  0.0000
  620FIC     N512510   3.586   4.647   0.908  0.0000  0.0000  0.0000
  620FIC     N612511   3.776   4.702   1.286  0.0000  0.0000  0.0000
  620FIC    C1912512   3.836   4.365   1.329  0.0000  0.0000  0.0000
  620FIC    C2012513   3.756   4.319   1.230  0.0000  0.0000  0.0000
  620FIC    C2112514   3.725   4.172   1.197  0.0000  0.0000  0.0000
  620FIC    C2212515   3.646   4.170   1.082  0.0000  0.0000  0.0000
  620FIC    C2312516   3.589   4.060   1.015  0.0000  0.0000  0.0000
  620FIC    C2412517   3.513   4.077   0.906  0.0000  0.0000  0.0000
  620FIC    C2512518   3.484   4.206   0.863  0.0000  0.0000  0.0000
  620FIC    C2612519   3.540   4.325   0.922  0.0000  0.0000  0.0000
  620FIC    C2712520   3.623   4.303   1.034  0.0000  0.0000  0.0000
  620FIC    C2812521   3.689   4.393   1.127  0.0000  0.0000  0.0000
  620FIC    C2912522   3.685   4.532   1.115  0.0000  0.0000  0.0000
  620FIC    C3012523   3.628   4.597   0.996  0.0000  0.0000  0.0000
  620FIC    C3112524   3.741   4.626   1.208  0.0000  0.0000  0.0000
  621BTD     S212525   3.158  10.276   0.801  0.0000  0.0000  0.0000
  621BTD     N112526   3.172  10.441   0.805  0.0000  0.0000  0.0000
  621BTD     N212527   3.223  10.237   0.943  0.0000  0.0000  0.0000
  621BTD     N312528   3.425  10.484   1.293  0.0000  0.0000  0.0000
  621BTD     N412529   3.368  10.755   1.100  0.0000  0.0000  0.0000
  621BTD     C512530   3.268  10.596   0.962  0.0000  0.0000  0.0000
  621BTD     C612531   3.228  10.468   0.918  0.0000  0.0000  0.0000
  621BTD     C712532   3.257  10.354   0.998  0.0000  0.0000  0.0000
  621BTD     C812533   3.323  10.371   1.122  0.0000  0.0000  0.0000
  621BTD    C1512534   3.359  10.498   1.172  0.0000  0.0000  0.0000
  621BTD    C1612535   3.341  10.620   1.087  0.0000  0.0000  0.0000
  621BTD    C4312536   3.472  10.821   1.177  0.0000  0.0000  0.0000
  621BTD    C4412537   3.614  10.769   1.141  0.0000  0.0000  0.0000
  621BTD    C4512538   3.652  10.744   0.991  0.0000  0.0000  0.0000
  621BTD    C4612539   3.657  10.875   0.910  0.0000  0.0000  0.0000
  621BTD    C4712540   3.729  10.849   1.207  0.0000  0.0000  0.0000
  621BTD    C4812541   3.747  10.843   1.360  0.0000  0.0000  0.0000
  621BTD    C4912542   3.835  10.949   1.432  0.0000  0.0000  0.0000
  621BTD    C5012543   3.815  10.973   1.584  0.0000  0.0000  0.0000
  621BTD    C7512544   3.436  10.582   1.411  0.0000  0.0000  0.0000
  621BTD    C7612545   3.298  10.645   1.446  0.0000  0.0000  0.0000
  621BTD    C7712546   3.300  10.731   1.575  0.0000  0.0000  0.0000
  621BTD    C7812547   3.444  10.700   1.621  0.0000  0.0000  0.0000
  621BTD    C7912548   3.177  10.551   1.465  0.0000  0.0000  0.0000
  621BTD    C8012549   3.198  10.420   1.544  0.0000  0.0000  0.0000
  621BTD    C8112550   3.102  10.300   1.519  0.0000  0.0000  0.0000
  621BTD    C8212551   2.971  10.296   1.603  0.0000  0.0000  0.0000
  622TTP     S112552   3.193  10.796   0.763  0.0000  0.0000  0.0000
  622TTP     S512553   3.376  11.103   0.981  0.0000  0.0000  0.0000
  622TTP     C112554   3.316  11.173   0.835  0.0000  0.0000  0.0000
  622TTP     C212555   3.256  11.081   0.758  0.0000  0.0000  0.0000
  622TTP     C312556   3.254  10.951   0.809  0.0000  0.0000  0.0000
  622TTP     C412557   3.258  10.725   0.905  0.0000  0.0000  0.0000
  622TTP    C1712558   3.319  10.817   0.989  0.0000  0.0000  0.0000
  622TTP    C1812559   3.320  10.949   0.937  0.0000  0.0000  0.0000
  622TTP    C3212560   3.198  11.106   0.616  0.0000  0.0000  0.0000
  622TTP    C3312561   3.045  11.091   0.594  0.0000  0.0000  0.0000
  622TTP    C3412562   2.987  11.126   0.454  0.0000  0.0000  0.0000
  622TTP    C3512563   2.835  11.120   0.483  0.0000  0.0000  0.0000
  622TTP    C3612564   2.788  11.266   0.508  0.0000  0.0000  0.0000
  622TTP    C3712565   2.857  11.380   0.425  0.0000  0.0000  0.0000
  622TTP    C3812566   2.772  11.499   0.374  0.0000  0.0000  0.0000
  622TTP    C3912567   2.882  11.544   0.276  0.0000  0.0000  0.0000
  622TTP    C4012568   2.838  11.586   0.132  0.0000  0.0000  0.0000
  622TTP    C4112569   2.919  11.694   0.054  0.0000  0.0000  0.0000
  622TTP    C4212570   2.856  11.759  -0.072  0.0000  0.0000  0.0000
  623TTP     S112571   3.357  10.105   1.247  0.0000  0.0000  0.0000
  623TTP     S512572   3.579  10.281   1.557  0.0000  0.0000  0.0000
  623TTP     C112573   3.585  10.105   1.575  0.0000  0.0000  0.0000
  623TTP     C212574   3.514  10.040   1.479  0.0000  0.0000  0.0000
  623TTP     C312575   3.453  10.128   1.390  0.0000  0.0000  0.0000
  623TTP     C412576   3.359  10.276   1.221  0.0000  0.0000  0.0000
  623TTP    C1712577   3.422  10.347   1.323  0.0000  0.0000  0.0000
  623TTP    C1812578   3.480  10.263   1.419  0.0000  0.0000  0.0000
  623TTP    C3212579   3.495   9.886   1.469  0.0000  0.0000  0.0000
  623TTP    C3312580   3.378   9.833   1.557  0.0000  0.0000  0.0000
  623TTP    C3412581   3.360   9.680   1.552  0.0000  0.0000  0.0000
  623TTP    C3512582   3.331   9.637   1.406  0.0000  0.0000  0.0000
  623TTP    C3612583   3.318   9.486   1.373  0.0000  0.0000  0.0000
  623TTP    C3712584   3.441   9.393   1.388  0.0000  0.0000  0.0000
  623TTP    C3812585   3.355   9.266   1.359  0.0000  0.0000  0.0000
  623TTP    C3912586   3.448   9.165   1.431  0.0000  0.0000  0.0000
  623TTP    C4012587   3.455   9.168   1.586  0.0000  0.0000  0.0000
  623TTP    C4112588   3.561   9.255   1.658  0.0000  0.0000  0.0000
  623TTP    C4212589   3.527   9.398   1.707  0.0000  0.0000  0.0000
  624FIC     F112590   3.649  11.822   1.208  0.0000  0.0000  0.0000
  624FIC     F212591   3.608  11.957   0.979  0.0000  0.0000  0.0000
  624FIC     O112592   3.439  11.346   1.071  0.0000  0.0000  0.0000
  624FIC     N512593   3.400  11.829   0.569  0.0000  0.0000  0.0000
  624FIC     N612594   3.228  11.432   0.481  0.0000  0.0000  0.0000
  624FIC    C1912595   3.333  11.307   0.793  0.0000  0.0000  0.0000
  624FIC    C2012596   3.385  11.421   0.845  0.0000  0.0000  0.0000
  624FIC    C2112597   3.440  11.432   0.979  0.0000  0.0000  0.0000
  624FIC    C2212598   3.487  11.571   0.995  0.0000  0.0000  0.0000
  624FIC    C2312599   3.548  11.625   1.112  0.0000  0.0000  0.0000
  624FIC    C2412600   3.589  11.759   1.090  0.0000  0.0000  0.0000
  624FIC    C2512601   3.570  11.826   0.978  0.0000  0.0000  0.0000
  624FIC    C2612602   3.512  11.772   0.873  0.0000  0.0000  0.0000
  624FIC    C2712603   3.469  11.644   0.886  0.0000  0.0000  0.0000
  624FIC    C2812604   3.401  11.553   0.786  0.0000  0.0000  0.0000
  624FIC    C2912605   3.359  11.581   0.644  0.0000  0.0000  0.0000
  624FIC    C3012606   3.380  11.725   0.605  0.0000  0.0000  0.0000
  624FIC    C3112607   3.293  11.495   0.549  0.0000  0.0000  0.0000
  625FIC     F112608   4.043  10.378   2.188  0.0000  0.0000  0.0000
  625FIC     F212609   4.098  10.126   2.250  0.0000  0.0000  0.0000
  625FIC     O112610   3.723  10.314   1.771  0.0000  0.0000  0.0000
  625FIC     N512611   3.949   9.712   2.044  0.0000  0.0000  0.0000
  625FIC     N612612   3.754   9.696   1.671  0.0000  0.0000  0.0000
  625FIC    C1912613   3.661  10.035   1.673  0.0000  0.0000  0.0000
  625FIC    C2012614   3.743  10.072   1.775  0.0000  0.0000  0.0000
  625FIC    C2112615   3.768  10.212   1.817  0.0000  0.0000  0.0000
  625FIC    C2212616   3.852  10.204   1.937  0.0000  0.0000  0.0000
  625FIC    C2312617   3.905  10.310   2.010  0.0000  0.0000  0.0000
  625FIC    C2412618   3.980  10.280   2.115  0.0000  0.0000  0.0000
  625FIC    C2512619   4.013  10.147   2.147  0.0000  0.0000  0.0000
  625FIC    C2612620   3.964  10.043   2.073  0.0000  0.0000  0.0000
  625FIC    C2712621   3.883  10.072   1.969  0.0000  0.0000  0.0000
  625FIC    C2812622   3.818   9.986   1.864  0.0000  0.0000  0.0000
  625FIC    C2912623   3.832   9.848   1.860  0.0000  0.0000  0.0000
  625FIC    C3012624   3.896   9.774   1.961  0.0000  0.0000  0.0000
  625FIC    C3112625   3.787   9.766   1.751  0.0000  0.0000  0.0000
  626BTD     S212626   4.285  10.268   3.196  0.0000  0.0000  0.0000
  626BTD     N112627   4.295  10.429   3.185  0.0000  0.0000  0.0000
  626BTD     N212628   4.206  10.237   3.058  0.0000  0.0000  0.0000
  626BTD     N312629   4.036  10.499   2.697  0.0000  0.0000  0.0000
  626BTD     N412630   4.150  10.759   2.874  0.0000  0.0000  0.0000
  626BTD     C512631   4.220  10.595   3.016  0.0000  0.0000  0.0000
  626BTD     C612632   4.237  10.464   3.072  0.0000  0.0000  0.0000
  626BTD     C712633   4.186  10.354   2.998  0.0000  0.0000  0.0000
  626BTD     C812634   4.124  10.375   2.874  0.0000  0.0000  0.0000
  626BTD    C1512635   4.105  10.508   2.821  0.0000  0.0000  0.0000
  626BTD    C1612636   4.153  10.619   2.897  0.0000  0.0000  0.0000
  626BTD    C4312637   4.061  10.836   2.786  0.0000  0.0000  0.0000
  626BTD    C4412638   3.909  10.826   2.816  0.0000  0.0000  0.0000
  626BTD    C4512639   3.836  10.925   2.721  0.0000  0.0000  0.0000
  626BTD    C4612640   3.686  10.883   2.723  0.0000  0.0000  0.0000
  626BTD    C4712641   3.876  10.852   2.965  0.0000  0.0000  0.0000
  626BTD    C4812642   3.861  10.993   3.029  0.0000  0.0000  0.0000
  626BTD    C4912643   3.847  10.962   3.180  0.0000  0.0000  0.0000
  626BTD    C5012644   3.751  10.916   3.293  0.0000  0.0000  0.0000
  626BTD    C7512645   4.050  10.586   2.580  0.0000  0.0000  0.0000
  626BTD    C7612646   4.198  10.616   2.545  0.0000  0.0000  0.0000
  626BTD    C7712647   4.207  10.704   2.418  0.0000  0.0000  0.0000
  626BTD    C7812648   4.348  10.758   2.382  0.0000  0.0000  0.0000
  626BTD    C7912649   4.284  10.489   2.524  0.0000  0.0000  0.0000
  626BTD    C8012650   4.256  10.401   2.400  0.0000  0.0000  0.0000
  626BTD    C8112651   4.348  10.275   2.406  0.0000  0.0000  0.0000
  626BTD    C8212652   4.317  10.150   2.493  0.0000  0.0000  0.0000
  627TTP     S112653   4.346  10.785   3.202  0.0000  0.0000  0.0000
  627TTP     S512654   4.248  11.103   2.946  0.0000  0.0000  0.0000
  627TTP     C112655   4.344  11.167   3.077  0.0000  0.0000  0.0000
  627TTP     C212656   4.382  11.069   3.166  0.0000  0.0000  0.0000
  627TTP     C312657   4.327  10.947   3.132  0.0000  0.0000  0.0000
  627TTP     C412658   4.262  10.724   3.071  0.0000  0.0000  0.0000
  627TTP    C1712659   4.211  10.814   2.980  0.0000  0.0000  0.0000
  627TTP    C1812660   4.255  10.949   3.020  0.0000  0.0000  0.0000
  627TTP    C3212661   4.468  11.087   3.294  0.0000  0.0000  0.0000
  627TTP    C3312662   4.377  11.121   3.415  0.0000  0.0000  0.0000
  627TTP    C3412663   4.470  11.144   3.537  0.0000  0.0000  0.0000
  627TTP    C3512664   4.412  11.214   3.661  0.0000  0.0000  0.0000
  627TTP    C3612665   4.506  11.308   3.742  0.0000  0.0000  0.0000
  627TTP    C3712666   4.626  11.244   3.819  0.0000  0.0000  0.0000
  627TTP    C3812667   4.706  11.112   3.831  0.0000  0.0000  0.0000
  627TTP    C3912668   4.788  11.062   3.709  0.0000  0.0000  0.0000
  627TTP    C4012669   4.847  11.165   3.608  0.0000  0.0000  0.0000
  627TTP    C4112670   4.834  11.138   3.455  0.0000  0.0000  0.0000
  627TTP    C4212671   4.853  11.260   3.360  0.0000  0.0000  0.0000
  628TTP     S112672   4.042  10.116   2.759  0.0000  0.0000  0.0000
  628TTP     S512673   3.840  10.319   2.450  0.0000  0.0000  0.0000
  628TTP     C112674   3.809  10.146   2.429  0.0000  0.0000  0.0000
  628TTP     C212675   3.873  10.072   2.530  0.0000  0.0000  0.0000
  628TTP     C312676   3.950  10.152   2.614  0.0000  0.0000  0.0000
  628TTP     C412677   4.065  10.287   2.780  0.0000  0.0000  0.0000
  628TTP    C1712678   4.011  10.362   2.676  0.0000  0.0000  0.0000
  628TTP    C1812679   3.940  10.285   2.580  0.0000  0.0000  0.0000
  628TTP    C3212680   3.881   9.917   2.536  0.0000  0.0000  0.0000
  628TTP    C3312681   3.986   9.850   2.443  0.0000  0.0000  0.0000
  628TTP    C3412682   3.993   9.696   2.458  0.0000  0.0000  0.0000
  628TTP    C3512683   4.102   9.645   2.360  0.0000  0.0000  0.0000
  628TTP    C3612684   4.086   9.491   2.355  0.0000  0.0000  0.0000
  628TTP    C3712685   4.119   9.453   2.502  0.0000  0.0000  0.0000
  628TTP    C3812686   4.124   9.299   2.532  0.0000  0.0000  0.0000
  628TTP    C3912687   4.186   9.249   2.664  0.0000  0.0000  0.0000
  628TTP    C4012688   4.095   9.181   2.771  0.0000  0.0000  0.0000
  628TTP    C4112689   4.020   9.050   2.736  0.0000  0.0000  0.0000
  628TTP    C4212690   3.998   8.942   2.845  0.0000  0.0000  0.0000
  629FIC     F112691   4.315  11.793   2.554  0.0000  0.0000  0.0000
  629FIC     F212692   4.424  11.947   2.745  0.0000  0.0000  0.0000
  629FIC     O112693   4.260  11.334   2.814  0.0000  0.0000  0.0000
  629FIC     N512694   4.576  11.835   3.190  0.0000  0.0000  0.0000
  629FIC     N612695   4.528  11.454   3.369  0.0000  0.0000  0.0000
  629FIC    C1912696   4.388  11.304   3.087  0.0000  0.0000  0.0000
  629FIC    C2012697   4.379  11.415   3.007  0.0000  0.0000  0.0000
  629FIC    C2112698   4.317  11.422   2.879  0.0000  0.0000  0.0000
  629FIC    C2212699   4.341  11.557   2.825  0.0000  0.0000  0.0000
  629FIC    C2312700   4.312  11.606   2.695  0.0000  0.0000  0.0000
  629FIC    C2412701   4.340  11.735   2.670  0.0000  0.0000  0.0000
  629FIC    C2512702   4.400  11.814   2.780  0.0000  0.0000  0.0000
  629FIC    C2612703   4.436  11.770   2.896  0.0000  0.0000  0.0000
  629FIC    C2712704   4.401  11.635   2.924  0.0000  0.0000  0.0000
  629FIC    C2812705   4.425  11.548   3.040  0.0000  0.0000  0.0000
  629FIC    C2912706   4.485  11.591   3.157  0.0000  0.0000  0.0000
  629FIC    C3012707   4.533  11.735   3.169  0.0000  0.0000  0.0000
  629FIC    C3112708   4.503  11.514   3.276  0.0000  0.0000  0.0000
  630FIC     F112709   3.352  10.468   1.837  0.0000  0.0000  0.0000
  630FIC     F212710   3.305  10.226   1.756  0.0000  0.0000  0.0000
  630FIC     O112711   3.664  10.374   2.260  0.0000  0.0000  0.0000
  630FIC     N512712   3.482   9.805   1.906  0.0000  0.0000  0.0000
  630FIC     N612713   3.673   9.750   2.284  0.0000  0.0000  0.0000
  630FIC    C1912714   3.732  10.088   2.327  0.0000  0.0000  0.0000
  630FIC    C2012715   3.653  10.134   2.228  0.0000  0.0000  0.0000
  630FIC    C2112716   3.621  10.280   2.196  0.0000  0.0000  0.0000
  630FIC    C2212717   3.542  10.282   2.080  0.0000  0.0000  0.0000
  630FIC    C2312718   3.486  10.393   2.014  0.0000  0.0000  0.0000
  630FIC    C2412719   3.410  10.376   1.904  0.0000  0.0000  0.0000
  630FIC    C2512720   3.381  10.247   1.862  0.0000  0.0000  0.0000
  630FIC    C2612721   3.436  10.128   1.920  0.0000  0.0000  0.0000
  630FIC    C2712722   3.519  10.149   2.033  0.0000  0.0000  0.0000
  630FIC    C2812723   3.586  10.060   2.125  0.0000  0.0000  0.0000
  630FIC    C2912724   3.581   9.920   2.113  0.0000  0.0000  0.0000
  630FIC    C3012725   3.524   9.856   1.994  0.0000  0.0000  0.0000
  630FIC    C3112726   3.637   9.826   2.206  0.0000  0.0000  0.0000
  631BTD     S212727   5.498   1.286   3.193  0.0000  0.0000  0.0000
  631BTD     N112728   5.484   1.121   3.189  0.0000  0.0000  0.0000
  631BTD     N212729   5.433   1.325   3.051  0.0000  0.0000  0.0000
  631BTD     N312730   5.231   1.078   2.701  0.0000  0.0000  0.0000
  631BTD     N412731   5.288   0.807   2.894  0.0000  0.0000  0.0000
  631BTD     C512732   5.388   0.966   3.032  0.0000  0.0000  0.0000
  631BTD     C612733   5.428   1.094   3.076  0.0000  0.0000  0.0000
  631BTD     C712734   5.399   1.208   2.996  0.0000  0.0000  0.0000
  631BTD     C812735   5.333   1.191   2.872  0.0000  0.0000  0.0000
  631BTD    C1512736   5.297   1.064   2.822  0.0000  0.0000  0.0000
  631BTD    C1612737   5.315   0.942   2.907  0.0000  0.0000  0.0000
  631BTD    C4312738   5.184   0.741   2.817  0.0000  0.0000  0.0000
  631BTD    C4412739   5.042   0.793   2.853  0.0000  0.0000  0.0000
  631BTD    C4512740   5.004   0.818   3.003  0.0000  0.0000  0.0000
  631BTD    C4612741   4.999   0.687   3.084  0.0000  0.0000  0.0000
  631BTD    C4712742   4.927   0.713   2.787  0.0000  0.0000  0.0000
  631BTD    C4812743   4.909   0.719   2.634  0.0000  0.0000  0.0000
  631BTD    C4912744   4.821   0.613   2.562  0.0000  0.0000  0.0000
  631BTD    C5012745   4.841   0.589   2.410  0.0000  0.0000  0.0000
  631BTD    C7512746   5.220   0.980   2.583  0.0000  0.0000  0.0000
  631BTD    C7612747   5.358   0.917   2.548  0.0000  0.0000  0.0000
  631BTD    C7712748   5.356   0.831   2.419  0.0000  0.0000  0.0000
  631BTD    C7812749   5.212   0.862   2.373  0.0000  0.0000  0.0000
  631BTD    C7912750   5.479   1.011   2.529  0.0000  0.0000  0.0000
  631BTD    C8012751   5.458   1.142   2.450  0.0000  0.0000  0.0000
  631BTD    C8112752   5.554   1.262   2.475  0.0000  0.0000  0.0000
  631BTD    C8212753   5.685   1.266   2.391  0.0000  0.0000  0.0000
  632TTP     S112754   5.463   0.766   3.231  0.0000  0.0000  0.0000
  632TTP     S512755   5.280   0.459   3.013  0.0000  0.0000  0.0000
  632TTP     C112756   5.340   0.389   3.159  0.0000  0.0000  0.0000
  632TTP     C212757   5.400   0.481   3.236  0.0000  0.0000  0.0000
  632TTP     C312758   5.402   0.611   3.185  0.0000  0.0000  0.0000
  632TTP     C412759   5.398   0.837   3.089  0.0000  0.0000  0.0000
  632TTP    C1712760   5.337   0.745   3.005  0.0000  0.0000  0.0000
  632TTP    C1812761   5.336   0.613   3.057  0.0000  0.0000  0.0000
  632TTP    C3212762   5.458   0.456   3.378  0.0000  0.0000  0.0000
  632TTP    C3312763   5.611   0.471   3.400  0.0000  0.0000  0.0000
  632TTP    C3412764   5.669   0.436   3.540  0.0000  0.0000  0.0000
  632TTP    C3512765   5.821   0.442   3.511  0.0000  0.0000  0.0000
  632TTP    C3612766   5.868   0.296   3.486  0.0000  0.0000  0.0000
  632TTP    C3712767   5.799   0.182   3.569  0.0000  0.0000  0.0000
  632TTP    C3812768   5.884   0.063   3.620  0.0000  0.0000  0.0000
  632TTP    C3912769   5.774   0.018   3.718  0.0000  0.0000  0.0000
  632TTP    C4012770   5.818  -0.024   3.862  0.0000  0.0000  0.0000
  632TTP    C4112771   5.737  -0.132   3.940  0.0000  0.0000  0.0000
  632TTP    C4212772   5.800  -0.197   4.066  0.0000  0.0000  0.0000
  633TTP     S112773   5.299   1.457   2.747  0.0000  0.0000  0.0000
  633TTP     S512774   5.077   1.281   2.437  0.0000  0.0000  0.0000
  633TTP     C112775   5.071   1.457   2.419  0.0000  0.0000  0.0000
  633TTP     C212776   5.142   1.522   2.515  0.0000  0.0000  0.0000
  633TTP     C312777   5.203   1.434   2.604  0.0000  0.0000  0.0000
  633TTP     C412778   5.297   1.286   2.773  0.0000  0.0000  0.0000
  633TTP    C1712779   5.234   1.215   2.671  0.0000  0.0000  0.0000
  633TTP    C1812780   5.176   1.299   2.575  0.0000  0.0000  0.0000
  633TTP    C3212781   5.161   1.676   2.525  0.0000  0.0000  0.0000
  633TTP    C3312782   5.278   1.729   2.437  0.0000  0.0000  0.0000
  633TTP    C3412783   5.296   1.882   2.442  0.0000  0.0000  0.0000
  633TTP    C3512784   5.325   1.925   2.588  0.0000  0.0000  0.0000
  633TTP    C3612785   5.338   2.076   2.621  0.0000  0.0000  0.0000
  633TTP    C3712786   5.215   2.169   2.606  0.0000  0.0000  0.0000
  633TTP    C3812787   5.301   2.296   2.635  0.0000  0.0000  0.0000
  633TTP    C3912788   5.208   2.397   2.563  0.0000  0.0000  0.0000
  633TTP    C4012789   5.201   2.394   2.408  0.0000  0.0000  0.0000
  633TTP    C4112790   5.095   2.307   2.336  0.0000  0.0000  0.0000
  633TTP    C4212791   5.129   2.164   2.287  0.0000  0.0000  0.0000
  634FIC     F112792   5.007  -0.260   2.786  0.0000  0.0000  0.0000
  634FIC     F212793   5.048  -0.395   3.015  0.0000  0.0000  0.0000
  634FIC     O112794   5.217   0.216   2.923  0.0000  0.0000  0.0000
  634FIC     N512795   5.256  -0.267   3.425  0.0000  0.0000  0.0000
  634FIC     N612796   5.428   0.130   3.513  0.0000  0.0000  0.0000
  634FIC    C1912797   5.323   0.255   3.201  0.0000  0.0000  0.0000
  634FIC    C2012798   5.271   0.141   3.149  0.0000  0.0000  0.0000
  634FIC    C2112799   5.216   0.130   3.015  0.0000  0.0000  0.0000
  634FIC    C2212800   5.169  -0.009   2.999  0.0000  0.0000  0.0000
  634FIC    C2312801   5.108  -0.063   2.882  0.0000  0.0000  0.0000
  634FIC    C2412802   5.067  -0.197   2.904  0.0000  0.0000  0.0000
  634FIC    C2512803   5.086  -0.264   3.016  0.0000  0.0000  0.0000
  634FIC    C2612804   5.144  -0.210   3.121  0.0000  0.0000  0.0000
  634FIC    C2712805   5.187  -0.082   3.108  0.0000  0.0000  0.0000
  634FIC    C2812806   5.255   0.009   3.208  0.0000  0.0000  0.0000
  634FIC    C2912807   5.297  -0.019   3.350  0.0000  0.0000  0.0000
  634FIC    C3012808   5.276  -0.163   3.389  0.0000  0.0000  0.0000
  634FIC    C3112809   5.363   0.067   3.445  0.0000  0.0000  0.0000
  635FIC     F112810   4.613   1.184   1.806  0.0000  0.0000  0.0000
  635FIC     F212811   4.558   1.436   1.744  0.0000  0.0000  0.0000
  635FIC     O112812   4.933   1.248   2.223  0.0000  0.0000  0.0000
  635FIC     N512813   4.707   1.850   1.950  0.0000  0.0000  0.0000
  635FIC     N612814   4.902   1.866   2.323  0.0000  0.0000  0.0000
  635FIC    C1912815   4.995   1.527   2.321  0.0000  0.0000  0.0000
  635FIC    C2012816   4.913   1.490   2.219  0.0000  0.0000  0.0000
  635FIC    C2112817   4.888   1.350   2.177  0.0000  0.0000  0.0000
  635FIC    C2212818   4.804   1.358   2.057  0.0000  0.0000  0.0000
  635FIC    C2312819   4.751   1.252   1.984  0.0000  0.0000  0.0000
  635FIC    C2412820   4.676   1.282   1.879  0.0000  0.0000  0.0000
  635FIC    C2512821   4.643   1.415   1.847  0.0000  0.0000  0.0000
  635FIC    C2612822   4.692   1.519   1.921  0.0000  0.0000  0.0000
  635FIC    C2712823   4.773   1.490   2.025  0.0000  0.0000  0.0000
  635FIC    C2812824   4.838   1.576   2.130  0.0000  0.0000  0.0000
  635FIC    C2912825   4.824   1.714   2.134  0.0000  0.0000  0.0000
  635FIC    C3012826   4.760   1.788   2.033  0.0000  0.0000  0.0000
  635FIC    C3112827   4.869   1.796   2.243  0.0000  0.0000  0.0000
  636BTD     S212828   4.371   1.294   0.798  0.0000  0.0000  0.0000
  636BTD     N112829   4.361   1.133   0.809  0.0000  0.0000  0.0000
  636BTD     N212830   4.450   1.325   0.936  0.0000  0.0000  0.0000
  636BTD     N312831   4.620   1.063   1.297  0.0000  0.0000  0.0000
  636BTD     N412832   4.506   0.803   1.120  0.0000  0.0000  0.0000
  636BTD     C512833   4.436   0.967   0.978  0.0000  0.0000  0.0000
  636BTD     C612834   4.419   1.098   0.922  0.0000  0.0000  0.0000
  636BTD     C712835   4.470   1.208   0.996  0.0000  0.0000  0.0000
  636BTD     C812836   4.532   1.187   1.120  0.0000  0.0000  0.0000
  636BTD    C1512837   4.551   1.054   1.173  0.0000  0.0000  0.0000
  636BTD    C1612838   4.503   0.943   1.097  0.0000  0.0000  0.0000
  636BTD    C4312839   4.595   0.726   1.208  0.0000  0.0000  0.0000
  636BTD    C4412840   4.747   0.736   1.178  0.0000  0.0000  0.0000
  636BTD    C4512841   4.820   0.637   1.273  0.0000  0.0000  0.0000
  636BTD    C4612842   4.970   0.679   1.271  0.0000  0.0000  0.0000
  636BTD    C4712843   4.780   0.710   1.029  0.0000  0.0000  0.0000
  636BTD    C4812844   4.795   0.569   0.965  0.0000  0.0000  0.0000
  636BTD    C4912845   4.809   0.600   0.814  0.0000  0.0000  0.0000
  636BTD    C5012846   4.905   0.646   0.701  0.0000  0.0000  0.0000
  636BTD    C7512847   4.606   0.976   1.414  0.0000  0.0000  0.0000
  636BTD    C7612848   4.458   0.946   1.449  0.0000  0.0000  0.0000
  636BTD    C7712849   4.449   0.858   1.576  0.0000  0.0000  0.0000
  636BTD    C7812850   4.308   0.804   1.612  0.0000  0.0000  0.0000
  636BTD    C7912851   4.372   1.073   1.470  0.0000  0.0000  0.0000
  636BTD    C8012852   4.400   1.161   1.594  0.0000  0.0000  0.0000
  636BTD    C8112853   4.308   1.287   1.588  0.0000  0.0000  0.0000
  636BTD    C8212854   4.339   1.412   1.501  0.0000  0.0000  0.0000
  637TTP     S112855   4.310   0.777   0.792  0.0000  0.0000  0.0000
  637TTP     S512856   4.408   0.459   1.048  0.0000  0.0000  0.0000
  637TTP     C112857   4.312   0.395   0.917  0.0000  0.0000  0.0000
  637TTP     C212858   4.274   0.493   0.828  0.0000  0.0000  0.0000
  637TTP     C312859   4.329   0.615   0.862  0.0000  0.0000  0.0000
  637TTP     C412860   4.394   0.838   0.923  0.0000  0.0000  0.0000
  637TTP    C1712861   4.445   0.748   1.014  0.0000  0.0000  0.0000
  637TTP    C1812862   4.401   0.613   0.974  0.0000  0.0000  0.0000
  637TTP    C3212863   4.188   0.475   0.700  0.0000  0.0000  0.0000
  637TTP    C3312864   4.279   0.441   0.579  0.0000  0.0000  0.0000
  637TTP    C3412865   4.186   0.418   0.457  0.0000  0.0000  0.0000
  637TTP    C3512866   4.244   0.348   0.333  0.0000  0.0000  0.0000
  637TTP    C3612867   4.150   0.254   0.252  0.0000  0.0000  0.0000
  637TTP    C3712868   4.030   0.318   0.175  0.0000  0.0000  0.0000
  637TTP    C3812869   3.950   0.450   0.163  0.0000  0.0000  0.0000
  637TTP    C3912870   3.868   0.500   0.285  0.0000  0.0000  0.0000
  637TTP    C4012871   3.809   0.397   0.386  0.0000  0.0000  0.0000
  637TTP    C4112872   3.822   0.424   0.539  0.0000  0.0000  0.0000
  637TTP    C4212873   3.803   0.302   0.634  0.0000  0.0000  0.0000
  638TTP     S112874   4.614   1.446   1.235  0.0000  0.0000  0.0000
  638TTP     S512875   4.816   1.243   1.544  0.0000  0.0000  0.0000
  638TTP     C112876   4.847   1.416   1.565  0.0000  0.0000  0.0000
  638TTP     C212877   4.783   1.490   1.464  0.0000  0.0000  0.0000
  638TTP     C312878   4.706   1.410   1.380  0.0000  0.0000  0.0000
  638TTP     C412879   4.591   1.275   1.214  0.0000  0.0000  0.0000
  638TTP    C1712880   4.645   1.200   1.318  0.0000  0.0000  0.0000
  638TTP    C1812881   4.716   1.277   1.414  0.0000  0.0000  0.0000
  638TTP    C3212882   4.775   1.645   1.458  0.0000  0.0000  0.0000
  638TTP    C3312883   4.670   1.712   1.551  0.0000  0.0000  0.0000
  638TTP    C3412884   4.663   1.866   1.536  0.0000  0.0000  0.0000
  638TTP    C3512885   4.554   1.917   1.634  0.0000  0.0000  0.0000
  638TTP    C3612886   4.570   2.071   1.639  0.0000  0.0000  0.0000
  638TTP    C3712887   4.537   2.109   1.492  0.0000  0.0000  0.0000
  638TTP    C3812888   4.532   2.263   1.462  0.0000  0.0000  0.0000
  638TTP    C3912889   4.470   2.313   1.330  0.0000  0.0000  0.0000
  638TTP    C4012890   4.561   2.381   1.223  0.0000  0.0000  0.0000
  638TTP    C4112891   4.636   2.512   1.258  0.0000  0.0000  0.0000
  638TTP    C4212892   4.658   2.620   1.149  0.0000  0.0000  0.0000
  639FIC     F112893   4.341  -0.231   1.440  0.0000  0.0000  0.0000
  639FIC     F212894   4.232  -0.385   1.249  0.0000  0.0000  0.0000
  639FIC     O112895   4.396   0.228   1.180  0.0000  0.0000  0.0000
  639FIC     N512896   4.080  -0.273   0.804  0.0000  0.0000  0.0000
  639FIC     N612897   4.128   0.108   0.625  0.0000  0.0000  0.0000
  639FIC    C1912898   4.268   0.258   0.907  0.0000  0.0000  0.0000
  639FIC    C2012899   4.277   0.147   0.987  0.0000  0.0000  0.0000
  639FIC    C2112900   4.339   0.140   1.115  0.0000  0.0000  0.0000
  639FIC    C2212901   4.315   0.005   1.169  0.0000  0.0000  0.0000
  639FIC    C2312902   4.344  -0.044   1.299  0.0000  0.0000  0.0000
  639FIC    C2412903   4.316  -0.173   1.324  0.0000  0.0000  0.0000
  639FIC    C2512904   4.256  -0.252   1.214  0.0000  0.0000  0.0000
  639FIC    C2612905   4.220  -0.208   1.098  0.0000  0.0000  0.0000
  639FIC    C2712906   4.255  -0.073   1.070  0.0000  0.0000  0.0000
  639FIC    C2812907   4.231   0.014   0.954  0.0000  0.0000  0.0000
  639FIC    C2912908   4.171  -0.029   0.837  0.0000  0.0000  0.0000
  639FIC    C3012909   4.123  -0.173   0.825  0.0000  0.0000  0.0000
  639FIC    C3112910   4.153   0.048   0.718  0.0000  0.0000  0.0000
  640FIC     F112911   5.304   1.094   2.157  0.0000  0.0000  0.0000
  640FIC     F212912   5.351   1.336   2.238  0.0000  0.0000  0.0000
  640FIC     O112913   4.992   1.188   1.734  0.0000  0.0000  0.0000
  640FIC     N512914   5.174   1.757   2.088  0.0000  0.0000  0.0000
  640FIC     N612915   4.983   1.812   1.710  0.0000  0.0000  0.0000
  640FIC    C1912916   4.924   1.474   1.667  0.0000  0.0000  0.0000
  640FIC    C2012917   5.003   1.428   1.766  0.0000  0.0000  0.0000
  640FIC    C2112918   5.035   1.282   1.798  0.0000  0.0000  0.0000
  640FIC    C2212919   5.114   1.280   1.914  0.0000  0.0000  0.0000
  640FIC    C2312920   5.170   1.169   1.980  0.0000  0.0000  0.0000
  640FIC    C2412921   5.246   1.186   2.090  0.0000  0.0000  0.0000
  640FIC    C2512922   5.275   1.315   2.132  0.0000  0.0000  0.0000
  640FIC    C2612923   5.220   1.434   2.074  0.0000  0.0000  0.0000
  640FIC    C2712924   5.137   1.413   1.961  0.0000  0.0000  0.0000
  640FIC    C2812925   5.070   1.502   1.869  0.0000  0.0000  0.0000
  640FIC    C2912926   5.075   1.642   1.881  0.0000  0.0000  0.0000
  640FIC    C3012927   5.132   1.706   2.000  0.0000  0.0000  0.0000
  640FIC    C3112928   5.019   1.736   1.788  0.0000  0.0000  0.0000
   6.04680  11.56240   3.99376   0.00000   0.00000   0.00000   0.00000  -0.41434   0.00000
