y6 natcomm crystal
 8080
    1BTD     S2    1   0.208   1.160   1.500 -0.1034  0.1178 -0.0936
    1BTD     N1    2   0.222   1.149   1.678 -0.2102  0.0736 -0.0884
    1BTD     N2    3   0.218   0.983   1.472  0.0545  0.1334 -0.1423
    1BTD     N3    4   0.262   0.600   1.740  0.1836  0.0854 -0.2320
    1BTD     N4    5   0.266   0.804   1.994 -0.1425  0.0116 -0.1656
    1BTD     C5    6   0.245   0.966   1.840 -0.1709  0.0421 -0.1295
    1BTD     C6    7   0.232   1.020   1.707 -0.1269  0.0727 -0.1215
    1BTD     C7    8   0.230   0.927   1.592  0.0212  0.1063 -0.1517
    1BTD     C8    9   0.241   0.785   1.615  0.1180  0.1075 -0.1883
    1BTD    C15   10   0.253   0.737   1.747  0.0702  0.0768 -0.1949
    1BTD    C16   11   0.255   0.827   1.858 -0.0726  0.0445 -0.1659
    1BTD    C43   12   0.375   0.707   2.042 -0.4150  0.1828 -0.2627
    1BTD    C44   13   0.384   0.652   2.189  0.0392  0.0283  0.3079
    1BTD    C45   14   0.258   0.563   2.211  0.1999  0.0967 -0.5977
    1BTD    C46   15   0.229   0.521   2.352 -0.0146 -0.4298  0.3261
    1BTD    C47   16   0.525   0.593   2.220  0.3429  0.3526  0.4782
    1BTD    C48   17   0.646   0.684   2.218  0.0184  0.5250  0.1207
    1BTD    C49   18   0.786   0.614   2.248 -0.2444  0.6763 -0.0744
    1BTD    C50   19   0.887   0.665   2.143 -0.1070  0.0156  0.0138
    1BTD    C75   20   0.237   0.495   1.844 -0.7146 -0.1974  0.7651
    1BTD    C76   21   0.097   0.448   1.868 -0.9731 -0.0728  0.0975
    1BTD    C77   22   0.010   0.556   1.928  0.1049  0.3722  0.4294
    1BTD    C78   23  -0.146   0.548   1.936  0.2806  0.1264  0.1844
    1BTD    C79   24   0.073   0.316   1.936  0.1329 -0.1565 -0.1643
    1BTD    C80   25   0.136   0.193   1.881  0.0176  0.0872 -0.1139
    1BTD    C81   26   0.093   0.075   1.963  0.8003 -0.1788  0.1171
    1BTD    C82   27   0.167  -0.053   1.924 -0.5489  0.2108  0.0086
    2TTP     S1   28   0.214   1.190   2.045  0.0543 -0.1288 -0.2209
    2TTP     S5   29   0.238   0.900   2.361  0.3507  0.0918 -0.0396
    2TTP     C1   30   0.208   1.063   2.435  0.1083  0.0978 -0.1464
    2TTP     C2   31   0.199   1.163   2.341  0.0025  0.0300 -0.2087
    2TTP     C3   32   0.215   1.113   2.208  0.1090 -0.0291 -0.1744
    2TTP     C4   33   0.243   1.026   1.971  0.2967 -0.1348 -0.1142
    2TTP    C17   34   0.252   0.927   2.064  0.4025 -0.0670 -0.0518
    2TTP    C18   35   0.236   0.977   2.197  0.2959 -0.0079 -0.0862
    2TTP    C32   36   0.160   1.306   2.358 -0.1721 -0.1936 -0.0064
    2TTP    C33   37   0.272   1.401   2.309  0.0557 -0.0147 -0.5184
    2TTP    C34   38   0.240   1.556   2.319 -0.3609 -0.2982  0.3422
    2TTP    C35   39   0.366   1.642   2.290  0.4507 -0.0414  0.2163
    2TTP    C36   40   0.335   1.788   2.283 -0.7543 -0.3209 -0.1441
    2TTP    C37   41   0.459   1.878   2.299  0.3434  0.1498  0.1438
    2TTP    C38   42   0.561   1.862   2.192  0.4987 -0.4484 -0.2535
    2TTP    C39   43   0.653   1.981   2.200  0.6087  0.5572  0.3810
    2TTP    C40   44   0.745   1.972   2.081  0.2617  0.3000  0.4027
    2TTP    C41   45   0.833   2.095   2.082 -0.4652 -0.3970 -0.0511
    2TTP    C42   46   0.938   2.100   1.970 -0.1267  0.0083 -0.8973
    3TTP     S1   47   0.272   0.647   1.355  0.2511 -0.0640  0.1569
    3TTP     S5   48   0.325   0.275   1.565 -0.4723 -0.0366  0.3925
    3TTP     C1   49   0.352   0.245   1.387 -0.2280 -0.1376  0.4453
    3TTP     C2   50   0.337   0.359   1.312  0.0097 -0.1520  0.3756
    3TTP     C3   51   0.304   0.472   1.392  0.0076 -0.0838  0.2781
    3TTP     C4   52   0.245   0.676   1.533  0.0068  0.0370  0.1041
    3TTP    C17   53   0.260   0.563   1.608 -0.2309  0.0514  0.1737
    3TTP    C18   54   0.293   0.449   1.528 -0.2288 -0.0168  0.2713
    3TTP    C32   55   0.349   0.373   1.158 -0.4893  0.1857 -0.8086
    3TTP    C33   56   0.232   0.426   1.086 -0.0186 -0.3203  0.0019
    3TTP    C34   57   0.271   0.464   0.946  0.3060  0.0122  0.3146
    3TTP    C35   58   0.162   0.480   0.841 -0.0590 -0.0398 -0.2747
    3TTP    C36   59   0.213   0.464   0.701  0.1486  0.2213 -0.2516
    3TTP    C37   60   0.109   0.474   0.593  1.0099  0.0534 -0.1795
    3TTP    C38   61   0.160   0.447   0.448 -0.6331 -0.5752  0.3887
    3TTP    C39   62   0.117   0.545   0.335  0.2003 -0.2428  0.2771
    3TTP    C40   63   0.158   0.502   0.191 -0.3350  0.2604  0.0437
    3TTP    C41   64   0.177   0.603   0.092  0.1462 -0.1230  0.2182
    3TTP    C42   65   0.209   0.543  -0.040 -0.0186 -0.0586 -0.4399
    4FIC     F1   66   0.099   0.579   3.096 -0.1187 -0.0262 -0.1177
    4FIC     F2   67   0.073   0.803   3.249 -0.2761 -0.0462 -0.1145
    4FIC     O1   68   0.183   0.798   2.608  0.1202  0.0384 -0.0480
    4FIC     N5   69   0.096   1.280   3.120 -0.3322 -0.0288 -0.0603
    4FIC     N6   70   0.167   1.406   2.708 -0.1138  0.0257 -0.0064
    4FIC    C19   71   0.188   1.089   2.580  0.0546  0.0423 -0.0201
    4FIC    C20   72   0.168   1.025   2.697  0.0007  0.0269 -0.0378
    4FIC    C21   73   0.166   0.875   2.703  0.0394  0.0259 -0.0513
    4FIC    C22   74   0.142   0.839   2.844 -0.0372  0.0072 -0.0691
    4FIC    C23   75   0.133   0.712   2.899 -0.0347 -0.0001 -0.0858
    4FIC    C24   76   0.109   0.702   3.036 -0.1162 -0.0181 -0.1008
    4FIC    C25   77   0.096   0.818   3.114 -0.1972 -0.0283 -0.0991
    4FIC    C26   78   0.105   0.945   3.060 -0.2001 -0.0211 -0.0826
    4FIC    C27   79   0.129   0.957   2.922 -0.1184 -0.0029 -0.0672
    4FIC    C28   80   0.144   1.076   2.835 -0.0983  0.0088 -0.0479
    4FIC    C29   81   0.138   1.207   2.874 -0.1598  0.0036 -0.0407
    4FIC    C30   82   0.115   1.247   3.009 -0.2544 -0.0141 -0.0515
    4FIC    C31   83   0.154   1.316   2.783 -0.1341  0.0158 -0.0219
    5FIC     F1   84   0.460  -0.530   1.645  0.1979  0.0328 -0.0838
    5FIC     F2   85   0.489  -0.605   1.385 -0.2441  0.0411 -0.1372
    5FIC     O1   86   0.377   0.002   1.590  0.3897  0.0815  0.0942
    5FIC     N5   87   0.471  -0.334   0.972 -0.7428  0.0877 -0.0869
    5FIC     N6   88   0.401   0.097   0.981 -0.5037  0.1242  0.0630
    5FIC    C19   89   0.375   0.119   1.321  0.0357  0.1068  0.1065
    5FIC    C20   90   0.395  -0.012   1.346  0.0046  0.0942  0.0638
    5FIC    C21   91   0.394  -0.064   1.486  0.1950  0.0818  0.0603
    5FIC    C22   92   0.418  -0.210   1.477  0.1041  0.0699  0.0092
    5FIC    C23   93   0.427  -0.301   1.581  0.2176  0.0560 -0.0116
    5FIC    C24   94   0.450  -0.434   1.547  0.0961  0.0466 -0.0609
    5FIC    C25   95   0.465  -0.472   1.413 -0.1315  0.0508 -0.0883
    5FIC    C26   96   0.457  -0.381   1.309 -0.2457  0.0646 -0.0678
    5FIC    C27   97   0.433  -0.247   1.341 -0.1256  0.0744 -0.0179
    5FIC    C28   98   0.419  -0.126   1.255 -0.1957  0.0895  0.0146
    5FIC    C29   99   0.428  -0.123   1.118 -0.4064  0.0975  0.0014
    5FIC    C30  100   0.452  -0.239   1.038 -0.5906  0.0921 -0.0471
    5FIC    C31  101   0.413  -0.002   1.043 -0.4587  0.1122  0.0353
    1BTD     S2  102   7.254   0.763   1.489  0.1031 -0.0850  0.2071
    1BTD     N1  103   7.235   0.834   1.654  0.6958  0.0114  0.2387
    1BTD     N2  104   7.247   0.922   1.405 -0.5659 -0.1636  0.1006
    1BTD     N3  105   7.199   1.372   1.530 -0.8594 -0.1498 -0.0595
    1BTD     N4  106   7.184   1.263   1.836  0.6951  0.0658  0.1107
    1BTD     C5  107   7.208   1.059   1.745  0.6765  0.0372  0.1698
    1BTD     C6  108   7.225   0.965   1.638  0.3805 -0.0185  0.1717
    1BTD     C7  109   7.232   1.014   1.499 -0.3257 -0.1164  0.0943
    1BTD     C8  110   7.222   1.156   1.474 -0.7004 -0.1538  0.0190
    1BTD    C15  111   7.206   1.244   1.582 -0.3899 -0.0967  0.0201
    1BTD    C16  112   7.199   1.197   1.716  0.2905 -0.0024  0.0947
    1BTD    C43  113   7.079   1.371   1.855 -1.0613 -0.2169  0.2238
    1BTD    C44  114   7.090   1.476   1.976  0.7647  0.7234  0.4920
    1BTD    C45  115   7.225   1.542   1.982 -0.1755  0.2876 -0.0204
    1BTD    C46  116   7.259   1.638   2.098  0.5042 -0.1117 -0.2385
    1BTD    C47  117   6.969   1.570   1.961  0.6036 -0.3986  0.3582
    1BTD    C48  118   6.830   1.506   1.981  0.3576  0.1778  0.6831
    1BTD    C49  119   6.797   1.441   2.117 -0.0395  0.3295 -0.2941
    1BTD    C50  120   6.774   1.527   2.240  0.1512 -0.4216 -0.3954
    1BTD    C75  121   7.227   1.498   1.602 -0.4347 -0.4715  0.2108
    1BTD    C76  122   7.362   1.562   1.633 -0.4168  0.9926  0.1427
    1BTD    C77  123   7.459   1.471   1.706  0.2771  0.4951  0.0196
    1BTD    C78  124   7.607   1.505   1.686  0.6487 -0.0098  0.2755
    1BTD    C79  125   7.362   1.702   1.692  0.1290  0.1796 -0.3373
    1BTD    C80  126   7.278   1.801   1.612  0.0365 -0.0528  0.0217
    1BTD    C81  127   7.258   1.937   1.684 -0.2330  0.4442 -0.0046
    1BTD    C82  128   7.155   1.946   1.799 -0.5321  0.0598  0.1062
    2TTP     S1  129   7.199   0.905   2.007  0.1720 -0.2735 -0.0224
    2TTP     S5  130   7.170   1.280   2.216  0.0132 -0.1996 -0.1770
    2TTP     C1  131   7.172   1.146   2.338  0.0568 -0.1492 -0.1221
    2TTP     C2  132   7.181   1.022   2.281  0.1084 -0.1690 -0.0712
    2TTP     C3  133   7.186   1.029   2.139  0.1155 -0.2248 -0.0736
    2TTP     C4  134   7.197   1.039   1.885  0.1286 -0.3240 -0.0773
    2TTP    C17  135   7.188   1.163   1.942  0.0770 -0.3041 -0.1283
    2TTP    C18  136   7.182   1.156   2.085  0.0700 -0.2483 -0.1258
    2TTP    C32  137   7.224   0.889   2.348  0.3514  0.1119 -0.2377
    2TTP    C33  138   7.121   0.774   2.334  0.7490 -0.4415  0.8240
    2TTP    C34  139   7.196   0.650   2.331  0.7040  0.6059  0.1770
    2TTP    C35  140   7.118   0.518   2.356 -0.3290 -0.8420 -0.3327
    2TTP    C36  141   7.082   0.496   2.509 -0.8741 -0.7395 -0.2936
    2TTP    C37  142   7.018   0.360   2.537  0.2311 -0.7650 -0.1243
    2TTP    C38  143   6.999   0.315   2.679  0.1335  0.1878 -0.3029
    2TTP    C39  144   7.127   0.321   2.770  0.8639  0.2261 -0.6007
    2TTP    C40  145   7.076   0.271   2.907 -0.5483  0.5376 -0.5340
    2TTP    C41  146   7.178   0.298   3.022  1.1123  0.0330 -0.8732
    2TTP    C42  147   7.121   0.261   3.157 -0.0871 -0.1402 -0.1853
    3TTP     S1  148   7.250   1.207   1.178 -0.1380 -0.1671  0.1205
    3TTP     S5  149   7.199   1.628   1.248  0.3279 -0.1103  0.1221
    3TTP     C1  150   7.210   1.600   1.068  0.2791 -0.1238  0.1212
    3TTP     C2  151   7.226   1.468   1.036  0.1326 -0.1420  0.1207
    3TTP     C3  152   7.231   1.385   1.152  0.0532 -0.1462  0.1209
    3TTP     C4  153   7.239   1.235   1.358 -0.0892 -0.1536  0.1214
    3TTP    C17  154   7.223   1.367   1.390  0.0574 -0.1353  0.1219
    3TTP    C18  155   7.218   1.450   1.274  0.1367 -0.1312  0.1217
    3TTP    C32  156   7.243   1.411   0.898 -0.1042 -0.1749 -0.5270
    3TTP    C33  157   7.382   1.360   0.861 -0.3532 -0.0701  0.1528
    3TTP    C34  158   7.379   1.287   0.731 -0.2767 -0.5915 -0.0047
    3TTP    C35  159   7.513   1.223   0.700 -0.0105  0.1835  0.5069
    3TTP    C36  160   7.513   1.158   0.560 -0.3908  0.5982 -0.5841
    3TTP    C37  161   7.655   1.118   0.520  0.8400 -0.6491  1.0356
    3TTP    C38  162   7.655   0.995   0.427 -0.3358  0.3630 -0.3255
    3TTP    C39  163   7.797   0.953   0.378  0.0684  0.4907  0.2626
    3TTP    C40  164   7.786   0.824   0.301 -0.0450  0.5864  0.7199
    3TTP    C41  165   7.917   0.764   0.250  0.3176 -0.5485  0.2189
    3TTP    C42  166   7.908   0.636   0.172  0.3496  0.4565  0.0471
    4FIC     F1  167   7.139   1.752   2.894 -0.5305  0.0991  0.0263
    4FIC     F2  168   7.119   1.563   3.088 -0.0755  0.0815  0.0586
    4FIC     O1  169   7.174   1.441   2.452 -0.3651  0.1177  0.0263
    4FIC     N5  170   7.115   1.069   3.053  0.6967  0.0693  0.1047
    4FIC     N6  171   7.147   0.865   2.668  0.7340  0.0874  0.0982
    4FIC    C19  172   7.168   1.150   2.480  0.1283  0.1074  0.0570
    4FIC    C20  173   7.160   1.236   2.584  0.0689  0.1034  0.0558
    4FIC    C21  174   7.164   1.384   2.561 -0.1888  0.1092  0.0396
    4FIC    C22  175   7.153   1.447   2.694 -0.1895  0.1027  0.0426
    4FIC    C23  176   7.152   1.583   2.724 -0.3871  0.1048  0.0312
    4FIC    C24  177   7.141   1.619   2.857 -0.3432  0.0976  0.0370
    4FIC    C25  178   7.130   1.522   2.957 -0.1086  0.0885  0.0535
    4FIC    C26  179   7.131   1.386   2.928  0.0893  0.0862  0.0649
    4FIC    C27  180   7.142   1.347   2.794  0.0484  0.0936  0.0592
    4FIC    C28  181   7.146   1.214   2.730  0.2167  0.0937  0.0681
    4FIC    C29  182   7.139   1.092   2.795  0.4623  0.0861  0.0846
    4FIC    C30  183   7.126   1.080   2.936  0.5903  0.0769  0.0956
    4FIC    C31  184   7.143   0.968   2.725  0.6104  0.0869  0.0920
    5FIC     F1  185   7.168   2.420   1.056  0.2942  0.0753 -0.0317
    5FIC     F2  186   7.181   2.410   0.785  0.1348  0.0421 -0.0384
    5FIC     O1  187   7.186   1.893   1.178 -0.1119  0.0682 -0.0011
    5FIC     N5  188   7.213   2.021   0.481 -0.3835 -0.0107 -0.0262
    5FIC     N6  189   7.224   1.611   0.631 -0.6686 -0.0095 -0.0009
    5FIC    C19  190   7.205   1.696   0.962 -0.4086  0.0340  0.0034
    5FIC    C20  191   7.200   1.829   0.942 -0.2999  0.0370 -0.0041
    5FIC    C21  192   7.190   1.924   1.058 -0.1506  0.0550 -0.0060
    5FIC    C22  193   7.187   2.060   1.001 -0.0597  0.0538 -0.0145
    5FIC    C23  194   7.178   2.181   1.070  0.0869  0.0671 -0.0190
    5FIC    C24  195   7.177   2.297   0.995  0.1495  0.0628 -0.0270
    5FIC    C25  196   7.183   2.292   0.855  0.0673  0.0457 -0.0304
    5FIC    C26  197   7.192   2.172   0.785 -0.0790  0.0323 -0.0260
    5FIC    C27  198   7.194   2.053   0.860 -0.1444  0.0364 -0.0179
    5FIC    C28  199   7.202   1.911   0.818 -0.2953  0.0255 -0.0116
    5FIC    C29  200   7.210   1.864   0.689 -0.4089  0.0080 -0.0126
    5FIC    C30  201   7.212   1.950   0.575 -0.3945 -0.0022 -0.0200
    5FIC    C31  202   7.218   1.725   0.658 -0.5512 -0.0015 -0.0062
    1BTD     S2  203   6.000   5.624   1.162  0.0135  0.1973  0.2559
    1BTD     N1  204   6.006   5.678   0.990  0.0347  0.0343  0.2052
    1BTD     N2  205   5.994   5.791   1.229 -0.0775  0.2606  0.0934
    1BTD     N3  206   5.994   6.228   1.057 -0.2247  0.0945 -0.3293
    1BTD     N4  207   6.008   6.089   0.762 -0.0863 -0.1844 -0.1915
    1BTD     C5  208   6.007   5.894   0.875 -0.0302 -0.0767 -0.0036
    1BTD     C6  209   6.004   5.811   0.992 -0.0241  0.0352  0.0764
    1BTD     C7  210   5.997   5.874   1.126 -0.0870  0.1619  0.0138
    1BTD     C8  211   5.994   6.017   1.136 -0.1527  0.1705 -0.1256
    1BTD    C15  212   5.998   6.095   1.018 -0.1562  0.0585 -0.2001
    1BTD    C16  213   6.004   6.034   0.889 -0.0956 -0.0635 -0.1398
    1BTD    C43  214   5.935   6.211   0.724 -0.1691  0.0964 -0.4207
    1BTD    C44  215   5.952   6.293   0.597 -0.1897  0.2413  0.4182
    1BTD    C45  216   6.095   6.362   0.585 -0.3022  0.5354  0.6517
    1BTD    C46  217   6.128   6.428   0.448  0.7951 -0.0223 -0.2562
    1BTD    C47  218   5.831   6.380   0.553 -0.2183  0.2048 -0.2944
    1BTD    C48  219   5.700   6.312   0.535  0.6057  0.4558 -0.2075
    1BTD    C49  220   5.691   6.177   0.460  0.4107  0.0977  0.7454
    1BTD    C50  221   5.565   6.092   0.476  0.3631  0.1990  0.3169
    1BTD    C75  222   6.023   6.349   0.983  0.3701  0.0715 -0.1684
    1BTD    C76  223   6.160   6.411   0.992  0.0874  0.5469  0.3819
    1BTD    C77  224   6.266   6.319   0.933 -0.1001  0.3311  0.1359
    1BTD    C78  225   6.413   6.344   0.954  0.2590  0.4313 -0.0427
    1BTD    C79  226   6.169   6.558   0.938 -0.1616  0.4014  0.0065
    1BTD    C80  227   6.118   6.651   1.039  0.7308 -0.0182 -0.8686
    1BTD    C81  228   6.098   6.795   1.004 -0.2367 -0.0097 -0.3220
    1BTD    C82  229   6.220   6.877   0.970  0.6097  0.9327  0.1635
    2TTP     S1  230   5.997   5.718   0.628 -0.1549  0.2459  0.1192
    2TTP     S5  231   6.019   6.068   0.379  0.1276 -0.1537 -0.4199
    2TTP     C1  232   6.008   5.921   0.272 -0.0534 -0.3054 -0.1940
    2TTP     C2  233   6.000   5.805   0.343 -0.1512 -0.1909 -0.0142
    2TTP     C3  234   6.003   5.827   0.484 -0.0869  0.0207 -0.0484
    2TTP     C4  235   6.008   5.865   0.735  0.0260  0.3976 -0.1067
    2TTP    C17  236   6.016   5.982   0.664  0.1238  0.2831 -0.2865
    2TTP    C18  237   6.013   5.959   0.523  0.0595  0.0714 -0.2523
    2TTP    C32  238   5.989   5.664   0.282  0.0845 -0.1797 -0.6908
    2TTP    C33  239   6.118   5.576   0.306  0.1092 -0.1386 -0.0100
    2TTP    C34  240   6.099   5.442   0.240 -0.4712 -0.2482 -0.1300
    2TTP    C35  241   6.215   5.354   0.260  0.2576 -0.0786 -0.0329
    2TTP    C36  242   6.198   5.214   0.188  0.2781 -0.2691 -0.0809
    2TTP    C37  243   6.315   5.116   0.189  0.0464  0.1901 -0.5067
    2TTP    C38  244   6.268   4.996   0.120 -0.1871 -0.4157  0.5860
    2TTP    C39  245   6.365   4.886   0.145 -0.2786 -0.0461  0.3631
    2TTP    C40  246   6.332   4.755   0.070 -0.1143  0.4282 -0.4154
    2TTP    C41  247   6.450   4.651   0.049  0.5141  0.0468 -0.0332
    2TTP    C42  248   6.398   4.533  -0.020  0.1275  0.0130  0.4015
    3TTP     S1  249   5.929   6.094   1.418 -0.0316 -0.1489 -0.0143
    3TTP     S5  250   5.889   6.504   1.295 -0.2419 -0.1842 -0.0651
    3TTP     C1  251   5.840   6.491   1.470 -0.2270 -0.1862 -0.0611
    3TTP     C2  252   5.849   6.363   1.518 -0.1609 -0.1754 -0.0451
    3TTP     C3  253   5.896   6.271   1.419 -0.1200 -0.1652 -0.0355
    3TTP     C4  254   5.978   6.107   1.243 -0.0464 -0.1467 -0.0184
    3TTP    C17  255   5.968   6.234   1.195 -0.1123 -0.1577 -0.0343
    3TTP    C18  256   5.922   6.326   1.294 -0.1534 -0.1680 -0.0439
    3TTP    C32  257   5.814   6.325   1.662  0.4133 -0.0656  0.1732
    3TTP    C33  258   5.897   6.228   1.736  0.2018 -0.3839 -0.2007
    3TTP    C34  259   5.836   6.143   1.845 -0.1631 -0.0028  0.3980
    3TTP    C35  260   5.717   6.053   1.821  0.6451  0.3106  0.1092
    3TTP    C36  261   5.736   5.957   1.706  0.5305  0.7271  0.3533
    3TTP    C37  262   5.840   5.842   1.725  0.4481 -0.6475  0.1544
    3TTP    C38  263   5.870   5.760   1.603  0.0312  0.5715  0.1818
    3TTP    C39  264   5.987   5.665   1.613 -0.3899 -0.1062  0.3754
    3TTP    C40  265   6.127   5.721   1.654  0.3071 -0.1073  0.6840
    3TTP    C41  266   6.182   5.826   1.554 -0.2338 -0.4787  0.0355
    3TTP    C42  267   6.305   5.896   1.609  0.1869 -0.3013 -0.0501
    4FIC     F1  268   5.903   6.517  -0.292 -0.0749  0.1309 -0.0159
    4FIC     F2  269   5.951   6.333  -0.487 -0.1642  0.1507 -0.0565
    4FIC     O1  270   5.946   6.210   0.151 -0.0865  0.0405 -0.0774
    4FIC     N5  271   6.050   5.849  -0.451 -0.3009  0.1148 -0.1585
    4FIC     N6  272   6.075   5.646  -0.065 -0.2921  0.0399 -0.1983
    4FIC    C19  273   6.007   5.925   0.123 -0.1762  0.0273 -0.1379
    4FIC    C20  274   5.995   6.009   0.019 -0.1696  0.0492 -0.1209
    4FIC    C21  275   5.963   6.154   0.041 -0.1227  0.0547 -0.0899
    4FIC    C22  276   5.956   6.217  -0.092 -0.1279  0.0800 -0.0778
    4FIC    C23  277   5.930   6.350  -0.122 -0.0937  0.0931 -0.0498
    4FIC    C24  278   5.929   6.386  -0.256 -0.1069  0.1169 -0.0432
    4FIC    C25  279   5.953   6.291  -0.356 -0.1529  0.1269 -0.0642
    4FIC    C26  280   5.980   6.158  -0.327 -0.1873  0.1138 -0.0921
    4FIC    C27  281   5.982   6.120  -0.192 -0.1745  0.0900 -0.0991
    4FIC    C28  282   6.006   5.988  -0.128 -0.2021  0.0713 -0.1265
    4FIC    C29  283   6.034   5.870  -0.192 -0.2486  0.0744 -0.1521
    4FIC    C30  284   6.043   5.859  -0.334 -0.2772  0.0964 -0.1555
    4FIC    C31  285   6.056   5.748  -0.122 -0.2722  0.0554 -0.1774
    5FIC     F1  286   5.650   7.277   1.336 -0.0532 -0.1848 -0.1354
    5FIC     F2  287   5.641   7.315   1.605  0.3171 -0.0349 -0.1437
    5FIC     O1  288   5.762   6.748   1.311 -0.3909 -0.2637  0.0008
    5FIC     N5  289   5.709   6.993   1.975  0.6087  0.1240 -0.0584
    5FIC     N6  290   5.799   6.572   1.901  0.2702  0.0321  0.0497
    5FIC    C19  291   5.794   6.597   1.560 -0.1569 -0.1487  0.0413
    5FIC    C20  292   5.766   6.728   1.556 -0.0865 -0.1346  0.0074
    5FIC    C21  293   5.751   6.799   1.424 -0.2158 -0.1968 -0.0117
    5FIC    C22  294   5.721   6.940   1.455 -0.0937 -0.1624 -0.0478
    5FIC    C23  295   5.699   7.044   1.366 -0.1495 -0.1976 -0.0752
    5FIC    C24  296   5.672   7.169   1.419 -0.0081 -0.1533 -0.1072
    5FIC    C25  297   5.668   7.189   1.558  0.1824 -0.0763 -0.1114
    5FIC    C26  298   5.690   7.085   1.648  0.2389 -0.0408 -0.0842
    5FIC    C27  299   5.717   6.958   1.596  0.0979 -0.0845 -0.0516
    5FIC    C28  300   5.745   6.829   1.663  0.1100 -0.0646 -0.0178
    5FIC    C29  301   5.749   6.806   1.798  0.2724  0.0057 -0.0112
    5FIC    C30  302   5.727   6.909   1.895  0.4567  0.0705 -0.0372
    5FIC    C31  303   5.777   6.678   1.854  0.2702  0.0199  0.0223
    1BTD     S2  304   6.316   6.030   1.195 -0.3926 -0.1075 -0.1362
    1BTD     N1  305   6.338   5.998   1.020 -0.3835 -0.0336 -0.1484
    1BTD     N2  306   6.325   5.857   1.243 -0.1857 -0.1105 -0.1851
    1BTD     N3  307   6.384   5.447   1.022  0.2530  0.0167 -0.3068
    1BTD     N4  308   6.400   5.621   0.747  0.0091  0.1115 -0.2615
    1BTD     C5  309   6.370   5.799   0.881 -0.1755  0.0410 -0.2080
    1BTD     C6  310   6.351   5.867   1.006 -0.2344 -0.0160 -0.1863
    1BTD     C7  311   6.343   5.788   1.131 -0.1236 -0.0589 -0.2069
    1BTD     C8  312   6.356   5.645   1.124  0.0404 -0.0429 -0.2481
    1BTD    C15  313   6.375   5.583   0.999  0.0924  0.0132 -0.2681
    1BTD    C16  314   6.382   5.659   0.879 -0.0142  0.0547 -0.2483
    1BTD    C43  315   6.447   5.488   0.686 -0.1167 -0.5140  0.2199
    1BTD    C44  316   6.600   5.458   0.691  0.6761  0.3395  0.3641
    1BTD    C45  317   6.609   5.309   0.657 -0.1247  0.0083  0.3331
    1BTD    C46  318   6.614   5.261   0.505  0.4676  0.2674  0.4571
    1BTD    C47  319   6.703   5.566   0.632 -0.0923  0.3848  0.0269
    1BTD    C48  320   6.849   5.526   0.634 -0.1537  0.0596  0.0750
    1BTD    C49  321   6.931   5.652   0.623 -0.2509  0.3951 -0.1923
    1BTD    C50  322   7.077   5.622   0.607 -0.0159 -0.8044 -0.0787
    1BTD    C75  323   6.350   5.335   0.941  0.5325 -0.3621  0.3263
    1BTD    C76  324   6.205   5.296   0.907  0.4164 -0.1900 -0.4983
    1BTD    C77  325   6.125   5.405   0.829 -0.0946  0.6785  0.3601
    1BTD    C78  326   5.978   5.389   0.800  0.0407  0.2143  0.2786
    1BTD    C79  327   6.191   5.149   0.853 -0.0934 -0.9210  0.1616
    1BTD    C80  328   6.268   5.117   0.725 -0.2565 -0.5170 -0.0634
    1BTD    C81  329   6.292   4.968   0.701  0.4353 -0.6280  0.4889
    1BTD    C82  330   6.369   4.944   0.574 -0.4724 -0.2653  0.0274
    2TTP     S1  331   6.382   5.997   0.647 -0.3299 -0.2020 -0.1878
    2TTP     S5  332   6.420   5.666   0.376  0.2700 -0.2400 -0.0619
    2TTP     C1  333   6.419   5.820   0.279  0.1540 -0.2699 -0.1089
    2TTP     C2  334   6.407   5.932   0.357 -0.0381 -0.2600 -0.1505
    2TTP     C3  335   6.399   5.899   0.496 -0.1006 -0.2283 -0.1468
    2TTP     C4  336   6.384   5.843   0.744 -0.2140 -0.1721 -0.1408
    2TTP    C17  337   6.395   5.732   0.666 -0.0219 -0.1820 -0.0991
    2TTP    C18  338   6.404   5.764   0.527  0.0407 -0.2135 -0.1028
    2TTP    C32  339   6.406   6.075   0.304 -0.1751  0.3373 -0.3423
    2TTP    C33  340   6.506   6.177   0.364  0.4253  0.0548  0.0195
    2TTP    C34  341   6.498   6.327   0.319  0.0912 -0.1224  0.2117
    2TTP    C35  342   6.532   6.371   0.173  0.5798  0.0534 -0.1582
    2TTP    C36  343   6.665   6.325   0.113 -0.4909 -0.8215 -0.1103
    2TTP    C37  344   6.662   6.325  -0.043 -0.6692 -0.1219  0.0808
    2TTP    C38  345   6.739   6.209  -0.103 -0.1488 -0.6180 -0.2082
    2TTP    C39  346   6.893   6.189  -0.102  0.5881  0.5169 -0.2213
    2TTP    C40  347   6.970   6.303  -0.166  0.0566 -0.3304 -0.1583
    2TTP    C41  348   7.122   6.297  -0.166 -0.2580  0.5016  0.8003
    2TTP    C42  349   7.189   6.417  -0.232  0.3529 -0.0463  0.4114
    3TTP     S1  350   6.370   5.526   1.403  0.1295  0.0273  0.0190
    3TTP     S5  351   6.411   5.133   1.233 -0.3315  0.0371 -0.1174
    3TTP     C1  352   6.418   5.118   1.414 -0.2626 -0.0246 -0.1252
    3TTP     C2  353   6.406   5.239   1.477 -0.1162 -0.0312 -0.0834
    3TTP     C3  354   6.390   5.347   1.385 -0.0533  0.0123 -0.0439
    3TTP     C4  355   6.362   5.540   1.222  0.0604  0.0889  0.0267
    3TTP    C17  356   6.374   5.419   1.159 -0.0859  0.0957 -0.0149
    3TTP    C18  357   6.390   5.311   1.251 -0.1490  0.0522 -0.0544
    3TTP    C32  358   6.410   5.267   1.622  0.0636  0.6869 -0.2303
    3TTP    C33  359   6.278   5.309   1.692  0.6342  0.2926  0.3235
    3TTP    C34  360   6.294   5.371   1.828  0.1798 -0.2308 -0.3112
    3TTP    C35  361   6.165   5.402   1.891  0.6484 -0.8380  0.1198
    3TTP    C36  362   6.165   5.536   1.962  0.5785  0.1086  0.1860
    3TTP    C37  363   6.044   5.552   2.056 -0.8256  0.2884  0.0103
    3TTP    C38  364   6.065   5.642   2.181 -0.5832  0.4094 -0.0459
    3TTP    C39  365   6.169   5.589   2.277 -0.3004  0.1275 -0.0781
    3TTP    C40  366   6.170   5.687   2.387  0.1005  0.3084 -0.2205
    3TTP    C41  367   6.247   5.637   2.509  0.0117  0.8115  0.2740
    3TTP    C42  368   6.236   5.737   2.628  0.8963  0.5576  0.6302
    4FIC     F1  369   6.544   5.285  -0.336  0.3306  0.3161 -0.1746
    4FIC     F2  370   6.496   5.487  -0.512 -0.4945  0.1273 -0.1781
    4FIC     O1  371   6.490   5.545   0.136  0.7994  0.4376 -0.1867
    4FIC     N5  372   6.390   5.964  -0.429 -1.3466 -0.0577 -0.1917
    4FIC     N6  373   6.357   6.126  -0.024 -0.8138  0.0752 -0.2005
    4FIC    C19  374   6.425   5.831   0.135  0.1777  0.3003 -0.1943
    4FIC    C20  375   6.441   5.757   0.023  0.0920  0.2772 -0.1912
    4FIC    C21  376   6.474   5.611   0.032  0.4284  0.3518 -0.1874
    4FIC    C22  377   6.483   5.562  -0.107  0.2302  0.3027 -0.1845
    4FIC    C23  378   6.512   5.433  -0.150  0.4172  0.3422 -0.1807
    4FIC    C24  379   6.516   5.411  -0.287  0.1658  0.2818 -0.1785
    4FIC    C25  380   6.491   5.515  -0.377 -0.2591  0.1844 -0.1804
    4FIC    C26  381   6.463   5.644  -0.335 -0.4479  0.1444 -0.1842
    4FIC    C27  382   6.458   5.669  -0.197 -0.1985  0.2046 -0.1864
    4FIC    C28  383   6.431   5.793  -0.120 -0.3002  0.1851 -0.1906
    4FIC    C29  384   6.403   5.917  -0.173 -0.6845  0.0982 -0.1932
    4FIC    C30  385   6.396   5.942  -0.313 -1.0471  0.0129 -0.1923
    4FIC    C31  386   6.378   6.031  -0.091 -0.7535  0.0861 -0.1972
    5FIC     F1  387   6.546   4.337   1.190  0.1100  0.0434  0.0839
    5FIC     F2  388   6.550   4.269   1.454  0.2620  0.0538  0.0845
    5FIC     O1  389   6.469   4.872   1.224 -0.0852  0.0143  0.1021
    5FIC     N5  390   6.501   4.552   1.857  0.3411  0.0479  0.0982
    5FIC     N6  391   6.440   4.983   1.830  0.1578  0.0232  0.1124
    5FIC    C19  392   6.445   4.996   1.488 -0.0095  0.0139  0.1091
    5FIC    C20  393   6.464   4.865   1.469  0.0336  0.0207  0.1045
    5FIC    C21  394   6.475   4.808   1.330 -0.0099  0.0205  0.1011
    5FIC    C22  395   6.496   4.663   1.346  0.0552  0.0290  0.0965
    5FIC    C23  396   6.511   4.568   1.245  0.0448  0.0317  0.0922
    5FIC    C24  397   6.529   4.436   1.285  0.1155  0.0402  0.0882
    5FIC    C25  398   6.531   4.401   1.420  0.1939  0.0455  0.0885
    5FIC    C26  399   6.516   4.495   1.521  0.2044  0.0428  0.0928
    5FIC    C27  400   6.498   4.629   1.484  0.1336  0.0343  0.0968
    5FIC    C28  401   6.478   4.752   1.565  0.1236  0.0294  0.1018
    5FIC    C29  402   6.474   4.759   1.702  0.1858  0.0324  0.1035
    5FIC    C30  403   6.489   4.645   1.787  0.2708  0.0411  0.1006
    5FIC    C31  404   6.455   4.883   1.772  0.1701  0.0273  0.1084
    1BTD     S2  405   0.047   3.110   1.664 -0.3505  0.0884 -0.0662
    1BTD     N1  406   0.068   3.054   1.834 -0.0190  0.1453 -0.0872
    1BTD     N2  407   0.050   2.945   1.593 -0.5998  0.0579 -0.0056
    1BTD     N3  408   0.093   2.506   1.755 -0.5093  0.0980  0.0799
    1BTD     N4  409   0.116   2.640   2.051  0.2064  0.2058 -0.0206
    1BTD     C5  410   0.093   2.836   1.943  0.0901  0.1756 -0.0513
    1BTD     C6  411   0.076   2.922   1.829 -0.1067  0.1388 -0.0499
    1BTD     C7  412   0.065   2.861   1.694 -0.4318  0.0898 -0.0043
    1BTD     C8  413   0.073   2.718   1.681 -0.5439  0.0801  0.0378
    1BTD    C15  414   0.089   2.638   1.796 -0.3430  0.1172  0.0349
    1BTD    C16  415   0.099   2.697   1.926 -0.0297  0.1644 -0.0091
    1BTD    C43  416   0.216   2.537   2.085  0.4594  0.3691  0.1184
    1BTD    C44  417   0.223   2.452   2.210 -0.4742  0.2294  0.1583
    1BTD    C45  418   0.102   2.364   2.232  0.5440  0.5983  0.5166
    1BTD    C46  419   0.084   2.300   2.369 -0.4334  0.2770 -0.1396
    1BTD    C47  420   0.355   2.377   2.234 -0.5025  0.5323 -0.0149
    1BTD    C48  421   0.490   2.448   2.229  0.3341 -0.8596  0.5586
    1BTD    C49  422   0.483   2.586   2.280 -0.3484  0.0171 -0.2476
    1BTD    C50  423   0.611   2.656   2.245 -0.7519 -0.1867 -0.7092
    1BTD    C75  424   0.054   2.389   1.834 -0.4809 -0.1061  0.6292
    1BTD    C76  425  -0.095   2.381   1.871 -0.6425  0.0876  0.3847
    1BTD    C77  426  -0.128   2.280   1.974  0.5330  0.7127 -0.4851
    1BTD    C78  427  -0.264   2.302   2.050  0.2900  0.3707 -0.0828
    1BTD    C79  428  -0.198   2.393   1.754 -0.0193  0.1342 -0.3717
    1BTD    C80  429  -0.182   2.300   1.641 -0.0747 -0.3659  0.6674
    1BTD    C81  430  -0.292   2.326   1.538 -0.2704 -0.1954 -0.4733
    1BTD    C82  431  -0.280   2.223   1.429  0.7687 -0.1692  0.3148
    2TTP     S1  432   0.081   3.005   2.185 -0.0063 -0.0912  0.1264
    2TTP     S5  433   0.073   2.650   2.428  0.0428  0.0663  0.3588
    2TTP     C1  434   0.042   2.795   2.535 -0.2045  0.1126  0.2275
    2TTP     C2  435   0.043   2.913   2.466 -0.2342  0.0666  0.1479
    2TTP     C3  436   0.068   2.894   2.326 -0.0628 -0.0067  0.1879
    2TTP     C4  437   0.112   2.861   2.078  0.2410 -0.1374  0.2577
    2TTP    C17  438   0.111   2.743   2.147  0.2707 -0.0916  0.3372
    2TTP    C18  439   0.086   2.762   2.286  0.0993 -0.0182  0.2974
    2TTP    C32  440   0.023   3.053   2.525 -0.9097  0.5226 -0.0259
    2TTP    C33  441   0.107   3.167   2.475  0.9174 -0.8096 -0.2615
    2TTP    C34  442   0.038   3.299   2.514 -0.1657  0.0961 -0.0058
    2TTP    C35  443   0.025   3.337   2.656  0.0479  0.2697 -0.4389
    2TTP    C36  444   0.008   3.487   2.690  0.2933  0.2914 -0.0548
    2TTP    C37  445   0.000   3.520   2.841  0.7803 -0.0770  0.3043
    2TTP    C38  446  -0.010   3.673   2.866  0.8205  0.4099  0.3502
    2TTP    C39  447  -0.003   3.706   3.011  0.5658  0.9290 -0.0949
    2TTP    C40  448  -0.002   3.850   3.044  0.0552 -0.3490 -0.4921
    2TTP    C41  449   0.007   3.903   3.190 -0.0419  0.0315 -0.5120
    2TTP    C42  450   0.041   4.053   3.205  0.0507  0.5488  0.8310
    3TTP     S1  451   0.082   2.641   1.387 -0.2576 -0.0141  0.1975
    3TTP     S5  452   0.167   2.235   1.502  0.3020  0.0588  0.0449
    3TTP     C1  453   0.171   2.246   1.320  0.2706  0.1296  0.0484
    3TTP     C2  454   0.145   2.372   1.274  0.0960  0.1113  0.0958
    3TTP     C3  455   0.121   2.464   1.380 -0.0194  0.0407  0.1310
    3TTP     C4  456   0.077   2.630   1.569 -0.2263 -0.0849  0.1940
    3TTP    C17  457   0.103   2.504   1.615 -0.0516 -0.0666  0.1467
    3TTP    C18  458   0.128   2.411   1.508  0.0637  0.0041  0.1115
    3TTP    C32  459   0.146   2.427   1.131 -0.1770 -0.5561 -0.3253
    3TTP    C33  460   0.283   2.487   1.082 -0.0201  0.0583  0.6665
    3TTP    C34  461   0.267   2.577   0.963 -0.0780  0.5339  0.2734
    3TTP    C35  462   0.350   2.702   0.968 -0.1918 -0.4012  0.7643
    3TTP    C36  463   0.296   2.818   1.049 -0.2320  0.5995 -0.0357
    3TTP    C37  464   0.152   2.861   1.039  0.7638 -0.0713 -0.2885
    3TTP    C38  465   0.106   2.963   1.150  0.5232  0.6809  0.1792
    3TTP    C39  466  -0.044   2.996   1.144 -0.5213 -0.6091  0.4444
    3TTP    C40  467  -0.153   2.901   1.179  0.0669 -0.2433  0.2778
    3TTP    C41  468  -0.179   2.773   1.101  0.5861 -0.4975  0.8453
    3TTP    C42  469  -0.270   2.677   1.176 -0.1887  0.2511  0.0752
    4FIC     F1  470  -0.240   2.218   3.046  0.6957 -0.2576  0.0598
    4FIC     F2  471  -0.255   2.406   3.242 -0.1584 -0.1216 -0.1293
    4FIC     O1  472  -0.045   2.512   2.636  0.7255 -0.1170  0.1744
    4FIC     N5  473  -0.138   2.887   3.230 -1.3649  0.1742 -0.3195
    4FIC     N6  474   0.017   3.079   2.870 -1.1696  0.2565 -0.1919
    4FIC    C19  475   0.010   2.796   2.677 -0.0798  0.0628  0.0344
    4FIC    C20  476  -0.039   2.715   2.772 -0.0541  0.0221  0.0129
    4FIC    C21  477  -0.064   2.570   2.744  0.3717 -0.0704  0.0888
    4FIC    C22  478  -0.116   2.511   2.868  0.2850 -0.0943  0.0415
    4FIC    C23  479  -0.154   2.379   2.891  0.5800 -0.1736  0.0829
    4FIC    C24  480  -0.201   2.346   3.017  0.4217 -0.1810  0.0237
    4FIC    C25  481  -0.208   2.444   3.118 -0.0186 -0.1108 -0.0738
    4FIC    C26  482  -0.171   2.576   3.096 -0.3146 -0.0315 -0.1154
    4FIC    C27  483  -0.123   2.610   2.969 -0.1605 -0.0228 -0.0566
    4FIC    C28  484  -0.076   2.740   2.914 -0.3862  0.0515 -0.0781
    4FIC    C29  485  -0.068   2.859   2.981 -0.8203  0.1322 -0.1656
    4FIC    C30  486  -0.107   2.874   3.118 -1.1182  0.1549 -0.2499
    4FIC    C31  487  -0.021   2.979   2.920 -1.0098  0.2000 -0.1795
    5FIC     F1  488   0.243   1.432   1.393  0.1145  0.0447  0.0613
    5FIC     F2  489   0.260   1.413   1.122 -0.0864 -0.0542  0.0549
    5FIC     O1  490   0.192   1.967   1.457  0.0239  0.0560 -0.1048
    5FIC     N5  491   0.248   1.768   0.778 -0.4399 -0.1883 -0.0729
    5FIC     N6  492   0.206   2.190   0.882 -0.4702 -0.1596 -0.2013
    5FIC    C19  493   0.191   2.140   1.220 -0.2003 -0.0345 -0.1700
    5FIC    C20  494   0.203   2.006   1.215 -0.1696 -0.0334 -0.1279
    5FIC    C21  495   0.203   1.924   1.341 -0.0528  0.0145 -0.0964
    5FIC    C22  496   0.217   1.783   1.299 -0.0479  0.0024 -0.0538
    5FIC    C23  497   0.222   1.670   1.381  0.0433  0.0349 -0.0146
    5FIC    C24  498   0.237   1.547   1.319  0.0279  0.0148  0.0215
    5FIC    C25  499   0.246   1.538   1.179 -0.0757 -0.0362  0.0180
    5FIC    C26  500   0.241   1.650   1.097 -0.1670 -0.0687 -0.0210
    5FIC    C27  501   0.226   1.775   1.158 -0.1530 -0.0491 -0.0578
    5FIC    C28  502   0.217   1.912   1.101 -0.2320 -0.0732 -0.1035
    5FIC    C29  503   0.222   1.945   0.967 -0.3418 -0.1228 -0.1200
    5FIC    C30  504   0.237   1.848   0.864 -0.3954 -0.1586 -0.0940
    5FIC    C31  505   0.213   2.080   0.921 -0.4118 -0.1427 -0.1647
    1BTD     S2  506   7.066   2.676   1.545 -0.3043 -0.0641 -0.0646
    1BTD     N1  507   7.083   2.718   1.719 -0.0277 -0.1533 -0.0680
    1BTD     N2  508   7.041   2.845   1.490 -0.4267 -0.0401  0.0668
    1BTD     N3  509   7.018   3.268   1.694 -0.1761 -0.1525  0.3287
    1BTD     N4  510   7.070   3.111   1.975  0.3155 -0.2919  0.1626
    1BTD     C5  511   7.075   2.926   1.849  0.1456 -0.2239  0.0544
    1BTD     C6  512   7.069   2.850   1.727 -0.0399 -0.1603  0.0243
    1BTD     C7  513   7.045   2.921   1.599 -0.2633 -0.0970  0.0997
    1BTD     C8  514   7.030   3.064   1.600 -0.2898 -0.1005  0.2016
    1BTD    C15  515   7.037   3.134   1.722 -0.1035 -0.1640  0.2276
    1BTD    C16  516   7.059   3.065   1.845  0.1116 -0.2250  0.1549
    1BTD    C43  517   7.150   3.232   2.009 -1.2686  0.9039 -0.0897
    1BTD    C44  518   7.167   3.302   2.146 -0.0450  0.0516  0.4570
    1BTD    C45  519   7.288   3.399   2.149 -0.0819  0.2211  0.2699
    1BTD    C46  520   7.432   3.361   2.101 -0.5267 -0.7073 -0.2096
    1BTD    C47  521   7.027   3.360   2.194  0.5905  0.1489 -0.3243
    1BTD    C48  522   7.006   3.414   2.334 -0.2232  0.1847 -0.2980
    1BTD    C49  523   6.866   3.464   2.356 -0.1721  0.8030 -0.1900
    1BTD    C50  524   6.848   3.514   2.505 -0.0021  0.2188  0.9640
    1BTD    C75  525   6.952   3.362   1.789 -0.6062 -0.4034  0.2829
    1BTD    C76  526   6.974   3.524   1.795 -0.4391  0.5196 -0.9300
    1BTD    C77  527   7.127   3.546   1.814  0.1313 -0.6357  0.3957
    1BTD    C78  528   7.186   3.685   1.825 -0.6857 -0.0340 -0.2255
    1BTD    C79  529   6.902   3.601   1.905  0.2115 -0.4632 -0.0380
    1BTD    C80  530   6.754   3.577   1.916  0.1923  0.4122  0.9243
    1BTD    C81  531   6.668   3.679   1.988  0.7338 -0.1859  0.1909
    1BTD    C82  532   6.530   3.639   2.036  0.0119  0.0519  0.2991
    2TTP     S1  533   7.086   2.735   2.083 -0.2440 -0.1391  0.1495
    2TTP     S5  534   7.007   3.062   2.352  0.3105 -0.1388  0.3147
    2TTP     C1  535   7.007   2.907   2.447  0.1820 -0.1741  0.2588
    2TTP     C2  536   7.032   2.797   2.370  0.0033 -0.1764  0.2044
    2TTP     C3  537   7.051   2.831   2.233 -0.0386 -0.1501  0.2051
    2TTP     C4  538   7.085   2.890   1.988 -0.1154 -0.1038  0.2054
    2TTP    C17  539   7.061   3.000   2.065  0.0633 -0.1015  0.2597
    2TTP    C18  540   7.042   2.966   2.203  0.1053 -0.1277  0.2592
    2TTP    C32  541   7.039   2.650   2.419  0.7802  0.0973  0.4429
    2TTP    C33  542   6.921   2.559   2.372  0.5666 -0.3313 -0.0348
    2TTP    C34  543   6.952   2.414   2.396  0.2957  0.2431 -0.1919
    2TTP    C35  544   6.821   2.325   2.404  0.2294  0.0926  0.5762
    2TTP    C36  545   6.829   2.171   2.421  0.0333  0.2461 -0.3040
    2TTP    C37  546   6.913   2.090   2.319 -0.1928  0.7316 -0.1926
    2TTP    C38  547   6.893   1.938   2.331 -0.1777 -0.0988  0.3434
    2TTP    C39  548   6.938   1.869   2.467  0.0265  0.0306 -0.2647
    2TTP    C40  549   7.069   1.908   2.535 -0.1394  0.1592 -0.1528
    2TTP    C41  550   7.197   1.849   2.482 -0.0407 -0.4154 -0.4168
    2TTP    C42  551   7.303   1.880   2.580  0.6968 -0.0654  0.1776
    3TTP     S1  552   6.993   3.168   1.313 -0.0678  0.0151 -0.1680
    3TTP     S5  553   6.993   3.567   1.474 -0.2227 -0.1646  0.2782
    3TTP     C1  554   6.980   3.578   1.293  0.0648  0.0415  0.2685
    3TTP     C2  555   6.979   3.455   1.232  0.1295  0.1091  0.1301
    3TTP     C3  556   6.989   3.348   1.327 -0.0457  0.0006  0.0268
    3TTP     C4  557   7.006   3.157   1.494 -0.3555 -0.1912 -0.1583
    3TTP    C17  558   7.007   3.280   1.554 -0.4200 -0.2587 -0.0199
    3TTP    C18  559   6.997   3.387   1.460 -0.2450 -0.1501  0.0834
    3TTP    C32  560   6.980   3.423   1.076 -0.5892 -0.4935 -0.1802
    3TTP    C33  561   7.078   3.318   1.022 -0.4505  0.1191  0.4304
    3TTP    C34  562   7.162   3.381   0.906  0.5766  0.1854  0.3664
    3TTP    C35  563   7.235   3.275   0.825  0.1552 -0.0368  0.7614
    3TTP    C36  564   7.307   3.326   0.703  0.1050 -0.0616 -0.6020
    3TTP    C37  565   7.350   3.221   0.608  0.0464 -0.1714 -0.0258
    3TTP    C38  566   7.445   3.118   0.676 -0.1375  0.1124 -0.1927
    3TTP    C39  567   7.499   3.001   0.585 -0.4131  0.6593 -0.0595
    3TTP    C40  568   7.404   2.897   0.528  0.5090  0.2991 -0.4358
    3TTP    C41  569   7.471   2.776   0.460  0.6872  0.3273 -0.6808
    3TTP    C42  570   7.379   2.662   0.407  0.1757 -0.6251 -0.0352
    4FIC     F1  571   7.043   3.426   3.086  0.5176 -0.0637 -0.0067
    4FIC     F2  572   6.963   3.224   3.249 -0.2850  0.1992 -0.0621
    4FIC     O1  573   7.057   3.173   2.608  0.9291 -0.3430  0.1526
    4FIC     N5  574   6.859   2.751   3.143 -1.1456  0.3780 -0.0280
    4FIC     N6  575   6.887   2.594   2.737 -0.6623  0.1067  0.1076
    4FIC    C19  576   6.986   2.889   2.594  0.3084 -0.1912  0.1564
    4FIC    C20  577   6.986   2.961   2.708  0.2364 -0.1311  0.1184
    4FIC    C21  578   7.023   3.106   2.707  0.5711 -0.2161  0.1192
    4FIC    C22  579   7.012   3.153   2.846  0.3899 -0.1192  0.0727
    4FIC    C23  580   7.037   3.281   2.895  0.5820 -0.1498  0.0568
    4FIC    C24  581   7.020   3.302   3.031  0.3472 -0.0406  0.0113
    4FIC    C25  582   6.979   3.197   3.115 -0.0661  0.0946 -0.0172
    4FIC    C26  583   6.954   3.069   3.067 -0.2596  0.1259 -0.0015
    4FIC    C27  584   6.971   3.046   2.930 -0.0272  0.0168  0.0445
    4FIC    C28  585   6.953   2.924   2.848 -0.1379  0.0149  0.0715
    4FIC    C29  586   6.914   2.800   2.893 -0.5153  0.1270  0.0558
    4FIC    C30  587   6.884   2.774   3.031 -0.8606  0.2645  0.0098
    4FIC    C31  588   6.899   2.688   2.807 -0.5940  0.1153  0.0845
    5FIC     F1  589   6.829   4.367   1.458 -0.3436 -0.0459 -0.1178
    5FIC     F2  590   6.868   4.425   1.195  0.0329  0.0161 -0.0498
    5FIC     O1  591   6.902   3.831   1.458 -0.2824 -0.0377 -0.1296
    5FIC     N5  592   6.976   4.125   0.817  0.6179  0.1110  0.0396
    5FIC     N6  593   7.024   3.694   0.869  0.5898  0.1049  0.0167
    5FIC    C19  594   6.965   3.695   1.206  0.0990  0.0243 -0.0688
    5FIC    C20  595   6.945   3.828   1.217  0.0689  0.0199 -0.0685
    5FIC    C21  596   6.913   3.890   1.350 -0.1315 -0.0128 -0.1008
    5FIC    C22  597   6.898   4.035   1.325 -0.1125 -0.0092 -0.0914
    5FIC    C23  598   6.868   4.134   1.418 -0.2590 -0.0328 -0.1129
    5FIC    C24  599   6.858   4.264   1.372 -0.2058 -0.0237 -0.0981
    5FIC    C25  600   6.878   4.294   1.236 -0.0118  0.0082 -0.0631
    5FIC    C26  601   6.908   4.195   1.143  0.1352  0.0321 -0.0416
    5FIC    C27  602   6.918   4.063   1.188  0.0843  0.0232 -0.0560
    5FIC    C28  603   6.948   3.937   1.116  0.2034  0.0423 -0.0405
    5FIC    C29  604   6.974   3.924   0.981  0.4005  0.0746 -0.0067
    5FIC    C30  605   6.975   4.034   0.891  0.5195  0.0944  0.0186
    5FIC    C31  606   7.001   3.798   0.920  0.5035  0.0911  0.0060
    1BTD     S2  607   5.671   7.590   1.371  0.0908  0.2010  0.2212
    1BTD     N1  608   5.654   7.617   1.194 -0.0430  0.1147  0.2209
    1BTD     N2  609   5.669   7.765   1.413  0.2260  0.2253  0.1284
    1BTD     N3  610   5.633   8.170   1.179  0.2598  0.1187 -0.0612
    1BTD     N4  611   5.614   7.988   0.909 -0.0715 -0.0173  0.0527
    1BTD     C5  612   5.633   7.813   1.049 -0.0539  0.0474  0.1317
    1BTD     C6  613   5.647   7.748   1.176  0.0169  0.1088  0.1550
    1BTD     C7  614   5.656   7.831   1.299  0.1674  0.1706  0.1033
    1BTD     C8  615   5.650   7.974   1.287  0.2396  0.1680  0.0308
    1BTD    C15  616   5.636   8.033   1.160  0.1661  0.1069  0.0103
    1BTD    C16  617   5.627   7.953   1.042  0.0209  0.0474  0.0602
    1BTD    C43  618   5.513   8.083   0.865 -0.0193  0.2506 -1.0475
    1BTD    C44  619   5.502   8.151   0.733  0.4008  0.1583  0.3457
    1BTD    C45  620   5.629   8.230   0.704 -0.7270 -0.9557 -0.4196
    1BTD    C46  621   5.646   8.298   0.571 -0.0759 -0.1438 -0.7904
    1BTD    C47  622   5.362   8.223   0.709 -0.2498  0.8995 -0.0579
    1BTD    C48  623   5.227   8.141   0.727 -0.5587 -0.7597 -0.5035
    1BTD    C49  624   5.230   7.998   0.675 -0.1860 -0.0697  0.7584
    1BTD    C50  625   5.112   7.913   0.706  0.1221 -0.6084  0.0852
    1BTD    C75  626   5.650   8.283   1.082 -0.5697 -0.3499 -0.6993
    1BTD    C76  627   5.799   8.323   1.041  0.3970  0.3842 -0.7203
    1BTD    C77  628   5.902   8.211   1.014  0.6556 -0.1522  0.2698
    1BTD    C78  629   6.046   8.241   0.983  0.7478 -0.8350  0.0696
    1BTD    C79  630   5.794   8.438   0.941  0.1491  0.3969  0.0788
    1BTD    C80  631   5.699   8.563   0.951 -0.3138  0.3205 -0.2778
    1BTD    C81  632   5.695   8.639   1.079 -0.3224  0.2047 -0.4216
    1BTD    C82  633   5.634   8.778   1.071 -0.6603 -0.3186  0.4576
    2TTP     S1  634   5.666   7.604   0.844 -0.0335  0.0091 -0.2396
    2TTP     S5  635   5.649   7.905   0.536 -0.0015  0.0948 -0.1580
    2TTP     C1  636   5.684   7.744   0.459  0.0839  0.1288 -0.1911
    2TTP     C2  637   5.691   7.642   0.549  0.0792  0.1045 -0.2182
    2TTP     C3  638   5.670   7.687   0.683  0.0076  0.0578 -0.2139
    2TTP     C4  639   5.632   7.765   0.922 -0.1191 -0.0249 -0.2065
    2TTP    C17  640   5.624   7.867   0.831 -0.1144 -0.0007 -0.1794
    2TTP    C18  641   5.646   7.822   0.697 -0.0429  0.0458 -0.1837
    2TTP    C32  642   5.727   7.500   0.521  0.0141 -0.3877 -0.1684
    2TTP    C33  643   5.610   7.404   0.533 -0.8071 -0.6797  0.2714
    2TTP    C34  644   5.637   7.258   0.526 -0.3339 -0.0602  0.7773
    2TTP    C35  645   5.498   7.181   0.515  0.2283 -0.3044  0.3630
    2TTP    C36  646   5.501   7.032   0.558  0.0335  0.7192 -0.1229
    2TTP    C37  647   5.527   6.930   0.447 -0.3434 -0.0305  0.9228
    2TTP    C38  648   5.514   6.789   0.500 -0.7220 -0.6160  0.7346
    2TTP    C39  649   5.496   6.668   0.394 -0.0212 -0.6031 -0.1769
    2TTP    C40  650   5.585   6.667   0.274 -1.0386  0.7786  0.4824
    2TTP    C41  651   5.589   6.533   0.202  0.1067  0.3376 -0.1343
    2TTP    C42  652   5.691   6.545   0.083  0.1402  0.0037 -0.1636
    3TTP     S1  653   5.632   8.083   1.566  0.0552  0.0418  0.0576
    3TTP     S5  654   5.590   8.478   1.400 -0.0738 -0.0022 -0.0143
    3TTP     C1  655   5.576   8.489   1.581 -0.1478  0.0169 -0.0211
    3TTP     C2  656   5.588   8.368   1.643 -0.1124  0.0316  0.0007
    3TTP     C3  657   5.609   8.262   1.550 -0.0255  0.0283  0.0236
    3TTP     C4  658   5.646   8.072   1.385  0.1291  0.0227  0.0644
    3TTP    C17  659   5.633   8.193   1.323  0.0937  0.0080  0.0426
    3TTP    C18  660   5.613   8.299   1.416  0.0068  0.0113  0.0197
    3TTP    C32  661   5.578   8.332   1.791 -0.1643  0.3911  0.4065
    3TTP    C33  662   5.703   8.305   1.879 -0.1186 -0.0464  0.3860
    3TTP    C34  663   5.789   8.183   1.850  0.0108  0.3224  0.4557
    3TTP    C35  664   5.914   8.176   1.924 -0.8493  0.7610  0.2644
    3TTP    C36  665   6.012   8.060   1.882  0.0817 -0.1887 -0.7463
    3TTP    C37  666   5.967   7.915   1.869  0.4606  0.2468  0.0359
    3TTP    C38  667   5.918   7.878   1.728 -0.8750 -0.1560  0.3927
    3TTP    C39  668   5.876   7.729   1.713  0.6693 -0.4726 -0.3600
    3TTP    C40  669   5.772   7.658   1.797 -0.3489 -0.3399 -0.3954
    3TTP    C41  670   5.629   7.715   1.800  0.6766 -0.3552  0.6057
    3TTP    C42  671   5.546   7.674   1.916  0.2791 -0.1606 -0.0108
    4FIC     F1  672   5.808   8.220  -0.201 -0.1034 -0.1941 -0.1494
    4FIC     F2  673   5.830   7.995  -0.353 -0.0966 -0.2439 -0.0747
    4FIC     O1  674   5.720   8.005   0.288  0.0736 -0.0372 -0.0482
    4FIC     N5  675   5.800   7.518  -0.222  0.0392 -0.2034  0.1049
    4FIC     N6  676   5.727   7.396   0.191  0.1762 -0.0703  0.1689
    4FIC    C19  677   5.710   7.714   0.317  0.1428 -0.0286  0.0591
    4FIC    C20  678   5.732   7.776   0.200  0.0982 -0.0663  0.0308
    4FIC    C21  679   5.735   7.926   0.193  0.0645 -0.0681 -0.0242
    4FIC    C22  680   5.760   7.961   0.052  0.0192 -0.1135 -0.0435
    4FIC    C23  681   5.771   8.089  -0.003 -0.0225 -0.1309 -0.0925
    4FIC    C24  682   5.795   8.097  -0.140 -0.0609 -0.1749 -0.1019
    4FIC    C25  683   5.807   7.981  -0.218 -0.0573 -0.2004 -0.0632
    4FIC    C26  684   5.795   7.854  -0.163 -0.0159 -0.1832 -0.0144
    4FIC    C27  685   5.771   7.843  -0.025  0.0235 -0.1388 -0.0042
    4FIC    C28  686   5.754   7.725   0.063  0.0720 -0.1107  0.0430
    4FIC    C29  687   5.759   7.593   0.024  0.0895 -0.1236  0.0893
    4FIC    C30  688   5.782   7.552  -0.111  0.0620 -0.1675  0.0978
    4FIC    C31  689   5.742   7.485   0.116  0.1372 -0.0943  0.1328
    5FIC     F1  690   5.533   9.293   1.429  0.1926  0.0801  0.0259
    5FIC     F2  691   5.473   9.335   1.691  0.1900  0.1400  0.0157
    5FIC     O1  692   5.588   8.755   1.422  0.2661  0.0856  0.1655
    5FIC     N5  693   5.424   9.012   2.062  0.2391  0.2302  0.1006
    5FIC     N6  694   5.479   8.583   2.004  0.2972  0.2224  0.2118
    5FIC    C19  695   5.549   8.604   1.669  0.2900  0.1448  0.2054
    5FIC    C20  696   5.538   8.737   1.661  0.2716  0.1411  0.1706
    5FIC    C21  697   5.559   8.808   1.530  0.2602  0.1099  0.1519
    5FIC    C22  698   5.539   8.952   1.556  0.2410  0.1140  0.1148
    5FIC    C23  699   5.549   9.057   1.465  0.2254  0.0916  0.0873
    5FIC    C24  700   5.526   9.185   1.513  0.2084  0.1010  0.0542
    5FIC    C25  701   5.494   9.206   1.648  0.2073  0.1319  0.0490
    5FIC    C26  702   5.485   9.102   1.739  0.2228  0.1544  0.0763
    5FIC    C27  703   5.508   8.972   1.693  0.2400  0.1453  0.1100
    5FIC    C28  704   5.506   8.841   1.762  0.2588  0.1632  0.1441
    5FIC    C29  705   5.479   8.820   1.896  0.2635  0.1943  0.1500
    5FIC    C30  706   5.449   8.926   1.987  0.2501  0.2139  0.1228
    5FIC    C31  707   5.479   8.689   1.954  0.2819  0.2095  0.1839
    1BTD     S2  708   6.951   0.127   1.304 -0.1734 -0.0464 -0.2917
    1BTD     N1  709   6.961   0.092   1.128  0.3209 -0.0979 -0.2578
    1BTD     N2  710   6.955  -0.045   1.354 -0.5214 -0.0395 -0.2379
    1BTD     N3  711   6.979  -0.462   1.138 -0.3382 -0.1180 -0.0671
    1BTD     N4  712   6.986  -0.292   0.860  0.7000 -0.1901 -0.0917
    1BTD     C5  713   6.974  -0.111   0.991  0.5063 -0.1452 -0.1708
    1BTD     C6  714   6.966  -0.040   1.116  0.2069 -0.1068 -0.2106
    1BTD     C7  715   6.962  -0.117   1.243 -0.2645 -0.0739 -0.1995
    1BTD     C8  716   6.967  -0.261   1.238 -0.4132 -0.0812 -0.1490
    1BTD    C15  717   6.975  -0.326   1.113 -0.1083 -0.1192 -0.1112
    1BTD    C16  718   6.978  -0.252   0.991  0.3458 -0.1508 -0.1220
    1BTD    C43  719   7.000  -0.422   0.793 -0.3223 -0.0681  0.4734
    1BTD    C44  720   7.140  -0.483   0.776 -0.7723  0.4093  0.1473
    1BTD    C45  721   7.124  -0.620   0.697  1.2894 -0.0220 -0.2856
    1BTD    C46  722   7.119  -0.621   0.545  1.1992  0.1516  0.4159
    1BTD    C47  723   7.262  -0.397   0.738 -0.1862 -0.2199 -0.5035
    1BTD    C48  724   7.397  -0.466   0.738  0.3674 -0.2980  0.4295
    1BTD    C49  725   7.519  -0.385   0.688 -0.1732 -0.6863 -0.9469
    1BTD    C50  726   7.642  -0.473   0.709  0.2587  0.0363  0.0823
    1BTD    C75  727   6.938  -0.575   1.055  0.4022  0.0724 -0.0205
    1BTD    C76  728   6.795  -0.639   1.060 -0.0096 -0.4732  0.1547
    1BTD    C77  729   6.700  -0.519   1.024  0.3881  0.2306 -0.3941
    1BTD    C78  730   6.547  -0.566   1.024 -0.0213 -0.9488 -0.0637
    1BTD    C79  731   6.780  -0.769   0.977  0.3749 -0.1185  0.3745
    1BTD    C80  732   6.801  -0.763   0.825  0.7325 -0.1160 -0.4144
    1BTD    C81  733   6.802  -0.905   0.769 -0.2426  0.0260  0.0953
    1BTD    C82  734   6.832  -0.910   0.619 -0.2481  0.5255 -0.0477
    2TTP     S1  735   6.992   0.085   0.752 -0.1039  0.1850  0.0323
    2TTP     S5  736   7.031  -0.254   0.490  0.3344 -0.0199  0.3601
    2TTP     C1  737   7.043  -0.102   0.391  0.4387 -0.0980  0.2527
    2TTP     C2  738   7.032   0.011   0.466  0.3097 -0.0393  0.1452
    2TTP     C3  739   7.013  -0.018   0.604  0.1236  0.0694  0.1437
    2TTP     C4  740   6.981  -0.067   0.851 -0.2081  0.2631  0.1397
    2TTP    C17  741   6.992  -0.181   0.776 -0.0792  0.2043  0.2472
    2TTP    C18  742   7.010  -0.152   0.638  0.1070  0.0957  0.2487
    2TTP    C32  743   7.023   0.151   0.414  0.2542 -0.2117 -1.2656
    2TTP    C33  744   7.147   0.244   0.417  0.0026  0.0058 -0.4893
    2TTP    C34  745   7.132   0.386   0.360 -0.0977 -0.1947  0.5794
    2TTP    C35  746   7.006   0.467   0.398 -0.4844 -0.4017  0.0716
    2TTP    C36  747   7.020   0.545   0.532 -0.1749  0.1755 -0.1670
    2TTP    C37  748   7.121   0.657   0.539  0.4978  0.2594  0.9728
    2TTP    C38  749   7.134   0.709   0.680 -0.2421  0.4368  0.2921
    2TTP    C39  750   7.263   0.783   0.695 -0.9936 -0.8954 -0.2721
    2TTP    C40  751   7.289   0.815   0.843  0.2359  0.4643  0.1532
    2TTP    C41  752   7.423   0.874   0.882 -0.1604  0.5154 -0.7821
    2TTP    C42  753   7.434   0.891   1.034 -0.0342 -0.7779 -0.6926
    3TTP     S1  754   6.991  -0.381   1.520  0.1369  0.1531  0.2812
    3TTP     S5  755   7.044  -0.770   1.346 -0.1469  0.2846 -0.1017
    3TTP     C1  756   7.063  -0.784   1.526 -0.1673  0.0915 -0.1142
    3TTP     C2  757   7.048  -0.665   1.591 -0.0809  0.0397  0.0033
    3TTP     C3  758   7.020  -0.558   1.500  0.0044  0.1504  0.1074
    3TTP     C4  759   6.972  -0.366   1.340  0.1574  0.3462  0.2938
    3TTP    C17  760   6.987  -0.486   1.275  0.0710  0.3981  0.1763
    3TTP    C18  761   7.014  -0.593   1.366 -0.0144  0.2873  0.0721
    3TTP    C32  762   7.047  -0.637   1.742  0.2918  0.3464 -0.1530
    3TTP    C33  763   6.920  -0.575   1.806  0.6096 -0.2412 -0.0050
    3TTP    C34  764   6.913  -0.555   1.955  0.4054 -0.0465 -0.2608
    3TTP    C35  765   6.766  -0.513   1.996 -0.5313  0.3425 -0.0112
    3TTP    C36  766   6.729  -0.448   2.127 -0.0132  0.4355  0.7577
    3TTP    C37  767   6.803  -0.318   2.156  0.0608 -0.5921  0.2470
    3TTP    C38  768   6.752  -0.247   2.287  0.6013 -1.1310  0.8094
    3TTP    C39  769   6.856  -0.155   2.351  0.7311  0.1978 -0.0884
    3TTP    C40  770   6.923  -0.051   2.256  0.2890 -0.2089 -0.4236
    3TTP    C41  771   7.017   0.035   2.336 -0.3526  0.2810 -0.2249
    3TTP    C42  772   7.116   0.106   2.245 -0.2398 -0.0876  0.2002
    4FIC     F1  773   7.129  -0.652  -0.219  0.4566 -0.0311  0.0044
    4FIC     F2  774   7.162  -0.445  -0.393  0.0737  0.0092 -0.0226
    4FIC     O1  775   7.055  -0.385   0.246  0.1929 -0.1101  0.0087
    4FIC     N5  776   7.157   0.043  -0.310 -0.6652  0.0108 -0.0582
    4FIC     N6  777   7.093   0.210   0.088 -0.7941 -0.0589 -0.0494
    4FIC    C19  778   7.061  -0.093   0.246 -0.2668 -0.0999 -0.0155
    4FIC    C20  779   7.078  -0.168   0.135 -0.1854 -0.0815 -0.0155
    4FIC    C21  780   7.074  -0.318   0.144  0.0528 -0.0883 -0.0027
    4FIC    C22  781   7.096  -0.368   0.007  0.0858 -0.0639 -0.0063
    4FIC    C23  782   7.101  -0.500  -0.036  0.2795 -0.0607  0.0023
    4FIC    C24  783   7.123  -0.523  -0.171  0.2707 -0.0357 -0.0035
    4FIC    C25  784   7.140  -0.417  -0.260  0.0733 -0.0151 -0.0174
    4FIC    C26  785   7.136  -0.284  -0.218 -0.1210 -0.0181 -0.0260
    4FIC    C27  786   7.113  -0.259  -0.082 -0.1152 -0.0433 -0.0204
    4FIC    C28  787   7.103  -0.132  -0.006 -0.2897 -0.0532 -0.0265
    4FIC    C29  788   7.114  -0.005  -0.058 -0.5063 -0.0389 -0.0400
    4FIC    C30  789   7.138   0.021  -0.197 -0.5929 -0.0116 -0.0499
    4FIC    C31  790   7.103   0.113   0.023 -0.6633 -0.0501 -0.0451
    5FIC     F1  791   7.259  -1.558   1.330 -0.0190 -0.1022 -0.2289
    5FIC     F2  792   7.229  -1.626   1.592  0.4061 -0.1178 -0.1833
    5FIC     O1  793   7.156  -1.027   1.350 -0.4238 -0.1850 -0.1030
    5FIC     N5  794   7.113  -1.346   1.982  0.7287 -0.1994 -0.0279
    5FIC     N6  795   7.038  -0.917   1.945  0.3269 -0.2609  0.0612
    5FIC    C19  796   7.091  -0.903   1.607 -0.1614 -0.2295 -0.0146
    5FIC    C20  797   7.118  -1.034   1.592 -0.0762 -0.2080 -0.0481
    5FIC    C21  798   7.150  -1.091   1.456 -0.2216 -0.1858 -0.0926
    5FIC    C22  799   7.174  -1.235   1.476 -0.0771 -0.1661 -0.1211
    5FIC    C23  800   7.208  -1.329   1.379 -0.1372 -0.1419 -0.1652
    5FIC    C24  801   7.226  -1.460   1.421  0.0288 -0.1261 -0.1853
    5FIC    C25  802   7.210  -1.495   1.556  0.2477 -0.1343 -0.1618
    5FIC    C26  803   7.177  -1.401   1.653  0.3089 -0.1581 -0.1177
    5FIC    C27  804   7.159  -1.268   1.612  0.1429 -0.1744 -0.0968
    5FIC    C28  805   7.123  -1.146   1.689  0.1523 -0.2005 -0.0510
    5FIC    C29  806   7.100  -1.139   1.824  0.3374 -0.2152 -0.0177
    5FIC    C30  807   7.107  -1.253   1.911  0.5519 -0.2064 -0.0235
    5FIC    C31  808   7.066  -1.017   1.890  0.3303 -0.2401  0.0256
    1BTD     S2  809   7.143   5.036   1.546  0.0177  0.0864 -0.0229
    1BTD     N1  810   7.150   5.003   1.723 -0.1578  0.1308 -0.0079
    1BTD     N2  811   7.152   4.863   1.499  0.3959  0.0924  0.0194
    1BTD     N3  812   7.182   4.451   1.721  0.8496  0.1857  0.1326
    1BTD     N4  813   7.179   4.623   1.997  0.1674  0.2329  0.0989
    1BTD     C5  814   7.165   4.803   1.863  0.0200  0.1835  0.0482
    1BTD     C6  815   7.158   4.872   1.737  0.0629  0.1471  0.0260
    1BTD     C7  816   7.159   4.793   1.611  0.3730  0.1259  0.0414
    1BTD     C8  817   7.168   4.650   1.618  0.6245  0.1419  0.0781
    1BTD    C15  818   7.175   4.587   1.744  0.5717  0.1774  0.0988
    1BTD    C16  819   7.173   4.662   1.865  0.2732  0.1980  0.0841
    1BTD    C43  820   7.257   4.510   2.045 -0.3784 -0.1438  0.3774
    1BTD    C44  821   7.240   4.441   2.174  0.2529  0.6824 -0.7405
    1BTD    C45  822   7.096   4.388   2.206  0.4988  0.0263  0.1026
    1BTD    C46  823   7.056   4.290   2.325 -0.3217  0.3056  0.1224
    1BTD    C47  824   7.358   4.350   2.209  0.4959 -0.6534 -0.1467
    1BTD    C48  825   7.419   4.373   2.357 -0.4310  0.9392  0.0329
    1BTD    C49  826   7.509   4.489   2.393 -0.3887 -0.0616 -0.6616
    1BTD    C50  827   7.628   4.518   2.310  0.1890  0.1314 -0.3311
    1BTD    C75  828   7.152   4.333   1.803  0.2275  0.0295  0.2710
    1BTD    C76  829   7.012   4.272   1.818  1.0397  0.1574  0.0111
    1BTD    C77  830   6.915   4.358   1.898 -0.0528 -1.0772 -0.2622
    1BTD    C78  831   6.772   4.320   1.920  0.6214 -0.3075  0.4712
    1BTD    C79  832   7.016   4.124   1.860  0.1318  0.1376 -0.0797
    1BTD    C80  833   7.065   4.082   1.998 -0.1471  0.0803  0.0641
    1BTD    C81  834   7.030   3.932   2.009 -0.2164 -0.0923 -0.8781
    1BTD    C82  835   7.067   3.883   2.153 -0.5050  0.2298 -0.7269
    2TTP     S1  836   7.154   5.004   2.085 -0.0407 -0.0681 -0.1551
    2TTP     S5  837   7.158   4.684   2.372 -0.3474  0.0880  0.0244
    2TTP     C1  838   7.142   4.842   2.461 -0.1214  0.1597 -0.0591
    2TTP     C2  839   7.139   4.950   2.378 -0.0135  0.1159 -0.1193
    2TTP     C3  840   7.151   4.912   2.241 -0.1053  0.0240 -0.1019
    2TTP     C4  841   7.171   4.847   1.996 -0.2666 -0.1398 -0.0717
    2TTP    C17  842   7.173   4.739   2.079 -0.3746 -0.0958 -0.0114
    2TTP    C18  843   7.162   4.776   2.217 -0.2829 -0.0038 -0.0288
    2TTP    C32  844   7.141   5.102   2.413  0.0271 -0.2412  0.0947
    2TTP    C33  845   7.016   5.190   2.380 -0.1089  0.3206  0.6586
    2TTP    C34  846   7.047   5.338   2.401  0.1078 -0.8695 -0.9618
    2TTP    C35  847   7.163   5.410   2.328 -0.1974  0.0941  0.6758
    2TTP    C36  848   7.177   5.558   2.349 -0.1079 -0.0992 -0.0608
    2TTP    C37  849   7.306   5.601   2.296 -0.6491 -0.3417  0.4112
    2TTP    C38  850   7.369   5.731   2.349  0.4999 -0.3718 -0.1838
    2TTP    C39  851   7.478   5.797   2.275  0.2537 -0.6550  0.2164
    2TTP    C40  852   7.526   5.933   2.343 -0.3232  0.0143  0.2358
    2TTP    C41  853   7.648   5.984   2.270 -0.0259  0.1098 -0.2161
    2TTP    C42  854   7.720   6.107   2.336  0.6807  0.4811  0.3948
    3TTP     S1  855   7.205   4.546   1.342 -0.0651 -0.0156 -0.1905
    3TTP     S5  856   7.253   4.147   1.498  0.0607  0.0430 -0.0785
    3TTP     C1  857   7.283   4.144   1.318  0.1167  0.0119 -0.0684
    3TTP     C2  858   7.270   4.266   1.260  0.0813 -0.0079 -0.1025
    3TTP     C3  859   7.236   4.368   1.355  0.0083  0.0005 -0.1376
    3TTP     C4  860   7.175   4.549   1.522 -0.1211  0.0154 -0.2005
    3TTP    C17  861   7.188   4.427   1.580 -0.0856  0.0353 -0.1665
    3TTP    C18  862   7.222   4.325   1.486 -0.0128  0.0268 -0.1313
    3TTP    C32  863   7.288   4.309   1.111 -0.1458  0.3073  0.6889
    3TTP    C33  864   7.360   4.428   1.062 -0.4352 -0.3059  0.2708
    3TTP    C34  865   7.371   4.442   0.909  0.2769  0.1963  0.0727
    3TTP    C35  866   7.450   4.567   0.856 -0.2610  0.0167 -0.5935
    3TTP    C36  867   7.417   4.703   0.917  0.7120 -0.5967  0.1908
    3TTP    C37  868   7.273   4.762   0.889  0.3085  0.2469  0.6346
    3TTP    C38  869   7.247   4.899   0.952  0.0724  0.3624 -0.2607
    3TTP    C39  870   7.239   4.922   1.107  0.1039  0.0095  0.4850
    3TTP    C40  871   7.135   4.845   1.190 -0.2319  0.8423  0.1832
    3TTP    C41  872   6.987   4.861   1.142 -0.0134  0.1013  0.1990
    3TTP    C42  873   6.906   4.772   1.236  0.9188  0.8026  0.3352
    4FIC     F1  874   7.186   4.339   3.118 -0.1462 -0.2081 -0.0006
    4FIC     F2  875   7.129   4.552   3.277  0.0689 -0.2512  0.1353
    4FIC     O1  876   7.183   4.572   2.629 -0.2176  0.0447  0.1205
    4FIC     N5  877   7.045   5.025   3.158  0.3270 -0.1334  0.4172
    4FIC     N6  878   7.054   5.164   2.744  0.2278  0.0730  0.4845
    4FIC    C19  879   7.127   4.859   2.608 -0.0376  0.0932  0.2933
    4FIC    C20  880   7.130   4.792   2.725 -0.0279  0.0312  0.2577
    4FIC    C21  881   7.160   4.645   2.727 -0.1242  0.0101  0.1684
    4FIC    C22  882   7.155   4.604   2.869 -0.0857 -0.0596  0.1495
    4FIC    C23  883   7.176   4.476   2.921 -0.1459 -0.1006  0.0745
    4FIC    C24  884   7.167   4.462   3.059 -0.0916 -0.1649  0.0715
    4FIC    C25  885   7.137   4.572   3.141  0.0190 -0.1870  0.1417
    4FIC    C26  886   7.116   4.699   3.089  0.0795 -0.1465  0.2168
    4FIC    C27  887   7.126   4.716   2.950  0.0260 -0.0812  0.2210
    4FIC    C28  888   7.109   4.836   2.865  0.0659 -0.0261  0.2902
    4FIC    C29  889   7.080   4.963   2.907  0.1701 -0.0283  0.3693
    4FIC    C30  890   7.061   4.997   3.045  0.2561 -0.0861  0.3954
    4FIC    C31  891   7.066   5.073   2.817  0.2012  0.0274  0.4322
    5FIC     F1  892   7.369   3.336   1.446 -0.3635  0.0961 -0.2863
    5FIC     F2  893   7.410   3.303   1.179  0.1258  0.2968 -0.2370
    5FIC     O1  894   7.299   3.872   1.473 -0.3245  0.0868  0.0011
    5FIC     N5  895   7.420   3.637   0.815  0.8569  0.5790  0.0387
    5FIC     N6  896   7.358   4.063   0.890  0.7886  0.5313  0.2533
    5FIC    C19  897   7.314   4.031   1.228  0.1567  0.2753  0.1503
    5FIC    C20  898   7.330   3.897   1.231  0.1279  0.2699  0.0761
    5FIC    C21  899   7.321   3.822   1.361 -0.1256  0.1701  0.0022
    5FIC    C22  900   7.343   3.680   1.330 -0.0904  0.1912 -0.0678
    5FIC    C23  901   7.344   3.572   1.418 -0.2719  0.1222 -0.1492
    5FIC    C24  902   7.367   3.447   1.364 -0.1937  0.1601 -0.2048
    5FIC    C25  903   7.388   3.430   1.227  0.0584  0.2634 -0.1793
    5FIC    C26  904   7.387   3.537   1.138  0.2404  0.3326 -0.0982
    5FIC    C27  905   7.364   3.665   1.190  0.1649  0.2958 -0.0410
    5FIC    C28  906   7.357   3.798   1.125  0.3091  0.3483  0.0484
    5FIC    C29  907   7.373   3.823   0.990  0.5621  0.4501  0.0964
    5FIC    C30  908   7.399   3.721   0.894  0.7232  0.5207  0.0645
    5FIC    C31  909   7.365   3.955   0.936  0.6852  0.4942  0.1825
    1BTD     S2  910   6.830   4.636   1.605 -0.0315 -0.0669 -0.1727
    1BTD     N1  911   6.816   4.673   1.780 -0.3790 -0.1024 -0.1923
    1BTD     N2  912   6.820   4.808   1.553  0.2962 -0.0380 -0.1460
    1BTD     N3  913   6.773   5.224   1.764  0.3364 -0.0429 -0.1272
    1BTD     N4  914   6.768   5.058   2.044 -0.4957 -0.1222 -0.1843
    1BTD     C5  915   6.791   4.876   1.914 -0.4300 -0.1118 -0.1875
    1BTD     C6  916   6.804   4.804   1.790 -0.2401 -0.0913 -0.1787
    1BTD     C7  917   6.807   4.880   1.663  0.1378 -0.0554 -0.1529
    1BTD     C8  918   6.795   5.023   1.666  0.3072 -0.0416 -0.1369
    1BTD    C15  919   6.782   5.089   1.790  0.1108 -0.0623 -0.1463
    1BTD    C16  920   6.780   5.016   1.913 -0.2533 -0.0973 -0.1712
    1BTD    C43  921   6.734   5.191   2.105  0.2369 -0.2130  0.0850
    1BTD    C44  922   6.588   5.224   2.129  0.7642 -0.3856 -0.0082
    1BTD    C45  923   6.560   5.363   2.194  0.3619  0.4618  0.0265
    1BTD    C46  924   6.618   5.384   2.335 -0.2666 -0.2037  0.0098
    1BTD    C47  925   6.488   5.121   2.183  0.0219  0.2855  0.1937
    1BTD    C48  926   6.334   5.142   2.163  0.2887  0.0214  0.6041
    1BTD    C49  927   6.273   5.005   2.133  0.1902 -0.3066 -0.6138
    1BTD    C50  928   6.122   5.019   2.123 -0.6008  0.1764  0.8768
    1BTD    C75  929   6.782   5.350   1.849 -0.0372  0.2760  0.4947
    1BTD    C76  930   6.927   5.407   1.867 -0.7613  0.2104 -0.2934
    1BTD    C77  931   7.033   5.311   1.929 -0.3772  0.5124 -0.0696
    1BTD    C78  932   7.183   5.331   1.898  0.0771 -0.1361  0.7571
    1BTD    C79  933   6.942   5.554   1.919 -0.1599  0.7685  0.5422
    1BTD    C80  934   6.919   5.590   2.068  0.2741 -0.1173  0.1797
    1BTD    C81  935   6.924   5.740   2.117 -0.1503 -0.4364  0.8569
    1BTD    C82  936   6.902   5.739   2.267  0.4993 -0.5585  0.5036
    2TTP     S1  937   6.801   4.682   2.148 -0.4506  0.0256 -0.0645
    2TTP     S5  938   6.722   5.010   2.415  0.2065  0.2086 -0.0920
    2TTP     C1  939   6.722   4.855   2.512 -0.0163  0.2252 -0.0644
    2TTP     C2  940   6.746   4.745   2.435 -0.2322  0.1695 -0.0542
    2TTP     C3  941   6.766   4.778   2.297 -0.2296  0.1119 -0.0680
    2TTP     C4  942   6.801   4.836   2.052 -0.2278  0.0091 -0.0922
    2TTP    C17  943   6.777   4.947   2.129 -0.0119  0.0646 -0.1023
    2TTP    C18  944   6.757   4.913   2.267 -0.0144  0.1222 -0.0885
    2TTP    C32  945   6.769   4.597   2.487  0.5311 -0.4959 -0.5945
    2TTP    C33  946   6.719   4.468   2.420 -0.2601 -0.7146  0.0759
    2TTP    C34  947   6.583   4.472   2.355  0.4188  0.1996 -0.0567
    2TTP    C35  948   6.559   4.358   2.250 -0.2346 -1.2032  0.4786
    2TTP    C36  949   6.568   4.212   2.272 -0.0139 -0.2746  0.3201
    2TTP    C37  950   6.460   4.131   2.352 -0.7519 -0.0138 -0.2841
    2TTP    C38  951   6.492   3.979   2.359  0.3455  0.5808  0.1716
    2TTP    C39  952   6.615   3.933   2.431 -0.4697 -0.3655 -0.4078
    2TTP    C40  953   6.612   3.940   2.583  0.4294 -0.1915 -0.4767
    2TTP    C41  954   6.733   3.862   2.635  0.3196  0.5385 -0.6299
    2TTP    C42  955   6.767   3.914   2.775 -0.2016  0.1640 -0.2841
    3TTP     S1  956   6.792   5.141   1.385  0.1379  0.0099 -0.0687
    3TTP     S5  957   6.732   5.534   1.549 -0.2044 -0.0273 -0.1028
    3TTP     C1  958   6.729   5.546   1.367  0.0635 -0.0031 -0.1059
    3TTP     C2  959   6.748   5.425   1.306  0.1849  0.0097 -0.0955
    3TTP     C3  960   6.764   5.319   1.400  0.0708  0.0010 -0.0848
    3TTP     C4  961   6.794   5.129   1.567 -0.1302 -0.0144 -0.0657
    3TTP    C17  962   6.776   5.250   1.628 -0.2515 -0.0272 -0.0760
    3TTP    C18  963   6.759   5.356   1.534 -0.1374 -0.0184 -0.0868
    3TTP    C32  964   6.758   5.392   1.161  0.1528 -0.9761 -0.0413
    3TTP    C33  965   6.874   5.316   1.107 -0.1950  0.0321  0.1765
    3TTP    C34  966   6.884   5.297   0.954 -0.4030  0.6266  0.1871
    3TTP    C35  967   7.002   5.199   0.924 -0.3849 -0.7742  0.2862
    3TTP    C36  968   7.011   5.140   0.775  0.0989  0.0476  0.1141
    3TTP    C37  969   6.899   5.043   0.740  0.1075  0.8884  0.1308
    3TTP    C38  970   6.932   4.985   0.600  0.5419 -0.6442  0.6083
    3TTP    C39  971   6.814   4.922   0.524  0.3611 -0.1814  0.0544
    3TTP    C40  972   6.829   4.861   0.384  0.2925 -0.9860 -0.5777
    3TTP    C41  973   6.826   4.971   0.273 -1.0546  0.1574 -0.1131
    3TTP    C42  974   6.837   4.921   0.125  0.4013 -0.5750  0.0682
    4FIC     F1  975   6.598   5.371   3.137 -0.2542 -0.1918  0.0966
    4FIC     F2  976   6.663   5.169   3.308  0.0987 -0.1519  0.0100
    4FIC     O1  977   6.640   5.118   2.660 -0.2502 -0.0341  0.0131
    4FIC     N5  978   6.787   4.699   3.213  0.6092  0.0184 -0.1737
    4FIC     N6  979   6.806   4.542   2.806  0.5411  0.1336 -0.2215
    4FIC    C19  980   6.717   4.836   2.653  0.0885  0.0603 -0.0992
    4FIC    C20  981   6.704   4.907   2.767  0.0737  0.0190 -0.0748
    4FIC    C21  982   6.664   5.052   2.762 -0.1051 -0.0281 -0.0170
    4FIC    C22  983   6.659   5.099   2.902 -0.0733 -0.0653 -0.0033
    4FIC    C23  984   6.627   5.226   2.947 -0.1990 -0.1147  0.0458
    4FIC    C24  985   6.629   5.247   3.085 -0.1371 -0.1429  0.0491
    4FIC    C25  986   6.663   5.143   3.172  0.0447 -0.1223  0.0045
    4FIC    C26  987   6.695   5.016   3.127  0.1706 -0.0731 -0.0446
    4FIC    C27  988   6.693   4.993   2.989  0.1107 -0.0439 -0.0488
    4FIC    C28  989   6.722   4.871   2.909  0.2084  0.0088 -0.0944
    4FIC    C29  990   6.759   4.748   2.959  0.3892  0.0417 -0.1452
    4FIC    C30  991   6.774   4.721   3.099  0.5094  0.0288 -0.1606
    4FIC    C31  992   6.785   4.635   2.875  0.4717  0.0921 -0.1869
    5FIC     F1  993   6.585   6.341   1.522 -0.0567 -0.0652 -0.1357
    5FIC     F2  994   6.589   6.388   1.254 -0.1528 -0.0924 -0.1420
    5FIC     O1  995   6.674   5.807   1.533  0.0794 -0.0418 -0.1074
    5FIC     N5  996   6.658   6.075   0.877 -0.1941 -0.1153 -0.1308
    5FIC     N6  997   6.727   5.649   0.940 -0.0684 -0.0916 -0.1075
    5FIC    C19  998   6.709   5.663   1.282  0.0358 -0.0599 -0.1034
    5FIC    C20  999   6.687   5.795   1.289  0.0052 -0.0646 -0.1103
    5FIC    C21 1000   6.670   5.862   1.422  0.0306 -0.0548 -0.1119
    5FIC    C22 1001   6.647   6.005   1.394 -0.0137 -0.0634 -0.1198
    5FIC    C23 1002   6.626   6.108   1.487 -0.0100 -0.0589 -0.1239
    5FIC    C24 1003   6.607   6.236   1.436 -0.0575 -0.0689 -0.1313
    5FIC    C25 1004   6.609   6.260   1.298 -0.1070 -0.0830 -0.1346
    5FIC    C26 1005   6.630   6.158   1.206 -0.1110 -0.0876 -0.1305
    5FIC    C27 1006   6.649   6.028   1.255 -0.0633 -0.0774 -0.1230
    5FIC    C28 1007   6.674   5.900   1.184 -0.0534 -0.0788 -0.1172
    5FIC    C29 1008   6.683   5.881   1.048 -0.0919 -0.0910 -0.1182
    5FIC    C30 1009   6.669   5.988   0.954 -0.1481 -0.1042 -0.1251
    5FIC    C31 1010   6.707   5.753   0.989 -0.0788 -0.0913 -0.1123
    1BTD     S2 1011   6.447   1.565   0.991 -0.1940 -0.1055 -0.3290
    1BTD     N1 1012   6.478   1.612   0.821 -0.6602 -0.1550 -0.4308
    1BTD     N2 1013   6.433   1.734   1.051  0.4854 -0.0768 -0.2357
    1BTD     N3 1014   6.461   2.164   0.865  1.0281 -0.1078 -0.2295
    1BTD     N4 1015   6.516   2.015   0.581 -0.3834 -0.2042 -0.4698
    1BTD     C5 1016   6.497   1.824   0.699 -0.4988 -0.1796 -0.4483
    1BTD     C6 1017   6.476   1.745   0.817 -0.3039 -0.1480 -0.3920
    1BTD     C7 1018   6.451   1.813   0.946  0.3374 -0.1042 -0.2829
    1BTD     C8 1019   6.448   1.957   0.951  0.7517 -0.0942 -0.2354
    1BTD    C15 1020   6.469   2.030   0.833  0.5408 -0.1261 -0.2935
    1BTD    C16 1021   6.493   1.965   0.708 -0.0772 -0.1683 -0.3986
    1BTD    C43 1022   6.591   2.143   0.543  0.3376  0.1946  0.0075
    1BTD    C44 1023   6.569   2.224   0.418  0.6253 -1.2075  0.6126
    1BTD    C45 1024   6.682   2.337   0.416  0.6550  0.9419 -0.4533
    1BTD    C46 1025   6.829   2.306   0.414 -0.5240  0.1483  0.6618
    1BTD    C47 1026   6.417   2.271   0.403  0.0623 -0.1299 -0.0409
    1BTD    C48 1027   6.374   2.374   0.295 -0.0318 -0.4712 -0.3734
    1BTD    C49 1028   6.421   2.343   0.156 -0.2980 -0.2474  0.0628
    1BTD    C50 1029   6.365   2.426   0.044  0.3990 -0.1321 -0.3267
    1BTD    C75 1030   6.407   2.273   0.777  0.4517 -0.3468 -0.0471
    1BTD    C76 1031   6.450   2.421   0.777  0.2962 -0.2068 -0.4928
    1BTD    C77 1032   6.597   2.448   0.747  0.0439 -0.3223 -0.8363
    1BTD    C78 1033   6.700   2.397   0.848 -0.3376 -0.8496  0.1086
    1BTD    C79 1034   6.353   2.511   0.701  0.0315  0.4493  0.2603
    1BTD    C80 1035   6.350   2.659   0.730 -0.1434 -0.0389 -0.2033
    1BTD    C81 1036   6.245   2.746   0.650 -0.4881  0.0390 -0.7187
    1BTD    C82 1037   6.199   2.866   0.723  0.5243 -0.7579 -0.2621
    2TTP     S1 1038   6.509   1.642   0.466 -0.4490 -0.0949  0.0972
    2TTP     S5 1039   6.543   1.978   0.200  0.3839 -0.1401  0.1413
    2TTP     C1 1040   6.532   1.827   0.101  0.2372 -0.1194  0.1255
    2TTP     C2 1041   6.521   1.714   0.177 -0.0286 -0.1042  0.1109
    2TTP     C3 1042   6.520   1.743   0.317 -0.1261 -0.1084  0.1117
    2TTP     C4 1043   6.520   1.794   0.566 -0.3024 -0.1155  0.1130
    2TTP    C17 1044   6.531   1.906   0.490 -0.0367 -0.1307  0.1275
    2TTP    C18 1045   6.531   1.877   0.350  0.0610 -0.1266  0.1267
    2TTP    C32 1046   6.523   1.570   0.123  0.7292 -0.7352 -0.0386
    2TTP    C33 1047   6.422   1.472   0.170  0.6314 -0.0674 -0.0918
    2TTP    C34 1048   6.452   1.333   0.115 -0.3608 -0.7623  0.2645
    2TTP    C35 1049   6.349   1.239   0.161 -0.7086  0.2246  0.0256
    2TTP    C36 1050   6.373   1.095   0.114 -0.2146 -0.5523  0.0336
    2TTP    C37 1051   6.284   0.986   0.176 -0.6458 -0.0764  0.0576
    2TTP    C38 1052   6.308   0.840   0.131 -0.1619 -0.2506  0.7277
    2TTP    C39 1053   6.445   0.778   0.162  0.5655 -0.6758 -0.4233
    2TTP    C40 1054   6.440   0.641   0.095 -0.4989  0.0609 -0.5696
    2TTP    C41 1055   6.579   0.586   0.068 -0.6675  0.5716 -0.4490
    2TTP    C42 1056   6.646   0.521   0.187 -0.0225  0.0299 -0.1343
    3TTP     S1 1057   6.398   2.050   1.239  0.3540  0.1515  0.1620
    3TTP     S5 1058   6.393   2.455   1.094 -0.2861 -0.0416 -0.3652
    3TTP     C1 1059   6.358   2.457   1.272 -0.0998  0.1491 -0.3295
    3TTP     C2 1060   6.357   2.332   1.327  0.1088  0.2199 -0.1646
    3TTP     C3 1061   6.385   2.230   1.231  0.1290  0.1262 -0.0604
    3TTP     C4 1062   6.433   2.048   1.060  0.1675 -0.0392  0.1263
    3TTP    C17 1063   6.434   2.173   1.005 -0.0411 -0.1099 -0.0386
    3TTP    C18 1064   6.406   2.275   1.102 -0.0614 -0.0163 -0.1427
    3TTP    C32 1065   6.334   2.294   1.475 -0.0002  0.7829 -0.4641
    3TTP    C33 1066   6.435   2.201   1.549 -0.1954  0.0890  0.4893
    3TTP    C34 1067   6.366   2.130   1.666  0.0042  0.1945  0.0991
    3TTP    C35 1068   6.301   2.209   1.788 -0.0407 -0.9151  0.0006
    3TTP    C36 1069   6.262   2.139   1.911 -0.2710  0.4347  0.2002
    3TTP    C37 1070   6.204   2.230   2.014  0.4061  0.3767  0.1164
    3TTP    C38 1071   6.171   2.173   2.152  0.5302 -0.0193 -0.0304
    3TTP    C39 1072   6.282   2.160   2.253 -0.3194  0.6482  0.2312
    3TTP    C40 1073   6.237   2.082   2.373  0.1891  0.0550 -0.0559
    3TTP    C41 1074   6.349   2.043   2.470  0.5776  0.9231  0.0892
    3TTP    C42 1075   6.309   1.944   2.585 -0.3322 -0.2377 -0.5225
    4FIC     F1 1076   6.577   2.340  -0.552  0.2942 -0.0057 -0.1447
    4FIC     F2 1077   6.600   2.121  -0.711 -0.3239 -0.0525 -0.1758
    4FIC     O1 1078   6.530   2.109  -0.065  0.8214  0.0964 -0.0440
    4FIC     N5 1079   6.600   1.640  -0.593 -0.8364 -0.0469 -0.1487
    4FIC     N6 1080   6.559   1.504  -0.180 -0.2998  0.0423 -0.0638
    4FIC    C19 1081   6.535   1.817  -0.044  0.4183  0.0880 -0.0380
    4FIC    C20 1082   6.546   1.884  -0.160  0.3098  0.0642 -0.0621
    4FIC    C21 1083   6.542   2.034  -0.163  0.5318  0.0703 -0.0637
    4FIC    C22 1084   6.557   2.074  -0.304  0.3375  0.0395 -0.0926
    4FIC    C23 1085   6.559   2.203  -0.356  0.4386  0.0333 -0.1040
    4FIC    C24 1086   6.574   2.216  -0.494  0.2108  0.0021 -0.1320
    4FIC    C25 1087   6.586   2.102  -0.575 -0.1074 -0.0220 -0.1481
    4FIC    C26 1088   6.584   1.973  -0.524 -0.2097 -0.0159 -0.1368
    4FIC    C27 1089   6.569   1.958  -0.385  0.0173  0.0155 -0.1084
    4FIC    C28 1090   6.563   1.837  -0.300 -0.0124  0.0297 -0.0904
    4FIC    C29 1091   6.571   1.707  -0.343 -0.2862  0.0139 -0.0982
    4FIC    C30 1092   6.587   1.671  -0.480 -0.5877 -0.0195 -0.1260
    4FIC    C31 1093   6.564   1.596  -0.253 -0.2922  0.0296 -0.0793
    5FIC     F1 1094   6.275   3.267   1.152 -0.0626 -0.1677 -0.5035
    5FIC     F2 1095   6.262   3.300   1.422 -0.1470  0.0670 -0.5354
    5FIC     O1 1096   6.332   2.730   1.116  0.1022 -0.1845 -0.0131
    5FIC     N5 1097   6.282   2.963   1.784 -0.1508  0.3924 -0.2317
    5FIC     N6 1098   6.329   2.537   1.701 -0.0049  0.3321  0.1579
    5FIC    C19 1099   6.338   2.570   1.361  0.0801  0.0338  0.1306
    5FIC    C20 1100   6.325   2.704   1.359  0.0421  0.0288  0.0085
    5FIC    C21 1101   6.322   2.779   1.229  0.0565 -0.0867 -0.0590
    5FIC    C22 1102   6.306   2.922   1.264  0.0058 -0.0606 -0.1893
    5FIC    C23 1103   6.299   3.030   1.176 -0.0010 -0.1398 -0.2872
    5FIC    C24 1104   6.284   3.156   1.232 -0.0529 -0.0944 -0.4026
    5FIC    C25 1105   6.277   3.172   1.371 -0.0962  0.0266 -0.4188
    5FIC    C26 1106   6.284   3.065   1.459 -0.0898  0.1061 -0.3216
    5FIC    C27 1107   6.299   2.937   1.404 -0.0374  0.0618 -0.2040
    5FIC    C28 1108   6.310   2.803   1.468 -0.0169  0.1215 -0.0831
    5FIC    C29 1109   6.308   2.777   1.604 -0.0471  0.2401 -0.0605
    5FIC    C30 1110   6.294   2.880   1.702 -0.1040  0.3234 -0.1547
    5FIC    C31 1111   6.319   2.645   1.656 -0.0238  0.2900  0.0596
    1BTD     S2 1112   6.836   2.083   0.894 -0.4952 -0.1099  0.2139
    1BTD     N1 1113   6.864   2.011   0.732 -0.6033 -0.0552  0.1707
    1BTD     N2 1114   6.813   1.925   0.977 -0.2301 -0.1476  0.2173
    1BTD     N3 1115   6.817   1.473   0.851  0.1141 -0.1256  0.1464
    1BTD     N4 1116   6.880   1.579   0.550 -0.3456 -0.0117  0.0890
    1BTD     C5 1117   6.872   1.784   0.640 -0.4632 -0.0339  0.1287
    1BTD     C6 1118   6.856   1.880   0.747 -0.4448 -0.0672  0.1616
    1BTD     C7 1119   6.827   1.832   0.884 -0.2358 -0.1189  0.1876
    1BTD     C8 1120   6.816   1.690   0.907 -0.0559 -0.1348  0.1796
    1BTD    C15 1121   6.833   1.600   0.800 -0.0816 -0.1008  0.1471
    1BTD    C16 1122   6.860   1.647   0.668 -0.2829 -0.0510  0.1220
    1BTD    C43 1123   6.954   1.454   0.527 -0.1885  0.5902  0.4272
    1BTD    C44 1124   6.950   1.353   0.406 -1.0817 -0.5041 -0.3307
    1BTD    C45 1125   6.814   1.300   0.377  0.3141 -0.0230  0.5069
    1BTD    C46 1126   6.797   1.187   0.271  0.5336 -0.0290 -0.0099
    1BTD    C47 1127   7.075   1.262   0.402  0.3128 -0.0171  0.2461
    1BTD    C48 1128   7.210   1.316   0.367  0.0542  0.4555 -1.0209
    1BTD    C49 1129   7.218   1.393   0.236 -0.5418  0.2759  0.9971
    1BTD    C50 1130   7.199   1.322   0.098 -0.3351 -0.1820  0.2354
    1BTD    C75 1131   6.752   1.371   0.770  0.2962  0.3462 -0.0942
    1BTD    C76 1132   6.756   1.218   0.801 -0.7054  0.1275  0.2321
    1BTD    C77 1133   6.904   1.164   0.793  0.1063 -0.4366 -0.3882
    1BTD    C78 1134   6.933   1.017   0.819  0.5897  0.2968  0.0369
    1BTD    C79 1135   6.653   1.145   0.715  0.0732  0.8183  0.5178
    1BTD    C80 1136   6.509   1.193   0.724 -0.2911  0.0122  0.4526
    1BTD    C81 1137   6.446   1.201   0.579 -0.3103 -0.0602 -0.3611
    1BTD    C82 1138   6.301   1.247   0.582  0.0330 -0.5342  0.3425
    2TTP     S1 1139   6.908   1.932   0.376  0.2943 -0.1177  0.0260
    2TTP     S5 1140   6.885   1.556   0.170 -0.0924 -0.0277 -0.0972
    2TTP     C1 1141   6.899   1.688   0.047  0.1601 -0.0095 -0.0505
    2TTP     C2 1142   6.907   1.813   0.103  0.2944 -0.0362 -0.0097
    2TTP     C3 1143   6.902   1.807   0.246  0.2028 -0.0720 -0.0139
    2TTP     C4 1144   6.894   1.799   0.500  0.0417 -0.1359 -0.0207
    2TTP    C17 1145   6.886   1.675   0.443 -0.0925 -0.1091 -0.0615
    2TTP    C18 1146   6.891   1.681   0.301 -0.0007 -0.0733 -0.0573
    2TTP    C32 1147   6.915   1.946   0.019  0.0825  0.1139  0.3700
    2TTP    C33 1148   6.882   2.079   0.077 -0.5278  0.4332  0.0971
    2TTP    C34 1149   6.924   2.179  -0.023  0.2876  0.6747 -0.2286
    2TTP    C35 1150   6.879   2.320   0.028  0.3149 -0.1618  0.7434
    2TTP    C36 1151   6.939   2.434  -0.056 -0.0576 -0.2773 -0.2346
    2TTP    C37 1152   6.875   2.574  -0.010 -0.8654  0.7059  0.0704
    2TTP    C38 1153   6.963   2.684  -0.065  0.8156 -0.2156  0.0002
    2TTP    C39 1154   6.932   2.837  -0.034 -0.4098 -0.2599 -0.2187
    2TTP    C40 1155   6.936   2.875   0.112  0.4041 -0.3095 -0.6093
    2TTP    C41 1156   6.936   3.026   0.153 -0.4913 -0.4418 -1.0051
    2TTP    C42 1157   6.816   3.108   0.117  0.6466 -0.3209 -0.5187
    3TTP     S1 1158   6.823   1.646   1.200 -0.1548 -0.0925  0.0387
    3TTP     S5 1159   6.839   1.221   1.140  0.0197 -0.0446 -0.2592
    3TTP     C1 1160   6.857   1.255   1.318 -0.0051 -0.1621 -0.2339
    3TTP     C2 1161   6.853   1.388   1.347 -0.0603 -0.1838 -0.1404
    3TTP     C3 1162   6.836   1.468   1.230 -0.0854 -0.1084 -0.0854
    3TTP     C4 1163   6.805   1.612   1.022 -0.1301  0.0250  0.0134
    3TTP    C17 1164   6.809   1.479   0.993 -0.0748  0.0467 -0.0800
    3TTP    C18 1165   6.826   1.399   1.110 -0.0501 -0.0287 -0.1351
    3TTP    C32 1166   6.860   1.454   1.491 -0.3390  0.1707  0.1833
    3TTP    C33 1167   6.783   1.577   1.526  0.0239 -0.4071 -0.2536
    3TTP    C34 1168   6.826   1.651   1.656  0.2448 -0.4203 -0.0951
    3TTP    C35 1169   6.746   1.777   1.683  0.1930  0.0911 -0.1624
    3TTP    C36 1170   6.780   1.841   1.816  0.1030  0.7199 -0.2588
    3TTP    C37 1171   6.709   1.971   1.823 -0.1717  0.2341  0.9079
    3TTP    C38 1172   6.733   2.012   1.968  0.5495 -0.2306  0.2994
    3TTP    C39 1173   6.646   2.112   2.036 -0.1547 -0.2594 -0.1585
    3TTP    C40 1174   6.635   2.250   1.974 -0.4634 -0.6714 -0.1703
    3TTP    C41 1175   6.593   2.348   2.090 -0.6257 -0.0331  0.4053
    3TTP    C42 1176   6.546   2.473   2.017 -0.0960  0.4654 -0.6223
    4FIC     F1 1177   6.856   1.070  -0.497  0.0861 -0.1006 -0.2328
    4FIC     F2 1178   6.911   1.250  -0.694 -0.0663 -0.0183 -0.2006
    4FIC     O1 1179   6.853   1.392  -0.062  0.0782 -0.2252 -0.1407
    4FIC     N5 1180   6.989   1.738  -0.666 -0.2905  0.0113 -0.0887
    4FIC     N6 1181   6.975   1.953  -0.286 -0.2660 -0.1026 -0.0233
    4FIC    C19 1182   6.905   1.678  -0.095 -0.0700 -0.1908 -0.0772
    4FIC    C20 1183   6.903   1.590  -0.197 -0.0620 -0.1627 -0.1017
    4FIC    C21 1184   6.876   1.444  -0.172  0.0161 -0.1830 -0.1336
    4FIC    C22 1185   6.882   1.377  -0.303  0.0041 -0.1430 -0.1545
    4FIC    C23 1186   6.863   1.242  -0.331  0.0595 -0.1444 -0.1863
    4FIC    C24 1187   6.873   1.202  -0.463  0.0342 -0.1019 -0.2012
    4FIC    C25 1188   6.902   1.295  -0.564 -0.0442 -0.0595 -0.1846
    4FIC    C26 1189   6.921   1.430  -0.537 -0.0999 -0.0578 -0.1528
    4FIC    C27 1190   6.911   1.472  -0.404 -0.0755 -0.1006 -0.1374
    4FIC    C28 1191   6.925   1.607  -0.343 -0.1192 -0.1109 -0.1042
    4FIC    C29 1192   6.953   1.724  -0.408 -0.1974 -0.0787 -0.0805
    4FIC    C30 1193   6.973   1.731  -0.550 -0.2483 -0.0294 -0.0851
    4FIC    C31 1194   6.965   1.849  -0.341 -0.2347 -0.0920 -0.0491
    5FIC     F1 1195   6.968   0.441   1.323 -0.1284  0.2826 -0.1738
    5FIC     F2 1196   6.934   0.445   1.593 -0.4046  0.1483 -0.2058
    5FIC     O1 1197   6.918   0.968   1.206 -0.1848  0.3194  0.0155
    5FIC     N5 1198   6.850   0.826   1.898 -0.8416 -0.0186 -0.1169
    5FIC     N6 1199   6.818   1.236   1.753 -0.8301  0.0373  0.0374
    5FIC    C19 1200   6.868   1.158   1.423 -0.4686  0.2042  0.0521
    5FIC    C20 1201   6.882   1.026   1.442 -0.4437  0.2001  0.0058
    5FIC    C21 1202   6.907   0.934   1.325 -0.2947  0.2617 -0.0104
    5FIC    C22 1203   6.917   0.798   1.381 -0.3057  0.2397 -0.0625
    5FIC    C23 1204   6.940   0.679   1.311 -0.1956  0.2789 -0.0933
    5FIC    C24 1205   6.946   0.562   1.385 -0.2321  0.2468 -0.1413
    5FIC    C25 1206   6.928   0.564   1.525 -0.3743  0.1776 -0.1577
    5FIC    C26 1207   6.905   0.682   1.594 -0.4846  0.1381 -0.1272
    5FIC    C27 1208   6.900   0.802   1.521 -0.4500  0.1697 -0.0784
    5FIC    C28 1209   6.877   0.942   1.564 -0.5404  0.1427 -0.0371
    5FIC    C29 1210   6.856   0.986   1.693 -0.6859  0.0770 -0.0384
    5FIC    C30 1211   6.853   0.897   1.805 -0.7710  0.0247 -0.0815
    5FIC    C31 1212   6.835   1.123   1.725 -0.7644  0.0555  0.0033
    1BTD     S2 1213   6.841   7.005   1.728 -0.2403 -0.0061 -0.2147
    1BTD     N1 1214   6.832   6.955   1.900 -0.5838  0.0165 -0.2242
    1BTD     N2 1215   6.857   6.838   1.664  0.2775  0.0101 -0.1383
    1BTD     N3 1216   6.873   6.405   1.846  0.7126  0.0837  0.0002
    1BTD     N4 1217   6.843   6.549   2.136 -0.3488  0.0912 -0.1058
    1BTD     C5 1218   6.838   6.741   2.020 -0.4481  0.0554 -0.1611
    1BTD     C6 1219   6.841   6.823   1.901 -0.3090  0.0337 -0.1726
    1BTD     C7 1220   6.855   6.757   1.769  0.1731  0.0303 -0.1245
    1BTD     C8 1221   6.865   6.614   1.762  0.4919  0.0486 -0.0673
    1BTD    C15 1222   6.862   6.538   1.881  0.3401  0.0694 -0.0580
    1BTD    C16 1223   6.849   6.601   2.009 -0.1242  0.0727 -0.1043
    1BTD    C43 1224   6.922   6.430   2.184  0.1249 -0.0256  0.7131
    1BTD    C44 1225   6.913   6.345   2.311 -0.2528 -0.2559 -0.5089
    1BTD    C45 1226   6.789   6.254   2.317  0.0970 -0.6295  1.2291
    1BTD    C46 1227   6.772   6.188   2.451  0.1742  0.1552  0.6561
    1BTD    C47 1228   7.042   6.271   2.346  0.2507 -0.1075 -0.3732
    1BTD    C48 1229   7.161   6.359   2.376 -0.0509 -0.1602  0.1491
    1BTD    C49 1230   7.164   6.474   2.479  0.8505 -0.0430 -0.0009
    1BTD    C50 1231   7.145   6.434   2.619  0.0996 -0.5718 -0.1951
    1BTD    C75 1232   6.823   6.283   1.917 -0.2728 -0.9174  0.4532
    1BTD    C76 1233   6.685   6.223   1.890  0.7007  0.1252 -0.3127
    1BTD    C77 1234   6.553   6.296   1.912  0.1531 -0.7787  0.2564
    1BTD    C78 1235   6.500   6.307   2.056  0.0857  0.0542  0.1079
    1BTD    C79 1236   6.686   6.072   1.942 -0.2298 -0.1156  0.1639
    1BTD    C80 1237   6.570   5.981   1.898  0.0625 -0.0707 -0.0680
    1BTD    C81 1238   6.614   5.837   1.876  0.3433 -0.4909 -0.2593
    1BTD    C82 1239   6.510   5.727   1.875  0.4440  0.0635  0.5952
    2TTP     S1 1240   6.814   6.920   2.256  0.3415  0.0225  0.0574
    2TTP     S5 1241   6.799   6.578   2.517  0.4389  0.0943  0.1571
    2TTP     C1 1242   6.788   6.729   2.618  0.1634  0.1170  0.0949
    2TTP     C2 1243   6.792   6.843   2.544  0.1168  0.0964  0.0604
    2TTP     C3 1244   6.804   6.816   2.404  0.2975  0.0615  0.0818
    2TTP     C4 1245   6.825   6.770   2.155  0.6174 -0.0004  0.1196
    2TTP    C17 1246   6.821   6.655   2.229  0.6637  0.0204  0.1540
    2TTP    C18 1247   6.809   6.682   2.369  0.4830  0.0553  0.1326
    2TTP    C32 1248   6.804   6.988   2.589 -0.6387 -0.2619 -0.0741
    2TTP    C33 1249   6.707   7.094   2.541 -0.5098  0.5631 -0.4448
    2TTP    C34 1250   6.732   7.235   2.592 -0.0706  1.2553  0.8994
    2TTP    C35 1251   6.667   7.263   2.725 -0.9996  0.5109 -0.3651
    2TTP    C36 1252   6.715   7.396   2.781 -0.2013  0.4592  0.8224
    2TTP    C37 1253   6.688   7.437   2.922 -0.0202 -0.3100 -0.1395
    2TTP    C38 1254   6.727   7.334   3.033  0.0473  0.0636  0.0801
    2TTP    C39 1255   6.672   7.362   3.172 -0.2638 -0.3568  0.0732
    2TTP    C40 1256   6.661   7.242   3.269 -0.0223 -0.6291 -0.2667
    2TTP    C41 1257   6.626   7.279   3.417 -0.7035 -0.0812  0.1978
    2TTP    C42 1258   6.597   7.153   3.501 -0.7731  0.4413 -0.4729
    3TTP     S1 1259   6.926   6.523   1.474  0.4474  0.1408 -0.0959
    3TTP     S5 1260   6.956   6.118   1.614 -0.3661 -0.0215 -0.3789
    3TTP     C1 1261   6.993   6.120   1.436 -0.1194  0.0671 -0.3282
    3TTP     C2 1262   6.985   6.245   1.382  0.1464  0.1225 -0.2377
    3TTP     C3 1263   6.951   6.344   1.480  0.1646  0.0968 -0.2053
    3TTP     C4 1264   6.890   6.520   1.652  0.2006  0.0522 -0.1467
    3TTP    C17 1265   6.897   6.395   1.706 -0.0653 -0.0032 -0.2370
    3TTP    C18 1266   6.931   6.297   1.609 -0.0834  0.0224 -0.2695
    3TTP    C32 1267   7.018   6.290   1.236 -0.2043  0.0537 -0.2753
    3TTP    C33 1268   6.911   6.371   1.160 -0.1756  0.3084 -0.8039
    3TTP    C34 1269   6.939   6.393   1.010  0.4016 -0.9430  0.1720
    3TTP    C35 1270   6.825   6.436   0.919  0.3451 -0.4411 -0.2866
    3TTP    C36 1271   6.856   6.466   0.770 -0.1982 -0.8636  0.3255
    3TTP    C37 1272   6.739   6.490   0.677  0.4203  0.3385  0.4866
    3TTP    C38 1273   6.677   6.627   0.693 -0.2059 -0.0142 -0.7573
    3TTP    C39 1274   6.567   6.656   0.592 -0.2473  0.8353 -0.0394
    3TTP    C40 1275   6.469   6.772   0.622  0.1777  0.3634  0.2883
    3TTP    C41 1276   6.363   6.796   0.515 -0.5776  0.2004 -0.2552
    3TTP    C42 1277   6.407   6.847   0.384 -0.3418 -0.5500  0.4321
    4FIC     F1 1278   6.635   6.178   3.212 -0.0976  0.0336 -0.2017
    4FIC     F2 1279   6.643   6.381   3.394  0.4624 -0.1315 -0.0378
    4FIC     O1 1280   6.724   6.449   2.752 -0.4951  0.3119 -0.1165
    4FIC     N5 1281   6.718   6.865   3.327  0.9845 -0.1702  0.2583
    4FIC     N6 1282   6.787   7.036   2.931  0.5609  0.0805  0.2919
    4FIC    C19 1283   6.764   6.738   2.762 -0.1011  0.2531  0.0703
    4FIC    C20 1284   6.741   6.662   2.871 -0.0231  0.1895  0.0424
    4FIC    C21 1285   6.722   6.514   2.858 -0.2379  0.2252 -0.0547
    4FIC    C22 1286   6.699   6.462   2.994 -0.0827  0.1379 -0.0616
    4FIC    C23 1287   6.676   6.331   3.032 -0.1922  0.1341 -0.1384
    4FIC    C24 1288   6.658   6.306   3.168 -0.0037  0.0427 -0.1284
    4FIC    C25 1289   6.662   6.411   3.261  0.2848 -0.0424 -0.0440
    4FIC    C26 1290   6.684   6.542   3.223  0.3954 -0.0392  0.0329
    4FIC    C27 1291   6.704   6.569   3.087  0.2079  0.0528  0.0241
    4FIC    C28 1292   6.730   6.696   3.015  0.2561  0.0813  0.0914
    4FIC    C29 1293   6.741   6.821   3.071  0.5107  0.0191  0.1819
    4FIC    C30 1294   6.728   6.845   3.211  0.7703 -0.0848  0.2236
    4FIC    C31 1295   6.766   6.939   2.993  0.5368  0.0532  0.2419
    5FIC     F1 1296   7.132   5.320   1.581  0.0418  0.0818 -0.0438
    5FIC     F2 1297   7.163   5.284   1.313  0.5236  0.1318  0.0033
    5FIC     O1 1298   7.029   5.851   1.602 -0.5366 -0.0238 -0.1738
    5FIC     N5 1299   7.134   5.611   0.943  0.8037  0.1286 -0.0215
    5FIC     N6 1300   7.047   6.033   1.013  0.2549  0.0360 -0.1327
    5FIC    C19 1301   7.022   6.005   1.354 -0.2819 -0.0134 -0.1749
    5FIC    C20 1302   7.047   5.873   1.359 -0.1551  0.0111 -0.1441
    5FIC    C21 1303   7.049   5.801   1.490 -0.2996  0.0038 -0.1457
    5FIC    C22 1304   7.078   5.659   1.460 -0.1047  0.0359 -0.1076
    5FIC    C23 1305   7.090   5.554   1.550 -0.1463  0.0417 -0.0953
    5FIC    C24 1306   7.119   5.429   1.498  0.0689  0.0742 -0.0578
    5FIC    C25 1307   7.135   5.410   1.360  0.3167  0.1000 -0.0336
    5FIC    C26 1308   7.123   5.515   1.269  0.3595  0.0944 -0.0457
    5FIC    C27 1309   7.094   5.643   1.320  0.1442  0.0618 -0.0835
    5FIC    C28 1310   7.075   5.773   1.253  0.1233  0.0474 -0.1050
    5FIC    C29 1311   7.083   5.797   1.117  0.3235  0.0646 -0.0912
    5FIC    C30 1312   7.111   5.695   1.022  0.5869  0.0998 -0.0530
    5FIC    C31 1313   7.063   5.927   1.061  0.2847  0.0488 -0.1141
    1BTD     S2 1314   6.517   6.600   1.690  0.0341  0.0449  0.0212
    1BTD     N1 1315   6.482   6.628   1.864  0.2204  0.0671  0.0553
    1BTD     N2 1316   6.517   6.774   1.646 -0.2073  0.0304 -0.0390
    1BTD     N3 1317   6.454   7.181   1.872 -0.3629  0.0404 -0.1003
    1BTD     N4 1318   6.412   7.001   2.140  0.1646  0.0856  0.0159
    1BTD     C5 1319   6.446   6.825   2.005  0.1849  0.0762  0.0333
    1BTD     C6 1320   6.473   6.760   1.880  0.0995  0.0626  0.0217
    1BTD     C7 1321   6.492   6.841   1.758 -0.1401  0.0422 -0.0311
    1BTD     C8 1322   6.484   6.985   1.767 -0.2822  0.0360 -0.0696
    1BTD    C15 1323   6.457   7.045   1.892 -0.1913  0.0500 -0.0565
    1BTD    C16 1324   6.438   6.966   2.009  0.0396  0.0697 -0.0057
    1BTD    C43 1325   6.363   7.122   2.201 -0.4790  0.6482 -0.1486
    1BTD    C44 1326   6.212   7.165   2.191 -0.0171  0.6899 -0.0804
    1BTD    C45 1327   6.189   7.317   2.211  0.2197  0.1159 -0.5354
    1BTD    C46 1328   6.229   7.403   2.331  0.2250 -0.4573 -0.1292
    1BTD    C47 1329   6.129   7.068   2.281 -0.1201 -1.0271  0.9097
    1BTD    C48 1330   5.982   7.076   2.264 -0.1444  0.2361 -0.6108
    1BTD    C49 1331   5.904   6.968   2.344 -0.0567 -0.5438 -1.5505
    1BTD    C50 1332   5.751   6.988   2.353 -0.2945 -0.4192 -0.6469
    1BTD    C75 1333   6.484   7.288   1.962 -0.2131  0.1580  0.1990
    1BTD    C76 1334   6.630   7.329   1.983 -0.0500 -0.3018 -0.7993
    1BTD    C77 1335   6.733   7.222   2.040  0.6071  0.0118  0.2851
    1BTD    C78 1336   6.880   7.256   2.064  0.3243  0.1170 -0.6390
    1BTD    C79 1337   6.632   7.462   2.059  0.0578  0.2504  0.1787
    1BTD    C80 1338   6.580   7.483   2.200 -0.2402 -0.2116 -0.1850
    1BTD    C81 1339   6.608   7.629   2.246  0.4849  0.9883  0.5075
    1BTD    C82 1340   6.617   7.641   2.393 -0.4574  0.8054  0.0664
    2TTP     S1 1341   6.441   6.623   2.222 -0.0524 -0.0548  0.1712
    2TTP     S5 1342   6.392   6.938   2.510 -0.2704 -0.1153  0.2009
    2TTP     C1 1343   6.396   6.779   2.599 -0.3718 -0.1366  0.1683
    2TTP     C2 1344   6.412   6.673   2.515 -0.3107 -0.1191  0.1572
    2TTP     C3 1345   6.420   6.712   2.378 -0.1812 -0.0885  0.1740
    2TTP     C4 1346   6.436   6.782   2.134  0.0492 -0.0334  0.2038
    2TTP    C17 1347   6.420   6.889   2.218 -0.0120 -0.0510  0.2148
    2TTP    C18 1348   6.412   6.849   2.355 -0.1416 -0.0818  0.1980
    2TTP    C32 1349   6.412   6.525   2.541 -0.5281  0.7223  0.0686
    2TTP    C33 1350   6.287   6.445   2.498 -0.7451  0.3502  0.0362
    2TTP    C34 1351   6.326   6.294   2.517 -0.0338 -0.1874 -0.2284
    2TTP    C35 1352   6.208   6.192   2.506 -0.7656  0.2364  0.2629
    2TTP    C36 1353   6.115   6.204   2.624  0.3932  0.2461  0.5275
    2TTP    C37 1354   5.992   6.116   2.596  0.3623 -0.0235  0.0437
    2TTP    C38 1355   5.892   6.114   2.711  1.1175 -0.0517  0.0328
    2TTP    C39 1356   5.822   6.247   2.744 -0.0549  0.5408  0.2713
    2TTP    C40 1357   5.724   6.218   2.857 -0.1258 -0.5227 -0.4508
    2TTP    C41 1358   5.623   6.335   2.867 -0.8735  0.3815  0.0836
    2TTP    C42 1359   5.557   6.338   3.002  0.0317 -0.3011 -0.4489
    3TTP     S1 1360   6.511   7.105   1.492  0.0633  0.0523  0.1525
    3TTP     S5 1361   6.411   7.494   1.647 -0.1820  0.1594 -0.2710
    3TTP     C1 1362   6.430   7.506   1.466  0.1075  0.0363 -0.2509
    3TTP     C2 1363   6.462   7.387   1.408  0.2003 -0.0043 -0.1189
    3TTP     C3 1364   6.473   7.281   1.503  0.0461  0.0609 -0.0289
    3TTP     C4 1365   6.492   7.092   1.672 -0.2261  0.1755  0.1324
    3TTP    C17 1366   6.461   7.212   1.731 -0.3191  0.2160  0.0004
    3TTP    C18 1367   6.450   7.317   1.635 -0.1649  0.1510 -0.0896
    3TTP    C32 1368   6.483   7.360   1.258  0.0636  0.4138 -0.0084
    3TTP    C33 1369   6.419   7.242   1.186  0.7231  0.5636  0.0335
    3TTP    C34 1370   6.476   7.193   1.056 -0.4382 -0.3781 -0.8197
    3TTP    C35 1371   6.618   7.146   1.062 -0.5417 -0.3217  0.5749
    3TTP    C36 1372   6.654   7.017   1.133 -0.0385 -0.0483 -0.5766
    3TTP    C37 1373   6.645   6.899   1.041 -0.3332  0.8877  0.1638
    3TTP    C38 1374   6.760   6.796   1.056  1.0026  0.0660  0.8011
    3TTP    C39 1375   6.901   6.860   1.063  0.2294 -0.0062 -0.2517
    3TTP    C40 1376   6.955   6.946   0.951  0.0398 -0.4406  0.7209
    3TTP    C41 1377   6.971   6.877   0.816  0.4547 -0.0546 -0.6769
    3TTP    C42 1378   7.045   6.956   0.711 -0.3104 -0.4534 -0.5042
    4FIC     F1 1379   6.334   7.295   3.235  0.3449 -0.0086 -0.0871
    4FIC     F2 1380   6.292   7.080   3.396 -0.1218  0.0873 -0.0798
    4FIC     O1 1381   6.403   7.051   2.756  0.4985 -0.2160  0.0404
    4FIC     N5 1382   6.280   6.597   3.287 -0.6833  0.0770  0.0215
    4FIC     N6 1383   6.342   6.450   2.881 -0.4692 -0.1045  0.1195
    4FIC    C19 1384   6.387   6.759   2.741  0.1071 -0.1984  0.0925
    4FIC    C20 1385   6.371   6.829   2.855  0.0868 -0.1500  0.0601
    4FIC    C21 1386   6.381   6.979   2.855  0.2961 -0.1630  0.0349
    4FIC    C22 1387   6.359   7.022   2.994  0.2129 -0.1000  0.0024
    4FIC    C23 1388   6.359   7.152   3.044  0.3436 -0.0877 -0.0285
    4FIC    C24 1389   6.336   7.169   3.179  0.2265 -0.0242 -0.0558
    4FIC    C25 1390   6.314   7.058   3.262 -0.0142  0.0251 -0.0519
    4FIC    C26 1391   6.314   6.928   3.214 -0.1456  0.0130 -0.0211
    4FIC    C27 1392   6.337   6.909   3.076 -0.0299 -0.0510  0.0067
    4FIC    C28 1393   6.344   6.786   2.994 -0.1171 -0.0796  0.0424
    4FIC    C29 1394   6.328   6.657   3.039 -0.3431 -0.0472  0.0562
    4FIC    C30 1395   6.302   6.624   3.175 -0.5295  0.0210  0.0371
    4FIC    C31 1396   6.336   6.544   2.952 -0.4112 -0.0790  0.0910
    5FIC     F1 1397   6.244   8.298   1.582  0.4872  0.0174 -0.0641
    5FIC     F2 1398   6.275   8.336   1.314 -0.5448 -0.1364 -0.2126
    5FIC     O1 1399   6.347   7.768   1.624  0.8126  0.0752 -0.1301
    5FIC     N5 1400   6.392   8.012   0.959 -1.7964 -0.3159 -0.4734
    5FIC     N6 1401   6.467   7.591   1.045 -1.3340 -0.2397 -0.4950
    5FIC    C19 1402   6.413   7.616   1.382 -0.0574 -0.0510 -0.2955
    5FIC    C20 1403   6.386   7.748   1.382 -0.0992 -0.0596 -0.2731
    5FIC    C21 1404   6.353   7.819   1.511  0.3660  0.0079 -0.1868
    5FIC    C22 1405   6.329   7.960   1.475  0.1858 -0.0211 -0.1835
    5FIC    C23 1406   6.295   8.065   1.560  0.4779  0.0205 -0.1163
    5FIC    C24 1407   6.277   8.190   1.503  0.2218 -0.0201 -0.1279
    5FIC    C25 1408   6.293   8.209   1.366 -0.3100 -0.0991 -0.2045
    5FIC    C26 1409   6.327   8.106   1.280 -0.6036 -0.1407 -0.2718
    5FIC    C27 1410   6.345   7.978   1.335 -0.3512 -0.1011 -0.2612
    5FIC    C28 1411   6.381   7.848   1.273 -0.5474 -0.1279 -0.3194
    5FIC    C29 1412   6.405   7.825   1.140 -1.0488 -0.2017 -0.4005
    5FIC    C30 1413   6.398   7.928   1.041 -1.4582 -0.2643 -0.4403
    5FIC    C31 1414   6.439   7.696   1.088 -1.2029 -0.2221 -0.4521
    1BTD     S2 1415   6.237   3.641   1.140  0.2095 -0.1162 -0.2152
    1BTD     N1 1416   6.271   3.673   0.966 -0.3902 -0.1376 -0.3434
    1BTD     N2 1417   6.221   3.815   1.184  0.7557 -0.0948 -0.0952
    1BTD     N3 1418   6.253   4.227   0.961  0.7857 -0.0898 -0.0819
    1BTD     N4 1419   6.314   4.053   0.693 -0.6264 -0.1426 -0.3877
    1BTD     C5 1420   6.293   3.874   0.827 -0.4965 -0.1397 -0.3629
    1BTD     C6 1421   6.270   3.805   0.951 -0.1642 -0.1282 -0.2927
    1BTD     C7 1422   6.242   3.884   1.073  0.4772 -0.1042 -0.1538
    1BTD     C8 1423   6.238   4.028   1.064  0.7542 -0.0929 -0.0919
    1BTD    C15 1424   6.262   4.090   0.940  0.4113 -0.1046 -0.1645
    1BTD    C16 1425   6.289   4.014   0.823 -0.2067 -0.1278 -0.2983
    1BTD    C43 1426   6.405   4.172   0.658  0.1201  0.8009 -0.4658
    1BTD    C44 1427   6.395   4.247   0.521  1.1746  0.0596 -0.5955
    1BTD    C45 1428   6.509   4.351   0.496  0.1543  0.3834 -0.1544
    1BTD    C46 1429   6.654   4.300   0.469  0.4928  0.1769  0.1654
    1BTD    C47 1430   6.254   4.307   0.489 -0.1798  0.2049  0.9044
    1BTD    C48 1431   6.234   4.346   0.345 -0.3344  0.1928 -0.1310
    1BTD    C49 1432   6.129   4.260   0.273 -0.6208 -0.3985 -0.4748
    1BTD    C50 1433   6.130   4.308   0.133  0.3942 -0.7105  0.2731
    1BTD    C75 1434   6.208   4.327   0.861 -0.1325  0.2239  0.1798
    1BTD    C76 1435   6.210   4.481   0.869 -0.4532 -0.4274 -0.0577
    1BTD    C77 1436   6.350   4.546   0.903  0.4643  0.3428  0.1737
    1BTD    C78 1437   6.459   4.542   0.795 -0.4240 -0.2988  0.4354
    1BTD    C79 1438   6.137   4.537   0.748  0.3757 -0.4024 -0.3948
    1BTD    C80 1439   6.076   4.679   0.757 -0.5618  0.3249  0.3408
    1BTD    C81 1440   5.959   4.702   0.849 -0.8649  0.5597 -0.1384
    1BTD    C82 1441   5.922   4.842   0.871  0.3278  0.3206 -0.7346
    2TTP     S1 1442   6.310   3.673   0.605 -0.0710  0.0604  0.2301
    2TTP     S5 1443   6.350   3.993   0.320 -0.1605 -0.2982 -0.1861
    2TTP     C1 1444   6.348   3.834   0.230 -0.2169 -0.4104  0.0111
    2TTP     C2 1445   6.336   3.726   0.313 -0.1925 -0.3063  0.1513
    2TTP     C3 1446   6.327   3.765   0.451 -0.1285 -0.1340  0.1079
    2TTP     C4 1447   6.311   3.831   0.695 -0.0147  0.1727  0.0328
    2TTP    C17 1448   6.324   3.939   0.613 -0.0389  0.0685 -0.1073
    2TTP    C18 1449   6.333   3.901   0.475 -0.1031 -0.1035 -0.0640
    2TTP    C32 1450   6.332   3.577   0.267 -0.1094 -0.6964  0.5570
    2TTP    C33 1451   6.218   3.489   0.310 -0.5052  0.0341 -0.2419
    2TTP    C34 1452   6.248   3.355   0.249  0.5235  0.3593  1.0788
    2TTP    C35 1453   6.148   3.246   0.242 -0.1272  0.3005  0.3735
    2TTP    C36 1454   6.193   3.098   0.218  1.3223  0.0759  0.5181
    2TTP    C37 1455   6.316   3.071   0.128  0.7875 -0.2998  0.4762
    2TTP    C38 1456   6.359   2.922   0.113  0.1884  0.3096 -0.3372
    2TTP    C39 1457   6.403   2.838   0.235  0.0619 -0.3195  0.0370
    2TTP    C40 1458   6.531   2.877   0.302 -0.2253  0.3780 -0.6930
    2TTP    C41 1459   6.559   2.777   0.415  0.0582 -0.2715 -0.3214
    2TTP    C42 1460   6.653   2.831   0.525  0.0057  0.4822  0.3689
    3TTP     S1 1461   6.181   4.138   1.340  0.5382 -0.0770  0.2535
    3TTP     S5 1462   6.175   4.537   1.180  0.0570 -0.1320  0.1318
    3TTP     C1 1463   6.131   4.544   1.357  0.2635 -0.1079  0.1831
    3TTP     C2 1464   6.130   4.422   1.416  0.4244 -0.0894  0.2237
    3TTP     C3 1465   6.164   4.317   1.325  0.3902 -0.0938  0.2157
    3TTP     C4 1466   6.225   4.130   1.164  0.3319 -0.1011  0.2021
    3TTP    C17 1467   6.226   4.253   1.104  0.1711 -0.1196  0.1615
    3TTP    C18 1468   6.192   4.358   1.195  0.2050 -0.1153  0.1695
    3TTP    C32 1469   6.100   4.388   1.556  0.2116  0.1305 -0.5006
    3TTP    C33 1470   6.229   4.357   1.635 -0.2802  0.2015  0.0214
    3TTP    C34 1471   6.208   4.309   1.775  0.0555  0.5377  0.3532
    3TTP    C35 1472   6.331   4.239   1.835  0.4105 -0.5344 -0.0512
    3TTP    C36 1473   6.306   4.177   1.974 -0.5608 -0.1446 -0.1675
    3TTP    C37 1474   6.199   4.076   1.990  0.6163  0.5032  0.1726
    3TTP    C38 1475   6.223   3.933   1.942 -0.2297  0.1441 -0.0629
    3TTP    C39 1476   6.109   3.839   1.928 -0.0427 -0.0785  1.0224
    3TTP    C40 1477   6.044   3.785   2.064 -0.4359 -0.4600  0.5141
    3TTP    C41 1478   5.896   3.806   2.092  0.3174 -0.6733  0.3072
    3TTP    C42 1479   5.851   3.953   2.088  0.7127 -0.2163  0.0894
    4FIC     F1 1480   6.589   4.339  -0.381 -0.0021 -0.0899 -0.0643
    4FIC     F2 1481   6.522   4.145  -0.560 -0.0588 -0.0205 -0.1179
    4FIC     O1 1482   6.469   4.094   0.086  0.1217 -0.2609 -0.1219
    4FIC     N5 1483   6.340   3.691  -0.483 -0.0522 -0.0430 -0.2363
    4FIC     N6 1484   6.260   3.539  -0.082  0.0560 -0.1907 -0.2705
    4FIC    C19 1485   6.363   3.821   0.082  0.1116 -0.2557 -0.1938
    4FIC    C20 1486   6.395   3.891  -0.029  0.0827 -0.2153 -0.1771
    4FIC    C21 1487   6.450   4.030  -0.018  0.0902 -0.2210 -0.1402
    4FIC    C22 1488   6.475   4.076  -0.156  0.0527 -0.1701 -0.1302
    4FIC    C23 1489   6.525   4.199  -0.197  0.0453 -0.1565 -0.0983
    4FIC    C24 1490   6.540   4.220  -0.334  0.0073 -0.1059 -0.0950
    4FIC    C25 1491   6.505   4.119  -0.426 -0.0219 -0.0703 -0.1227
    4FIC    C26 1492   6.455   3.996  -0.385 -0.0145 -0.0837 -0.1545
    4FIC    C27 1493   6.439   3.974  -0.248  0.0236 -0.1348 -0.1585
    4FIC    C28 1494   6.389   3.856  -0.173  0.0409 -0.1611 -0.1884
    4FIC    C29 1495   6.345   3.737  -0.227  0.0216 -0.1392 -0.2204
    4FIC    C30 1496   6.342   3.712  -0.368 -0.0188 -0.0864 -0.2291
    4FIC    C31 1497   6.298   3.629  -0.147  0.0407 -0.1677 -0.2478
    5FIC     F1 1498   5.994   5.327   1.145 -0.4798 -0.0833  0.1012
    5FIC     F2 1499   5.987   5.392   1.409  0.0169 -0.0097  0.0989
    5FIC     O1 1500   6.075   4.792   1.174 -0.5929 -0.1006  0.0998
    5FIC     N5 1501   6.034   5.105   1.809  0.6503  0.0842  0.0946
    5FIC     N6 1502   6.098   4.674   1.779  0.4617  0.0559  0.0940
    5FIC    C19 1503   6.096   4.664   1.436 -0.1588 -0.0362  0.0971
    5FIC    C20 1504   6.076   4.796   1.419 -0.1498 -0.0348  0.0975
    5FIC    C21 1505   6.066   4.855   1.281 -0.3810 -0.0690  0.0989
    5FIC    C22 1506   6.045   4.999   1.298 -0.3055 -0.0578  0.0991
    5FIC    C23 1507   6.030   5.095   1.198 -0.4559 -0.0799  0.1002
    5FIC    C24 1508   6.010   5.227   1.238 -0.3423 -0.0630  0.1001
    5FIC    C25 1509   6.007   5.260   1.374 -0.0862 -0.0250  0.0989
    5FIC    C26 1510   6.022   5.165   1.474  0.0647 -0.0027  0.0978
    5FIC    C27 1511   6.041   5.031   1.435 -0.0470 -0.0194  0.0979
    5FIC    C28 1512   6.061   4.908   1.515  0.0591 -0.0036  0.0969
    5FIC    C29 1513   6.063   4.899   1.653  0.3040  0.0328  0.0956
    5FIC    C30 1514   6.047   5.012   1.738  0.4934  0.0609  0.0950
    5FIC    C31 1515   6.082   4.775   1.721  0.3892  0.0453  0.0947
    1BTD     S2 1516   6.583   4.076   1.070 -0.1973  0.0164  0.0441
    1BTD     N1 1517   6.620   4.015   0.905 -0.0660  0.0069  0.0764
    1BTD     N2 1518   6.574   3.913   1.145 -0.1091  0.0262  0.0764
    1BTD     N3 1519   6.621   3.469   1.000  0.3080  0.0288  0.2008
    1BTD     N4 1520   6.677   3.594   0.704  0.3613  0.0050  0.2008
    1BTD     C5 1521   6.649   3.794   0.804  0.1564  0.0062  0.1413
    1BTD     C6 1522   6.623   3.882   0.914  0.0318  0.0112  0.1080
    1BTD     C7 1523   6.597   3.826   1.048  0.0076  0.0221  0.1080
    1BTD     C8 1524   6.599   3.683   1.065  0.1093  0.0273  0.1414
    1BTD    C15 1525   6.625   3.600   0.955  0.2296  0.0220  0.1733
    1BTD    C16 1526   6.650   3.655   0.825  0.2530  0.0116  0.1733
    1BTD    C43 1527   6.768   3.478   0.683 -0.3790  0.1741  0.4069
    1BTD    C44 1528   6.751   3.378   0.561  0.7446 -0.2369  0.1680
    1BTD    C45 1529   6.602   3.326   0.550 -0.4555  0.7646  0.6750
    1BTD    C46 1530   6.568   3.236   0.435  0.4030  0.0294 -0.0978
    1BTD    C47 1531   6.872   3.275   0.541  0.5111 -0.1893 -0.3825
    1BTD    C48 1532   6.867   3.151   0.636  0.2176  0.4694 -0.0845
    1BTD    C49 1533   6.982   3.054   0.617 -0.6193  0.4323  0.3307
    1BTD    C50 1534   6.985   2.938   0.707 -0.5890  0.4067  0.0993
    1BTD    C75 1535   6.618   3.336   0.925 -0.2778  0.5881 -0.7508
    1BTD    C76 1536   6.489   3.260   0.911 -0.4536  0.3704 -0.1739
    1BTD    C77 1537   6.380   3.337   0.832  0.0242  1.1983 -0.3426
    1BTD    C78 1538   6.245   3.268   0.800  0.1061  0.2216  0.4322
    1BTD    C79 1539   6.508   3.113   0.880  0.5538  0.1522  0.2674
    1BTD    C80 1540   6.611   3.031   0.961  0.2204 -0.0479 -0.2429
    1BTD    C81 1541   6.610   2.883   0.927  0.5245 -0.0313  0.1361
    1BTD    C82 1542   6.695   2.815   1.030  0.3136  0.0683  0.8470
    2TTP     S1 1543   6.712   3.955   0.549  0.0676 -0.1182  0.2455
    2TTP     S5 1544   6.707   3.583   0.332  0.0957 -0.1508  0.3006
    2TTP     C1 1545   6.724   3.720   0.213  0.1900 -0.1733  0.2883
    2TTP     C2 1546   6.727   3.843   0.273  0.1869 -0.1646  0.2706
    2TTP     C3 1547   6.716   3.833   0.415  0.1099 -0.1398  0.2660
    2TTP     C4 1548   6.695   3.818   0.668 -0.0267 -0.0957  0.2578
    2TTP    C17 1549   6.692   3.695   0.608 -0.0236 -0.1044  0.2755
    2TTP    C18 1550   6.704   3.705   0.466  0.0534 -0.1292  0.2800
    2TTP    C32 1551   6.732   3.981   0.204 -0.3363 -0.1538  0.3873
    2TTP    C33 1552   6.841   4.079   0.235  0.5260 -0.2748  0.5600
    2TTP    C34 1553   6.864   4.191   0.136  0.0856  0.0674  0.5246
    2TTP    C35 1554   6.977   4.283   0.165 -0.4831 -0.6962 -0.5228
    2TTP    C36 1555   6.947   4.381   0.276 -0.0808  0.2465  0.5903
    2TTP    C37 1556   7.069   4.466   0.303 -0.4620  0.5867 -0.4391
    2TTP    C38 1557   7.053   4.549   0.437 -0.2434  0.0984  0.3626
    2TTP    C39 1558   7.044   4.460   0.570 -0.2311  0.1691  0.0147
    2TTP    C40 1559   7.007   4.526   0.695 -0.3714  0.0234  0.5372
    2TTP    C41 1560   6.866   4.583   0.695 -0.0704 -0.0513 -0.3571
    2TTP    C42 1561   6.832   4.646   0.826  0.2393  0.1131 -0.2344
    3TTP     S1 1562   6.564   3.612   1.361 -0.0611 -0.0218  0.2329
    3TTP     S5 1563   6.647   3.201   1.265 -0.0664 -0.0085  0.1711
    3TTP     C1 1564   6.629   3.216   1.446 -0.2531 -0.0695  0.1586
    3TTP     C2 1565   6.603   3.344   1.486 -0.2625 -0.0771  0.1769
    3TTP     C3 1566   6.595   3.435   1.376 -0.1224 -0.0352  0.2016
    3TTP     C4 1567   6.582   3.597   1.180  0.1255  0.0391  0.2454
    3TTP    C17 1568   6.608   3.469   1.140  0.1350  0.0468  0.2271
    3TTP    C18 1569   6.616   3.378   1.251 -0.0049  0.0048  0.2024
    3TTP    C32 1570   6.579   3.395   1.624 -0.2040  0.0140 -0.2023
    3TTP    C33 1571   6.438   3.376   1.672 -0.0268 -0.4819 -0.2242
    3TTP    C34 1572   6.390   3.507   1.741  0.2707  0.0697 -0.1491
    3TTP    C35 1573   6.232   3.520   1.747 -0.1715 -0.7289  0.2274
    3TTP    C36 1574   6.166   3.552   1.615  0.6257  0.1859  0.0279
    3TTP    C37 1575   6.222   3.667   1.524 -0.2554 -0.4171 -0.1846
    3TTP    C38 1576   6.277   3.797   1.591  0.3358 -0.1468 -0.1698
    3TTP    C39 1577   6.366   3.888   1.503 -0.1152  0.4836 -0.1191
    3TTP    C40 1578   6.435   3.996   1.581  0.0965 -0.0448  0.6442
    3TTP    C41 1579   6.527   3.942   1.685 -0.1406  0.8321 -0.6335
    3TTP    C42 1580   6.643   4.025   1.721 -0.0284 -0.4140  0.2759
    4FIC     F1 1581   6.590   3.093  -0.302 -0.4210 -0.0122  0.0981
    4FIC     F2 1582   6.664   3.257  -0.507  0.3133 -0.2396  0.1761
    4FIC     O1 1583   6.637   3.430   0.120 -0.7628  0.1156  0.0339
    4FIC     N5 1584   6.804   3.731  -0.501  1.1253 -0.4754  0.2425
    4FIC     N6 1585   6.825   3.962  -0.130  0.7102 -0.3296  0.1766
    4FIC    C19 1586   6.724   3.706   0.074 -0.1826 -0.0562  0.0856
    4FIC    C20 1587   6.709   3.615  -0.024 -0.1253 -0.0795  0.0987
    4FIC    C21 1588   6.664   3.475   0.007 -0.4376  0.0135  0.0702
    4FIC    C22 1589   6.659   3.403  -0.121 -0.2809 -0.0408  0.0942
    4FIC    C23 1590   6.622   3.270  -0.143 -0.4641  0.0111  0.0809
    4FIC    C24 1591   6.625   3.224  -0.273 -0.2572 -0.0579  0.1091
    4FIC    C25 1592   6.663   3.308  -0.379  0.1209 -0.1751  0.1493
    4FIC    C26 1593   6.700   3.440  -0.358  0.3057 -0.2273  0.1627
    4FIC    C27 1594   6.698   3.489  -0.227  0.1009 -0.1589  0.1346
    4FIC    C28 1595   6.730   3.623  -0.171  0.2115 -0.1874  0.1390
    4FIC    C29 1596   6.772   3.733  -0.242  0.5596 -0.2934  0.1737
    4FIC    C30 1597   6.789   3.732  -0.384  0.8694 -0.3930  0.2114
    4FIC    C31 1598   6.801   3.858  -0.180  0.6405 -0.3126  0.1751
    5FIC     F1 1599   6.722   2.396   1.436 -0.0687  0.0071 -0.0446
    5FIC     F2 1600   6.757   2.404   1.706  0.4426 -0.0656 -0.1081
    5FIC     O1 1601   6.640   2.921   1.329 -0.3887  0.0212  0.2654
    5FIC     N5 1602   6.750   2.788   2.018  0.9496 -0.1602  0.0216
    5FIC     N6 1603   6.679   3.196   1.880  0.5965 -0.1346  0.2765
    5FIC    C19 1604   6.645   3.114   1.549 -0.0139 -0.0433  0.3148
    5FIC    C20 1605   6.664   2.982   1.565  0.0466 -0.0440  0.2393
    5FIC    C21 1606   6.660   2.889   1.448 -0.1568 -0.0097  0.2185
    5FIC    C22 1607   6.685   2.753   1.500 -0.0262 -0.0201  0.1322
    5FIC    C23 1608   6.690   2.634   1.429 -0.1358  0.0025  0.0857
    5FIC    C24 1609   6.715   2.518   1.501  0.0268 -0.0136  0.0050
    5FIC    C25 1610   6.733   2.522   1.639  0.2899 -0.0511 -0.0276
    5FIC    C26 1611   6.728   2.641   1.711  0.4004 -0.0737  0.0185
    5FIC    C27 1612   6.703   2.759   1.641  0.2391 -0.0580  0.1003
    5FIC    C28 1613   6.691   2.900   1.686  0.2944 -0.0742  0.1648
    5FIC    C29 1614   6.703   2.945   1.815  0.5302 -0.1103  0.1570
    5FIC    C30 1615   6.729   2.859   1.926  0.7601 -0.1376  0.0825
    5FIC    C31 1616   6.690   3.083   1.850  0.5654 -0.1234  0.2228
    1BTD     S2 1617   1.726   1.000   1.576 -0.1151 -0.0553 -0.1415
    1BTD     N1 1618   1.692   0.959   1.748  0.1312 -0.0018 -0.0792
    1BTD     N2 1619   1.752   0.830   1.525 -0.2379 -0.0757 -0.1381
    1BTD     N3 1620   1.746   0.408   1.731 -0.0438 -0.0208 -0.0188
    1BTD     N4 1621   1.671   0.567   2.006  0.4111  0.0702  0.0537
    1BTD     C5 1622   1.682   0.752   1.879  0.2718  0.0347 -0.0107
    1BTD     C6 1623   1.702   0.827   1.758  0.1102 -0.0019 -0.0601
    1BTD     C7 1624   1.736   0.755   1.633 -0.0964 -0.0433 -0.0931
    1BTD     C8 1625   1.748   0.611   1.636 -0.1311 -0.0459 -0.0750
    1BTD    C15 1626   1.728   0.542   1.757  0.0317 -0.0092 -0.0263
    1BTD    C16 1627   1.695   0.612   1.877  0.2308  0.0306  0.0054
    1BTD    C43 1628   1.617   0.435   2.055 -0.1092 -0.6310 -0.7653
    1BTD    C44 1629   1.673   0.352   2.184  0.1416  0.4327  0.3035
    1BTD    C45 1630   1.611   0.213   2.197  0.4814 -0.1328 -0.3649
    1BTD    C46 1631   1.456   0.215   2.199  0.1903 -0.3912 -0.0670
    1BTD    C47 1632   1.827   0.358   2.187  0.1764 -0.1208 -0.3959
    1BTD    C48 1633   1.904   0.291   2.306  0.4950  0.7802  0.2154
    1BTD    C49 1634   1.875   0.347   2.448  0.3906 -0.1447 -0.0561
    1BTD    C50 1635   1.932   0.260   2.553 -0.2626  0.8484  0.3583
    1BTD    C75 1636   1.747   0.291   1.814  0.2195  0.2501  0.0482
    1BTD    C76 1637   1.630   0.193   1.791 -0.7025 -0.1202 -0.1131
    1BTD    C77 1638   1.496   0.254   1.799 -0.2565 -0.5875  0.1185
    1BTD    C78 1639   1.387   0.173   1.728 -0.2845  0.0153  0.2394
    1BTD    C79 1640   1.640   0.055   1.862 -0.3658 -1.0049  0.2197
    1BTD    C80 1641   1.769  -0.022   1.847 -0.4716 -0.0789  0.2619
    1BTD    C81 1642   1.868  -0.012   1.957  0.1112  0.2604 -0.0650
    1BTD    C82 1643   2.003  -0.049   1.906  1.2272 -0.6213  0.1840
    2TTP     S1 1644   1.652   0.944   2.112  0.1351  0.5274  0.2230
    2TTP     S5 1645   1.629   0.605   2.376 -0.2625  0.3942  0.0185
    2TTP     C1 1646   1.620   0.757   2.476 -0.1969  0.3441  0.1005
    2TTP     C2 1647   1.627   0.871   2.400 -0.0702  0.3823  0.1685
    2TTP     C3 1648   1.639   0.842   2.261 -0.0205  0.4525  0.1583
    2TTP     C4 1649   1.661   0.792   2.012  0.0695  0.5775  0.1410
    2TTP    C17 1650   1.654   0.679   2.088 -0.0572  0.5393  0.0730
    2TTP    C18 1651   1.642   0.707   2.227 -0.1070  0.4691  0.0831
    2TTP    C32 1652   1.617   1.005   2.459 -0.2218 -0.4009  0.2936
    2TTP    C33 1653   1.577   1.126   2.375  0.2477 -0.2656 -0.1974
    2TTP    C34 1654   1.528   1.229   2.469  0.3001 -0.0673 -0.6212
    2TTP    C35 1655   1.522   1.367   2.397  0.2438  0.0819 -0.4883
    2TTP    C36 1656   1.483   1.485   2.484  0.6687 -0.0578 -0.0466
    2TTP    C37 1657   1.466   1.622   2.414  0.0468  0.7790 -0.2529
    2TTP    C38 1658   1.465   1.731   2.518  0.4890 -0.0125 -0.6946
    2TTP    C39 1659   1.381   1.853   2.476  0.7717 -0.0128  0.0675
    2TTP    C40 1660   1.333   1.933   2.596  0.0087 -0.2426  0.0823
    2TTP    C41 1661   1.232   2.042   2.566  0.8293  0.3542 -0.4232
    2TTP    C42 1662   1.212   2.147   2.677 -0.2573 -0.1389 -0.0704
    3TTP     S1 1663   1.810   0.502   1.352  0.0022 -0.0028 -0.1152
    3TTP     S5 1664   1.830   0.108   1.523 -0.2114  0.0493  0.0301
    3TTP     C1 1665   1.876   0.097   1.347  0.0150 -0.0034  0.0916
    3TTP     C2 1666   1.872   0.218   1.284  0.0943 -0.0226  0.0503
    3TTP     C3 1667   1.833   0.324   1.372 -0.0209  0.0036 -0.0313
    3TTP     C4 1668   1.764   0.513   1.528 -0.2243  0.0499 -0.1767
    3TTP    C17 1669   1.768   0.392   1.591 -0.3035  0.0690 -0.1355
    3TTP    C18 1670   1.807   0.286   1.503 -0.1884  0.0429 -0.0538
    3TTP    C32 1671   1.915   0.242   1.134 -0.0333 -0.2157  0.0108
    3TTP    C33 1672   1.804   0.308   1.043 -0.1823  0.6546 -0.5047
    3TTP    C34 1673   1.819   0.296   0.898 -0.0216  0.3163  0.1461
    3TTP    C35 1674   1.709   0.369   0.814  0.8271  0.5554  0.0260
    3TTP    C36 1675   1.668   0.512   0.826 -0.2646  0.0133 -0.7050
    3TTP    C37 1676   1.554   0.559   0.735  0.5454 -0.2545  0.2978
    3TTP    C38 1677   1.528   0.496   0.597 -0.0070 -0.2028  0.2392
    3TTP    C39 1678   1.389   0.527   0.536  0.0815  0.0264  0.4072
    3TTP    C40 1679   1.368   0.678   0.503 -0.0050  0.2731  0.3557
    3TTP    C41 1680   1.241   0.702   0.428  0.0977 -0.1589 -0.1023
    3TTP    C42 1681   1.241   0.852   0.399 -0.7718 -0.1447 -0.0387
    4FIC     F1 1682   1.512   0.221   3.093  0.2033 -0.0409  0.1869
    4FIC     F2 1683   1.502   0.431   3.266  0.0499  0.0373  0.0834
    4FIC     O1 1684   1.590   0.478   2.623  0.1417 -0.2232  0.0767
    4FIC     N5 1685   1.543   0.917   3.179 -0.2149  0.0198 -0.1441
    4FIC     N6 1686   1.606   1.075   2.777 -0.2321 -0.1384 -0.2094
    4FIC    C19 1687   1.608   0.770   2.621 -0.0269 -0.2132 -0.0615
    4FIC    C20 1688   1.589   0.697   2.733 -0.0054 -0.1704 -0.0296
    4FIC    C21 1689   1.581   0.548   2.726  0.0826 -0.1788  0.0414
    4FIC    C22 1690   1.559   0.500   2.864  0.0844 -0.1242  0.0604
    4FIC    C23 1691   1.546   0.369   2.907  0.1523 -0.1113  0.1215
    4FIC    C24 1692   1.526   0.348   3.043  0.1389 -0.0566  0.1278
    4FIC    C25 1693   1.521   0.457   3.132  0.0597 -0.0163  0.0744
    4FIC    C26 1694   1.535   0.588   3.089 -0.0083 -0.0290  0.0134
    4FIC    C27 1695   1.555   0.611   2.952  0.0041 -0.0841  0.0060
    4FIC    C28 1696   1.572   0.736   2.875 -0.0543 -0.1109 -0.0515
    4FIC    C29 1697   1.574   0.864   2.926 -0.1376 -0.0854 -0.1131
    4FIC    C30 1698   1.557   0.892   3.065 -0.1798 -0.0276 -0.1299
    4FIC    C31 1699   1.592   0.980   2.844 -0.1891 -0.1147 -0.1657
    5FIC     F1 1700   1.886  -0.708   1.522 -0.4113 -0.1442 -0.1511
    5FIC     F2 1701   1.942  -0.760   1.261  0.1565 -0.0386 -0.0537
    5FIC     O1 1702   1.863  -0.167   1.516 -0.4574 -0.1445  0.0068
    5FIC     N5 1703   2.006  -0.449   0.881  0.9399  0.1137  0.1989
    5FIC     N6 1704   1.977  -0.016   0.929  0.7895  0.0924  0.3026
    5FIC    C19 1705   1.908  -0.025   1.265  0.0687 -0.0432  0.1559
    5FIC    C20 1706   1.912  -0.159   1.276  0.0581 -0.0473  0.1124
    5FIC    C21 1707   1.888  -0.225   1.409 -0.2206 -0.1009  0.0363
    5FIC    C22 1708   1.899  -0.370   1.386 -0.1560 -0.0910  0.0044
    5FIC    C23 1709   1.884  -0.472   1.480 -0.3462 -0.1284 -0.0652
    5FIC    C24 1710   1.899  -0.603   1.435 -0.2351 -0.1096 -0.0832
    5FIC    C25 1711   1.928  -0.629   1.300  0.0575 -0.0549 -0.0329
    5FIC    C26 1712   1.943  -0.528   1.206  0.2486 -0.0176  0.0365
    5FIC    C27 1713   1.928  -0.395   1.250  0.1401 -0.0358  0.0558
    5FIC    C28 1714   1.937  -0.266   1.177  0.2832 -0.0068  0.1242
    5FIC    C29 1715   1.964  -0.250   1.043  0.5697  0.0472  0.1865
    5FIC    C30 1716   1.987  -0.360   0.954  0.7722  0.0834  0.1931
    5FIC    C31 1717   1.971  -0.121   0.981  0.6889  0.0718  0.2500
    1BTD     S2 1718   1.411   0.561   1.600 -0.0596  0.1647  0.1934
    1BTD     N1 1719   1.368   0.586   1.773 -0.8147  0.1581  0.0137
    1BTD     N2 1720   1.408   0.736   1.558  0.5268  0.1986  0.2723
    1BTD     N3 1721   1.324   1.138   1.785  0.3584  0.2558  0.1087
    1BTD     N4 1722   1.275   0.954   2.049 -1.2946  0.2059 -0.2100
    1BTD     C5 1723   1.320   0.781   1.914 -1.0452  0.1836 -0.0992
    1BTD     C6 1724   1.354   0.717   1.790 -0.6018  0.1803  0.0214
    1BTD     C7 1725   1.377   0.801   1.670  0.1491  0.2030  0.1661
    1BTD     C8 1726   1.363   0.943   1.680  0.4190  0.2279  0.1830
    1BTD    C15 1727   1.330   1.001   1.804 -0.0347  0.2302  0.0619
    1BTD    C16 1728   1.308   0.921   1.920 -0.7582  0.2083 -0.0776
    1BTD    C43 1729   1.274   1.076   2.131  0.0200  1.1172  0.3287
    1BTD    C44 1730   1.145   1.152   2.151  0.1303  0.0410  0.8841
    1BTD    C45 1731   1.172   1.287   2.225  0.5148 -0.4796 -0.2631
    1BTD    C46 1732   1.181   1.281   2.381 -0.4742  0.0195 -0.3832
    1BTD    C47 1733   1.017   1.075   2.174 -0.1852 -0.1904  0.0388
    1BTD    C48 1734   0.887   1.148   2.174  0.2747 -0.1767  0.2965
    1BTD    C49 1735   0.780   1.039   2.159 -0.0412 -0.9462 -0.0253
    1BTD    C50 1736   0.640   1.064   2.223  0.5947 -0.0648  0.1162
    1BTD    C75 1737   1.333   1.247   1.882  0.1855 -0.4500 -0.9943
    1BTD    C76 1738   1.460   1.325   1.907 -0.0704  0.4241 -0.1481
    1BTD    C77 1739   1.590   1.241   1.905  0.1384  0.4237 -0.3179
    1BTD    C78 1740   1.721   1.310   1.898 -0.2746 -0.6410 -0.1385
    1BTD    C79 1741   1.458   1.432   2.022  1.0286 -0.1797 -0.4948
    1BTD    C80 1742   1.363   1.552   2.036 -0.1139 -0.4060 -0.0020
    1BTD    C81 1743   1.343   1.629   1.907  0.5000 -0.1486 -0.4844
    1BTD    C82 1744   1.460   1.705   1.848 -0.2858 -0.0445  0.6454
    2TTP     S1 1745   1.289   0.570   2.135 -0.0903 -0.0001 -0.0700
    2TTP     S5 1746   1.232   0.884   2.423  0.0923 -0.3338  0.3337
    2TTP     C1 1747   1.234   0.725   2.511  0.1906 -0.4333  0.1522
    2TTP     C2 1748   1.252   0.619   2.427  0.1400 -0.3362  0.0169
    2TTP     C3 1749   1.265   0.659   2.291  0.0218 -0.1796  0.0516
    2TTP     C4 1750   1.287   0.729   2.047 -0.1886  0.0995  0.1115
    2TTP    C17 1751   1.269   0.836   2.131 -0.1380  0.0023  0.2468
    2TTP    C18 1752   1.257   0.795   2.267 -0.0198 -0.1543  0.2121
    2TTP    C32 1753   1.271   0.473   2.461 -0.7233  0.0937 -0.0194
    2TTP    C33 1754   1.151   0.383   2.492  1.1367 -0.4044  0.4023
    2TTP    C34 1755   1.041   0.364   2.385  0.4539 -0.1220 -1.1012
    2TTP    C35 1756   1.093   0.297   2.263 -0.2432 -0.0947  0.4115
    2TTP    C36 1757   0.999   0.262   2.146 -0.4253  1.0429 -0.0936
    2TTP    C37 1758   1.059   0.184   2.028 -0.6162  0.7098 -0.0005
    2TTP    C38 1759   0.953   0.163   1.914 -0.1949  0.3003 -0.5455
    2TTP    C39 1760   1.018   0.095   1.794  0.2363  0.0714 -0.0817
    2TTP    C40 1761   0.927   0.077   1.671  0.3270  0.5300 -0.2612
    2TTP    C41 1762   0.821  -0.033   1.688  0.0902 -0.0379  0.0956
    2TTP    C42 1763   0.831  -0.163   1.613 -0.2789  0.1182 -0.0087
    3TTP     S1 1764   1.375   1.063   1.401  0.0268  0.2482 -0.3147
    3TTP     S5 1765   1.293   1.448   1.573  0.5183  0.3188 -0.2352
    3TTP     C1 1766   1.306   1.467   1.393  0.5087  0.3324 -0.2345
    3TTP     C2 1767   1.333   1.349   1.329  0.3563  0.3115 -0.2590
    3TTP     C3 1768   1.343   1.240   1.421  0.2416  0.2838 -0.2792
    3TTP     C4 1769   1.361   1.044   1.582  0.0364  0.2346 -0.3153
    3TTP    C17 1770   1.335   1.162   1.646  0.1888  0.2555 -0.2908
    3TTP    C18 1771   1.325   1.272   1.554  0.3034  0.2832 -0.2706
    3TTP    C32 1772   1.322   1.312   1.178 -0.7482  0.1236 -0.7529
    3TTP    C33 1773   1.449   1.262   1.113  0.1140  0.0289 -0.2948
    3TTP    C34 1774   1.437   1.253   0.955  0.3459  0.0896  0.1481
    3TTP    C35 1775   1.536   1.161   0.891 -0.2844 -0.5209 -0.2735
    3TTP    C36 1776   1.688   1.184   0.916 -0.1248 -0.6829 -0.2708
    3TTP    C37 1777   1.777   1.074   0.855 -0.4467  0.2727 -0.0746
    3TTP    C38 1778   1.755   0.926   0.894 -0.3537 -0.3859 -0.1083
    3TTP    C39 1779   1.747   0.903   1.045 -0.8359 -0.4778 -0.0564
    3TTP    C40 1780   1.653   0.793   1.079  0.6752 -0.5015 -0.2210
    3TTP    C41 1781   1.612   0.779   1.221  0.3728 -0.7974 -1.2782
    3TTP    C42 1782   1.514   0.666   1.252  0.8589 -0.1412 -0.4208
    4FIC     F1 1783   1.260   1.258   3.134 -0.2563 -0.0820  0.1833
    4FIC     F2 1784   1.200   1.054   3.304  0.1009 -0.2435  0.1159
    4FIC     O1 1785   1.274   0.996   2.661 -0.2278  0.1795  0.0391
    4FIC     N5 1786   1.126   0.573   3.211  0.6350 -0.2891 -0.0840
    4FIC     N6 1787   1.149   0.410   2.807  0.5852 -0.0522 -0.1832
    4FIC    C19 1788   1.223   0.708   2.655  0.1237  0.1182 -0.0766
    4FIC    C20 1789   1.221   0.782   2.767  0.1025  0.0587 -0.0377
    4FIC    C21 1790   1.249   0.929   2.762 -0.0826  0.0956  0.0209
    4FIC    C22 1791   1.239   0.978   2.901 -0.0569  0.0127  0.0521
    4FIC    C23 1792   1.257   1.109   2.946 -0.1895  0.0115  0.1081
    4FIC    C24 1793   1.243   1.131   3.083 -0.1324 -0.0757  0.1284
    4FIC    C25 1794   1.213   1.026   3.170  0.0518 -0.1588  0.0935
    4FIC    C26 1795   1.195   0.895   3.125  0.1847 -0.1581  0.0377
    4FIC    C27 1796   1.209   0.871   2.988  0.1296 -0.0705  0.0164
    4FIC    C28 1797   1.196   0.746   2.909  0.2349 -0.0455 -0.0403
    4FIC    C29 1798   1.167   0.621   2.958  0.4197 -0.1073 -0.0862
    4FIC    C30 1799   1.144   0.595   3.097  0.5374 -0.2071 -0.0849
    4FIC    C31 1800   1.157   0.505   2.875  0.5097 -0.0766 -0.1393
    5FIC     F1 1801   1.263   2.257   1.613 -0.1580  0.0286 -0.0560
    5FIC     F2 1802   1.271   2.325   1.350 -0.0024  0.0761 -0.0390
    5FIC     O1 1803   1.284   1.717   1.580 -0.2488  0.0305 -0.1454
    5FIC     N5 1804   1.298   2.038   0.948  0.1566  0.1458 -0.0783
    5FIC     N6 1805   1.313   1.603   0.975  0.0543  0.1377 -0.1516
    5FIC    C19 1806   1.299   1.590   1.317 -0.1324  0.0766 -0.1609
    5FIC    C20 1807   1.294   1.724   1.335 -0.1156  0.0742 -0.1391
    5FIC    C21 1808   1.286   1.781   1.474 -0.1787  0.0499 -0.1325
    5FIC    C22 1809   1.281   1.928   1.458 -0.1407  0.0538 -0.1077
    5FIC    C23 1810   1.274   2.024   1.559 -0.1754  0.0365 -0.0938
    5FIC    C24 1811   1.270   2.157   1.519 -0.1275  0.0445 -0.0707
    5FIC    C25 1812   1.275   2.192   1.384 -0.0474  0.0691 -0.0620
    5FIC    C26 1813   1.282   2.096   1.283 -0.0122  0.0864 -0.0758
    5FIC    C27 1814   1.286   1.961   1.321 -0.0598  0.0786 -0.0992
    5FIC    C28 1815   1.293   1.837   1.240 -0.0413  0.0921 -0.1181
    5FIC    C29 1816   1.299   1.829   1.103  0.0310  0.1166 -0.1165
    5FIC    C30 1817   1.298   1.944   1.018  0.0998  0.1325 -0.0955
    5FIC    C31 1818   1.306   1.705   1.033  0.0434  0.1280 -0.1358
    1BTD     S2 1819   0.084   5.629   1.381 -0.2106  0.0142 -0.0819
    1BTD     N1 1820   0.096   5.665   1.206 -0.4905 -0.0010 -0.1050
    1BTD     N2 1821   0.076   5.801   1.431  0.1718  0.0269 -0.0601
    1BTD     N3 1822   0.081   6.219   1.216  0.4456  0.0253 -0.0573
    1BTD     N4 1823   0.106   6.051   0.938 -0.3704 -0.0094 -0.1126
    1BTD     C5 1824   0.101   5.868   1.069 -0.4180 -0.0050 -0.1083
    1BTD     C6 1825   0.093   5.797   1.194 -0.2946  0.0038 -0.0957
    1BTD     C7 1826   0.082   5.873   1.320  0.0761  0.0196 -0.0706
    1BTD     C8 1827   0.079   6.017   1.315  0.3049  0.0256 -0.0593
    1BTD    C15 1828   0.087   6.083   1.191  0.1727  0.0167 -0.0723
    1BTD    C16 1829   0.097   6.009   1.069 -0.1845  0.0014 -0.0965
    1BTD    C43 1830   0.083   6.185   0.888  0.0662  0.3661 -0.5299
    1BTD    C44 1831  -0.058   6.233   0.847 -0.6539  0.4525  0.2165
    1BTD    C45 1832  -0.060   6.382   0.818 -0.2905 -0.2380 -0.2597
    1BTD    C46 1833   0.006   6.447   0.696  0.2111 -0.0870  0.4788
    1BTD    C47 1834  -0.123   6.148   0.732 -0.2070 -0.3895 -0.0582
    1BTD    C48 1835  -0.262   6.189   0.695  0.4070  0.1099 -0.6934
    1BTD    C49 1836  -0.312   6.108   0.577 -0.0607 -0.2772 -0.8172
    1BTD    C50 1837  -0.463   6.119   0.569 -0.3372 -0.0671 -0.2631
    1BTD    C75 1838   0.139   6.341   1.142  0.2851  0.0369 -0.4110
    1BTD    C76 1839   0.283   6.390   1.176  0.2638 -0.2923 -0.1204
    1BTD    C77 1840   0.392   6.284   1.174 -0.7021  0.0861 -0.3900
    1BTD    C78 1841   0.521   6.330   1.244  0.0096  0.4154  0.0374
    1BTD    C79 1842   0.319   6.531   1.124 -0.7931 -0.0729  0.5397
    1BTD    C80 1843   0.344   6.564   0.978 -0.7321  0.0178 -0.5086
    1BTD    C81 1844   0.389   6.709   0.948  0.2302  0.1119 -0.4285
    1BTD    C82 1845   0.405   6.722   0.804  0.4646 -0.0422  0.4214
    2TTP     S1 1846   0.131   5.672   0.836 -0.0676 -0.0882 -0.0497
    2TTP     S5 1847   0.136   6.005   0.564  0.1163  0.0782  0.1559
    2TTP     C1 1848   0.147   5.851   0.468 -0.1079  0.1259  0.0522
    2TTP     C2 1849   0.146   5.739   0.546 -0.1779  0.0774 -0.0174
    2TTP     C3 1850   0.137   5.771   0.685 -0.0570  0.0007  0.0086
    2TTP     C4 1851   0.120   5.826   0.933  0.1566 -0.1358  0.0540
    2TTP    C17 1852   0.121   5.938   0.854  0.2266 -0.0872  0.1236
    2TTP    C18 1853   0.130   5.906   0.715  0.1057 -0.0106  0.0975
    2TTP    C32 1854   0.154   5.593   0.499 -0.8013 -0.1865  0.1151
    2TTP    C33 1855   0.220   5.483   0.590  0.2473  0.2859  0.1310
    2TTP    C34 1856   0.218   5.338   0.528 -0.3678  0.6515 -0.3115
    2TTP    C35 1857   0.312   5.307   0.411  0.6743 -0.4127 -0.4543
    2TTP    C36 1858   0.276   5.190   0.327  0.6103  0.6729  0.1619
    2TTP    C37 1859   0.357   5.174   0.204 -0.3318 -0.3857 -0.6775
    2TTP    C38 1860   0.376   5.032   0.172  0.1638 -0.3728  0.0176
    2TTP    C39 1861   0.392   4.999   0.027  0.2128  0.4375 -0.0495
    2TTP    C40 1862   0.420   4.862  -0.035 -0.5484  0.4128 -0.2936
    2TTP    C41 1863   0.538   4.787   0.034 -0.3180  0.2982 -0.8440
    2TTP    C42 1864   0.551   4.638   0.001  0.4670 -0.3980 -0.0455
    3TTP     S1 1865   0.033   6.127   1.591  0.1524  0.2658  0.2652
    3TTP     S5 1866  -0.035   6.517   1.421 -0.0105  0.2035  0.1862
    3TTP     C1 1867  -0.072   6.524   1.599  0.2252  0.2859  0.2325
    3TTP     C2 1868  -0.053   6.404   1.662  0.2893  0.3102  0.2597
    3TTP     C3 1869  -0.009   6.302   1.572  0.1547  0.2643  0.2448
    3TTP     C4 1870   0.070   6.120   1.413 -0.0833  0.1836  0.2188
    3TTP    C17 1871   0.051   6.240   1.350 -0.1474  0.1591  0.1917
    3TTP    C18 1872   0.007   6.342   1.440 -0.0128  0.2050  0.2065
    3TTP    C32 1873  -0.065   6.380   1.813 -0.2154  0.0255 -0.1650
    3TTP    C33 1874  -0.138   6.257   1.865 -0.3115  0.0081  0.5492
    3TTP    C34 1875  -0.093   6.223   2.004 -0.1857 -0.3875 -0.6228
    3TTP    C35 1876  -0.147   6.092   2.070  0.8032  0.2355  0.4221
    3TTP    C36 1877  -0.152   5.958   1.997 -0.0285  0.2189  0.0868
    3TTP    C37 1878  -0.007   5.921   1.959  0.1054  0.5129 -0.4651
    3TTP    C38 1879   0.004   5.788   1.886  0.1157  0.1375  0.4936
    3TTP    C39 1880   0.141   5.738   1.850  0.6523  0.7375 -0.0353
    3TTP    C40 1881   0.224   5.832   1.755 -0.1252  0.5847 -0.2890
    3TTP    C41 1882   0.373   5.783   1.734  0.6678 -0.6729  0.2650
    3TTP    C42 1883   0.459   5.766   1.850 -0.1672 -0.4950 -0.1334
    4FIC     F1 1884   0.148   6.406  -0.139 -0.3011  0.0825  0.1624
    4FIC     F2 1885   0.212   6.206  -0.313 -0.0190  0.2257  0.1006
    4FIC     O1 1886   0.110   6.130   0.325 -0.4092 -0.1956 -0.0111
    4FIC     N5 1887   0.277   5.722  -0.231  0.3095  0.2333 -0.1120
    4FIC     N6 1888   0.234   5.547   0.167  0.1682 -0.0129 -0.2351
    4FIC    C19 1889   0.157   5.841   0.325 -0.1781 -0.1577 -0.1318
    4FIC    C20 1890   0.164   5.919   0.215 -0.1619 -0.0933 -0.0858
    4FIC    C21 1891   0.139   6.066   0.223 -0.2858 -0.1183 -0.0250
    4FIC    C22 1892   0.154   6.119   0.086 -0.2316 -0.0327  0.0143
    4FIC    C23 1893   0.140   6.251   0.044 -0.3072 -0.0213  0.0748
    4FIC    C24 1894   0.160   6.278  -0.091 -0.2329  0.0664  0.1027
    4FIC    C25 1895   0.193   6.174  -0.180 -0.0875  0.1400  0.0707
    4FIC    C26 1896   0.207   6.043  -0.138 -0.0115  0.1293  0.0104
    4FIC    C27 1897   0.188   6.014  -0.002 -0.0849  0.0410 -0.0186
    4FIC    C28 1898   0.195   5.887   0.073 -0.0363  0.0067 -0.0814
    4FIC    C29 1899   0.225   5.763   0.021  0.0993  0.0577 -0.1267
    4FIC    C30 1900   0.253   5.741  -0.117  0.2144  0.1541 -0.1185
    4FIC    C31 1901   0.230   5.645   0.102  0.1364  0.0185 -0.1861
    5FIC     F1 1902  -0.200   7.317   1.406  0.1779 -0.0798 -0.1042
    5FIC     F2 1903  -0.214   7.372   1.672  0.3293 -0.0952 -0.0928
    5FIC     O1 1904  -0.121   6.781   1.417 -0.0790 -0.1194 -0.1867
    5FIC     N5 1905  -0.178   7.070   2.063  0.3641 -0.1458 -0.1352
    5FIC     N6 1906  -0.114   6.641   2.018  0.1327 -0.1737 -0.2019
    5FIC    C19 1907  -0.107   6.644   1.676 -0.0255 -0.1483 -0.2051
    5FIC    C20 1908  -0.126   6.776   1.662  0.0331 -0.1377 -0.1848
    5FIC    C21 1909  -0.132   6.840   1.526  0.0005 -0.1231 -0.1765
    5FIC    C22 1910  -0.154   6.984   1.548  0.0812 -0.1143 -0.1540
    5FIC    C23 1911  -0.167   7.083   1.451  0.0848 -0.0999 -0.1397
    5FIC    C24 1912  -0.187   7.213   1.496  0.1692 -0.0938 -0.1192
    5FIC    C25 1913  -0.194   7.242   1.633  0.2471 -0.1017 -0.1133
    5FIC    C26 1914  -0.182   7.143   1.730  0.2441 -0.1160 -0.1275
    5FIC    C27 1915  -0.161   7.011   1.687  0.1593 -0.1224 -0.1484
    5FIC    C28 1916  -0.144   6.884   1.762  0.1328 -0.1372 -0.1670
    5FIC    C29 1917  -0.145   6.870   1.899  0.1898 -0.1482 -0.1678
    5FIC    C30 1918  -0.163   6.980   1.989  0.2855 -0.1469 -0.1498
    5FIC    C31 1919  -0.128   6.744   1.964  0.1581 -0.1621 -0.1865
    1BTD     S2 1920   0.406   5.939   1.359  0.4653  0.1146 -0.0370
    1BTD     N1 1921   0.448   5.915   1.186 -0.1968  0.0136 -0.1899
    1BTD     N2 1922   0.413   5.764   1.400  0.7907  0.1544  0.0797
    1BTD     N3 1923   0.504   5.365   1.171  0.2583  0.0532  0.0412
    1BTD     N4 1924   0.547   5.551   0.907 -0.9585 -0.1205 -0.2910
    1BTD     C5 1925   0.499   5.723   1.043 -0.5798 -0.0544 -0.2387
    1BTD     C6 1926   0.464   5.785   1.168 -0.1439  0.0147 -0.1483
    1BTD     C7 1927   0.445   5.700   1.288  0.4089  0.0935  0.0026
    1BTD     C8 1928   0.461   5.558   1.277  0.4981  0.0994  0.0556
    1BTD    C15 1929   0.495   5.501   1.153  0.0592  0.0303 -0.0368
    1BTD    C16 1930   0.514   5.583   1.037 -0.4735 -0.0457 -0.1821
    1BTD    C43 1931   0.652   5.448   0.881 -0.0879 -0.6390 -0.0531
    1BTD    C44 1932   0.696   5.388   0.751 -0.0342 -0.4184  0.0340
    1BTD    C45 1933   0.597   5.297   0.686  1.0873 -0.2501 -0.1378
    1BTD    C46 1934   0.641   5.236   0.547  0.2404 -0.3464 -0.2930
    1BTD    C47 1935   0.842   5.338   0.764 -0.3088 -0.1696 -0.0411
    1BTD    C48 1936   0.949   5.439   0.808  0.6736  0.0124  0.6417
    1BTD    C49 1937   1.081   5.406   0.745  0.1734 -0.1742  0.3527
    1BTD    C50 1938   1.204   5.492   0.785  0.4603 -0.0870 -0.1162
    1BTD    C75 1939   0.489   5.247   1.078 -0.8114 -0.2432 -0.2663
    1BTD    C76 1940   0.350   5.206   1.047  0.2660  0.4809 -0.0342
    1BTD    C77 1941   0.267   5.315   0.970 -0.2745 -0.4692  0.1802
    1BTD    C78 1942   0.116   5.310   0.984 -0.2626 -0.1388 -0.3569
    1BTD    C79 1943   0.338   5.066   0.994  0.2336  0.4613  0.2559
    1BTD    C80 1944   0.374   5.041   0.848 -0.5735  0.4226 -0.0759
    1BTD    C81 1945   0.327   4.910   0.795  0.5592  0.2944 -0.1203
    1BTD    C82 1946   0.379   4.869   0.653  0.0139  0.5311 -0.3436
    2TTP     S1 1947   0.512   5.931   0.822  0.0660 -0.1624 -0.0806
    2TTP     S5 1948   0.584   5.622   0.533  0.0817 -0.3291  0.1014
    2TTP     C1 1949   0.572   5.781   0.445  0.2401 -0.3586  0.0254
    2TTP     C2 1950   0.549   5.886   0.529  0.2446 -0.3086 -0.0353
    2TTP     C3 1951   0.540   5.844   0.666  0.1231 -0.2457 -0.0240
    2TTP     C4 1952   0.524   5.772   0.909 -0.0924 -0.1332 -0.0046
    2TTP    C17 1953   0.547   5.667   0.825 -0.0969 -0.1830  0.0560
    2TTP    C18 1954   0.556   5.709   0.688  0.0246 -0.2460  0.0447
    2TTP    C32 1955   0.530   6.035   0.486 -0.1173 -0.1442  0.0526
    2TTP    C33 1956   0.569   6.151   0.578  0.2420  0.2711  0.4022
    2TTP    C34 1957   0.526   6.288   0.522 -0.0865 -0.0090 -0.3050
    2TTP    C35 1958   0.378   6.311   0.479  0.3385 -0.4559  0.4643
    2TTP    C36 1959   0.341   6.462   0.468  0.2409  0.3037  0.2601
    2TTP    C37 1960   0.433   6.554   0.389 -0.1553 -0.3106 -0.0790
    2TTP    C38 1961   0.396   6.699   0.382 -0.1194 -0.3760 -0.6074
    2TTP    C39 1962   0.268   6.738   0.306  0.1932  0.0364 -0.1574
    2TTP    C40 1963   0.262   6.708   0.158  0.6775 -0.0782 -0.1794
    2TTP    C41 1964   0.123   6.758   0.105  0.1340  1.0081 -0.0594
    2TTP    C42 1965   0.124   6.732  -0.043 -0.1296 -0.5766  1.0864
    3TTP     S1 1966   0.411   5.433   1.545 -0.0976  0.2073 -0.1013
    3TTP     S5 1967   0.559   5.060   1.388  0.2150  0.0942  0.4573
    3TTP     C1 1968   0.531   5.041   1.567 -0.1677  0.2137  0.4130
    3TTP     C2 1969   0.484   5.155   1.626 -0.2868  0.2557  0.2379
    3TTP     C3 1970   0.468   5.262   1.532 -0.0801  0.1949  0.1324
    3TTP     C4 1971   0.439   5.452   1.366  0.2852  0.0879 -0.0569
    3TTP    C17 1972   0.486   5.338   1.307  0.4043  0.0458  0.1182
    3TTP    C18 1973   0.502   5.232   1.401  0.1975  0.1065  0.2237
    3TTP    C32 1974   0.448   5.166   1.780  0.1606  0.2637  0.4050
    3TTP    C33 1975   0.489   5.293   1.848  0.1522 -0.2583 -0.1669
    3TTP    C34 1976   0.432   5.298   1.992 -0.5963 -0.0265 -0.3411
    3TTP    C35 1977   0.470   5.425   2.064  0.3937  0.2191 -0.6557
    3TTP    C36 1978   0.410   5.434   2.206  0.1965 -0.1046  0.4752
    3TTP    C37 1979   0.471   5.559   2.273  0.6099 -0.0603 -0.0581
    3TTP    C38 1980   0.448   5.558   2.422  0.3567 -0.0718 -0.4052
    3TTP    C39 1981   0.471   5.685   2.492  1.0019  0.4353 -0.3887
    3TTP    C40 1982   0.427   5.677   2.639 -0.3432  0.1850 -0.1112
    3TTP    C41 1983   0.424   5.817   2.704  0.0280  0.4445  0.8066
    3TTP    C42 1984   0.400   5.832   2.849  0.2000  0.6377 -0.0491
    4FIC     F1 1985   0.633   5.273  -0.202  0.0463 -0.1698 -0.0488
    4FIC     F2 1986   0.642   5.491  -0.366  0.1986 -0.1453 -0.0089
    4FIC     O1 1987   0.587   5.512   0.282 -0.0263 -0.2319 -0.0251
    4FIC     N5 1988   0.622   5.973  -0.256  0.3660 -0.1545  0.0653
    4FIC     N6 1989   0.584   6.115   0.155  0.2785 -0.2080  0.0757
    4FIC    C19 1990   0.579   5.804   0.297  0.0935 -0.2307  0.0214
    4FIC    C20 1991   0.590   5.735   0.182  0.1058 -0.2160  0.0139
    4FIC    C21 1992   0.594   5.585   0.182  0.0413 -0.2176 -0.0103
    4FIC    C22 1993   0.607   5.543   0.041  0.0742 -0.1992 -0.0127
    4FIC    C23 1994   0.614   5.414  -0.009  0.0366 -0.1940 -0.0321
    4FIC    C24 1995   0.626   5.399  -0.146  0.0799 -0.1757 -0.0303
    4FIC    C25 1996   0.630   5.511  -0.230  0.1584 -0.1634 -0.0097
    4FIC    C26 1997   0.623   5.641  -0.181  0.1963 -0.1684  0.0097
    4FIC    C27 1998   0.611   5.658  -0.042  0.1534 -0.1869  0.0082
    4FIC    C28 1999   0.601   5.780   0.041  0.1760 -0.1966  0.0253
    4FIC    C29 2000   0.602   5.910  -0.005  0.2480 -0.1892  0.0476
    4FIC    C30 2001   0.613   5.944  -0.143  0.3126 -0.1702  0.0572
    4FIC    C31 2002   0.592   6.022   0.083  0.2644 -0.1997  0.0630
    5FIC     F1 2003   0.760   4.271   1.396  0.4923  0.2817  0.1499
    5FIC     F2 2004   0.712   4.205   1.655 -0.1909  0.0852 -0.0203
    5FIC     O1 2005   0.639   4.799   1.402  0.5817  0.3010  0.2570
    5FIC     N5 2006   0.559   4.485   2.033 -1.1093 -0.1832 -0.1885
    5FIC     N6 2007   0.475   4.911   1.985 -0.9018 -0.1285 -0.0706
    5FIC    C19 2008   0.552   4.923   1.652 -0.0392  0.1203  0.1325
    5FIC    C20 2009   0.584   4.793   1.640 -0.0351  0.1230  0.1122
    5FIC    C21 2010   0.628   4.736   1.508  0.2944  0.2189  0.1798
    5FIC    C22 2011   0.655   4.593   1.531  0.2079  0.1956  0.1362
    5FIC    C23 2012   0.698   4.499   1.438  0.4293  0.2607  0.1725
    5FIC    C24 2013   0.717   4.369   1.483  0.2880  0.2216  0.1183
    5FIC    C25 2014   0.692   4.335   1.616 -0.0640  0.1202  0.0306
    5FIC    C26 2015   0.649   4.428   1.710 -0.2864  0.0550 -0.0060
    5FIC    C27 2016   0.630   4.561   1.666 -0.1481  0.0933  0.0478
    5FIC    C28 2017   0.585   4.682   1.739 -0.3114  0.0447  0.0296
    5FIC    C29 2018   0.552   4.690   1.872 -0.6534 -0.0541 -0.0488
    5FIC    C30 2019   0.556   4.577   1.960 -0.9029 -0.1248 -0.1254
    5FIC    C31 2020   0.509   4.812   1.934 -0.7880 -0.0945 -0.0604
    1BTD     S2 2021   1.532   2.985   1.541  0.0498 -0.1867 -0.0146
    1BTD     N1 2022   1.517   2.956   1.718  0.3182 -0.0727  0.0263
    1BTD     N2 2023   1.552   2.811   1.500 -0.2162 -0.2327  0.0459
    1BTD     N3 2024   1.567   2.405   1.736 -0.2736 -0.1206  0.2428
    1BTD     N4 2025   1.525   2.585   2.005  0.3849  0.0767  0.2186
    1BTD     C5 2026   1.522   2.760   1.864  0.3451  0.0029  0.1270
    1BTD     C6 2027   1.528   2.826   1.736  0.2018 -0.0747  0.0800
    1BTD     C7 2028   1.547   2.744   1.614 -0.0974 -0.1643  0.0910
    1BTD     C8 2029   1.559   2.601   1.627 -0.2382 -0.1718  0.1484
    1BTD    C15 2030   1.553   2.542   1.754 -0.0895 -0.0939  0.1930
    1BTD    C16 2031   1.534   2.620   1.871  0.1987 -0.0077  0.1824
    1BTD    C43 2032   1.595   2.479   2.082 -0.3116 -0.0722 -0.1216
    1BTD    C44 2033   1.733   2.495   2.148  0.2155 -0.1193 -0.2464
    1BTD    C45 2034   1.761   2.380   2.244 -0.3238 -0.5290 -0.0468
    1BTD    C46 2035   1.653   2.349   2.354  0.2468  1.1132  0.3031
    1BTD    C47 2036   1.849   2.527   2.050 -0.3483 -0.4131 -0.5013
    1BTD    C48 2037   1.971   2.579   2.126 -0.7983  0.0134  0.3497
    1BTD    C49 2038   2.077   2.641   2.024  0.2578  0.6663  0.0120
    1BTD    C50 2039   2.210   2.685   2.080 -0.2100 -0.3195 -0.0352
    1BTD    C75 2040   1.494   2.313   1.826 -0.1399  0.1311  0.2149
    1BTD    C76 2041   1.530   2.168   1.854 -0.1252 -0.0179 -0.3196
    1BTD    C77 2042   1.413   2.086   1.907 -0.0805 -0.3849 -0.2362
    1BTD    C78 2043   1.389   2.092   2.058  0.4422  0.8729 -0.0259
    1BTD    C79 2044   1.671   2.158   1.919 -0.3440 -0.1592  0.6537
    1BTD    C80 2045   1.754   2.030   1.894 -0.9281 -0.1464  0.4205
    1BTD    C81 2046   1.893   2.006   1.955 -0.3137 -0.8890  0.1022
    1BTD    C82 2047   1.892   2.005   2.109  0.2032  0.2844  0.1789
    2TTP     S1 2048   1.503   2.967   2.082 -0.2881 -0.1933 -0.0473
    2TTP     S5 2049   1.487   2.656   2.379 -0.3108  0.1169  0.2764
    2TTP     C1 2050   1.482   2.818   2.463 -0.3982  0.2052  0.1032
    2TTP     C2 2051   1.487   2.923   2.377 -0.3963  0.1145 -0.0070
    2TTP     C3 2052   1.494   2.880   2.240 -0.3259 -0.0278  0.0414
    2TTP     C4 2053   1.508   2.805   1.998 -0.2008 -0.2816  0.1259
    2TTP    C17 2054   1.503   2.700   2.085 -0.2027 -0.1910  0.2360
    2TTP    C18 2055   1.496   2.743   2.221 -0.2732 -0.0486  0.1876
    2TTP    C32 2056   1.513   3.072   2.421 -0.4705  0.2023  0.5306
    2TTP    C33 2057   1.396   3.166   2.393 -0.3151  0.1962  0.5140
    2TTP    C34 2058   1.437   3.320   2.374  0.6677 -0.3656  0.2888
    2TTP    C35 2059   1.521   3.384   2.485 -0.5578 -0.7868  0.0323
    2TTP    C36 2060   1.518   3.543   2.480  0.2823  0.2067  0.1116
    2TTP    C37 2061   1.589   3.609   2.598  0.0619 -0.2502 -0.0878
    2TTP    C38 2062   1.584   3.762   2.628 -0.8196 -0.3199 -0.6259
    2TTP    C39 2063   1.455   3.837   2.606 -0.6792  0.1783 -0.3459
    2TTP    C40 2064   1.481   3.979   2.650 -0.6780 -0.1434  0.2539
    2TTP    C41 2065   1.357   4.068   2.667  0.4959  0.5752  0.3259
    2TTP    C42 2066   1.384   4.196   2.748  0.1330  0.7736  0.3984
    3TTP     S1 2067   1.608   2.474   1.355  0.1972  0.0080  0.0249
    3TTP     S5 2068   1.642   2.091   1.548 -0.7412 -0.0965 -0.0119
    3TTP     C1 2069   1.666   2.068   1.369 -0.3070 -0.0647  0.0421
    3TTP     C2 2070   1.658   2.185   1.299  0.0084 -0.0306  0.0567
    3TTP     C3 2071   1.631   2.297   1.384 -0.0815 -0.0283  0.0257
    3TTP     C4 2072   1.584   2.496   1.534 -0.2370 -0.0238 -0.0291
    3TTP    C17 2073   1.592   2.379   1.604 -0.5524 -0.0579 -0.0436
    3TTP    C18 2074   1.619   2.268   1.519 -0.4625 -0.0602 -0.0126
    3TTP    C32 2075   1.670   2.207   1.147 -0.3552 -0.2621  0.6815
    3TTP    C33 2076   1.553   2.277   1.073 -0.4250  0.2181 -0.0651
    3TTP    C34 2077   1.605   2.354   0.962 -1.0744 -0.4884  0.9054
    3TTP    C35 2078   1.571   2.504   0.958  0.0387  0.1624 -0.2654
    3TTP    C36 2079   1.610   2.598   0.846  0.5029  0.6676  0.7312
    3TTP    C37 2080   1.586   2.552   0.701  0.0574  0.5737  0.0538
    3TTP    C38 2081   1.444   2.512   0.649  0.0390  0.1830  0.1314
    3TTP    C39 2082   1.328   2.607   0.651 -0.3688 -0.1665  0.5928
    3TTP    C40 2083   1.351   2.752   0.605  0.0661 -0.2770 -0.2460
    3TTP    C41 2084   1.222   2.832   0.616 -0.4176 -0.0509  0.1163
    3TTP    C42 2085   1.254   2.986   0.627 -0.7187  0.6343 -0.4441
    4FIC     F1 2086   1.352   2.348   3.125 -0.2586 -0.0527  0.0698
    4FIC     F2 2087   1.343   2.574   3.276  0.1611 -0.0530  0.0962
    4FIC     O1 2088   1.445   2.556   2.634 -0.4331 -0.1318  0.0027
    4FIC     N5 2089   1.398   3.048   3.143  0.6402 -0.1100  0.0864
    4FIC     N6 2090   1.472   3.165   2.729  0.4193 -0.1718  0.0287
    4FIC    C19 2091   1.470   2.846   2.604 -0.0940 -0.1604  0.0042
    4FIC    C20 2092   1.447   2.785   2.721 -0.0665 -0.1404  0.0200
    4FIC    C21 2093   1.435   2.635   2.729 -0.2486 -0.1267  0.0181
    4FIC    C22 2094   1.410   2.602   2.870 -0.1644 -0.1062  0.0380
    4FIC    C23 2095   1.393   2.476   2.926 -0.2738 -0.0885  0.0435
    4FIC    C24 2096   1.370   2.469   3.063 -0.1603 -0.0708  0.0632
    4FIC    C25 2097   1.366   2.586   3.141  0.0560 -0.0710  0.0768
    4FIC    C26 2098   1.383   2.712   3.086  0.1661 -0.0887  0.0714
    4FIC    C27 2099   1.406   2.721   2.947  0.0539 -0.1067  0.0514
    4FIC    C28 2100   1.429   2.838   2.859  0.1226 -0.1277  0.0410
    4FIC    C29 2101   1.432   2.970   2.897  0.3232 -0.1342  0.0491
    4FIC    C30 2102   1.413   3.012   3.032  0.4968 -0.1209  0.0696
    4FIC    C31 2103   1.454   3.076   2.805  0.3749 -0.1548  0.0378
    5FIC     F1 2104   1.699   1.275   1.586  0.1882  0.1087  0.0716
    5FIC     F2 2105   1.723   1.211   1.323  0.0576 -0.0546  0.0994
    5FIC     O1 2106   1.674   1.815   1.558  0.1604  0.0910 -0.2519
    5FIC     N5 2107   1.738   1.504   0.924 -0.1498 -0.3021 -0.0911
    5FIC     N6 2108   1.714   1.939   0.955 -0.1451 -0.2831 -0.3495
    5FIC    C19 2109   1.687   1.946   1.296  0.0259 -0.0714 -0.3402
    5FIC    C20 2110   1.693   1.812   1.314  0.0380 -0.0605 -0.2600
    5FIC    C21 2111   1.685   1.753   1.451  0.1085  0.0249 -0.2188
    5FIC    C22 2112   1.694   1.607   1.434  0.1037  0.0144 -0.1322
    5FIC    C23 2113   1.691   1.509   1.534  0.1560  0.0761 -0.0701
    5FIC    C24 2114   1.701   1.377   1.493  0.1389  0.0511  0.0072
    5FIC    C25 2115   1.713   1.344   1.357  0.0716 -0.0332  0.0215
    5FIC    C26 2116   1.716   1.441   1.258  0.0192 -0.0950 -0.0403
    5FIC    C27 2117   1.706   1.575   1.297  0.0354 -0.0709 -0.1190
    5FIC    C28 2118   1.706   1.700   1.217 -0.0076 -0.1203 -0.1969
    5FIC    C29 2119   1.716   1.710   1.080 -0.0765 -0.2051 -0.2084
    5FIC    C30 2120   1.728   1.597   0.995 -0.1166 -0.2581 -0.1438
    5FIC    C31 2121   1.715   1.836   1.012 -0.1138 -0.2475 -0.2860
    1BTD     S2 2122   1.232   2.579   1.669  0.1958 -0.1338  0.1543
    1BTD     N1 2123   1.194   2.617   1.841  0.6373 -0.0241  0.2295
    1BTD     N2 2124   1.214   2.748   1.612 -0.3264 -0.2316  0.0181
    1BTD     N3 2125   1.109   3.163   1.806 -0.5933 -0.2326 -0.1236
    1BTD     N4 2126   1.084   3.001   2.087  0.5943  0.0230  0.1369
    1BTD     C5 2127   1.137   2.820   1.966  0.6005 -0.0026  0.1780
    1BTD     C6 2128   1.171   2.748   1.846  0.3858 -0.0639  0.1532
    1BTD     C7 2129   1.182   2.821   1.719 -0.1537 -0.1800  0.0349
    1BTD     C8 2130   1.159   2.963   1.717 -0.4514 -0.2290 -0.0528
    1BTD    C15 2131   1.126   3.029   1.836 -0.2252 -0.1658 -0.0245
    1BTD    C16 2132   1.115   2.959   1.960  0.2946 -0.0539  0.0896
    1BTD    C43 2133   0.979   3.102   2.109 -0.0243  0.6001  0.6456
    1BTD    C44 2134   0.963   3.185   2.238  0.2929  0.0377 -0.3814
    1BTD    C45 2135   1.061   3.299   2.233 -0.3827 -0.1480 -0.0486
    1BTD    C46 2136   1.068   3.383   2.358 -0.0643 -0.1525  0.5176
    1BTD    C47 2137   0.819   3.225   2.264  0.1151 -0.3949 -0.1613
    1BTD    C48 2138   0.716   3.113   2.289  0.3038  0.6768 -0.2540
    1BTD    C49 2139   0.571   3.125   2.250 -0.5286  0.1773  0.0890
    1BTD    C50 2140   0.481   3.006   2.271 -0.2086 -0.0527  0.1427
    1BTD    C75 2141   1.111   3.284   1.891  0.4269  0.5553  0.1028
    1BTD    C76 2142   1.245   3.346   1.925  0.1971 -0.5158 -1.2679
    1BTD    C77 2143   1.339   3.256   2.003  0.0364  0.7626  0.0098
    1BTD    C78 2144   1.485   3.296   2.028  0.4433 -0.2584 -0.1650
    1BTD    C79 2145   1.225   3.495   1.974  0.4218 -0.3791 -0.0842
    1BTD    C80 2146   1.134   3.592   1.889 -0.2442  0.2594  1.1708
    1BTD    C81 2147   1.080   3.709   1.967  0.2522 -0.0374  0.1761
    1BTD    C82 2148   0.983   3.685   2.086 -0.4320 -1.4311 -0.3176
    2TTP     S1 2149   1.122   2.627   2.197  0.1315 -0.0519  0.1552
    2TTP     S5 2150   1.058   2.959   2.463 -0.0332  0.0018  0.0488
    2TTP     C1 2151   1.073   2.808   2.562 -0.0411  0.0293  0.0922
    2TTP     C2 2152   1.094   2.696   2.486  0.0093  0.0145  0.1276
    2TTP     C3 2153   1.099   2.727   2.346  0.0560 -0.0194  0.1217
    2TTP     C4 2154   1.107   2.779   2.098  0.1395 -0.0794  0.1118
    2TTP    C17 2155   1.087   2.891   2.174  0.0890 -0.0646  0.0763
    2TTP    C18 2156   1.082   2.860   2.313  0.0423 -0.0307  0.0822
    2TTP    C32 2157   1.111   2.552   2.530 -0.7017 -0.3293 -0.5794
    2TTP    C33 2158   0.980   2.479   2.542 -0.0355 -0.0908 -0.0840
    2TTP    C34 2159   0.965   2.372   2.434  0.7611 -0.3796 -0.0679
    2TTP    C35 2160   0.829   2.302   2.437  1.6346 -0.6914  0.4157
    2TTP    C36 2161   0.783   2.250   2.569 -0.1171  0.4027 -0.0809
    2TTP    C37 2162   0.647   2.178   2.567  0.0990 -0.5739  0.3246
    2TTP    C38 2163   0.585   2.182   2.703  0.1396  0.0053  0.5553
    2TTP    C39 2164   0.435   2.184   2.712  0.0996 -0.2406 -0.0797
    2TTP    C40 2165   0.367   2.319   2.679 -0.5214  0.1678  0.1681
    2TTP    C41 2166   0.396   2.423   2.793 -0.1428  0.2795 -0.0499
    2TTP    C42 2167   0.353   2.562   2.764  0.2171  0.1479 -0.6678
    3TTP     S1 2168   1.167   3.066   1.428 -0.4369 -0.1461  0.0504
    3TTP     S5 2169   1.097   3.463   1.580  0.0770 -0.1102  0.1975
    3TTP     C1 2170   1.106   3.471   1.398 -0.0549 -0.0767  0.1926
    3TTP     C2 2171   1.128   3.349   1.341 -0.2213 -0.0857  0.1470
    3TTP     C3 2172   1.139   3.245   1.438 -0.2507 -0.1196  0.1141
    3TTP     C4 2173   1.159   3.058   1.610 -0.3050 -0.1797  0.0552
    3TTP    C17 2174   1.137   3.180   1.667 -0.1386 -0.1706  0.1009
    3TTP    C18 2175   1.126   3.284   1.570 -0.1091 -0.1368  0.1338
    3TTP    C32 2176   1.148   3.319   1.188 -0.0481 -0.4472  0.4230
    3TTP    C33 2177   1.293   3.311   1.130 -0.1660  0.2154 -0.5308
    3TTP    C34 2178   1.306   3.272   0.990 -0.2603 -0.0742  0.9511
    3TTP    C35 2179   1.449   3.236   0.942 -0.0020 -0.4712  0.3253
    3TTP    C36 2180   1.515   3.102   0.971  0.1034  0.1124  0.0153
    3TTP    C37 2181   1.562   3.084   1.116  0.8424  0.8935 -0.0416
    3TTP    C38 2182   1.596   2.938   1.160  0.6344 -0.4476  0.7318
    3TTP    C39 2183   1.504   2.820   1.131  0.3095 -0.7483 -0.8411
    3TTP    C40 2184   1.365   2.826   1.191  0.5115  0.0033  0.2508
    3TTP    C41 2185   1.282   2.702   1.160 -0.6832 -0.3823 -0.1048
    3TTP    C42 2186   1.156   2.682   1.239  0.3450 -0.1378 -0.2610
    4FIC     F1 2187   1.100   3.353   3.172  0.0024  0.1837  0.0465
    4FIC     F2 2188   1.025   3.155   3.344  0.0813  0.1286  0.0178
    4FIC     O1 2189   1.121   3.079   2.706 -0.0573  0.2978 -0.0233
    4FIC     N5 2190   0.933   2.676   3.259  0.1524  0.1310 -0.0730
    4FIC     N6 2191   0.965   2.503   2.859  0.0898  0.2314 -0.1217
    4FIC    C19 2192   1.058   2.793   2.704 -0.0031  0.2859 -0.0754
    4FIC    C20 2193   1.055   2.870   2.815  0.0089  0.2593 -0.0567
    4FIC    C21 2194   1.089   3.016   2.807 -0.0208  0.2676 -0.0304
    4FIC    C22 2195   1.077   3.069   2.945  0.0020  0.2329 -0.0150
    4FIC    C23 2196   1.098   3.199   2.988 -0.0126  0.2269  0.0106
    4FIC    C24 2197   1.080   3.226   3.123  0.0148  0.1915  0.0212
    4FIC    C25 2198   1.042   3.124   3.211  0.0555  0.1633  0.0064
    4FIC    C26 2199   1.020   2.993   3.169  0.0703  0.1690 -0.0191
    4FIC    C27 2200   1.038   2.965   3.032  0.0430  0.2046 -0.0301
    4FIC    C28 2201   1.023   2.838   2.956  0.0488  0.2198 -0.0564
    4FIC    C29 2202   0.987   2.716   3.007  0.0844  0.2007 -0.0765
    4FIC    C30 2203   0.958   2.695   3.145  0.1217  0.1625 -0.0745
    4FIC    C31 2204   0.975   2.599   2.925  0.0872  0.2178 -0.1013
    5FIC     F1 2205   1.017   4.275   1.569  0.1562  0.1054 -0.0798
    5FIC     F2 2206   1.036   4.328   1.303  0.4208 -0.0306 -0.0888
    5FIC     O1 2207   1.066   3.736   1.571 -0.1694  0.0755  0.2171
    5FIC     N5 2208   1.098   4.020   0.921  0.5692 -0.2474  0.1099
    5FIC     N6 2209   1.133   3.588   0.976  0.2615 -0.2432  0.3437
    5FIC    C19 2210   1.102   3.595   1.317 -0.0322 -0.0649  0.3140
    5FIC    C20 2211   1.089   3.728   1.327  0.0394 -0.0522  0.2397
    5FIC    C21 2212   1.071   3.794   1.461 -0.0386  0.0215  0.1936
    5FIC    C22 2213   1.060   3.939   1.436  0.0704  0.0167  0.1157
    5FIC    C23 2214   1.042   4.040   1.530  0.0494  0.0715  0.0528
    5FIC    C24 2215   1.035   4.170   1.482  0.1693  0.0539 -0.0153
    5FIC    C25 2216   1.044   4.197   1.345  0.3054 -0.0163 -0.0198
    5FIC    C26 2217   1.062   4.096   1.251  0.3272 -0.0710  0.0428
    5FIC    C27 2218   1.070   3.964   1.297  0.2072 -0.0544  0.1122
    5FIC    C28 2219   1.088   3.836   1.224  0.1935 -0.0995  0.1882
    5FIC    C29 2220   1.101   3.820   1.088  0.3029 -0.1712  0.2071
    5FIC    C30 2221   1.099   3.930   0.997  0.4489 -0.2128  0.1536
    5FIC    C31 2222   1.119   3.692   1.027  0.2794 -0.2105  0.2822
    1BTD     S2 2223   7.153   7.573   1.199 -0.2521  0.2131 -0.0484
    1BTD     N1 2224   7.159   7.609   1.023  0.0503  0.2959 -0.0226
    1BTD     N2 2225   7.153   7.746   1.249 -0.5714  0.1922  0.0267
    1BTD     N3 2226   7.163   8.162   1.032 -0.6763  0.2987  0.2261
    1BTD     N4 2227   7.170   7.993   0.754  0.0899  0.4267  0.1655
    1BTD     C5 2228   7.165   7.811   0.886  0.0618  0.3624  0.0763
    1BTD     C6 2229   7.160   7.741   1.011 -0.0948  0.3031  0.0375
    1BTD     C7 2230   7.157   7.817   1.138 -0.4429  0.2452  0.0651
    1BTD     C8 2231   7.158   7.961   1.133 -0.6171  0.2494  0.1301
    1BTD    C15 2232   7.162   8.026   1.008 -0.4536  0.3084  0.1663
    1BTD    C16 2233   7.166   7.952   0.886 -0.1182  0.3645  0.1397
    1BTD    C43 2234   7.103   8.117   0.714 -0.1051 -0.1909  0.2756
    1BTD    C44 2235   7.110   8.195   0.581  0.0808 -0.1067  1.2794
    1BTD    C45 2236   7.258   8.226   0.558  0.6545 -0.8675  0.1563
    1BTD    C46 2237   7.301   8.293   0.432  0.3107 -0.4296 -0.0439
    1BTD    C47 2238   7.011   8.308   0.568  0.2310  0.7124  0.6641
    1BTD    C48 2239   7.004   8.420   0.667  0.2248  1.1156 -0.3398
    1BTD    C49 2240   6.896   8.528   0.643 -0.2055  0.2249  0.0296
    1BTD    C50 2241   6.891   8.642   0.738 -0.0649 -0.0282 -0.2178
    1BTD    C75 2242   7.250   8.273   0.979 -0.5686 -0.5942 -0.2168
    1BTD    C76 2243   7.375   8.254   0.894 -0.2779  0.8138  0.1355
    1BTD    C77 2244   7.464   8.134   0.936 -0.3788 -0.5616  0.2868
    1BTD    C78 2245   7.565   8.081   0.838 -0.5544 -0.0008 -0.3289
    1BTD    C79 2246   7.451   8.381   0.850  0.6640 -0.3268  0.1538
    1BTD    C80 2247   7.528   8.462   0.952  0.3106  0.6850 -0.2527
    1BTD    C81 2248   7.571   8.590   0.897 -0.4611 -0.4249  0.3159
    1BTD    C82 2249   7.659   8.674   0.993  0.4514  0.2840  0.3893
    2TTP     S1 2250   7.171   7.604   0.665 -0.1759  0.3043 -0.1976
    2TTP     S5 2251   7.217   7.925   0.382  0.2854  0.6684  0.2852
    2TTP     C1 2252   7.232   7.767   0.294  0.2614  0.7807  0.0794
    2TTP     C2 2253   7.219   7.658   0.376  0.1177  0.6748 -0.0818
    2TTP     C3 2254   7.196   7.696   0.512  0.0211  0.5013 -0.0487
    2TTP     C4 2255   7.156   7.763   0.754 -0.1520  0.1922  0.0082
    2TTP    C17 2256   7.169   7.871   0.672 -0.0082  0.2978  0.1694
    2TTP    C18 2257   7.192   7.833   0.536  0.0883  0.4715  0.1362
    2TTP    C32 2258   7.231   7.512   0.340  0.3332  0.1056  0.7117
    2TTP    C33 2259   7.168   7.398   0.422  0.2190 -0.0575 -0.1696
    2TTP    C34 2260   7.228   7.257   0.409  0.1672 -0.1269 -0.3099
    2TTP    C35 2261   7.210   7.187   0.280 -0.3372  0.2182  0.1076
    2TTP    C36 2262   7.253   7.041   0.269 -0.0035 -0.2949  0.3767
    2TTP    C37 2263   7.196   6.949   0.370  0.3322  1.1689  0.0643
    2TTP    C38 2264   7.206   6.800   0.332  0.1703 -0.3857 -0.6763
    2TTP    C39 2265   7.140   6.712   0.433  0.4326 -0.3677  0.6578
    2TTP    C40 2266   7.155   6.560   0.417 -0.1588  0.1146 -0.1146
    2TTP    C41 2267   7.091   6.497   0.288 -0.1198  0.0304  0.0993
    2TTP    C42 2268   7.120   6.343   0.292 -0.0148 -0.0627  0.1369
    3TTP     S1 2269   7.102   8.071   1.407 -0.2470 -0.1724 -0.1246
    3TTP     S5 2270   7.098   8.467   1.241  0.1293 -0.0875  0.0659
    3TTP     C1 2271   7.047   8.477   1.416  0.1397 -0.1234  0.0709
    3TTP     C2 2272   7.046   8.355   1.477  0.0241 -0.1517  0.0123
    3TTP     C3 2273   7.084   8.249   1.389 -0.0768 -0.1461 -0.0386
    3TTP     C4 2274   7.153   8.061   1.233 -0.2574 -0.1366 -0.1296
    3TTP    C17 2275   7.154   8.183   1.171 -0.1418 -0.1082 -0.0711
    3TTP    C18 2276   7.116   8.288   1.260 -0.0408 -0.1138 -0.0202
    3TTP    C32 2277   7.005   8.317   1.622  0.0687  0.0344  0.6104
    3TTP    C33 2278   7.111   8.290   1.737 -0.0725 -0.0637  0.1372
    3TTP    C34 2279   7.047   8.245   1.869  0.4765  0.0842 -0.2411
    3TTP    C35 2280   6.965   8.108   1.859 -0.0818 -0.2631 -0.3920
    3TTP    C36 2281   6.918   8.043   1.986 -0.3743  0.4638 -0.1830
    3TTP    C37 2282   7.000   8.025   2.115  0.1321 -0.7336 -0.1072
    3TTP    C38 2283   6.912   7.966   2.226 -0.1086 -0.3287 -0.1517
    3TTP    C39 2284   6.991   7.966   2.350  0.0408 -0.6364 -0.8406
    3TTP    C40 2285   6.913   7.925   2.467  0.0459 -1.3414 -0.7468
    3TTP    C41 2286   6.988   7.895   2.597 -0.0727  0.1497  0.5723
    3TTP    C42 2287   6.886   7.838   2.698  0.0808  0.5487  0.2584
    4FIC     F1 2288   7.286   8.267  -0.355 -0.2449 -0.0644  0.1432
    4FIC     F2 2289   7.324   8.049  -0.514  0.2720 -0.0100  0.1873
    4FIC     O1 2290   7.236   8.033   0.130 -0.2700 -0.1252  0.1111
    4FIC     N5 2291   7.341   7.569  -0.396  0.9977  0.0241  0.2279
    4FIC     N6 2292   7.294   7.430   0.015  0.8739 -0.0346  0.1938
    4FIC    C19 2293   7.253   7.742   0.151  0.2152 -0.0952  0.1418
    4FIC    C20 2294   7.265   7.809   0.035  0.2012 -0.0819  0.1482
    4FIC    C21 2295   7.254   7.959   0.033 -0.0554 -0.0989  0.1314
    4FIC    C22 2296   7.271   8.000  -0.108 -0.0010 -0.0780  0.1438
    4FIC    C23 2297   7.269   8.129  -0.160 -0.1780 -0.0834  0.1354
    4FIC    C24 2298   7.287   8.142  -0.297 -0.0806 -0.0601  0.1505
    4FIC    C25 2299   7.306   8.030  -0.379  0.1860 -0.0324  0.1732
    4FIC    C26 2300   7.308   7.901  -0.327  0.3636 -0.0268  0.1817
    4FIC    C27 2301   7.290   7.885  -0.189  0.2686 -0.0499  0.1667
    4FIC    C28 2302   7.287   7.763  -0.104  0.4035 -0.0514  0.1703
    4FIC    C29 2303   7.302   7.633  -0.147  0.6657 -0.0287  0.1903
    4FIC    C30 2304   7.324   7.598  -0.284  0.8472  0.0002  0.2109
    4FIC    C31 2305   7.298   7.522  -0.057  0.7788 -0.0319  0.1921
    5FIC     F1 2306   6.892   9.268   1.214  0.0614  0.2309 -0.0890
    5FIC     F2 2307   6.892   9.329   1.479 -0.1726  0.1229 -0.0632
    5FIC     O1 2308   6.974   8.733   1.232 -0.0593  0.2073 -0.2297
    5FIC     N5 2309   6.951   9.036   1.873 -0.5950 -0.0493 -0.1264
    5FIC     N6 2310   7.016   8.606   1.834 -0.6422 -0.0460 -0.2415
    5FIC    C19 2311   7.004   8.602   1.492 -0.3257  0.0957 -0.2550
    5FIC    C20 2312   6.983   8.734   1.477 -0.2862  0.1059 -0.2206
    5FIC    C21 2313   6.969   8.794   1.340 -0.1476  0.1644 -0.2097
    5FIC    C22 2314   6.948   8.939   1.360 -0.1379  0.1605 -0.1707
    5FIC    C23 2315   6.929   9.036   1.262 -0.0284  0.2040 -0.1486
    5FIC    C24 2316   6.911   9.167   1.305 -0.0430  0.1900 -0.1125
    5FIC    C25 2317   6.911   9.198   1.442 -0.1636  0.1344 -0.0992
    5FIC    C26 2318   6.929   9.101   1.540 -0.2733  0.0908 -0.1212
    5FIC    C27 2319   6.948   8.969   1.498 -0.2605  0.1041 -0.1579
    5FIC    C28 2320   6.970   8.844   1.576 -0.3564  0.0682 -0.1879
    5FIC    C29 2321   6.977   8.833   1.713 -0.4855  0.0112 -0.1859
    5FIC    C30 2322   6.963   8.945   1.800 -0.5453 -0.0219 -0.1532
    5FIC    C31 2323   6.998   8.708   1.779 -0.5710 -0.0199 -0.2165
    1BTD     S2 2324   1.116   0.021   1.248 -0.1412  0.2841 -0.2158
    1BTD     N1 2325   1.139  -0.037   1.080  0.0691  0.1773 -0.1502
    1BTD     N2 2326   1.111  -0.144   1.320 -0.1375  0.3322 -0.1056
    1BTD     N3 2327   1.143  -0.585   1.163  0.2497  0.2365  0.2375
    1BTD     N4 2328   1.178  -0.453   0.866  0.5042  0.0454  0.1824
    1BTD     C5 2329   1.159  -0.256   0.972  0.2932  0.1106  0.0241
    1BTD     C6 2330   1.142  -0.170   1.086  0.1281  0.1824 -0.0545
    1BTD     C7 2331   1.126  -0.229   1.220  0.0125  0.2691 -0.0295
    1BTD     C8 2332   1.128  -0.372   1.234  0.0677  0.2799  0.0729
    1BTD    C15 2333   1.145  -0.453   1.120  0.2304  0.2079  0.1474
    1BTD    C16 2334   1.160  -0.396   0.991  0.3418  0.1243  0.1233
    1BTD    C43 2335   1.268  -0.568   0.845  0.6663 -0.1222  0.3090
    1BTD    C44 2336   1.257  -0.665   0.735  0.4815  0.2561  0.3102
    1BTD    C45 2337   1.110  -0.711   0.721 -0.3923  0.8575  0.5538
    1BTD    C46 2338   1.079  -0.808   0.607  0.1598  0.0998 -0.0900
    1BTD    C47 2339   1.367  -0.773   0.741  0.2917 -0.1275 -0.7090
    1BTD    C48 2340   1.496  -0.726   0.680 -0.2504  0.0393  0.3272
    1BTD    C49 2341   1.507  -0.649   0.544  0.1381  0.6647 -0.1773
    1BTD    C50 2342   1.459  -0.738   0.428  0.0210 -0.2291  0.2388
    1BTD    C75 2343   1.110  -0.711   1.097  0.7193  0.0071  0.3255
    1BTD    C76 2344   0.957  -0.752   1.077 -0.1989  0.5213 -0.4558
    1BTD    C77 2345   0.848  -0.647   1.032  0.6277 -0.5253 -0.0832
    1BTD    C78 2346   0.827  -0.611   0.882  0.2025  1.1379 -0.2034
    1BTD    C79 2347   0.929  -0.902   1.039 -0.1825 -0.3039  0.3445
    1BTD    C80 2348   0.998  -1.007   1.119  0.5607 -0.1182  0.6435
    1BTD    C81 2349   0.961  -1.150   1.102 -0.2951  0.8213 -0.6045
    1BTD    C82 2350   0.820  -1.203   1.091  0.1569  0.0964 -0.2333
    2TTP     S1 2351   1.184  -0.094   0.711 -0.0202  0.1121 -0.0062
    2TTP     S5 2352   1.209  -0.460   0.485 -0.3142  0.0017  0.1398
    2TTP     C1 2353   1.210  -0.320   0.369 -0.2173 -0.0468  0.0829
    2TTP     C2 2354   1.203  -0.199   0.432 -0.1208 -0.0155  0.0345
    2TTP     C3 2355   1.195  -0.212   0.574 -0.1199  0.0478  0.0405
    2TTP     C4 2356   1.182  -0.234   0.827 -0.1171  0.1605  0.0507
    2TTP    C17 2357   1.190  -0.355   0.764 -0.2136  0.1293  0.0992
    2TTP    C18 2358   1.197  -0.342   0.622 -0.2145  0.0660  0.0931
    2TTP    C32 2359   1.211  -0.064   0.359 -0.0383  0.1833 -0.5014
    2TTP    C33 2360   1.268   0.056   0.437 -0.2503  0.1156 -0.1453
    2TTP    C34 2361   1.233   0.191   0.381  0.4907  0.7289 -0.1448
    2TTP    C35 2362   1.294   0.242   0.253 -0.6803 -0.1801  0.3493
    2TTP    C36 2363   1.226   0.367   0.200 -0.0156 -0.2854  0.1761
    2TTP    C37 2364   1.298   0.440   0.086  0.3442  0.1289 -0.3068
    2TTP    C38 2365   1.450   0.471   0.105  0.3781  0.3414 -0.0333
    2TTP    C39 2366   1.488   0.558  -0.019 -0.0122  0.2653 -0.5481
    2TTP    C40 2367   1.639   0.570  -0.027  0.3259  0.1292  0.2173
    2TTP    C41 2368   1.658   0.644  -0.154 -0.0963  0.0850  0.1943
    2TTP    C42 2369   1.809   0.660  -0.179  0.3073 -0.2834 -0.3822
    3TTP     S1 2370   1.141  -0.447   1.523  0.0650  0.1407 -0.0667
    3TTP     S5 2371   1.162  -0.863   1.416  0.2745  0.1042  0.1165
    3TTP     C1 2372   1.176  -0.848   1.597  0.1367  0.1815  0.1214
    3TTP     C2 2373   1.170  -0.719   1.641  0.0639  0.1975  0.0651
    3TTP     C3 2374   1.155  -0.627   1.533  0.1143  0.1490  0.0161
    3TTP     C4 2375   1.127  -0.461   1.342  0.2029  0.0634 -0.0716
    3TTP    C17 2376   1.133  -0.590   1.298  0.2757  0.0474 -0.0153
    3TTP    C18 2377   1.148  -0.683   1.406  0.2253  0.0960  0.0337
    3TTP    C32 2378   1.173  -0.662   1.780 -0.1100  0.7557 -0.3124
    3TTP    C33 2379   1.065  -0.563   1.829 -0.1892  0.5527  0.2932
    3TTP    C34 2380   1.079  -0.521   1.973 -0.7913  0.2289 -0.4579
    3TTP    C35 2381   0.982  -0.422   2.033  0.6133 -0.3044  0.3184
    3TTP    C36 2382   0.945  -0.285   1.957 -0.4781 -0.2548 -0.0653
    3TTP    C37 2383   0.842  -0.188   2.025 -0.7865 -0.3790 -0.0100
    3TTP    C38 2384   0.862  -0.157   2.177 -0.3181 -0.5251  0.0603
    3TTP    C39 2385   1.005  -0.123   2.224 -0.3763 -0.0633  0.0251
    3TTP    C40 2386   1.007  -0.093   2.371 -0.0216  0.0615 -0.3677
    3TTP    C41 2387   1.143  -0.074   2.432 -0.1293 -0.0832  0.4214
    3TTP    C42 2388   1.154  -0.012   2.566  0.1950  0.6653 -0.0126
    4FIC     F1 2389   1.294  -0.930  -0.179  0.1761  0.0347  0.2660
    4FIC     F2 2390   1.321  -0.742  -0.374 -0.4168 -0.0486  0.1003
    4FIC     O1 2391   1.224  -0.615   0.256  0.4909  0.2095  0.1913
    4FIC     N5 2392   1.310  -0.248  -0.345 -1.0449 -0.0443 -0.1911
    4FIC     N6 2393   1.249  -0.040   0.034 -0.6794  0.1092 -0.2161
    4FIC    C19 2394   1.224  -0.324   0.224  0.0362  0.1918  0.0064
    4FIC    C20 2395   1.241  -0.411   0.122 -0.0198  0.1512  0.0317
    4FIC    C21 2396   1.240  -0.559   0.147  0.2257  0.1633  0.1280
    4FIC    C22 2397   1.260  -0.623   0.016  0.0890  0.1103  0.1321
    4FIC    C23 2398   1.267  -0.760  -0.012  0.2284  0.1010  0.2072
    4FIC    C24 2399   1.287  -0.797  -0.144  0.0527  0.0470  0.1946
    4FIC    C25 2400   1.301  -0.700  -0.245 -0.2528  0.0040  0.1092
    4FIC    C26 2401   1.295  -0.564  -0.218 -0.3933  0.0131  0.0339
    4FIC    C27 2402   1.274  -0.524  -0.085 -0.2190  0.0676  0.0454
    4FIC    C28 2403   1.263  -0.390  -0.023 -0.2980  0.0908 -0.0197
    4FIC    C29 2404   1.271  -0.269  -0.088 -0.5760  0.0622 -0.1103
    4FIC    C30 2405   1.292  -0.258  -0.229 -0.8329  0.0039 -0.1544
    4FIC    C31 2406   1.259  -0.144  -0.020 -0.6313  0.0880 -0.1680
    5FIC     F1 2407   1.362  -1.642   1.528 -0.0405 -0.1503  0.1160
    5FIC     F2 2408   1.317  -1.670   1.796 -0.2048 -0.0397  0.1001
    5FIC     O1 2409   1.263  -1.114   1.462  0.1924 -0.1371 -0.1278
    5FIC     N5 2410   1.182  -1.333   2.132 -0.2750  0.1285 -0.0964
    5FIC     N6 2411   1.113  -0.915   2.026 -0.0599  0.1166 -0.2837
    5FIC    C19 2412   1.185  -0.953   1.693  0.1181 -0.0267 -0.2295
    5FIC    C20 2413   1.211  -1.085   1.699  0.0660 -0.0345 -0.1676
    5FIC    C21 2414   1.251  -1.161   1.576  0.1092 -0.0925 -0.1180
    5FIC    C22 2415   1.272  -1.301   1.618  0.0335 -0.0856 -0.0562
    5FIC    C23 2416   1.310  -1.408   1.539  0.0397 -0.1276  0.0036
    5FIC    C24 2417   1.325  -1.531   1.601 -0.0416 -0.1109  0.0554
    5FIC    C25 2418   1.301  -1.545   1.739 -0.1262 -0.0541  0.0471
    5FIC    C26 2419   1.264  -1.438   1.819 -0.1329 -0.0119 -0.0125
    5FIC    C27 2420   1.249  -1.313   1.757 -0.0513 -0.0279 -0.0654
    5FIC    C28 2421   1.210  -1.181   1.812 -0.0347  0.0057 -0.1343
    5FIC    C29 2422   1.179  -1.153   1.944 -0.1002  0.0633 -0.1617
    5FIC    C30 2423   1.181  -1.252   2.047 -0.1961  0.0992 -0.1258
    5FIC    C31 2424   1.143  -1.022   1.988 -0.0776  0.0920 -0.2287
    1BTD     S2 2425   1.245   4.998   1.747  0.0963 -0.2854 -0.0243
    1BTD     N1 2426   1.237   4.961   1.923 -0.4803 -0.2906 -0.0497
    1BTD     N2 2427   1.279   4.828   1.698  0.6278 -0.2208  0.1064
    1BTD     N3 2428   1.332   4.416   1.917  0.6700 -0.0988  0.3266
    1BTD     N4 2429   1.280   4.580   2.193 -0.6953 -0.1850  0.1344
    1BTD     C5 2430   1.260   4.760   2.061 -0.5760 -0.2344  0.0488
    1BTD     C6 2431   1.258   4.831   1.935 -0.2583 -0.2463  0.0361
    1BTD     C7 2432   1.282   4.757   1.810  0.3619 -0.2073  0.1234
    1BTD     C8 2433   1.306   4.615   1.816  0.6333 -0.1582  0.2191
    1BTD    C15 2434   1.307   4.550   1.941  0.3052 -0.1483  0.2279
    1BTD    C16 2435   1.284   4.622   2.062 -0.2923 -0.1858  0.1438
    1BTD    C43 2436   1.357   4.471   2.261 -0.1167 -0.4376  0.1121
    1BTD    C44 2437   1.492   4.499   2.325 -0.4171 -0.1549 -0.1849
    1BTD    C45 2438   1.545   4.385   2.429  0.6213 -0.8907  0.7078
    1BTD    C46 2439   1.582   4.244   2.371  0.0694  0.6712  0.1813
    1BTD    C47 2440   1.602   4.551   2.230  0.4508  0.7581  0.0620
    1BTD    C48 2441   1.695   4.655   2.289  0.0892 -0.1539  0.3445
    1BTD    C49 2442   1.792   4.696   2.180 -0.3376  0.0078  0.4356
    1BTD    C50 2443   1.905   4.782   2.241  0.7442  0.1322 -0.1308
    1BTD    C75 2444   1.327   4.290   2.003 -0.2684 -0.5698  0.5380
    1BTD    C76 2445   1.194   4.208   2.002  0.0301  0.3511 -0.0981
    1BTD    C77 2446   1.075   4.288   2.057  0.4052  0.1938  0.2646
    1BTD    C78 2447   0.939   4.221   2.045 -0.1181 -0.2045 -0.2178
    1BTD    C79 2448   1.239   4.059   2.050  0.1972 -0.4344 -0.3475
    1BTD    C80 2449   1.292   4.035   2.201  0.0198 -0.0590  0.4789
    1BTD    C81 2450   1.215   4.074   2.325  0.6956 -1.0863  0.0103
    1BTD    C82 2451   1.074   4.025   2.334 -0.2649  0.3169 -0.3216
    2TTP     S1 2452   1.213   4.954   2.291  0.0284  0.0396  0.0105
    2TTP     S5 2453   1.246   4.623   2.564 -0.1802 -0.1307 -0.1697
    2TTP     C1 2454   1.221   4.775   2.660 -0.1567 -0.1772 -0.0898
    2TTP     C2 2455   1.209   4.886   2.582 -0.0909 -0.1274 -0.0294
    2TTP     C3 2456   1.220   4.855   2.443 -0.0567 -0.0505 -0.0440
    2TTP     C4 2457   1.238   4.802   2.195  0.0049  0.0862 -0.0694
    2TTP    C17 2458   1.250   4.690   2.273 -0.0609  0.0365 -0.1298
    2TTP    C18 2459   1.239   4.721   2.413 -0.0951 -0.0403 -0.1150
    2TTP    C32 2460   1.179   5.031   2.629  0.4806  0.2044  0.0579
    2TTP    C33 2461   1.265   5.146   2.582 -0.3896  0.2637  0.1685
    2TTP    C34 2462   1.221   5.267   2.651  0.7702 -0.5841 -0.5731
    2TTP    C35 2463   1.307   5.392   2.609 -0.2986  1.1258  0.6391
    2TTP    C36 2464   1.274   5.525   2.676 -0.1500 -0.0111 -0.3232
    2TTP    C37 2465   1.312   5.626   2.574  0.4696 -0.7836 -0.8560
    2TTP    C38 2466   1.282   5.775   2.609 -0.1102  0.3512  0.1841
    2TTP    C39 2467   1.320   5.840   2.745  0.3104 -0.1084  0.6198
    2TTP    C40 2468   1.275   5.990   2.742  0.2747  0.0472  0.3340
    2TTP    C41 2469   1.285   6.052   2.878  0.2646 -0.0394 -0.1965
    2TTP    C42 2470   1.228   6.188   2.878 -0.4383  0.5114  0.3489
    3TTP     S1 2471   1.354   4.512   1.536  0.1939 -0.0306  0.1419
    3TTP     S5 2472   1.405   4.116   1.697 -0.5686 -0.1215  0.1678
    3TTP     C1 2473   1.432   4.110   1.517 -0.6113 -0.1924  0.1637
    3TTP     C2 2474   1.418   4.232   1.457 -0.3783 -0.1684  0.1555
    3TTP     C3 2475   1.385   4.334   1.550 -0.1577 -0.0933  0.1521
    3TTP     C4 2476   1.326   4.518   1.716  0.2366  0.0401  0.1459
    3TTP    C17 2477   1.340   4.397   1.776  0.0037  0.0163  0.1542
    3TTP    C18 2478   1.373   4.294   1.682 -0.2170 -0.0589  0.1576
    3TTP    C32 2479   1.427   4.252   1.312  0.0428 -0.0736  0.1556
    3TTP    C33 2480   1.400   4.381   1.240  0.3248  0.2357 -0.4421
    3TTP    C34 2481   1.464   4.387   1.102 -0.1055  0.3289  0.6478
    3TTP    C35 2482   1.436   4.526   1.044 -0.7390 -0.0699 -0.3178
    3TTP    C36 2483   1.462   4.522   0.897 -0.3260 -1.0800  0.0015
    3TTP    C37 2484   1.432   4.659   0.825  0.3036 -0.0676 -0.6833
    3TTP    C38 2485   1.464   4.664   0.673  0.4062 -0.1699 -0.0917
    3TTP    C39 2486   1.420   4.551   0.583 -0.0350 -0.0419  0.2439
    3TTP    C40 2487   1.448   4.576   0.435 -0.6211 -0.5737  0.1214
    3TTP    C41 2488   1.396   4.472   0.338 -0.0359 -0.4253  0.9194
    3TTP    C42 2489   1.472   4.471   0.204  0.2138  0.0222  0.2891
    4FIC     F1 2490   1.136   4.235   3.278  0.1424 -0.0780  0.0596
    4FIC     F2 2491   1.119   4.445   3.451 -0.0676 -0.0502  0.0051
    4FIC     O1 2492   1.197   4.496   2.807  0.2366 -0.1460  0.0342
    4FIC     N5 2493   1.137   4.932   3.364 -0.3023 -0.0587 -0.0916
    4FIC     N6 2494   1.188   5.093   2.961 -0.1864 -0.1175 -0.1005
    4FIC    C19 2495   1.202   4.788   2.805  0.0694 -0.1436 -0.0271
    4FIC    C20 2496   1.187   4.715   2.917  0.0540 -0.1277 -0.0185
    4FIC    C21 2497   1.186   4.565   2.910  0.1438 -0.1301  0.0134
    4FIC    C22 2498   1.168   4.516   3.048  0.0999 -0.1098  0.0149
    4FIC    C23 2499   1.161   4.385   3.092  0.1531 -0.1044  0.0399
    4FIC    C24 2500   1.144   4.363   3.228  0.0947 -0.0843  0.0359
    4FIC    C25 2501   1.135   4.472   3.317 -0.0134 -0.0701  0.0078
    4FIC    C26 2502   1.142   4.603   3.274 -0.0670 -0.0751 -0.0173
    4FIC    C27 2503   1.159   4.627   3.136 -0.0093 -0.0955 -0.0136
    4FIC    C28 2504   1.171   4.753   3.059 -0.0418 -0.1060 -0.0353
    4FIC    C29 2505   1.166   4.881   3.110 -0.1416 -0.0970 -0.0652
    4FIC    C30 2506   1.150   4.908   3.249 -0.2296 -0.0759 -0.0796
    4FIC    C31 2507   1.178   4.997   3.028 -0.1656 -0.1084 -0.0844
    5FIC     F1 2508   1.454   3.302   1.680 -0.1385  0.0517  0.1619
    5FIC     F2 2509   1.497   3.256   1.415 -0.0375 -0.0137  0.1895
    5FIC     O1 2510   1.419   3.842   1.685 -0.3006  0.0432 -0.0086
    5FIC     N5 2511   1.533   3.574   1.038 -0.0079 -0.1137  0.1078
    5FIC     N6 2512   1.498   4.006   1.096 -0.1550 -0.1072 -0.0310
    5FIC    C19 2513   1.448   3.990   1.434 -0.2618 -0.0223 -0.0427
    5FIC    C20 2514   1.455   3.856   1.443 -0.2249 -0.0177 -0.0009
    5FIC    C21 2515   1.439   3.787   1.576 -0.2482  0.0167  0.0142
    5FIC    C22 2516   1.452   3.643   1.550 -0.1968  0.0129  0.0611
    5FIC    C23 2517   1.445   3.539   1.642 -0.1963  0.0380  0.0892
    5FIC    C24 2518   1.460   3.409   1.594 -0.1421  0.0282  0.1323
    5FIC    C25 2519   1.482   3.386   1.458 -0.0902 -0.0055  0.1464
    5FIC    C26 2520   1.490   3.489   1.365 -0.0903 -0.0305  0.1185
    5FIC    C27 2521   1.474   3.621   1.412 -0.1447 -0.0212  0.0748
    5FIC    C28 2522   1.477   3.751   1.341 -0.1600 -0.0413  0.0373
    5FIC    C29 2523   1.496   3.770   1.206 -0.1213 -0.0755  0.0379
    5FIC    C30 2524   1.517   3.662   1.114 -0.0591 -0.0963  0.0763
    5FIC    C31 2525   1.497   3.900   1.146 -0.1400 -0.0926  0.0000
    1BTD     S2 2526   0.984   4.567   1.682  0.1222  0.1349 -0.0274
    1BTD     N1 2527   0.956   4.589   1.858  0.1951  0.1206 -0.0139
    1BTD     N2 2528   0.956   4.739   1.640 -0.0373  0.1110 -0.0216
    1BTD     N3 2529   0.849   5.132   1.873 -0.2308  0.0368  0.0147
    1BTD     N4 2530   0.848   4.948   2.142  0.0557  0.0489  0.0243
    1BTD     C5 2531   0.900   4.779   2.003  0.1189  0.0829  0.0059
    1BTD     C6 2532   0.929   4.718   1.876  0.1017  0.1000 -0.0061
    1BTD     C7 2533   0.929   4.802   1.754 -0.0285  0.0945 -0.0105
    1BTD     C8 2534   0.900   4.942   1.765 -0.1349  0.0724 -0.0026
    1BTD    C15 2535   0.872   4.997   1.892 -0.1134  0.0563  0.0091
    1BTD    C16 2536   0.872   4.917   2.009  0.0119  0.0617  0.0133
    1BTD    C43 2537   0.727   5.020   2.180  0.7755  0.0402 -0.5250
    1BTD    C44 2538   0.691   5.090   2.317  0.1203 -0.2865  1.0319
    1BTD    C45 2539   0.809   5.193   2.357  0.5694  0.0555 -0.1526
    1BTD    C46 2540   0.801   5.254   2.499 -0.2392  1.0396  0.1251
    1BTD    C47 2541   0.544   5.140   2.335 -0.8779  0.0170 -0.5563
    1BTD    C48 2542   0.430   5.042   2.305  0.4617  0.1899 -0.1187
    1BTD    C49 2543   0.289   5.082   2.343  0.6155 -0.4835 -0.4400
    1BTD    C50 2544   0.197   4.976   2.297  0.3470  0.0173  0.0487
    1BTD    C75 2545   0.835   5.240   1.979  0.2294 -0.1116  0.5703
    1BTD    C76 2546   0.965   5.312   2.029  0.3975 -0.5553  0.1483
    1BTD    C77 2547   1.078   5.213   2.072 -0.1382  0.1003 -0.2598
    1BTD    C78 2548   1.221   5.266   2.057  0.1001 -0.3147  0.0972
    1BTD    C79 2549   0.957   5.447   2.107  0.3036  0.4590 -0.2268
    1BTD    C80 2550   0.861   5.553   2.060  0.4145 -0.0017  0.0625
    1BTD    C81 2551   0.858   5.687   2.133  0.3860 -0.5910  0.5939
    1BTD    C82 2552   0.755   5.788   2.083 -0.0089  0.2726  0.3657
    2TTP     S1 2553   0.913   4.569   2.228  0.2163  0.0026 -0.0927
    2TTP     S5 2554   0.833   4.876   2.519 -0.0772 -0.2267  0.0693
    2TTP     C1 2555   0.853   4.718   2.606 -0.0767 -0.2800 -0.0272
    2TTP     C2 2556   0.879   4.614   2.521  0.0140 -0.2122 -0.0831
    2TTP     C3 2557   0.884   4.655   2.384  0.0863 -0.1159 -0.0515
    2TTP     C4 2558   0.892   4.728   2.141  0.2157  0.0558  0.0038
    2TTP    C17 2559   0.866   4.832   2.225  0.1250 -0.0118  0.0596
    2TTP    C18 2560   0.862   4.790   2.362  0.0527 -0.1081  0.0281
    2TTP    C32 2561   0.922   4.466   2.558  0.4798  0.5566  0.0452
    2TTP    C33 2562   0.846   4.344   2.497  0.3511  0.5650  0.1071
    2TTP    C34 2563   0.694   4.333   2.532  0.5548 -0.2037  0.1460
    2TTP    C35 2564   0.638   4.185   2.501 -0.5143  0.2847  0.3738
    2TTP    C36 2565   0.671   4.086   2.617 -0.1733  0.0042 -0.3234
    2TTP    C37 2566   0.675   3.941   2.568  0.3213 -0.1062  0.1868
    2TTP    C38 2567   0.728   3.851   2.672  0.0922  0.0505 -0.3818
    2TTP    C39 2568   0.869   3.803   2.657 -0.2100 -0.1523  0.0703
    2TTP    C40 2569   0.934   3.731   2.771 -0.2910  0.0537  0.5356
    2TTP    C41 2570   1.075   3.680   2.739 -0.1240 -0.5460 -0.1268
    2TTP    C42 2571   1.121   3.558   2.821 -0.1713 -0.6583  0.1231
    3TTP     S1 2572   0.944   5.082   1.492 -0.2333 -0.1795 -0.0586
    3TTP     S5 2573   0.824   5.453   1.675 -0.0063 -0.1956  0.1238
    3TTP     C1 2574   0.857   5.483   1.499  0.0229 -0.1271  0.1412
    3TTP     C2 2575   0.896   5.371   1.432 -0.0454 -0.1181  0.0859
    3TTP     C3 2576   0.901   5.256   1.518 -0.1234 -0.1650  0.0278
    3TTP     C4 2577   0.910   5.052   1.668 -0.2625 -0.2481 -0.0760
    3TTP    C17 2578   0.871   5.164   1.735 -0.1941 -0.2569 -0.0207
    3TTP    C18 2579   0.866   5.279   1.650 -0.1162 -0.2102  0.0374
    3TTP    C32 2580   0.914   5.349   1.280 -0.5267  0.1740 -0.0543
    3TTP    C33 2581   1.048   5.281   1.233  0.0198 -0.0989  0.3116
    3TTP    C34 2582   1.045   5.226   1.089  0.2114  0.1199 -0.0715
    3TTP    C35 2583   1.159   5.130   1.063 -0.5656 -0.0043 -0.7970
    3TTP    C36 2584   1.167   5.060   0.925  0.2584 -1.0037 -0.0302
    3TTP    C37 2585   1.034   4.994   0.887 -0.2257 -0.7757  0.0004
    3TTP    C38 2586   1.019   4.927   0.751 -0.0513 -0.3321 -0.0758
    3TTP    C39 2587   0.891   4.860   0.723  0.2662 -0.1543 -0.4443
    3TTP    C40 2588   0.878   4.828   0.579 -0.0247  0.0964 -0.1443
    3TTP    C41 2589   0.755   4.744   0.539 -0.4587 -0.4927 -0.5320
    3TTP    C42 2590   0.751   4.702   0.388  0.0084  0.2132 -0.3379
    4FIC     F1 2591   0.786   5.224   3.251 -0.2766  0.0851 -0.0576
    4FIC     F2 2592   0.782   5.007   3.414  0.2116  0.1202  0.0044
    4FIC     O1 2593   0.829   4.988   2.766 -0.3639  0.0248 -0.0361
    4FIC     N5 2594   0.807   4.525   3.303  0.8512  0.1280  0.1088
    4FIC     N6 2595   0.842   4.384   2.891  0.6846  0.0738  0.1131
    4FIC    C19 2596   0.841   4.696   2.749  0.0715  0.0371  0.0308
    4FIC    C20 2597   0.830   4.764   2.865  0.0744  0.0509  0.0229
    4FIC    C21 2598   0.825   4.914   2.865 -0.1571  0.0434 -0.0120
    4FIC    C22 2599   0.813   4.955   3.006 -0.0891  0.0622 -0.0119
    4FIC    C23 2600   0.805   5.085   3.057 -0.2421  0.0632 -0.0386
    4FIC    C24 2601   0.795   5.099   3.194 -0.1359  0.0829 -0.0323
    4FIC    C25 2602   0.793   4.987   3.278  0.1156  0.1011 -0.0004
    4FIC    C26 2603   0.801   4.857   3.229  0.2694  0.1003  0.0263
    4FIC    C27 2604   0.811   4.841   3.090  0.1652  0.0803  0.0206
    4FIC    C28 2605   0.822   4.719   3.006  0.2757  0.0740  0.0432
    4FIC    C29 2606   0.823   4.589   3.051  0.5182  0.0875  0.0765
    4FIC    C30 2607   0.814   4.554   3.189  0.7005  0.1096  0.0942
    4FIC    C31 2608   0.834   4.477   2.963  0.6083  0.0799  0.0964
    5FIC     F1 2609   0.711   6.251   1.757  0.4661  0.2426 -0.2268
    5FIC     F2 2610   0.697   6.330   1.497 -0.2619  0.0632 -0.2458
    5FIC     O1 2611   0.815   5.723   1.698  0.5029  0.2412 -0.1499
    5FIC     N5 2612   0.751   6.067   1.081 -1.2822 -0.1961 -0.2184
    5FIC     N6 2613   0.834   5.638   1.087 -1.1067 -0.1609 -0.1545
    5FIC    C19 2614   0.838   5.611   1.428 -0.1795  0.0692 -0.1408
    5FIC    C20 2615   0.813   5.740   1.453 -0.1603  0.0764 -0.1593
    5FIC    C21 2616   0.802   5.790   1.595  0.2007  0.1674 -0.1629
    5FIC    C22 2617   0.774   5.935   1.586  0.1236  0.1510 -0.1846
    5FIC    C23 2618   0.756   6.024   1.691  0.3726  0.2148 -0.1949
    5FIC    C24 2619   0.730   6.157   1.658  0.2351  0.1832 -0.2155
    5FIC    C25 2620   0.723   6.197   1.524 -0.1400  0.0907 -0.2253
    5FIC    C26 2621   0.741   6.108   1.419 -0.3899  0.0268 -0.2151
    5FIC    C27 2622   0.767   5.974   1.450 -0.2559  0.0573 -0.1942
    5FIC    C28 2623   0.790   5.856   1.363 -0.4454  0.0079 -0.1791
    5FIC    C29 2624   0.791   5.855   1.226 -0.8144 -0.0838 -0.1827
    5FIC    C30 2625   0.769   5.971   1.147 -1.0703 -0.1452 -0.2024
    5FIC    C31 2626   0.815   5.736   1.150 -0.9731 -0.1258 -0.1671
    1BTD     S2 2627   0.588   1.694   1.235  0.0219  0.0479 -0.0970
    1BTD     N1 2628   0.580   1.739   1.061 -0.3689  0.0538 -0.0797
    1BTD     N2 2629   0.596   1.863   1.294  0.3698  0.0395 -0.1190
    1BTD     N3 2630   0.599   2.291   1.100  0.3730  0.0334 -0.1325
    1BTD     N4 2631   0.579   2.138   0.813 -0.5373  0.0510 -0.0841
    1BTD     C5 2632   0.580   1.949   0.935 -0.4459  0.0521 -0.0825
    1BTD     C6 2633   0.584   1.871   1.056 -0.2273  0.0495 -0.0906
    1BTD     C7 2634   0.593   1.941   1.187  0.1862  0.0416 -0.1126
    1BTD     C8 2635   0.597   2.085   1.189  0.3605  0.0366 -0.1255
    1BTD    C15 2636   0.593   2.156   1.068  0.1353  0.0394 -0.1169
    1BTD    C16 2637   0.585   2.089   0.943 -0.2631  0.0471 -0.0957
    1BTD    C43 2638   0.515   2.263   0.768  0.4056 -0.2020  0.0757
    1BTD    C44 2639   0.547   2.344   0.644 -0.1245 -0.9430  0.5082
    1BTD    C45 2640   0.693   2.396   0.630 -0.4135 -0.3036 -0.5167
    1BTD    C46 2641   0.727   2.472   0.505  0.2600 -0.5113  0.3086
    1BTD    C47 2642   0.437   2.452   0.612 -0.3153 -0.3343  0.8414
    1BTD    C48 2643   0.293   2.407   0.582  0.1308 -0.7066  0.4856
    1BTD    C49 2644   0.269   2.323   0.460  0.0680 -0.0243 -0.6653
    1BTD    C50 2645   0.130   2.272   0.433 -0.0780 -0.0237 -0.4739
    1BTD    C75 2646   0.647   2.404   1.020  0.1478  0.1253 -0.2034
    1BTD    C76 2647   0.793   2.449   1.025 -0.9438 -0.4663  0.5049
    1BTD    C77 2648   0.883   2.330   0.981 -0.4944  0.6525  0.2159
    1BTD    C78 2649   1.028   2.334   1.030 -0.2642  0.4606  0.2552
    1BTD    C79 2650   0.824   2.585   0.962  0.0466 -0.8943  0.8073
    1BTD    C80 2651   0.776   2.724   1.014  0.8011  0.7785 -0.0220
    1BTD    C81 2652   0.842   2.857   0.981 -0.3075  0.0409 -0.4895
    1BTD    C82 2653   0.995   2.880   0.999  0.0288 -0.5937 -0.4116
    2TTP     S1 2654   0.588   1.762   0.692 -0.2150 -0.0630  0.1093
    2TTP     S5 2655   0.610   2.109   0.439  0.3250 -0.3719 -0.2719
    2TTP     C1 2656   0.622   1.961   0.335  0.1254 -0.5049 -0.1065
    2TTP     C2 2657   0.615   1.845   0.406 -0.0531 -0.4174  0.0210
    2TTP     C3 2658   0.601   1.869   0.547 -0.0387 -0.2421 -0.0074
    2TTP     C4 2659   0.576   1.910   0.796 -0.0154  0.0699 -0.0561
    2TTP    C17 2660   0.583   2.026   0.724  0.1632 -0.0176 -0.1835
    2TTP    C18 2661   0.597   2.002   0.584  0.1487 -0.1929 -0.1552
    2TTP    C32 2662   0.617   1.699   0.344  0.4121 -0.1943 -0.0072
    2TTP    C33 2663   0.636   1.577   0.432 -0.1393 -0.4297 -0.1148
    2TTP    C34 2664   0.630   1.443   0.366 -0.9427 -0.4534 -0.3802
    2TTP    C35 2665   0.688   1.338   0.467 -0.2929 -0.2759  0.2780
    2TTP    C36 2666   0.723   1.205   0.402 -0.0377 -0.1111 -0.7033
    2TTP    C37 2667   0.812   1.201   0.280  0.4128 -0.2049 -0.4960
    2TTP    C38 2668   0.853   1.062   0.258 -0.0186  0.4550  0.4860
    2TTP    C39 2669   0.949   1.045   0.144 -0.2453 -0.8234  0.6255
    2TTP    C40 2670   0.965   0.893   0.133  0.4547  0.0853  0.1934
    2TTP    C41 2671   1.077   0.853   0.039 -0.0698 -0.1091 -0.2404
    2TTP    C42 2672   1.062   0.712   0.003  0.0532  0.2141  0.0404
    3TTP     S1 2673   0.555   2.181   1.469  0.0063 -0.3810 -0.6811
    3TTP     S5 2674   0.534   2.584   1.319  0.2162 -0.0791  0.0928
    3TTP     C1 2675   0.491   2.586   1.496  0.2631 -0.3896  0.1083
    3TTP     C2 2676   0.494   2.461   1.553  0.2010 -0.5012 -0.1298
    3TTP     C3 2677   0.532   2.360   1.459  0.1142 -0.3453 -0.3330
    3TTP     C4 2678   0.598   2.180   1.292 -0.0406 -0.0705 -0.6966
    3TTP    C17 2679   0.595   2.304   1.236  0.0215  0.0410 -0.4585
    3TTP    C18 2680   0.557   2.405   1.330  0.1083 -0.1147 -0.2553
    3TTP    C32 2681   0.451   2.423   1.690  0.3483  0.1967 -0.6328
    3TTP    C33 2682   0.524   2.320   1.781 -0.5374 -0.4194 -0.2851
    3TTP    C34 2683   0.445   2.254   1.892  0.1476  0.4703 -0.7227
    3TTP    C35 2684   0.324   2.157   1.854  0.1219 -0.4135 -0.6481
    3TTP    C36 2685   0.351   2.029   1.771  0.0195  0.1351 -0.0200
    3TTP    C37 2686   0.460   1.926   1.816  0.4086  0.1075  0.3847
    3TTP    C38 2687   0.476   1.799   1.724  1.1324 -0.3775 -0.0001
    3TTP    C39 2688   0.613   1.737   1.742 -0.0825  0.0543  0.0461
    3TTP    C40 2689   0.727   1.811   1.680 -0.2660  0.1829  0.3326
    3TTP    C41 2690   0.863   1.757   1.716  0.4217  0.3363 -0.2570
    3TTP    C42 2691   0.981   1.853   1.693  0.2192  0.1529  0.1052
    4FIC     F1 2692   0.806   2.533  -0.224 -0.1190  0.1373  0.0313
    4FIC     F2 2693   0.807   2.338  -0.414 -0.3381  0.2387 -0.0744
    4FIC     O1 2694   0.681   2.246   0.217  0.2853 -0.0809  0.0050
    4FIC     N5 2695   0.719   1.853  -0.373 -0.3650  0.2290 -0.2451
    4FIC     N6 2696   0.621   1.668   0.010 -0.0049  0.0379 -0.2444
    4FIC    C19 2697   0.637   1.957   0.192  0.2196 -0.0616 -0.1053
    4FIC    C20 2698   0.669   2.037   0.089  0.1265 -0.0106 -0.0946
    4FIC    C21 2699   0.690   2.185   0.109  0.1681 -0.0246 -0.0368
    4FIC    C22 2700   0.722   2.241  -0.023  0.0428  0.0415 -0.0397
    4FIC    C23 2701   0.750   2.374  -0.054  0.0302  0.0542  0.0035
    4FIC    C24 2702   0.778   2.404  -0.186 -0.0992  0.1211 -0.0095
    4FIC    C25 2703   0.778   2.303  -0.284 -0.2119  0.1733 -0.0638
    4FIC    C26 2704   0.751   2.171  -0.254 -0.2001  0.1609 -0.1072
    4FIC    C27 2705   0.722   2.138  -0.120 -0.0699  0.0936 -0.0950
    4FIC    C28 2706   0.689   2.009  -0.056 -0.0230  0.0635 -0.1309
    4FIC    C29 2707   0.680   1.887  -0.118 -0.1029  0.0981 -0.1869
    4FIC    C30 2708   0.701   1.869  -0.258 -0.2467  0.1699 -0.2187
    4FIC    C31 2709   0.647   1.767  -0.047 -0.0485  0.0648 -0.2182
    5FIC     F1 2710   0.302   3.364   1.311 -0.2714 -0.0378 -0.0537
    5FIC     F2 2711   0.294   3.419   1.577 -0.3591 -0.0708 -0.0493
    5FIC     O1 2712   0.419   2.835   1.321  0.1199  0.0482 -0.0876
    5FIC     N5 2713   0.366   3.123   1.967 -0.2064 -0.0570 -0.0669
    5FIC     N6 2714   0.460   2.699   1.921  0.1170  0.0167 -0.0943
    5FIC    C19 2715   0.454   2.701   1.578  0.1750  0.0472 -0.0953
    5FIC    C20 2716   0.424   2.832   1.566  0.0800  0.0269 -0.0870
    5FIC    C21 2717   0.408   2.894   1.430  0.0576  0.0288 -0.0835
    5FIC    C22 2718   0.377   3.036   1.452 -0.0521  0.0035 -0.0743
    5FIC    C23 2719   0.354   3.134   1.356 -0.1082 -0.0039 -0.0683
    5FIC    C24 2720   0.326   3.262   1.401 -0.2114 -0.0291 -0.0600
    5FIC    C25 2721   0.322   3.291   1.538 -0.2564 -0.0461 -0.0577
    5FIC    C26 2722   0.345   3.193   1.635 -0.2009 -0.0387 -0.0635
    5FIC    C27 2723   0.373   3.063   1.591 -0.0964 -0.0135 -0.0721
    5FIC    C28 2724   0.402   2.939   1.666 -0.0169  0.0002 -0.0798
    5FIC    C29 2725   0.408   2.925   1.803 -0.0307 -0.0098 -0.0802
    5FIC    C30 2726   0.385   3.034   1.893 -0.1273 -0.0358 -0.0729
    5FIC    C31 2727   0.436   2.801   1.867  0.0506  0.0049 -0.0879
    1BTD     S2 2728   0.940   1.989   1.267 -0.0156 -0.1847  0.3199
    1BTD     N1 2729   0.961   1.966   1.090  0.3143 -0.1210  0.3483
    1BTD     N2 2730   0.925   1.814   1.304 -0.2947 -0.1854  0.2040
    1BTD     N3 2731   0.931   1.414   1.058 -0.2678 -0.0720  0.0193
    1BTD     N4 2732   0.975   1.601   0.795  0.4827  0.0074  0.1971
    1BTD     C5 2733   0.968   1.773   0.940  0.3932 -0.0549  0.2672
    1BTD     C6 2734   0.955   1.835   1.069  0.2051 -0.1044  0.2739
    1BTD     C7 2735   0.935   1.750   1.188 -0.1358 -0.1405  0.1931
    1BTD     C8 2736   0.929   1.607   1.173 -0.2716 -0.1253  0.1097
    1BTD    C15 2737   0.941   1.551   1.044 -0.0783 -0.0764  0.1064
    1BTD    C16 2738   0.960   1.633   0.929  0.2501 -0.0417  0.1842
    1BTD    C43 2739   0.988   1.469   0.724 -0.6456  0.2033 -0.1511
    1BTD    C44 2740   1.132   1.396   0.731  0.5616  0.0353  0.5668
    1BTD    C45 2741   1.124   1.246   0.700 -0.2601 -0.0636  0.0726
    1BTD    C46 2742   1.070   1.201   0.566  0.0538  0.1917 -0.1679
    1BTD    C47 2743   1.239   1.483   0.656 -0.4567  0.4792 -0.2858
    1BTD    C48 2744   1.379   1.421   0.642  0.1751 -0.2352  0.2906
    1BTD    C49 2745   1.489   1.518   0.635 -0.4022  0.5623  0.0268
    1BTD    C50 2746   1.622   1.443   0.620  0.3369 -0.0947  0.1776
    1BTD    C75 2747   0.890   1.308   0.964 -0.0505  0.8657  0.1069
    1BTD    C76 2748   0.740   1.298   0.927  0.0439  0.6777  0.0329
    1BTD    C77 2749   0.674   1.435   0.893  0.1146  0.6293 -0.0509
    1BTD    C78 2750   0.521   1.434   0.875  0.2643  0.2061 -0.2545
    1BTD    C79 2751   0.710   1.190   0.821  0.7802  0.7822  0.5532
    1BTD    C80 2752   0.780   1.050   0.829  0.1546  0.3029 -0.0271
    1BTD    C81 2753   0.762   0.985   0.961 -0.0499 -0.1148 -0.1487
    1BTD    C82 2754   0.868   0.876   0.997  0.2896 -0.2831  0.2993
    2TTP     S1 2755   1.004   1.983   0.715  0.1186 -0.0397  0.1353
    2TTP     S5 2756   0.999   1.665   0.426 -0.0512 -0.0464  0.1454
    2TTP     C1 2757   1.018   1.823   0.338 -0.0118 -0.0555  0.1372
    2TTP     C2 2758   1.020   1.931   0.422  0.0429 -0.0540  0.1336
    2TTP     C3 2759   1.008   1.892   0.559  0.0558 -0.0456  0.1372
    2TTP     C4 2760   0.986   1.825   0.803  0.0792 -0.0305  0.1434
    2TTP    C17 2761   0.983   1.718   0.719  0.0244 -0.0321  0.1471
    2TTP    C18 2762   0.995   1.756   0.582  0.0116 -0.0405  0.1435
    2TTP    C32 2763   1.026   2.081   0.380  0.1457  0.3611 -0.1575
    2TTP    C33 2764   1.086   2.195   0.467  0.3915 -0.0959 -0.1024
    2TTP    C34 2765   1.042   2.328   0.423  0.6104  0.2172  0.0034
    2TTP    C35 2766   1.115   2.398   0.311  0.0350 -0.5655 -0.5795
    2TTP    C36 2767   1.046   2.529   0.260  0.0635  0.0918 -0.3164
    2TTP    C37 2768   1.147   2.620   0.198 -0.4665 -0.2397 -0.2130
    2TTP    C38 2769   1.100   2.759   0.158 -0.5277  0.4833  0.5086
    2TTP    C39 2770   1.064   2.849   0.272  0.1485  0.5933  0.2508
    2TTP    C40 2771   0.985   2.972   0.217 -0.0377  0.9307 -0.1447
    2TTP    C41 2772   0.874   3.024   0.298 -0.4025  0.4757 -0.1030
    2TTP    C42 2773   0.787   3.127   0.233  0.4724 -0.3284  0.0215
    3TTP     S1 2774   0.925   1.481   1.450  0.3711 -0.3025  0.2680
    3TTP     S5 2775   0.957   1.094   1.265  0.1158 -0.3235  0.2668
    3TTP     C1 2776   0.968   1.073   1.446  0.1956 -0.3212  0.2622
    3TTP     C2 2777   0.959   1.192   1.513  0.2791 -0.3147  0.2623
    3TTP     C3 2778   0.943   1.303   1.425  0.2831 -0.3111  0.2660
    3TTP     C4 2779   0.914   1.502   1.270  0.2914 -0.3048  0.2726
    3TTP    C17 2780   0.923   1.384   1.202  0.2079 -0.3114  0.2725
    3TTP    C18 2781   0.939   1.272   1.290  0.2038 -0.3149  0.2688
    3TTP    C32 2782   0.986   1.211   1.660  1.3042  0.0664 -0.6369
    3TTP    C33 2783   0.875   1.292   1.739 -0.0862 -0.2106 -0.3372
    3TTP    C34 2784   0.927   1.360   1.866 -0.1498 -0.0548 -0.0763
    3TTP    C35 2785   0.822   1.443   1.929 -0.4902  0.3456 -0.1644
    3TTP    C36 2786   0.874   1.501   2.058 -0.3940  0.1725 -0.2602
    3TTP    C37 2787   0.976   1.610   2.049 -0.0665 -0.3233  0.3576
    3TTP    C38 2788   1.015   1.670   2.186  0.0672 -0.3203  0.0481
    3TTP    C39 2789   0.902   1.717   2.280 -0.1622 -0.2636 -0.0811
    3TTP    C40 2790   0.944   1.773   2.419 -0.5047  0.0503 -0.8723
    3TTP    C41 2791   1.008   1.660   2.513 -0.5830  0.1155  0.6380
    3TTP    C42 2792   1.028   1.712   2.653 -0.5842  0.0732  0.4191
    4FIC     F1 2793   0.976   1.307  -0.303 -0.0075 -0.0607 -0.0467
    4FIC     F2 2794   0.992   1.522  -0.469  0.1412 -0.0496 -0.0182
    4FIC     O1 2795   1.001   1.549   0.180 -0.0594 -0.1243 -0.0122
    4FIC     N5 2796   1.033   2.004  -0.363  0.3181 -0.0788  0.0472
    4FIC     N6 2797   1.049   2.150   0.048  0.2475 -0.1307  0.0685
    4FIC    C19 2798   1.025   1.841   0.194  0.0642 -0.1362  0.0273
    4FIC    C20 2799   1.018   1.772   0.078  0.0715 -0.1206  0.0175
    4FIC    C21 2800   1.006   1.622   0.080  0.0053 -0.1154 -0.0028
    4FIC    C22 2801   1.001   1.579  -0.061  0.0325 -0.0979 -0.0091
    4FIC    C23 2802   0.990   1.449  -0.110 -0.0084 -0.0877 -0.0268
    4FIC    C24 2803   0.987   1.433  -0.248  0.0296 -0.0715 -0.0296
    4FIC    C25 2804   0.995   1.544  -0.333  0.1062 -0.0658 -0.0148
    4FIC    C26 2805   1.007   1.674  -0.285  0.1474 -0.0759  0.0029
    4FIC    C27 2806   1.010   1.692  -0.146  0.1099 -0.0923  0.0059
    4FIC    C28 2807   1.020   1.815  -0.064  0.1369 -0.1061  0.0228
    4FIC    C29 2808   1.031   1.944  -0.110  0.2088 -0.1054  0.0400
    4FIC    C30 2809   1.032   1.976  -0.249  0.2686 -0.0907  0.0439
    4FIC    C31 2810   1.041   2.056  -0.023  0.2297 -0.1193  0.0556
    5FIC     F1 2811   1.181   0.309   1.226 -0.1447  0.0551 -0.3103
    5FIC     F2 2812   1.150   0.233   1.486 -0.2337 -0.1631 -0.3846
    5FIC     O1 2813   1.063   0.837   1.259  0.0953  0.0819  0.1382
    5FIC     N5 2814   1.020   0.499   1.882 -0.1905 -0.4579 -0.1719
    5FIC     N6 2815   0.934   0.927   1.856  0.0150 -0.3930  0.1934
    5FIC    C19 2816   0.991   0.951   1.519  0.0956 -0.1171  0.2265
    5FIC    C20 2817   1.022   0.821   1.500  0.0387 -0.1154  0.1165
    5FIC    C21 2818   1.058   0.770   1.364  0.0426 -0.0098  0.0776
    5FIC    C22 2819   1.085   0.626   1.379 -0.0280 -0.0370 -0.0457
    5FIC    C23 2820   1.123   0.536   1.280 -0.0499  0.0342 -0.1192
    5FIC    C24 2821   1.144   0.404   1.319 -0.1195 -0.0105 -0.2329
    5FIC    C25 2822   1.128   0.365   1.453 -0.1652 -0.1230 -0.2710
    5FIC    C26 2823   1.090   0.455   1.552 -0.1436 -0.1945 -0.1980
    5FIC    C27 2824   1.069   0.588   1.515 -0.0734 -0.1507 -0.0828
    5FIC    C28 2825   1.029   0.707   1.594 -0.0343 -0.2034  0.0154
    5FIC    C29 2826   1.003   0.710   1.730 -0.0607 -0.3127  0.0131
    5FIC    C30 2827   1.013   0.594   1.813 -0.1320 -0.3922 -0.0886
    5FIC    C31 2828   0.965   0.829   1.798 -0.0189 -0.3562  0.1124
    1BTD     S2 2829   0.960   7.084   1.838  0.0497  0.0328 -0.2692
    1BTD     N1 2830   0.962   7.048   2.014 -0.2730  0.1063 -0.2510
    1BTD     N2 2831   0.963   6.911   1.788  0.3575  0.0157 -0.1945
    1BTD     N3 2832   0.972   6.495   2.006  0.4021  0.1134 -0.0092
    1BTD     N4 2833   0.970   6.664   2.284 -0.3748  0.2249 -0.0790
    1BTD     C5 2834   0.966   6.846   2.152 -0.3168  0.1669 -0.1604
    1BTD     C6 2835   0.964   6.916   2.027 -0.1415  0.1138 -0.1932
    1BTD     C7 2836   0.965   6.839   1.900  0.2114  0.0631 -0.1615
    1BTD     C8 2837   0.968   6.696   1.905  0.3714  0.0679 -0.0986
    1BTD    C15 2838   0.969   6.631   2.030  0.1900  0.1207 -0.0684
    1BTD    C16 2839   0.968   6.705   2.152 -0.1501  0.1698 -0.0988
    1BTD    C43 2840   1.039   6.543   2.328 -0.3362  0.5674  0.0919
    1BTD    C44 2841   1.192   6.556   2.352 -0.2285  0.0158 -0.1383
    1BTD    C45 2842   1.255   6.423   2.421 -0.0163  0.1364  1.6259
    1BTD    C46 2843   1.216   6.377   2.557  0.3475 -0.0277  0.3896
    1BTD    C47 2844   1.262   6.618   2.235 -0.1572  0.0986 -0.2480
    1BTD    C48 2845   1.418   6.640   2.239 -0.4014 -0.1853  0.0450
    1BTD    C49 2846   1.480   6.754   2.325  0.2343  0.1625 -0.1735
    1BTD    C50 2847   1.435   6.897   2.305 -0.2042 -0.3546  0.0117
    1BTD    C75 2848   0.901   6.392   2.083 -0.4837  0.1671 -0.4891
    1BTD    C76 2849   0.918   6.241   2.082 -0.1615  0.2127  0.2588
    1BTD    C77 2850   0.797   6.160   2.145  0.3100 -0.1690 -0.3522
    1BTD    C78 2851   0.668   6.175   2.074  0.9050 -0.1859 -0.3581
    1BTD    C79 2852   1.057   6.203   2.132  0.1018 -0.5253 -0.1744
    1BTD    C80 2853   1.107   6.064   2.122  0.5029 -0.0965 -0.1584
    1BTD    C81 2854   1.254   6.046   2.167  0.1675 -0.5896  0.2309
    1BTD    C82 2855   1.293   5.900   2.180  0.4953  0.0219 -0.4473
    2TTP     S1 2856   0.942   7.044   2.385 -0.0389  0.4049  0.1100
    2TTP     S5 2857   0.939   6.709   2.655 -0.0317  0.2501 -0.0811
    2TTP     C1 2858   0.914   6.861   2.751  0.0284  0.2003  0.0137
    2TTP     C2 2859   0.914   6.974   2.674  0.0297  0.2452  0.0782
    2TTP     C3 2860   0.933   6.943   2.535 -0.0167  0.3206  0.0553
    2TTP     C4 2861   0.967   6.891   2.289 -0.0991  0.4548  0.0152
    2TTP    C17 2862   0.967   6.779   2.367 -0.1004  0.4097 -0.0493
    2TTP    C18 2863   0.948   6.809   2.505 -0.0539  0.3345 -0.0263
    2TTP    C32 2864   0.899   7.116   2.719  0.0382 -0.2437 -0.0478
    2TTP    C33 2865   1.025   7.210   2.708  0.1073 -0.5257  0.1025
    2TTP    C34 2866   0.976   7.343   2.766  0.0303  0.4812 -0.6196
    2TTP    C35 2867   1.088   7.438   2.782 -0.0510 -0.3987 -0.1653
    2TTP    C36 2868   1.064   7.573   2.837 -0.5122 -0.0760  0.1200
    2TTP    C37 2869   0.950   7.614   2.930 -0.2471 -0.1095 -1.0176
    2TTP    C38 2870   0.973   7.766   2.954  0.0274 -0.0426 -0.2570
    2TTP    C39 2871   0.877   7.851   3.031  0.4132 -0.1841 -0.8348
    2TTP    C40 2872   0.872   7.815   3.182  0.4271  0.3821  0.5157
    2TTP    C41 2873   0.780   7.909   3.256  0.6219 -0.7515  0.5037
    2TTP    C42 2874   0.772   7.900   3.409 -0.3232 -0.2812 -0.1287
    3TTP     S1 2875   1.003   6.584   1.626  0.1285 -0.1504 -0.2830
    3TTP     S5 2876   1.049   6.190   1.793 -0.0420 -0.1470 -0.2275
    3TTP     C1 2877   1.077   6.180   1.614 -0.1821 -0.2095 -0.2468
    3TTP     C2 2878   1.065   6.301   1.552 -0.1378 -0.2143 -0.2652
    3TTP     C3 2879   1.032   6.406   1.643  0.0085 -0.1686 -0.2645
    3TTP     C4 2880   0.974   6.593   1.805  0.2686 -0.0877 -0.2637
    3TTP    C17 2881   0.987   6.472   1.868  0.2242 -0.0829 -0.2454
    3TTP    C18 2882   1.019   6.368   1.776  0.0780 -0.1287 -0.2460
    3TTP    C32 2883   1.094   6.341   1.401 -0.1129  0.0192 -0.5435
    3TTP    C33 2884   0.964   6.372   1.328 -0.2105 -0.5549  0.1416
    3TTP    C34 2885   1.002   6.396   1.182  0.3481  0.0718  0.1796
    3TTP    C35 2886   0.876   6.411   1.090  0.4296 -0.8449  0.0284
    3TTP    C36 2887   0.920   6.392   0.944 -0.0970 -0.4049 -0.6233
    3TTP    C37 2888   0.803   6.420   0.842  0.2654  0.0930 -0.7280
    3TTP    C38 2889   0.836   6.424   0.692 -0.2206  0.8649 -0.2071
    3TTP    C39 2890   0.914   6.300   0.633 -0.2248  0.1035 -0.3987
    3TTP    C40 2891   0.925   6.314   0.479  0.8411  0.2434 -0.6651
    3TTP    C41 2892   1.016   6.216   0.420 -0.0956  0.1802  0.4804
    3TTP    C42 2893   1.050   6.242   0.274  0.0895  0.5266 -0.8626
    4FIC     F1 2894   0.709   6.317   3.330 -0.6012  0.2500 -0.4150
    4FIC     F2 2895   0.748   6.511   3.517  0.3425 -0.1091 -0.2286
    4FIC     O1 2896   0.808   6.592   2.875 -0.6170  0.5487 -0.2385
    4FIC     N5 2897   0.875   6.986   3.461  1.6882 -0.4123  0.1652
    4FIC     N6 2898   0.945   7.162   3.067  1.4856 -0.1066  0.2656
    4FIC    C19 2899   0.881   6.875   2.891  0.2791  0.3117  0.0023
    4FIC    C20 2900   0.854   6.799   2.999  0.2462  0.2506 -0.0494
    4FIC    C21 2901   0.818   6.654   2.982 -0.2274  0.3809 -0.1735
    4FIC    C22 2902   0.796   6.600   3.118 -0.1358  0.2700 -0.2021
    4FIC    C23 2903   0.760   6.470   3.153 -0.4656  0.3306 -0.3072
    4FIC    C24 2904   0.745   6.443   3.288 -0.2945  0.1999 -0.3136
    4FIC    C25 2905   0.765   6.543   3.384  0.1918  0.0150 -0.2175
    4FIC    C26 2906   0.801   6.673   3.350  0.5229 -0.0463 -0.1123
    4FIC    C27 2907   0.816   6.703   3.213  0.3565  0.0840 -0.1041
    4FIC    C28 2908   0.853   6.828   3.144  0.6105  0.0646 -0.0065
    4FIC    C29 2909   0.881   6.949   3.203  1.0915 -0.0951  0.1028
    4FIC    C30 2910   0.878   6.969   3.345  1.4178 -0.2688  0.1368
    4FIC    C31 2911   0.916   7.066   3.128  1.3055 -0.1005  0.1917
    5FIC     F1 2912   1.249   5.392   1.784  0.2950  0.0972 -0.2043
    5FIC     F2 2913   1.281   5.349   1.517 -0.4892  0.0557 -0.2968
    5FIC     O1 2914   1.123   5.918   1.790  0.5732  0.1614  0.1106
    5FIC     N5 2915   1.237   5.664   1.138 -1.4183  0.0418 -0.2052
    5FIC     N6 2916   1.132   6.083   1.196 -1.0428  0.1004  0.0595
    5FIC    C19 2917   1.108   6.065   1.537 -0.0771  0.1445  0.1342
    5FIC    C20 2918   1.139   5.934   1.546 -0.1165  0.1301  0.0585
    5FIC    C21 2919   1.144   5.865   1.680  0.2318  0.1401  0.0515
    5FIC    C22 2920   1.180   5.725   1.653  0.0868  0.1196 -0.0389
    5FIC    C23 2921   1.197   5.623   1.746  0.3019  0.1199 -0.0763
    5FIC    C24 2922   1.231   5.497   1.698  0.1004  0.0980 -0.1632
    5FIC    C25 2923   1.247   5.476   1.560 -0.3036  0.0770 -0.2107
    5FIC    C26 2924   1.231   5.577   1.467 -0.5200  0.0762 -0.1737
    5FIC    C27 2925   1.196   5.705   1.514 -0.3211  0.0981 -0.0859
    5FIC    C28 2926   1.172   5.832   1.443 -0.4621  0.1037 -0.0279
    5FIC    C29 2927   1.178   5.852   1.307 -0.8407  0.0876 -0.0501
    5FIC    C30 2928   1.211   5.749   1.214 -1.1570  0.0626 -0.1353
    5FIC    C31 2929   1.153   5.979   1.247 -0.9497  0.0949  0.0103
    1BTD     S2 2930   0.623   6.501   1.839 -0.2878 -0.3235  0.0654
    1BTD     N1 2931   0.610   6.576   2.002 -0.2108 -0.2621  0.0435
    1BTD     N2 2932   0.623   6.658   1.751 -0.1979 -0.3514  0.0152
    1BTD     N3 2933   0.599   7.113   1.865  0.1243 -0.2980 -0.1266
    1BTD     N4 2934   0.582   7.012   2.174  0.1084 -0.1879 -0.0918
    1BTD     C5 2935   0.596   6.805   2.088 -0.0440 -0.2248 -0.0276
    1BTD     C6 2936   0.606   6.707   1.983 -0.1265 -0.2657  0.0020
    1BTD     C7 2937   0.614   6.753   1.842 -0.1192 -0.3157 -0.0138
    1BTD     C8 2938   0.610   6.894   1.814 -0.0299 -0.3222 -0.0584
    1BTD    C15 2939   0.600   6.986   1.920  0.0490 -0.2812 -0.0862
    1BTD    C16 2940   0.593   6.942   2.056  0.0420 -0.2330 -0.0710
    1BTD    C43 2941   0.507   7.140   2.191 -0.6236  0.4136 -0.7697
    1BTD    C44 2942   0.545   7.247   2.299 -0.5051  0.1945  0.3103
    1BTD    C45 2943   0.697   7.290   2.310 -0.0483  0.1888  0.1448
    1BTD    C46 2944   0.755   7.377   2.426  0.0447 -0.0935 -0.2385
    1BTD    C47 2945   0.450   7.364   2.304  0.1108  0.0320  0.1071
    1BTD    C48 2946   0.295   7.339   2.313 -0.2346  0.2004 -0.6109
    1BTD    C49 2947   0.244   7.277   2.441 -0.5574  0.1955  0.0322
    1BTD    C50 2948   0.267   7.338   2.578  0.4188  0.4357 -0.6184
    1BTD    C75 2949   0.656   7.230   1.929 -0.7694 -0.5262 -0.3978
    1BTD    C76 2950   0.628   7.377   1.893 -0.3258 -0.0699  0.2192
    1BTD    C77 2951   0.731   7.471   1.961 -0.0481  0.1245  0.0656
    1BTD    C78 2952   0.879   7.458   1.920  0.9431 -0.5620  0.7867
    1BTD    C79 2953   0.485   7.420   1.914  0.3925  0.0654  0.6352
    1BTD    C80 2954   0.440   7.561   1.856  0.1031  0.1223 -0.1786
    1BTD    C81 2955   0.347   7.629   1.953  0.4523  0.9494 -0.3271
    1BTD    C82 2956   0.414   7.702   2.072  0.2704 -0.1163 -0.5556
    2TTP     S1 2957   0.564   6.660   2.345  0.0065  0.1249 -0.2191
    2TTP     S5 2958   0.564   7.036   2.555  0.3958 -0.1585  0.2944
    2TTP     C1 2959   0.547   6.901   2.676  0.0300 -0.2999  0.0931
    2TTP     C2 2960   0.547   6.778   2.619 -0.1118 -0.2204 -0.0773
    2TTP     C3 2961   0.559   6.784   2.476  0.0634 -0.0454 -0.0550
    2TTP     C4 2962   0.580   6.795   2.223  0.3723  0.2662 -0.0177
    2TTP    C17 2963   0.581   6.918   2.281  0.5141  0.1867  0.1526
    2TTP    C18 2964   0.569   6.912   2.423  0.3389  0.0117  0.1305
    2TTP    C32 2965   0.538   6.654   2.705 -0.2858  0.3976 -0.5398
    2TTP    C33 2966   0.582   6.516   2.652  0.5831 -0.4546 -0.3592
    2TTP    C34 2967   0.559   6.409   2.751  0.3086  0.2288  0.0396
    2TTP    C35 2968   0.667   6.306   2.711 -0.2423 -0.1216 -0.3901
    2TTP    C36 2969   0.668   6.166   2.757  0.0680 -0.4772  0.0902
    2TTP    C37 2970   0.775   6.089   2.682 -0.2823 -0.0437  0.1391
    2TTP    C38 2971   0.760   5.948   2.714 -0.0318  0.1767  0.2221
    2TTP    C39 2972   0.880   5.863   2.662  0.7770  0.1421 -0.0877
    2TTP    C40 2973   0.845   5.713   2.672 -0.0561 -0.0008 -0.2513
    2TTP    C41 2974   0.859   5.638   2.799  0.1915  0.2538  0.0366
    2TTP    C42 2975   0.801   5.498   2.793  0.6641  0.3959 -0.9085
    3TTP     S1 2976   0.582   6.935   1.518  0.0469 -0.1293  0.0271
    3TTP     S5 2977   0.573   7.361   1.580 -0.0574 -0.1298  0.0153
    3TTP     C1 2978   0.552   7.328   1.402  0.0887 -0.1343 -0.0013
    3TTP     C2 2979   0.554   7.194   1.372  0.1295 -0.1345  0.0014
    3TTP     C3 2980   0.571   7.113   1.489  0.0469 -0.1310  0.0167
    3TTP     C4 2981   0.603   6.968   1.695 -0.0992 -0.1248  0.0437
    3TTP    C17 2982   0.601   7.102   1.725 -0.1400 -0.1246  0.0410
    3TTP    C18 2983   0.584   7.182   1.608 -0.0574 -0.1280  0.0258
    3TTP    C32 2984   0.548   7.128   1.240 -0.2260  0.4228  0.3578
    3TTP    C33 2985   0.687   7.067   1.200 -0.1655 -0.4706 -0.0065
    3TTP    C34 2986   0.679   6.998   1.065 -0.5197 -0.0098  0.9929
    3TTP    C35 2987   0.810   6.929   1.028 -0.3257 -0.0409  0.0709
    3TTP    C36 2988   0.810   6.876   0.889  0.3098 -0.3762 -0.2089
    3TTP    C37 2989   0.951   6.819   0.863 -0.0546 -0.0243 -0.4448
    3TTP    C38 2990   0.953   6.790   0.716  0.6095 -0.2063 -0.0645
    3TTP    C39 2991   1.090   6.748   0.656  0.1549 -0.5879 -0.3511
    3TTP    C40 2992   1.100   6.788   0.511 -0.0910  0.0979 -0.0409
    3TTP    C41 2993   1.041   6.675   0.420 -0.6408  0.2192 -0.3892
    3TTP    C42 2994   1.101   6.661   0.285  1.0790  0.8780  0.4200
    4FIC     F1 2995   0.616   7.548   3.185  0.1265  0.0172 -0.0199
    4FIC     F2 2996   0.573   7.379   3.395  0.0207  0.0993  0.0249
    4FIC     O1 2997   0.593   7.202   2.769  0.0690 -0.1035  0.0835
    4FIC     N5 2998   0.496   6.890   3.399 -0.1722  0.1309  0.1626
    4FIC     N6 2999   0.486   6.654   3.032 -0.1957  0.0199  0.2344
    4FIC    C19 3000   0.544   6.918   2.821 -0.0524 -0.0682  0.1629
    4FIC    C20 3001   0.551   7.012   2.918 -0.0338 -0.0411  0.1351
    4FIC    C21 3002   0.577   7.156   2.883  0.0293 -0.0618  0.0950
    4FIC    C22 3003   0.579   7.230   3.011  0.0345 -0.0229  0.0723
    4FIC    C23 3004   0.599   7.366   3.029  0.0846 -0.0249  0.0335
    4FIC    C24 3005   0.597   7.414   3.160  0.0787  0.0167  0.0183
    4FIC    C25 3006   0.575   7.327   3.267  0.0242  0.0589  0.0414
    4FIC    C26 3007   0.555   7.190   3.249 -0.0260  0.0612  0.0801
    4FIC    C27 3008   0.557   7.141   3.118 -0.0209  0.0194  0.0960
    4FIC    C28 3009   0.539   7.003   3.065 -0.0650  0.0100  0.1356
    4FIC    C29 3010   0.515   6.890   3.139 -0.1236  0.0423  0.1665
    4FIC    C30 3011   0.504   6.890   3.282 -0.1501  0.0910  0.1643
    4FIC    C31 3012   0.499   6.761   3.080 -0.1629  0.0299  0.2037
    5FIC     F1 3013   0.485   8.151   1.369 -0.2324  0.1652  0.1249
    5FIC     F2 3014   0.522   8.135   1.100 -0.1104  0.2697  0.1356
    5FIC     O1 3015   0.503   7.627   1.506 -0.0096  0.1309 -0.0325
    5FIC     N5 3016   0.589   7.739   0.811  0.2239  0.3964  0.0387
    5FIC     N6 3017   0.595   7.333   0.972  0.3734  0.3486 -0.0865
    5FIC    C19 3018   0.544   7.426   1.297  0.1862  0.2192 -0.0783
    5FIC    C20 3019   0.539   7.559   1.274  0.1253  0.2236 -0.0391
    5FIC    C21 3020   0.517   7.656   1.386  0.0258  0.1764 -0.0176
    5FIC    C22 3021   0.516   7.790   1.326 -0.0208  0.1949  0.0243
    5FIC    C23 3022   0.499   7.912   1.390 -0.1134  0.1655  0.0555
    5FIC    C24 3023   0.501   8.027   1.312 -0.1416  0.1919  0.0927
    5FIC    C25 3024   0.521   8.018   1.173 -0.0787  0.2458  0.0981
    5FIC    C26 3025   0.538   7.897   1.108  0.0139  0.2755  0.0671
    5FIC    C27 3026   0.535   7.780   1.186  0.0438  0.2496  0.0292
    5FIC    C28 3027   0.550   7.637   1.148  0.1360  0.2694 -0.0095
    5FIC    C29 3028   0.571   7.588   1.022  0.2161  0.3201 -0.0166
    5FIC    C30 3029   0.581   7.671   0.906  0.2201  0.3619  0.0139
    5FIC    C31 3030   0.584   7.448   0.995  0.3022  0.3355 -0.0550
    1BTD     S2 3031   0.368   3.643   1.319 -0.0250 -0.0109 -0.0904
    1BTD     N1 3032   0.383   3.671   1.142 -0.0177  0.0314 -0.0831
    1BTD     N2 3033   0.346   3.817   1.359 -0.0252 -0.0206 -0.0496
    1BTD     N3 3034   0.331   4.222   1.122 -0.0125  0.0364  0.0467
    1BTD     N4 3035   0.377   4.042   0.854 -0.0033  0.1003  0.0055
    1BTD     C5 3036   0.380   3.867   0.995 -0.0103  0.0666 -0.0363
    1BTD     C6 3037   0.373   3.801   1.123 -0.0159  0.0359 -0.0522
    1BTD     C7 3038   0.352   3.883   1.245 -0.0201  0.0069 -0.0335
    1BTD     C8 3039   0.339   4.026   1.232 -0.0185  0.0100  0.0001
    1BTD    C15 3040   0.347   4.085   1.105 -0.0129  0.0405  0.0146
    1BTD    C16 3041   0.367   4.007   0.987 -0.0089  0.0683 -0.0034
    1BTD    C43 3042   0.305   4.154   0.795 -0.6760  0.5348  0.5062
    1BTD    C44 3043   0.348   4.217   0.656  0.4658  0.2691 -0.7185
    1BTD    C45 3044   0.494   4.262   0.641  0.3843  0.1392  0.2872
    1BTD    C46 3045   0.545   4.321   0.509 -0.2704 -0.3022 -0.0375
    1BTD    C47 3046   0.249   4.324   0.615  0.1388  0.5485 -0.0856
    1BTD    C48 3047   0.101   4.284   0.593  0.0143  0.1881 -0.4668
    1BTD    C49 3048   0.070   4.193   0.477  0.5593 -0.3482  0.1601
    1BTD    C50 3049  -0.056   4.104   0.494  0.4024 -0.2642  0.1026
    1BTD    C75 3050   0.374   4.329   1.035  0.0697  0.3975  0.1943
    1BTD    C76 3051   0.496   4.416   1.048 -0.2387  0.4603  0.2301
    1BTD    C77 3052   0.627   4.346   1.092  0.4944 -0.1384 -0.6907
    1BTD    C78 3053   0.682   4.223   1.014  0.3495 -0.0715 -0.3665
    1BTD    C79 3054   0.504   4.507   0.925 -0.2580 -0.3363 -0.0158
    1BTD    C80 3055   0.586   4.637   0.931  0.2470 -0.3787  0.3294
    1BTD    C81 3056   0.578   4.735   1.046  0.4114  0.1652 -0.4606
    1BTD    C82 3057   0.660   4.861   1.042 -0.3700 -0.7345 -0.4234
    2TTP     S1 3058   0.412   3.660   0.766  0.0046  0.0031  0.1919
    2TTP     S5 3059   0.411   3.977   0.475  0.3700 -0.2004 -0.0324
    2TTP     C1 3060   0.429   3.818   0.388  0.1393 -0.2861  0.0763
    2TTP     C2 3061   0.430   3.711   0.473  0.0128 -0.2284  0.1520
    2TTP     C3 3062   0.417   3.751   0.609  0.0936 -0.1144  0.1268
    2TTP     C4 3063   0.395   3.819   0.853  0.2353  0.0888  0.0832
    2TTP    C17 3064   0.394   3.926   0.768  0.3617  0.0310  0.0075
    2TTP    C18 3065   0.406   3.887   0.632  0.2810 -0.0830  0.0327
    2TTP    C32 3066   0.461   3.565   0.453 -0.2346  0.2457 -0.0825
    2TTP    C33 3067   0.355   3.461   0.500 -0.6946  0.4819  0.2718
    2TTP    C34 3068   0.334   3.341   0.410  0.6161  0.3937  0.1560
    2TTP    C35 3069   0.432   3.231   0.399  0.4106  0.0988  0.2654
    2TTP    C36 3070   0.376   3.130   0.297 -0.3451  0.3368 -0.0984
    2TTP    C37 3071   0.451   2.992   0.309 -0.3175 -0.2718 -0.6484
    2TTP    C38 3072   0.420   2.899   0.191 -0.2558  0.1402  0.2603
    2TTP    C39 3073   0.457   2.753   0.219  0.3714 -0.7217  0.3394
    2TTP    C40 3074   0.398   2.659   0.113  0.2268  0.2732 -0.0411
    2TTP    C41 3075   0.459   2.524   0.117 -0.7790 -0.1830  0.6929
    2TTP    C42 3076   0.380   2.432   0.030  0.4774  0.9075  0.0979
    3TTP     S1 3077   0.302   4.146   1.505 -0.1827 -0.0374  0.0651
    3TTP     S5 3078   0.261   4.535   1.327  0.1148 -0.1829 -0.3254
    3TTP     C1 3079   0.243   4.552   1.507  0.0676  0.0023 -0.3466
    3TTP     C2 3080   0.255   4.433   1.573 -0.0270  0.0583 -0.2272
    3TTP     C3 3081   0.278   4.324   1.483 -0.0657 -0.0433 -0.1148
    3TTP     C4 3082   0.320   4.130   1.325 -0.1355 -0.2226  0.0864
    3TTP    C17 3083   0.308   4.249   1.259 -0.0409 -0.2784 -0.0330
    3TTP    C18 3084   0.285   4.358   1.349 -0.0022 -0.1769 -0.1455
    3TTP    C32 3085   0.248   4.422   1.729  0.1984  0.2842  0.5600
    3TTP    C33 3086   0.294   4.294   1.802  0.9453 -0.6826 -0.3314
    3TTP    C34 3087   0.265   4.301   1.954 -0.6662  0.3924  0.7670
    3TTP    C35 3088   0.292   4.169   2.035  0.3916 -0.8653 -0.1395
    3TTP    C36 3089   0.191   4.050   2.021  0.2546  0.3123  0.7592
    3TTP    C37 3090   0.194   3.979   1.885 -0.0989  0.2927  0.1377
    3TTP    C38 3091   0.315   3.883   1.866  0.0622  0.7600 -0.6749
    3TTP    C39 3092   0.324   3.829   1.727  0.1001 -0.2466  0.3006
    3TTP    C40 3093   0.462   3.757   1.704 -0.4387 -0.2251  0.2448
    3TTP    C41 3094   0.595   3.837   1.715  0.0968  0.1868 -0.7233
    3TTP    C42 3095   0.724   3.755   1.700 -0.1361 -0.1002 -0.3126
    4FIC     F1 3096   0.639   4.297  -0.247  0.1115 -0.0436 -0.0707
    4FIC     F2 3097   0.634   4.077  -0.407  0.1648 -0.1359  0.0541
    4FIC     O1 3098   0.501   4.080   0.229 -0.0517  0.2314  0.0076
    4FIC     N5 3099   0.527   3.606  -0.298  0.1252 -0.0727  0.2892
    4FIC     N6 3100   0.420   3.481   0.107 -0.0130  0.1608  0.3252
    4FIC    C19 3101   0.447   3.793   0.246 -0.0587  0.2408  0.1546
    4FIC    C20 3102   0.482   3.856   0.132 -0.0197  0.1752  0.1300
    4FIC    C21 3103   0.508   4.004   0.132 -0.0188  0.1750  0.0538
    4FIC    C22 3104   0.543   4.040  -0.007  0.0285  0.0951  0.0450
    4FIC    C23 3105   0.576   4.166  -0.056  0.0459  0.0664 -0.0165
    4FIC    C24 3106   0.606   4.175  -0.191  0.0919 -0.0115 -0.0118
    4FIC    C25 3107   0.603   4.062  -0.274  0.1194 -0.0589  0.0524
    4FIC    C26 3108   0.570   3.936  -0.225  0.1022 -0.0308  0.1140
    4FIC    C27 3109   0.540   3.924  -0.089  0.0557  0.0479  0.1104
    4FIC    C28 3110   0.502   3.807  -0.006  0.0271  0.0954  0.1652
    4FIC    C29 3111   0.488   3.677  -0.050  0.0414  0.0700  0.2351
    4FIC    C30 3112   0.510   3.639  -0.186  0.0875 -0.0083  0.2646
    4FIC    C31 3113   0.451   3.570   0.036  0.0114  0.1201  0.2843
    5FIC     F1 3114   0.082   5.331   1.304  0.3922 -0.0576 -0.0460
    5FIC     F2 3115   0.068   5.390   1.569 -0.6525 -0.1870 -0.0673
    5FIC     O1 3116   0.187   4.800   1.323  0.8906  0.0449  0.1051
    5FIC     N5 3117   0.121   5.097   1.964 -1.7994 -0.3000  0.0095
    5FIC     N6 3118   0.205   4.670   1.926 -1.1994 -0.1938  0.1319
    5FIC    C19 3119   0.210   4.668   1.584  0.0694 -0.0423  0.1382
    5FIC    C20 3120   0.184   4.799   1.568 -0.0151 -0.0631  0.1011
    5FIC    C21 3121   0.174   4.860   1.431  0.4271 -0.0153  0.0862
    5FIC    C22 3122   0.145   5.003   1.451  0.2009 -0.0539  0.0450
    5FIC    C23 3123   0.127   5.100   1.353  0.4590 -0.0310  0.0189
    5FIC    C24 3124   0.101   5.230   1.395  0.1619 -0.0770 -0.0187
    5FIC    C25 3125   0.094   5.260   1.532 -0.3762 -0.1435 -0.0296
    5FIC    C26 3126   0.112   5.164   1.630 -0.6363 -0.1667 -0.0038
    5FIC    C27 3127   0.138   5.032   1.589 -0.3422 -0.1209  0.0344
    5FIC    C28 3128   0.162   4.908   1.667 -0.4963 -0.1292  0.0685
    5FIC    C29 3129   0.162   4.896   1.804 -0.9905 -0.1872  0.0696
    5FIC    C30 3130   0.139   5.007   1.892 -1.4335 -0.2490  0.0366
    5FIC    C31 3131   0.186   4.772   1.870 -1.1026 -0.1905  0.1038
    1BTD     S2 3132   0.719   3.960   1.314 -0.1580 -0.1405 -0.0236
    1BTD     N1 3133   0.744   3.928   1.139 -0.6059 -0.0776 -0.1011
    1BTD     N2 3134   0.709   3.786   1.360  0.4104 -0.1677  0.0115
    1BTD     N3 3135   0.734   3.375   1.135  0.7600 -0.1103 -0.0569
    1BTD     N4 3136   0.777   3.549   0.864 -0.4923  0.0006 -0.1956
    1BTD     C5 3137   0.761   3.728   0.999 -0.5315 -0.0381 -0.1488
    1BTD     C6 3138   0.744   3.797   1.124 -0.3233 -0.0803 -0.0970
    1BTD     C7 3139   0.724   3.717   1.247  0.2456 -0.1307 -0.0340
    1BTD     C8 3140   0.722   3.574   1.239  0.5778 -0.1364 -0.0259
    1BTD    C15 3141   0.739   3.511   1.114  0.3567 -0.0941 -0.0779
    1BTD    C16 3142   0.758   3.588   0.995 -0.1914 -0.0456 -0.1387
    1BTD    C43 3143   0.797   3.421   0.802 -0.6353  0.2519 -0.4945
    1BTD    C44 3144   0.942   3.356   0.798  0.3017 -0.5498  0.0106
    1BTD    C45 3145   0.951   3.209   0.772 -0.0176  0.1397  0.4366
    1BTD    C46 3146   0.888   3.146   0.644 -0.1073  0.1721  0.1743
    1BTD    C47 3147   1.027   3.458   0.716  1.1252  0.5684  0.5012
    1BTD    C48 3148   1.170   3.421   0.710  0.0287  0.3110  0.0589
    1BTD    C49 3149   1.260   3.533   0.651 -0.2217  0.6417 -0.3795
    1BTD    C50 3150   1.406   3.525   0.677 -0.3195 -0.1509  0.4634
    1BTD    C75 3151   0.680   3.271   1.051 -0.3350 -0.2571  0.0230
    1BTD    C76 3152   0.530   3.247   1.036 -0.4921 -0.3024 -0.0990
    1BTD    C77 3153   0.453   3.364   0.974 -0.1954  0.0944  0.2352
    1BTD    C78 3154   0.301   3.354   0.961  0.4235  0.5490 -0.3666
    1BTD    C79 3155   0.503   3.105   0.985  0.4889  0.2159 -0.2626
    1BTD    C80 3156   0.535   3.070   0.839 -0.0524  0.1645  0.4384
    1BTD    C81 3157   0.544   2.919   0.807  0.6347  0.3345  0.0616
    1BTD    C82 3158   0.569   2.879   0.662  0.3260  0.2433  0.4883
    2TTP     S1 3159   0.796   3.932   0.783  0.2631  0.0226  0.0330
    2TTP     S5 3160   0.819   3.615   0.493  0.0465  0.0631 -0.0289
    2TTP     C1 3161   0.825   3.774   0.405 -0.2800  0.0748 -0.0320
    2TTP     C2 3162   0.819   3.881   0.490 -0.2324  0.0629 -0.0130
    2TTP     C3 3163   0.808   3.842   0.627  0.0637  0.0443  0.0046
    2TTP     C4 3164   0.790   3.772   0.871  0.5896  0.0109  0.0361
    2TTP    C17 3165   0.797   3.665   0.786  0.5420  0.0227  0.0172
    2TTP    C18 3166   0.807   3.705   0.649  0.2459  0.0415 -0.0005
    2TTP    C32 3167   0.850   4.026   0.457  0.4999 -0.2823 -0.1367
    2TTP    C33 3168   0.964   4.093   0.528  0.8812 -0.4243  0.2664
    2TTP    C34 3169   0.955   4.245   0.550 -0.5279 -0.7473  0.4497
    2TTP    C35 3170   1.080   4.301   0.626  0.0948  0.3618  0.4875
    2TTP    C36 3171   1.057   4.420   0.712 -0.2226 -0.1207 -0.3756
    2TTP    C37 3172   1.012   4.399   0.859  0.0064 -0.2836  0.4624
    2TTP    C38 3173   1.011   4.530   0.934  0.0409  0.4982 -0.9035
    2TTP    C39 3174   0.943   4.540   1.075 -0.6911  0.2947  0.0064
    2TTP    C40 3175   0.985   4.661   1.161 -0.3952  0.5257 -0.3021
    2TTP    C41 3176   1.129   4.679   1.204  0.4582 -0.3846  0.1007
    2TTP    C42 3177   1.141   4.793   1.307  0.2969  0.1835  0.3741
    3TTP     S1 3178   0.730   3.457   1.517  0.1184  0.1930 -0.2679
    3TTP     S5 3179   0.746   3.063   1.346  0.1468  0.0884 -0.0246
    3TTP     C1 3180   0.761   3.049   1.527  0.2038  0.2051 -0.0199
    3TTP     C2 3181   0.757   3.169   1.590  0.1984  0.2443 -0.0947
    3TTP     C3 3182   0.742   3.278   1.498  0.1490  0.1835 -0.1585
    3TTP     C4 3183   0.714   3.472   1.336  0.0614  0.0762 -0.2726
    3TTP    C17 3184   0.718   3.351   1.273  0.0668  0.0371 -0.1978
    3TTP    C18 3185   0.734   3.243   1.364  0.1161  0.0979 -0.1340
    3TTP    C32 3186   0.762   3.202   1.741 -0.4312 -0.0558 -0.9298
    3TTP    C33 3187   0.640   3.278   1.802  0.1408  0.2712  0.2356
    3TTP    C34 3188   0.675   3.377   1.908  0.4532  0.2387 -0.5230
    3TTP    C35 3189   0.544   3.431   1.975  0.2079 -0.3365  0.1288
    3TTP    C36 3190   0.551   3.546   2.081  0.0767 -0.2027 -0.1417
    3TTP    C37 3191   0.414   3.563   2.154  0.2455 -0.1146 -1.1385
    3TTP    C38 3192   0.402   3.683   2.250 -0.0431  0.6698  0.0675
    3TTP    C39 3193   0.259   3.706   2.303  0.0889  0.1880 -0.8554
    3TTP    C40 3194   0.236   3.843   2.367 -0.3349  0.6040  0.6878
    3TTP    C41 3195   0.091   3.854   2.414 -0.0829  0.2306  0.0135
    3TTP    C42 3196   0.033   3.995   2.435 -0.0829  0.0892 -0.6300
    4FIC     F1 3197   0.813   3.287  -0.261  0.4362 -0.1968 -0.1253
    4FIC     F2 3198   0.872   3.505  -0.414 -0.4401  0.0076 -0.1842
    4FIC     O1 3199   0.788   3.510   0.231  0.6553 -0.3710 -0.0353
    4FIC     N5 3200   0.940   3.977  -0.281 -1.5439  0.1770 -0.2046
    4FIC     N6 3201   0.909   4.107   0.135 -1.1960 -0.0004 -0.1224
    4FIC    C19 3202   0.836   3.797   0.261 -0.1041 -0.2378 -0.0595
    4FIC    C20 3203   0.840   3.733   0.143 -0.1250 -0.2019 -0.0799
    4FIC    C21 3204   0.814   3.585   0.136  0.2799 -0.2752 -0.0655
    4FIC    C22 3205   0.826   3.547  -0.006  0.1417 -0.2111 -0.0943
    4FIC    C23 3206   0.811   3.421  -0.062  0.4025 -0.2445 -0.0936
    4FIC    C24 3207   0.827   3.409  -0.199  0.1979 -0.1691 -0.1242
    4FIC    C25 3208   0.857   3.522  -0.278 -0.2537 -0.0639 -0.1545
    4FIC    C26 3209   0.873   3.648  -0.223 -0.5158 -0.0302 -0.1554
    4FIC    C27 3210   0.857   3.662  -0.084 -0.3145 -0.1053 -0.1247
    4FIC    C28 3211   0.867   3.780   0.005 -0.4964 -0.0953 -0.1170
    4FIC    C29 3212   0.895   3.909  -0.034 -0.9268 -0.0048 -0.1399
    4FIC    C30 3213   0.919   3.946  -0.170 -1.2645  0.0949 -0.1754
    4FIC    C31 3214   0.902   4.017   0.059 -1.0724 -0.0029 -0.1301
    5FIC     F1 3215   0.950   2.264   1.354  0.1051  0.0202 -0.1144
    5FIC     F2 3216   0.938   2.209   1.620 -0.2991 -0.0280 -0.1425
    5FIC     O1 3217   0.838   2.794   1.354  0.2811  0.0578 -0.1744
    5FIC     N5 3218   0.839   2.507   2.003 -0.7548 -0.0707 -0.2255
    5FIC     N6 3219   0.754   2.932   1.949 -0.5358 -0.0316 -0.2668
    5FIC    C19 3220   0.786   2.929   1.608 -0.0426  0.0250 -0.2224
    5FIC    C20 3221   0.815   2.798   1.598 -0.0711  0.0175 -0.2063
    5FIC    C21 3222   0.840   2.736   1.463  0.1029  0.0355 -0.1819
    5FIC    C22 3223   0.868   2.593   1.488  0.0197  0.0212 -0.1689
    5FIC    C23 3224   0.898   2.495   1.394  0.1233  0.0298 -0.1457
    5FIC    C24 3225   0.921   2.366   1.441  0.0122  0.0129 -0.1373
    5FIC    C25 3226   0.914   2.338   1.578 -0.1961 -0.0120 -0.1517
    5FIC    C26 3227   0.885   2.436   1.673 -0.3004 -0.0207 -0.1749
    5FIC    C27 3228   0.861   2.566   1.627 -0.1904 -0.0039 -0.1838
    5FIC    C28 3229   0.828   2.691   1.700 -0.2545 -0.0072 -0.2073
    5FIC    C29 3230   0.813   2.705   1.836 -0.4471 -0.0288 -0.2264
    5FIC    C30 3231   0.827   2.596   1.927 -0.6156 -0.0518 -0.2259
    5FIC    C31 3232   0.781   2.830   1.897 -0.4948 -0.0303 -0.2485
    1BTD     S2 3233   3.192   1.133   1.788  0.0738 -0.0213 -0.2975
    1BTD     N1 3234   3.150   1.093   1.958  0.3113  0.0620 -0.2183
    1BTD     N2 3235   3.208   0.962   1.736 -0.0750 -0.0482 -0.2566
    1BTD     N3 3236   3.166   0.540   1.938  0.0504  0.0471 -0.0305
    1BTD     N4 3237   3.094   0.702   2.211  0.5265  0.1829  0.0167
    1BTD     C5 3238   3.122   0.887   2.087  0.4179  0.1235 -0.0962
    1BTD     C6 3239   3.150   0.961   1.967  0.2695  0.0652 -0.1681
    1BTD     C7 3240   3.183   0.887   1.843  0.0532  0.0035 -0.1896
    1BTD     C8 3241   3.186   0.744   1.845 -0.0038  0.0032 -0.1380
    1BTD    C15 3242   3.157   0.675   1.965  0.1466  0.0614 -0.0682
    1BTD    C16 3243   3.125   0.746   2.084  0.3550  0.1208 -0.0476
    1BTD    C43 3244   3.023   0.576   2.239 -0.4598 -0.1897  0.1603
    1BTD    C44 3245   3.023   0.505   2.378  0.1333  0.0474 -0.4476
    1BTD    C45 3246   2.910   0.396   2.388  0.4879 -0.1906 -0.4758
    1BTD    C46 3247   2.766   0.425   2.344 -0.1480  0.4816 -0.6062
    1BTD    C47 3248   3.164   0.470   2.437  0.8219  0.5490  0.0773
    1BTD    C48 3249   3.164   0.434   2.581  0.6534  0.3343 -0.3672
    1BTD    C49 3250   3.295   0.477   2.646  0.4806 -0.3606  0.1905
    1BTD    C50 3251   3.337   0.408   2.774  0.4587 -0.3317  0.0541
    1BTD    C75 3252   3.224   0.440   2.042  0.0257 -0.2971 -0.2015
    1BTD    C76 3253   3.205   0.290   2.037 -0.1077  0.2567 -0.4413
    1BTD    C77 3254   3.053   0.252   2.038  0.4835  0.3933  0.2408
    1BTD    C78 3255   3.026   0.102   2.009  0.0916  0.6667  0.3465
    1BTD    C79 3256   3.277   0.207   2.142 -0.5873 -0.0581 -0.3883
    1BTD    C80 3257   3.430   0.198   2.140 -0.1430 -0.1763 -0.7236
    1BTD    C81 3258   3.491   0.098   2.244 -0.0035 -0.4999  0.6731
    1BTD    C82 3259   3.642   0.086   2.251  0.0234 -0.7173  0.1615
    2TTP     S1 3260   3.102   1.079   2.324  0.1187 -0.1682  0.1250
    2TTP     S5 3261   3.037   0.744   2.586 -0.4670 -0.1401  0.0181
    2TTP     C1 3262   3.039   0.896   2.685 -0.1019 -0.1835  0.0791
    2TTP     C2 3263   3.060   1.008   2.611  0.1006 -0.1948  0.1158
    2TTP     C3 3264   3.074   0.979   2.472 -0.0254 -0.1695  0.0969
    2TTP     C4 3265   3.100   0.927   2.224 -0.2463 -0.1248  0.0640
    2TTP    C17 3266   3.080   0.815   2.299 -0.4489 -0.1135  0.0274
    2TTP    C18 3267   3.065   0.844   2.438 -0.3229 -0.1388  0.0462
    2TTP    C32 3268   3.066   1.156   2.670  0.6734  0.9903  0.3975
    2TTP    C33 3269   3.019   1.267   2.585 -0.2213  0.0099 -0.2027
    2TTP    C34 3270   3.060   1.411   2.621  0.4909  0.1923  0.3031
    2TTP    C35 3271   3.008   1.467   2.751 -0.6296  0.2538  0.3505
    2TTP    C36 3272   3.049   1.610   2.773 -0.4472 -1.2991 -0.9162
    2TTP    C37 3273   2.978   1.718   2.686  0.4228  0.4341 -0.6979
    2TTP    C38 3274   3.004   1.863   2.722  0.5242 -0.2068  0.0151
    2TTP    C39 3275   3.131   1.926   2.661 -0.6192  0.5178  0.3813
    2TTP    C40 3276   3.168   2.071   2.704 -0.5711 -0.1412  0.3583
    2TTP    C41 3277   3.300   2.132   2.641 -0.1787  0.1970 -0.0119
    2TTP    C42 3278   3.341   2.253   2.734  0.3385  0.1099  0.4693
    3TTP     S1 3279   3.236   0.646   1.566  0.0187 -0.0765  0.0274
    3TTP     S5 3280   3.234   0.244   1.718 -0.6547 -0.0657  0.0552
    3TTP     C1 3281   3.261   0.238   1.538 -0.7314 -0.1270  0.0456
    3TTP     C2 3282   3.263   0.362   1.481 -0.5280 -0.1340  0.0365
    3TTP     C3 3283   3.244   0.466   1.577 -0.3041 -0.0911  0.0367
    3TTP     C4 3284   3.209   0.652   1.746  0.0955 -0.0151  0.0370
    3TTP    C17 3285   3.207   0.528   1.804 -0.1079 -0.0082  0.0461
    3TTP    C18 3286   3.227   0.424   1.708 -0.3317 -0.0510  0.0459
    3TTP    C32 3287   3.281   0.391   1.329 -0.2369  0.2673  0.3459
    3TTP    C33 3288   3.149   0.410   1.257  0.6231 -0.7507  0.1699
    3TTP    C34 3289   3.157   0.495   1.126 -0.1748  0.2103  0.0911
    3TTP    C35 3290   3.048   0.479   1.029 -0.1009  0.1947 -0.0852
    3TTP    C36 3291   3.058   0.544   0.899 -0.3356  0.4268 -0.2205
    3TTP    C37 3292   2.938   0.506   0.818  0.0760  0.4007  0.1365
    3TTP    C38 3293   2.934   0.586   0.690 -0.6049  0.6651  1.1856
    3TTP    C39 3294   2.822   0.544   0.587  0.0585  0.2178  0.2133
    3TTP    C40 3295   2.778   0.662   0.495  0.1888  0.3746  0.3279
    3TTP    C41 3296   2.669   0.654   0.394  0.4546  0.2442  0.0759
    3TTP    C42 3297   2.719   0.566   0.281 -0.2456  0.2001  0.5947
    4FIC     F1 3298   2.935   0.380   3.316  0.3469  0.1259  0.0876
    4FIC     F2 3299   2.961   0.591   3.486 -0.1538  0.3199 -0.0743
    4FIC     O1 3300   2.985   0.626   2.837  0.4559 -0.2267 -0.0826
    4FIC     N5 3301   3.034   1.071   3.387 -0.7956  0.3473 -0.4283
    4FIC     N6 3302   3.068   1.220   2.978 -0.6095  0.0328 -0.5286
    4FIC    C19 3303   3.028   0.915   2.828  0.0165 -0.1667 -0.2977
    4FIC    C20 3304   3.014   0.845   2.942  0.0085 -0.0855 -0.2485
    4FIC    C21 3305   2.993   0.696   2.938  0.2425 -0.1233 -0.1379
    4FIC    C22 3306   2.982   0.652   3.079  0.1678 -0.0137 -0.1087
    4FIC    C23 3307   2.961   0.523   3.126  0.3203 -0.0038 -0.0136
    4FIC    C24 3308   2.955   0.505   3.263  0.2070  0.1096 -0.0043
    4FIC    C25 3309   2.968   0.614   3.350 -0.0509  0.2094 -0.0878
    4FIC    C26 3310   2.989   0.744   3.304 -0.2042  0.2001 -0.1829
    4FIC    C27 3311   2.996   0.763   3.165 -0.0929  0.0860 -0.1938
    4FIC    C28 3312   3.016   0.886   3.085 -0.2010  0.0459 -0.2831
    4FIC    C29 3313   3.033   1.014   3.133 -0.4480  0.1170 -0.3793
    4FIC    C30 3314   3.034   1.045   3.273 -0.6384  0.2434 -0.4058
    4FIC    C31 3315   3.052   1.127   3.048 -0.5354  0.0703 -0.4609
    5FIC     F1 3316   3.402  -0.554   1.720  0.2255 -0.0486  0.0407
    5FIC     F2 3317   3.406  -0.607   1.453 -0.1817  0.0799  0.0079
    5FIC     O1 3318   3.321  -0.018   1.716  0.1419 -0.0576  0.4248
    5FIC     N5 3319   3.353  -0.303   1.067 -0.8267  0.2580  0.2348
    5FIC     N6 3320   3.288   0.126   1.117 -0.8100  0.2251  0.5415
    5FIC    C19 3321   3.295   0.120   1.460 -0.2769  0.0619  0.5301
    5FIC    C20 3322   3.315  -0.012   1.471 -0.2399  0.0592  0.4347
    5FIC    C21 3323   3.328  -0.076   1.606 -0.0202 -0.0041  0.3857
    5FIC    C22 3324   3.349  -0.220   1.583 -0.0362  0.0103  0.2829
    5FIC    C23 3325   3.366  -0.320   1.678  0.1262 -0.0331  0.2090
    5FIC    C24 3326   3.385  -0.450   1.632  0.0726 -0.0085  0.1172
    5FIC    C25 3327   3.387  -0.477   1.494 -0.1372  0.0578  0.1005
    5FIC    C26 3328   3.370  -0.378   1.399 -0.3001  0.1013  0.1739
    5FIC    C27 3329   3.351  -0.246   1.444 -0.2490  0.0771  0.2673
    5FIC    C28 3330   3.330  -0.119   1.369 -0.3825  0.1098  0.3600
    5FIC    C29 3331   3.325  -0.104   1.233 -0.5972  0.1748  0.3737
    5FIC    C30 3332   3.340  -0.214   1.142 -0.7226  0.2203  0.2972
    5FIC    C31 3333   3.305   0.022   1.170 -0.7130  0.2020  0.4660
    1BTD     S2 3334   2.836   0.570   1.853 -0.0195 -0.0111 -0.3570
    1BTD     N1 3335   2.800   0.677   1.993 -0.3674 -0.1368 -0.3501
    1BTD     N2 3336   2.856   0.705   1.736  0.2829  0.0954 -0.1851
    1BTD     N3 3337   2.831   1.173   1.748  0.2711  0.0856  0.1777
    1BTD     N4 3338   2.761   1.140   2.065 -0.5303 -0.2005 -0.0256
    1BTD     C5 3339   2.780   0.919   2.026 -0.4427 -0.1666 -0.1783
    1BTD     C6 3340   2.804   0.802   1.947 -0.2464 -0.0950 -0.2265
    1BTD     C7 3341   2.836   0.817   1.803  0.1177  0.0349 -0.1341
    1BTD     C8 3342   2.842   0.949   1.746  0.2671  0.0868  0.0019
    1BTD    C15 3343   2.818   1.061   1.828  0.0651  0.0132  0.0446
    1BTD    C16 3344   2.788   1.046   1.966 -0.2856 -0.1120 -0.0444
    1BTD    C43 3345   2.690   1.263   2.040 -0.3700 -1.1585 -0.0820
    1BTD    C44 3346   2.704   1.390   2.128  0.7362 -0.0344  0.3659
    1BTD    C45 3347   2.843   1.450   2.134  0.0721  0.6030 -0.8064
    1BTD    C46 3348   2.959   1.366   2.174  0.0871  0.6582 -0.0885
    1BTD    C47 3349   2.579   1.477   2.104  0.1898  0.5612  0.0683
    1BTD    C48 3350   2.544   1.585   2.212  0.6009  0.7328  0.1817
    1BTD    C49 3351   2.475   1.514   2.331  0.5275  0.1703 -1.1043
    1BTD    C50 3352   2.330   1.472   2.310  0.1653 -0.5969  0.2320
    1BTD    C75 3353   2.891   1.308   1.792 -0.2616  1.0230  0.0430
    1BTD    C76 3354   2.888   1.451   1.740 -0.4279 -0.2749  0.5999
    1BTD    C77 3355   2.986   1.547   1.812  0.7365  0.3050  0.2712
    1BTD    C78 3356   3.134   1.525   1.809  0.0566  0.3505  0.1228
    1BTD    C79 3357   2.738   1.495   1.729 -0.7336 -0.3965  0.8303
    1BTD    C80 3358   2.709   1.638   1.683  0.1956 -1.2494 -0.0132
    1BTD    C81 3359   2.559   1.679   1.687 -0.2111  0.4688 -0.3596
    1BTD    C82 3360   2.537   1.816   1.618  0.8278  0.4768 -0.0384
    2TTP     S1 3361   2.708   0.832   2.301  0.2989  0.1252  0.0420
    2TTP     S5 3362   2.698   1.243   2.429  0.2981 -0.0209  0.5153
    2TTP     C1 3363   2.671   1.136   2.574  0.3590 -0.1899  0.4031
    2TTP     C2 3364   2.672   1.003   2.543  0.3629 -0.1548  0.2504
    2TTP     C3 3365   2.695   0.980   2.404  0.3179  0.0069  0.2164
    2TTP     C4 3366   2.735   0.939   2.156  0.2379  0.2943  0.1542
    2TTP    C17 3367   2.733   1.072   2.187  0.2341  0.2591  0.3070
    2TTP    C18 3368   2.711   1.094   2.327  0.2791  0.0974  0.3409
    2TTP    C32 3369   2.650   0.890   2.640 -0.3331  0.1381 -0.4929
    2TTP    C33 3370   2.702   0.749   2.609  0.2826  0.2013  0.2749
    2TTP    C34 3371   2.663   0.652   2.721 -0.2591 -0.3293 -0.0733
    2TTP    C35 3372   2.731   0.512   2.702 -0.2378 -0.1301 -0.4998
    2TTP    C36 3373   2.705   0.405   2.810  0.0129  0.3289  0.0873
    2TTP    C37 3374   2.741   0.257   2.779  0.1201  0.4252  0.4584
    2TTP    C38 3375   2.884   0.226   2.737  0.3023  0.2368 -0.0679
    2TTP    C39 3376   2.907   0.096   2.672  0.5611  0.4703 -0.5443
    2TTP    C40 3377   3.047   0.076   2.614 -0.0341 -1.1810  0.2044
    2TTP    C41 3378   3.083  -0.047   2.547  0.1293 -0.0190 -0.0879
    2TTP    C42 3379   3.228  -0.050   2.492  0.6540  0.3407  0.0193
    3TTP     S1 3380   2.891   0.927   1.450  0.0297  0.2066  0.0514
    3TTP     S5 3381   2.838   1.352   1.413 -0.0881  0.1812 -0.0706
    3TTP     C1 3382   2.854   1.280   1.246 -0.1838  0.1230 -0.0547
    3TTP     C2 3383   2.871   1.145   1.248 -0.1531  0.1274 -0.0161
    3TTP     C3 3384   2.872   1.093   1.381 -0.0528  0.1769  0.0024
    3TTP     C4 3385   2.875   0.998   1.617  0.1255  0.2647  0.0356
    3TTP    C17 3386   2.858   1.134   1.615  0.0947  0.2603 -0.0030
    3TTP    C18 3387   2.857   1.186   1.482 -0.0055  0.2109 -0.0215
    3TTP    C32 3388   2.907   1.048   1.139 -0.4145  0.5429  0.2641
    3TTP    C33 3389   3.055   1.017   1.129  0.4097 -0.4135  0.2634
    3TTP    C34 3390   3.076   0.950   1.000 -0.3888 -0.9183  0.5897
    3TTP    C35 3391   3.222   0.904   0.990 -0.5714 -0.6137  1.1284
    3TTP    C36 3392   3.273   0.884   0.847 -0.7832 -0.4872 -0.5368
    3TTP    C37 3393   3.252   0.991   0.738  0.4852 -0.6504  0.0235
    3TTP    C38 3394   3.321   0.970   0.599 -0.3694  0.3709  0.0055
    3TTP    C39 3395   3.302   0.842   0.522 -0.5916  0.5483 -0.5845
    3TTP    C40 3396   3.386   0.815   0.393 -0.0300 -0.9798  0.0282
    3TTP    C41 3397   3.347   0.691   0.329  0.6445 -0.0069 -0.0350
    3TTP    C42 3398   3.423   0.674   0.201 -0.4903 -0.1480 -0.1852
    4FIC     F1 3399   2.614   1.869   2.937 -0.1402 -0.0707  0.1689
    4FIC     F2 3400   2.636   1.746   3.179  0.3711 -0.0714  0.1253
    4FIC     O1 3401   2.633   1.444   2.603 -0.3772 -0.0318  0.1054
    4FIC     N5 3402   2.680   1.265   3.288  0.9370 -0.0448  0.0173
    4FIC     N6 3403   2.690   0.958   2.978  0.6487 -0.0142 -0.0235
    4FIC    C19 3404   2.660   1.175   2.715  0.0270 -0.0186  0.0412
    4FIC    C20 3405   2.655   1.287   2.789  0.0666 -0.0284  0.0588
    4FIC    C21 3406   2.641   1.422   2.724 -0.1509 -0.0347  0.0917
    4FIC    C22 3407   2.638   1.521   2.834 -0.0420 -0.0449  0.1041
    4FIC    C23 3408   2.626   1.659   2.823 -0.1698 -0.0533  0.1337
    4FIC    C24 3409   2.625   1.732   2.940 -0.0260 -0.0621  0.1401
    4FIC    C25 3410   2.637   1.668   3.065  0.2374 -0.0624  0.1176
    4FIC    C26 3411   2.648   1.530   3.076  0.3662 -0.0541  0.0880
    4FIC    C27 3412   2.649   1.454   2.958  0.2238 -0.0451  0.0811
    4FIC    C28 3413   2.660   1.308   2.936  0.3010 -0.0350  0.0525
    4FIC    C29 3414   2.672   1.211   3.033  0.5434 -0.0323  0.0251
    4FIC    C30 3415   2.676   1.241   3.173  0.7590 -0.0392  0.0209
    4FIC    C31 3416   2.682   1.072   3.002  0.6000 -0.0224 -0.0015
    5FIC     F1 3417   2.744   2.072   1.047  0.0752  0.0339 -0.0452
    5FIC     F2 3418   2.741   2.000   0.785  0.1053 -0.1428  0.0029
    5FIC     O1 3419   2.821   1.592   1.285 -0.3158  0.1430  0.3042
    5FIC     N5 3420   2.793   1.554   0.577 -0.1301 -0.3190  0.3210
    5FIC     N6 3421   2.854   1.193   0.816 -0.4416 -0.1981  0.5843
    5FIC    C19 3422   2.846   1.352   1.119 -0.4260  0.0130  0.4742
    5FIC    C20 3423   2.827   1.476   1.069 -0.3287 -0.0076  0.3844
    5FIC    C21 3424   2.815   1.594   1.161 -0.2772  0.0630  0.3006
    5FIC    C22 3425   2.794   1.712   1.075 -0.1729  0.0183  0.2143
    5FIC    C23 3426   2.778   1.845   1.115 -0.0966  0.0564  0.1197
    5FIC    C24 3427   2.761   1.939   1.015 -0.0036  0.0006  0.0500
    5FIC    C25 3428   2.759   1.902   0.880  0.0117 -0.0904  0.0749
    5FIC    C26 3429   2.776   1.770   0.839 -0.0642 -0.1288  0.1693
    5FIC    C27 3430   2.794   1.673   0.939 -0.1588 -0.0735  0.2408
    5FIC    C28 3431   2.813   1.526   0.930 -0.2539 -0.0930  0.3463
    5FIC    C29 3432   2.818   1.451   0.815 -0.2695 -0.1745  0.3986
    5FIC    C30 3433   2.804   1.508   0.684 -0.1928 -0.2537  0.3558
    5FIC    C31 3434   2.838   1.309   0.816 -0.3641 -0.1870  0.5005
    1BTD     S2 3435   1.570   5.454   1.269 -0.0411  0.0908  0.0684
    1BTD     N1 3436   1.584   5.493   1.094 -0.5105 -0.0309  0.0009
    1BTD     N2 3437   1.553   5.625   1.320  0.5045  0.1563  0.0388
    1BTD     N3 3438   1.545   6.045   1.109  0.7687  0.0706 -0.1435
    1BTD     N4 3439   1.583   5.881   0.830 -0.4820 -0.1602 -0.1903
    1BTD     C5 3440   1.583   5.698   0.959 -0.4805 -0.0955 -0.0983
    1BTD     C6 3441   1.576   5.625   1.083 -0.2499 -0.0169 -0.0382
    1BTD     C7 3442   1.559   5.699   1.210  0.3183  0.0879 -0.0170
    1BTD     C8 3443   1.549   5.842   1.207  0.6274  0.1088 -0.0569
    1BTD    C15 3444   1.557   5.910   1.083  0.3848  0.0294 -0.1154
    1BTD    C16 3445   1.573   5.838   0.961 -0.1627 -0.0716 -0.1358
    1BTD    C43 3446   1.516   6.002   0.771  0.0154  0.8277 -0.2245
    1BTD    C44 3447   1.368   5.993   0.724 -0.2300 -0.0497 -0.0807
    1BTD    C45 3448   1.342   6.108   0.622 -0.0219  0.2521  0.1896
    1BTD    C46 3449   1.311   6.242   0.690 -0.6744  0.0439 -0.8119
    1BTD    C47 3450   1.261   5.957   0.829 -0.7798  0.1686  0.3500
    1BTD    C48 3451   1.117   5.929   0.772 -0.4182 -0.2897  0.0135
    1BTD    C49 3452   1.020   5.863   0.869 -0.0759 -0.8258 -0.3921
    1BTD    C50 3453   0.898   5.822   0.787 -0.3355 -0.4102  0.0304
    1BTD    C75 3454   1.571   6.165   1.027  0.1922  0.0222 -0.1656
    1BTD    C76 3455   1.697   6.237   1.038 -0.6286 -0.1695 -0.6716
    1BTD    C77 3456   1.830   6.157   1.031  0.4212  0.1102  0.5605
    1BTD    C78 3457   1.869   6.101   0.892 -0.0946 -0.4014  0.0523
    1BTD    C79 3458   1.708   6.374   0.970  0.2723  0.4356  0.0073
    1BTD    C80 3459   1.805   6.478   1.035  0.8096 -0.0751 -0.9202
    1BTD    C81 3460   1.812   6.611   0.969 -0.2257  0.0259  0.3208
    1BTD    C82 3461   1.855   6.733   1.054  0.2388  0.2351  0.0078
    2TTP     S1 3462   1.617   5.510   0.721 -0.1987 -0.1329 -0.2374
    2TTP     S5 3463   1.624   5.854   0.463  0.3384 -0.0118 -0.0653
    2TTP     C1 3464   1.640   5.704   0.361  0.2953  0.0239 -0.1241
    2TTP     C2 3465   1.639   5.589   0.435  0.1268 -0.0114 -0.1808
    2TTP     C3 3466   1.625   5.615   0.575  0.0258 -0.0678 -0.1797
    2TTP     C4 3467   1.602   5.659   0.824 -0.1555 -0.1684 -0.1785
    2TTP    C17 3468   1.603   5.774   0.750  0.0129 -0.1333 -0.1219
    2TTP    C18 3469   1.616   5.748   0.610  0.1139 -0.0767 -0.1230
    2TTP    C32 3470   1.651   5.448   0.378 -0.3127 -0.1570  0.3634
    2TTP    C33 3471   1.666   5.320   0.456 -0.4666  0.2549  0.7692
    2TTP    C34 3472   1.687   5.181   0.391  0.5411 -0.2590 -0.2440
    2TTP    C35 3473   1.713   5.080   0.498 -0.7845  0.5159  0.0339
    2TTP    C36 3474   1.729   4.932   0.453  0.2452  0.0103  0.2082
    2TTP    C37 3475   1.830   4.906   0.337  0.0551  0.3235  0.0749
    2TTP    C38 3476   1.822   4.758   0.293 -0.6071  0.0249  0.0493
    2TTP    C39 3477   1.947   4.695   0.234 -0.2188  0.3793 -0.3780
    2TTP    C40 3478   1.984   4.730   0.089  0.4182 -0.5913 -0.6258
    2TTP    C41 3479   2.097   4.646   0.040 -0.4286 -0.2128  0.2316
    2TTP    C42 3480   2.117   4.670  -0.103 -0.0999 -0.1519  0.2419
    3TTP     S1 3481   1.518   5.950   1.484  0.1473  0.0055  0.1337
    3TTP     S5 3482   1.476   6.348   1.329  0.2451  0.0572  0.2397
    3TTP     C1 3483   1.455   6.354   1.509  0.2427  0.0139  0.2408
    3TTP     C2 3484   1.466   6.231   1.568  0.2124 -0.0048  0.2081
    3TTP     C3 3485   1.493   6.128   1.472  0.1899  0.0147  0.1810
    3TTP     C4 3486   1.540   5.944   1.303  0.1497  0.0490  0.1326
    3TTP    C17 3487   1.528   6.067   1.245  0.1801  0.0676  0.1653
    3TTP    C18 3488   1.501   6.170   1.340  0.2025  0.0482  0.1923
    3TTP    C32 3489   1.454   6.195   1.720  0.0273 -0.1071  0.5604
    3TTP    C33 3490   1.535   6.086   1.790 -0.1302  0.5841  0.0140
    3TTP    C34 3491   1.547   6.112   1.938 -0.6013 -0.3904  0.2013
    3TTP    C35 3492   1.625   6.009   2.015 -0.1576  0.5157  0.1870
    3TTP    C36 3493   1.660   6.055   2.148 -0.1576 -0.6029  0.0342
    3TTP    C37 3494   1.680   5.954   2.257 -0.2230  0.3381 -0.1661
    3TTP    C38 3495   1.790   5.844   2.228 -0.1302 -0.3343  0.5073
    3TTP    C39 3496   1.792   5.718   2.313 -0.0085 -0.1470  0.0423
    3TTP    C40 3497   1.656   5.644   2.321  0.3351 -0.6172  0.3811
    3TTP    C41 3498   1.606   5.585   2.191  0.1220  0.5649 -0.6789
    3TTP    C42 3499   1.464   5.527   2.212 -0.1139 -0.1350  0.3774
    4FIC     F1 3500   1.840   6.275  -0.197  0.2722  0.1705  0.1236
    4FIC     F2 3501   1.855   6.077  -0.384  0.2648  0.2260  0.0641
    4FIC     O1 3502   1.695   5.991   0.240  0.0128  0.0812 -0.0200
    4FIC     N5 3503   1.772   5.591  -0.341  0.0692  0.2424 -0.1236
    4FIC     N6 3504   1.655   5.409   0.039 -0.1320  0.1614 -0.2238
    4FIC    C19 3505   1.657   5.702   0.217 -0.0864  0.1027 -0.1278
    4FIC    C20 3506   1.693   5.781   0.114 -0.0209  0.1229 -0.0893
    4FIC    C21 3507   1.711   5.929   0.134  0.0271  0.1100 -0.0349
    4FIC    C22 3508   1.750   5.984   0.003  0.0937  0.1384 -0.0031
    4FIC    C23 3509   1.777   6.117  -0.028  0.1541  0.1385  0.0498
    4FIC    C24 3510   1.812   6.145  -0.159  0.2108  0.1684  0.0714
    4FIC    C25 3511   1.819   6.044  -0.255  0.2069  0.1969  0.0408
    4FIC    C26 3512   1.792   5.911  -0.225  0.1468  0.1969 -0.0121
    4FIC    C27 3513   1.757   5.880  -0.093  0.0888  0.1671 -0.0347
    4FIC    C28 3514   1.722   5.751  -0.028  0.0182  0.1587 -0.0889
    4FIC    C29 3515   1.718   5.628  -0.089 -0.0061  0.1799 -0.1306
    4FIC    C30 3516   1.748   5.608  -0.227  0.0354  0.2143 -0.1266
    4FIC    C31 3517   1.684   5.508  -0.018 -0.0752  0.1696 -0.1817
    5FIC     F1 3518   1.211   7.122   1.355  0.2072 -0.1010  0.0207
    5FIC     F2 3519   1.197   7.165   1.623 -0.3186 -0.1472  0.0022
    5FIC     O1 3520   1.380   6.608   1.342  0.5705  0.0116  0.2612
    5FIC     N5 3521   1.297   6.860   2.000 -0.8155 -0.1332  0.1471
    5FIC     N6 3522   1.432   6.449   1.936 -0.4255 -0.0360  0.3387
    5FIC    C19 3523   1.427   6.466   1.594  0.1973  0.0074  0.3290
    5FIC    C20 3524   1.385   6.594   1.587  0.1265 -0.0191  0.2692
    5FIC    C21 3525   1.363   6.660   1.453  0.3298 -0.0150  0.2375
    5FIC    C22 3526   1.318   6.797   1.482  0.1867 -0.0484  0.1734
    5FIC    C23 3527   1.285   6.896   1.390  0.2915 -0.0572  0.1264
    5FIC    C24 3528   1.245   7.019   1.440  0.1169 -0.0907  0.0692
    5FIC    C25 3529   1.238   7.041   1.579 -0.1539 -0.1143  0.0599
    5FIC    C26 3530   1.270   6.942   1.671 -0.2599 -0.1057  0.1065
    5FIC    C27 3531   1.311   6.817   1.622 -0.0861 -0.0720  0.1647
    5FIC    C28 3532   1.352   6.693   1.692 -0.1339 -0.0551  0.2232
    5FIC    C29 3533   1.358   6.674   1.828 -0.3737 -0.0697  0.2328
    5FIC    C30 3534   1.324   6.776   1.922 -0.6157 -0.1045  0.1857
    5FIC    C31 3535   1.399   6.551   1.886 -0.4008 -0.0511  0.2910
    1BTD     S2 3536   1.904   5.861   1.223  0.0375 -0.3021  0.1696
    1BTD     N1 3537   1.931   5.808   1.054  0.0643 -0.1645  0.1307
    1BTD     N2 3538   1.912   5.695   1.292 -0.0631 -0.3672  0.0249
    1BTD     N3 3539   1.978   5.261   1.126 -0.2192 -0.2518 -0.3404
    1BTD     N4 3540   2.002   5.401   0.832 -0.0623 -0.0018 -0.2100
    1BTD     C5 3541   1.968   5.594   0.942 -0.0037 -0.0824 -0.0488
    1BTD     C6 3542   1.944   5.677   1.057  0.0004 -0.1737  0.0176
    1BTD     C7 3543   1.934   5.613   1.190 -0.0709 -0.2873 -0.0416
    1BTD     C8 3544   1.947   5.470   1.202 -0.1427 -0.3039 -0.1643
    1BTD    C15 3545   1.970   5.394   1.086 -0.1438 -0.2122 -0.2258
    1BTD    C16 3546   1.980   5.454   0.957 -0.0752 -0.1028 -0.1687
    1BTD    C43 3547   2.026   5.265   0.782  0.6103  0.1106 -0.4109
    1BTD    C44 3548   2.164   5.206   0.767 -0.3761 -0.4697 -0.2522
    1BTD    C45 3549   2.156   5.055   0.743 -0.4542  0.6176  0.7808
    1BTD    C46 3550   2.113   5.024   0.602 -0.7519  0.1181  0.8583
    1BTD    C47 3551   2.272   5.291   0.694 -0.3170 -0.2218 -0.3767
    1BTD    C48 3552   2.419   5.244   0.711 -0.1495 -0.6221 -0.6558
    1BTD    C49 3553   2.537   5.326   0.673 -0.1199 -0.4531 -0.1061
    1BTD    C50 3554   2.584   5.316   0.529 -0.4915 -0.1454 -0.3993
    1BTD    C75 3555   1.952   5.132   1.055 -0.1187 -0.0345 -0.5351
    1BTD    C76 3556   1.810   5.078   1.041  0.0218 -0.1259 -0.2307
    1BTD    C77 3557   1.734   5.172   0.941  0.7251  0.6268  0.4344
    1BTD    C78 3558   1.577   5.161   0.960 -0.2522 -0.0182 -0.1138
    1BTD    C79 3559   1.798   4.923   1.012 -0.3289  0.6153  0.0372
    1BTD    C80 3560   1.874   4.876   0.886  0.0493  0.6569  0.5279
    1BTD    C81 3561   1.804   4.741   0.845 -0.6868  0.0118 -0.0761
    1BTD    C82 3562   1.895   4.640   0.769  0.3345 -0.2571 -0.2374
    2TTP     S1 3563   1.972   5.769   0.695 -0.1191  0.0457 -0.2273
    2TTP     S5 3564   2.025   5.416   0.455 -0.1525  0.0134 -0.1870
    2TTP     C1 3565   2.012   5.560   0.344 -0.1107  0.0057 -0.2023
    2TTP     C2 3566   1.995   5.678   0.412 -0.0979  0.0151 -0.2156
    2TTP     C3 3567   1.991   5.658   0.553 -0.1207  0.0290 -0.2143
    2TTP     C4 3568   1.985   5.625   0.805 -0.1609  0.0536 -0.2120
    2TTP    C17 3569   2.002   5.508   0.738 -0.1737  0.0441 -0.1987
    2TTP    C18 3570   2.006   5.527   0.596 -0.1509  0.0304 -0.2000
    2TTP    C32 3571   1.973   5.819   0.362  0.6042  0.0196 -0.0670
    2TTP    C33 3572   2.061   5.934   0.416 -0.1866 -0.0952  0.3697
    2TTP    C34 3573   2.029   6.083   0.365 -0.0567  0.5519  0.1568
    2TTP    C35 3574   1.909   6.152   0.434  0.5405 -0.7074 -0.2244
    2TTP    C36 3575   1.907   6.305   0.417 -0.2798  0.1340  0.9085
    2TTP    C37 3576   2.016   6.384   0.483  0.5207 -0.5976 -0.3144
    2TTP    C38 3577   2.014   6.388   0.638 -0.5358  0.0274 -0.5810
    2TTP    C39 3578   2.125   6.470   0.698 -0.3919  0.5255 -0.2667
    2TTP    C40 3579   2.136   6.462   0.852 -0.4149 -0.6360  0.6215
    2TTP    C41 3580   2.247   6.558   0.907 -0.1361  0.2495  0.4111
    2TTP    C42 3581   2.232   6.588   1.055 -0.1911 -0.4064 -0.1923
    3TTP     S1 3582   1.970   5.393   1.491 -0.3063 -0.1344 -0.2281
    3TTP     S5 3583   2.009   4.982   1.370 -0.2210 -0.2028  0.0303
    3TTP     C1 3584   2.030   4.991   1.550 -0.3240 -0.0981  0.0369
    3TTP     C2 3585   2.019   5.119   1.598 -0.3564 -0.0710 -0.0426
    3TTP     C3 3586   1.994   5.214   1.494 -0.3011 -0.1317 -0.1115
    3TTP     C4 3587   1.949   5.383   1.310 -0.2033 -0.2390 -0.2347
    3TTP    C17 3588   1.960   5.256   1.262 -0.1709 -0.2662 -0.1553
    3TTP    C18 3589   1.985   5.161   1.366 -0.2262 -0.2056 -0.0864
    3TTP    C32 3590   2.048   5.167   1.740  0.2738 -0.1310 -0.1142
    3TTP    C33 3591   1.951   5.271   1.793  0.5758  0.0757  0.1086
    3TTP    C34 3592   1.798   5.233   1.781 -0.6576  0.3068  0.1918
    3TTP    C35 3593   1.679   5.325   1.817 -0.2935  0.7919  0.5478
    3TTP    C36 3594   1.689   5.456   1.745 -0.3387 -0.7815  0.4559
    3TTP    C37 3595   1.614   5.580   1.786  0.8517  0.1466 -0.7717
    3TTP    C38 3596   1.648   5.690   1.690 -0.2361  0.2567 -0.1280
    3TTP    C39 3597   1.787   5.749   1.662 -0.3963 -0.1899  1.2968
    3TTP    C40 3598   1.885   5.771   1.775 -0.5446  0.1676  0.2746
    3TTP    C41 3599   2.006   5.680   1.782 -0.3276  1.0735  0.3371
    3TTP    C42 3600   2.106   5.721   1.891  0.4097 -0.7149 -0.4742
    4FIC     F1 3601   1.987   4.975  -0.225  0.5448 -0.1141  0.0993
    4FIC     F2 3602   2.060   5.160  -0.411 -0.0563  0.0702  0.0416
    4FIC     O1 3603   1.959   5.282   0.220  0.4943 -0.2562  0.1942
    4FIC     N5 3604   2.145   5.644  -0.361 -0.9564  0.2339  0.0263
    4FIC     N6 3605   2.109   5.847   0.024 -0.8748  0.0858  0.1121
    4FIC    C19 3606   2.019   5.568   0.200 -0.0980 -0.1305  0.1728
    4FIC    C20 3607   2.023   5.483   0.096 -0.0617 -0.1020  0.1512
    4FIC    C21 3608   1.991   5.337   0.113  0.2502 -0.1708  0.1641
    4FIC    C22 3609   2.005   5.275  -0.019  0.2075 -0.1167  0.1341
    4FIC    C23 3610   1.985   5.141  -0.053  0.4312 -0.1503  0.1334
    4FIC    C24 3611   2.004   5.105  -0.185  0.3358 -0.0858  0.1019
    4FIC    C25 3612   2.042   5.201  -0.281  0.0260  0.0091  0.0721
    4FIC    C26 3613   2.062   5.334  -0.248 -0.1982  0.0429  0.0728
    4FIC    C27 3614   2.043   5.372  -0.114 -0.1062 -0.0212  0.1044
    4FIC    C28 3615   2.056   5.504  -0.048 -0.2840 -0.0085  0.1137
    4FIC    C29 3616   2.091   5.623  -0.107 -0.5951  0.0745  0.0918
    4FIC    C30 3617   2.121   5.634  -0.246 -0.7926  0.1619  0.0558
    4FIC    C31 3618   2.100   5.746  -0.035 -0.7471  0.0801  0.1031
    5FIC     F1 3619   2.208   4.194   1.436 -0.0580 -0.1287  0.2369
    5FIC     F2 3620   2.219   4.164   1.706  0.7737  0.2016  0.2446
    5FIC     O1 3621   2.095   4.722   1.395 -0.5704 -0.2593 -0.0609
    5FIC     N5 3622   2.155   4.498   2.066  1.6042  0.5832  0.0433
    5FIC     N6 3623   2.065   4.916   1.980  1.0360  0.4146 -0.1910
    5FIC    C19 3624   2.066   4.881   1.639  0.0421  0.0099 -0.1595
    5FIC    C20 3625   2.094   4.749   1.639  0.1385  0.0300 -0.0848
    5FIC    C21 3626   2.108   4.674   1.509 -0.1938 -0.1146 -0.0379
    5FIC    C22 3627   2.138   4.534   1.545  0.0163 -0.0499  0.0401
    5FIC    C23 3628   2.159   4.427   1.459 -0.1633 -0.1377  0.1037
    5FIC    C24 3629   2.186   4.304   1.516  0.0991 -0.0497  0.1718
    5FIC    C25 3630   2.192   4.289   1.655  0.5274  0.1204  0.1756
    5FIC    C26 3631   2.171   4.395   1.742  0.7088  0.2085  0.1124
    5FIC    C27 3632   2.143   4.521   1.686  0.4482  0.1218  0.0430
    5FIC    C28 3633   2.117   4.652   1.749  0.5404  0.1776 -0.0337
    5FIC    C29 3634   2.113   4.679   1.884  0.9246  0.3359 -0.0534
    5FIC    C30 3635   2.136   4.579   1.984  1.2969  0.4714 -0.0002
    5FIC    C31 3636   2.087   4.810   1.936  0.9837  0.3785 -0.1290
    1BTD     S2 3637   2.975   2.953   1.579  0.2142  0.0353  0.2050
    1BTD     N1 3638   2.967   2.911   1.753  0.4908  0.0243  0.2160
    1BTD     N2 3639   3.004   2.784   1.525 -0.0095  0.0187  0.1368
    1BTD     N3 3640   3.047   2.364   1.730  0.0340 -0.0352  0.0177
    1BTD     N4 3641   3.002   2.521   2.012  0.6506 -0.0284  0.1152
    1BTD     C5 3642   2.986   2.706   1.885  0.5668 -0.0033  0.1622
    1BTD     C6 3643   2.985   2.780   1.762  0.4066  0.0095  0.1706
    1BTD     C7 3644   3.006   2.709   1.634  0.1265  0.0064  0.1263
    1BTD     C8 3645   3.026   2.567   1.636  0.0206 -0.0094  0.0758
    1BTD    C15 3646   3.026   2.498   1.758  0.1849 -0.0215  0.0694
    1BTD    C16 3647   3.006   2.567   1.882  0.4548 -0.0186  0.1120
    1BTD    C43 3648   3.074   2.403   2.055  0.4782  0.0448 -0.0949
    1BTD    C44 3649   3.057   2.331   2.190 -0.8308 -0.1888 -0.1973
    1BTD    C45 3650   2.914   2.282   2.209  0.2309  0.0550 -0.0216
    1BTD    C46 3651   2.876   2.208   2.346  0.1130 -0.5669 -0.0209
    1BTD    C47 3652   3.175   2.229   2.219 -0.5630 -0.1725  0.1235
    1BTD    C48 3653   3.322   2.279   2.211 -0.1984  0.2683  0.3706
    1BTD    C49 3654   3.358   2.382   2.318 -0.2508  0.2734  0.0127
    1BTD    C50 3655   3.506   2.381   2.341 -0.3120 -0.0383  0.1461
    1BTD    C75 3656   2.984   2.248   1.805 -0.2809  0.1674  0.1997
    1BTD    C76 3657   2.839   2.207   1.781  0.1625 -0.6316  0.7751
    1BTD    C77 3658   2.746   2.327   1.812  0.0147  0.3536 -0.3272
    1BTD    C78 3659   2.600   2.297   1.782 -0.2657 -0.0807 -0.0834
    1BTD    C79 3660   2.818   2.063   1.827  0.1050 -0.2269 -0.5243
    1BTD    C80 3661   2.842   2.028   1.974  0.0553  0.3201  0.1774
    1BTD    C81 3662   2.864   1.881   2.009  0.2624  0.0894 -0.3108
    1BTD    C82 3663   2.879   1.847   2.157 -0.1033  0.0924  0.5555
    2TTP     S1 3664   2.955   2.897   2.109  0.3110  0.1005 -0.0054
    2TTP     S5 3665   2.962   2.570   2.389  0.0861  0.0911 -0.0103
    2TTP     C1 3666   2.942   2.726   2.482  0.1364  0.0986 -0.0120
    2TTP     C2 3667   2.939   2.836   2.401  0.2087  0.1019 -0.0106
    2TTP     C3 3668   2.952   2.801   2.263  0.2272  0.0987 -0.0081
    2TTP     C4 3669   2.974   2.742   2.016  0.2607  0.0930 -0.0037
    2TTP    C17 3670   2.978   2.632   2.097  0.1882  0.0898 -0.0052
    2TTP    C18 3671   2.965   2.666   2.235  0.1699  0.0929 -0.0076
    2TTP    C32 3672   2.958   2.985   2.437  0.3340  0.0514  0.1150
    2TTP    C33 3673   2.853   3.080   2.383 -0.1236  0.4607 -0.0332
    2TTP    C34 3674   2.851   3.211   2.443 -0.4960 -0.6303 -0.3545
    2TTP    C35 3675   2.736   3.295   2.389 -0.0626 -0.6743  0.0778
    2TTP    C36 3676   2.728   3.422   2.468 -0.5408 -0.1449  0.3862
    2TTP    C37 3677   2.680   3.418   2.606  0.0974 -0.2201 -0.4029
    2TTP    C38 3678   2.695   3.550   2.683  0.2509 -0.5992 -0.6458
    2TTP    C39 3679   2.619   3.551   2.815  0.2388  0.6185  0.5788
    2TTP    C40 3680   2.662   3.444   2.912  0.0998 -0.1756  0.0001
    2TTP    C41 3681   2.802   3.449   2.976  0.1653  0.0836 -0.2490
    2TTP    C42 3682   2.826   3.324   3.055 -0.6286 -0.5035 -0.0084
    3TTP     S1 3683   3.055   2.458   1.352  0.0761  0.0370  0.0842
    3TTP     S5 3684   3.091   2.061   1.513 -0.1057 -0.1456 -0.3214
    3TTP     C1 3685   3.095   2.051   1.332 -0.1684  0.0327 -0.3336
    3TTP     C2 3686   3.084   2.173   1.271 -0.1160  0.0995 -0.2091
    3TTP     C3 3687   3.072   2.279   1.366 -0.0244  0.0125 -0.0995
    3TTP     C4 3688   3.051   2.469   1.533  0.1388 -0.1412  0.0964
    3TTP    C17 3689   3.062   2.347   1.594  0.0864 -0.2081 -0.0281
    3TTP    C18 3690   3.074   2.241   1.499 -0.0053 -0.1211 -0.1377
    3TTP    C32 3691   3.078   2.201   1.120  0.5002  0.1124  0.2963
    3TTP    C33 3692   2.958   2.288   1.066 -0.2258  0.9413 -0.2961
    3TTP    C34 3693   2.962   2.331   0.923 -0.0946 -0.7181  0.2109
    3TTP    C35 3694   2.825   2.381   0.869 -0.0050 -0.2135  0.4800
    3TTP    C36 3695   2.738   2.480   0.946  0.0867 -0.1159  0.0866
    3TTP    C37 3696   2.793   2.621   0.977  0.3097  0.4079 -0.2076
    3TTP    C38 3697   2.712   2.703   1.070  0.1994 -0.2820 -0.7438
    3TTP    C39 3698   2.771   2.839   1.106 -0.3993 -0.0294  0.0610
    3TTP    C40 3699   2.905   2.847   1.189 -0.0863  0.5507 -0.0443
    3TTP    C41 3700   2.947   2.993   1.215 -0.0184  0.2101 -0.6606
    3TTP    C42 3701   2.990   3.091   1.098 -0.3192 -0.0925  0.4557
    4FIC     F1 3702   2.878   2.241   3.143  0.3376 -0.0991  0.0498
    4FIC     F2 3703   2.832   2.463   3.292 -0.0321 -0.1597  0.0301
    4FIC     O1 3704   2.940   2.458   2.651  0.3913 -0.0029  0.0991
    4FIC     N5 3705   2.811   2.939   3.157 -0.5254 -0.1782  0.0370
    4FIC     N6 3706   2.869   3.064   2.742 -0.4088 -0.0909  0.0795
    4FIC    C19 3707   2.919   2.748   2.619  0.0572 -0.0266  0.0979
    4FIC    C20 3708   2.905   2.685   2.737  0.0581 -0.0485  0.0862
    4FIC    C21 3709   2.917   2.535   2.745  0.2356 -0.0343  0.0877
    4FIC    C22 3710   2.897   2.499   2.887  0.1873 -0.0648  0.0731
    4FIC    C23 3711   2.899   2.372   2.944  0.3059 -0.0648  0.0691
    4FIC    C24 3712   2.877   2.363   3.080  0.2283 -0.0972  0.0546
    4FIC    C25 3713   2.854   2.478   3.157  0.0377 -0.1284  0.0444
    4FIC    C26 3714   2.851   2.605   3.101 -0.0814 -0.1285  0.0484
    4FIC    C27 3715   2.873   2.617   2.963 -0.0054 -0.0962  0.0630
    4FIC    C28 3716   2.877   2.735   2.874 -0.0923 -0.0873  0.0707
    4FIC    C29 3717   2.859   2.866   2.911 -0.2769 -0.1106  0.0646
    4FIC    C30 3718   2.833   2.906   3.046 -0.4128 -0.1477  0.0494
    4FIC    C31 3719   2.865   2.974   2.818 -0.3484 -0.0996  0.0728
    5FIC     F1 3720   3.225   1.247   1.477  0.1045 -0.1821 -0.0793
    5FIC     F2 3721   3.244   1.208   1.208 -0.3411 -0.1548 -0.1159
    5FIC     O1 3722   3.132   1.780   1.496  0.4641 -0.1263  0.1464
    5FIC     N5 3723   3.205   1.531   0.836 -0.7252 -0.0759 -0.0076
    5FIC     N6 3724   3.128   1.955   0.904 -0.3543 -0.0378  0.1761
    5FIC    C19 3725   3.117   1.932   1.246  0.1663 -0.0804  0.1916
    5FIC    C20 3726   3.140   1.799   1.252  0.0932 -0.0955  0.1363
    5FIC    C21 3727   3.146   1.728   1.384  0.2567 -0.1188  0.1162
    5FIC    C22 3728   3.172   1.586   1.354  0.1220 -0.1308  0.0542
    5FIC    C23 3729   3.186   1.482   1.445  0.1994 -0.1528  0.0170
    5FIC    C24 3730   3.210   1.355   1.393  0.0398 -0.1604 -0.0401
    5FIC    C25 3731   3.220   1.335   1.255 -0.1897 -0.1464 -0.0589
    5FIC    C26 3732   3.206   1.439   1.163 -0.2680 -0.1244 -0.0219
    5FIC    C27 3733   3.181   1.568   1.214 -0.1089 -0.1163  0.0360
    5FIC    C28 3734   3.162   1.698   1.146 -0.1358 -0.0941  0.0857
    5FIC    C29 3735   3.164   1.720   1.010 -0.3349 -0.0758  0.0849
    5FIC    C30 3736   3.186   1.616   0.914 -0.5488 -0.0759  0.0340
    5FIC    C31 3737   3.144   1.849   0.953 -0.3444 -0.0550  0.1351
    1BTD     S2 3738   2.686   2.600   1.503  0.2147 -0.0349  0.1743
    1BTD     N1 3739   2.639   2.618   1.676  0.1560  0.0375  0.1512
    1BTD     N2 3740   2.684   2.776   1.469  0.2791 -0.0458  0.1136
    1BTD     N3 3741   2.597   3.169   1.712  0.3045  0.0625 -0.0519
    1BTD     N4 3742   2.542   2.973   1.967  0.1528  0.1652 -0.0056
    1BTD     C5 3743   2.589   2.806   1.825  0.1561  0.1029  0.0688
    1BTD     C6 3744   2.626   2.748   1.698  0.1860  0.0492  0.1019
    1BTD     C7 3745   2.651   2.836   1.582  0.2548  0.0024  0.0809
    1BTD     C8 3746   2.638   2.979   1.599  0.2905  0.0120  0.0278
    1BTD    C15 3747   2.602   3.031   1.725  0.2595  0.0653 -0.0033
    1BTD    C16 3748   2.578   2.945   1.836  0.1930  0.1103  0.0170
    1BTD    C43 3749   2.500   3.097   2.029  0.3400  0.1101 -0.3707
    1BTD    C44 3750   2.351   3.138   2.004 -0.3247 -0.1854 -0.1771
    1BTD    C45 3751   2.336   3.293   2.000 -0.6974  0.2483 -0.3319
    1BTD    C46 3752   2.354   3.377   2.129 -0.2947  0.0708 -0.1292
    1BTD    C47 3753   2.251   3.061   2.080  0.3080 -0.4968  0.1312
    1BTD    C48 3754   2.102   3.097   2.042 -0.3643  0.7865  0.1433
    1BTD    C49 3755   1.997   3.070   2.148 -0.5147  0.2463  0.2304
    1BTD    C50 3756   1.860   3.114   2.105 -0.5739 -0.2460 -0.1795
    1BTD    C75 3757   2.624   3.273   1.810 -0.2978 -0.2169 -0.1073
    1BTD    C76 3758   2.768   3.327   1.843  0.2712  0.6275  0.3069
    1BTD    C77 3759   2.863   3.211   1.891 -0.1267  0.3645 -0.5074
    1BTD    C78 3760   3.010   3.238   1.878 -0.4008 -0.3901  0.3588
    1BTD    C79 3761   2.772   3.455   1.922 -0.0872  0.0716 -0.0939
    1BTD    C80 3762   2.696   3.578   1.872  0.3175  0.2088  0.5455
    1BTD    C81 3763   2.730   3.700   1.946  0.1937 -0.0993  0.0412
    1BTD    C82 3764   2.648   3.815   1.876 -0.1820  0.0651 -0.0828
    2TTP     S1 3765   2.578   2.587   2.041 -0.2423  0.0238 -0.1851
    2TTP     S5 3766   2.537   2.899   2.334 -0.1662 -0.0092 -0.1391
    2TTP     C1 3767   2.549   2.739   2.421 -0.2065 -0.0249 -0.1627
    2TTP     C2 3768   2.562   2.634   2.335 -0.2323 -0.0157 -0.1783
    2TTP     C3 3769   2.564   2.675   2.198 -0.2213  0.0042 -0.1722
    2TTP     C4 3770   2.567   2.747   1.955 -0.2021  0.0396 -0.1615
    2TTP    C17 3771   2.553   2.853   2.040 -0.1762  0.0304 -0.1459
    2TTP    C18 3772   2.551   2.811   2.177 -0.1872  0.0104 -0.1521
    2TTP    C32 3773   2.578   2.492   2.374  0.2700  0.4408  0.1587
    2TTP    C33 3774   2.484   2.384   2.314 -0.2650 -0.7088  0.1673
    2TTP    C34 3775   2.338   2.400   2.363  0.0741  0.9574  0.5896
    2TTP    C35 3776   2.289   2.265   2.419  0.1379 -0.1010 -0.2068
    2TTP    C36 3777   2.147   2.265   2.471 -0.0521  0.0595 -0.2932
    2TTP    C37 3778   2.111   2.368   2.571  0.9938 -0.1206 -0.2701
    2TTP    C38 3779   1.990   2.340   2.657  0.3524  0.1868 -0.2228
    2TTP    C39 3780   2.001   2.231   2.776 -0.0246 -0.3017  0.4372
    2TTP    C40 3781   2.131   2.246   2.858  0.1725  0.0069  0.4208
    2TTP    C41 3782   2.162   2.143   2.969  0.1189  0.2887  0.4469
    2TTP    C42 3783   2.278   2.181   3.049 -0.5595  0.3338 -0.1883
    3TTP     S1 3784   2.655   3.113   1.332 -0.1978 -0.2468  0.1785
    3TTP     S5 3785   2.537   3.482   1.520 -0.1935 -0.1779  0.0455
    3TTP     C1 3786   2.548   3.509   1.340 -0.0434 -0.2025  0.0503
    3TTP     C2 3787   2.585   3.397   1.271 -0.0359 -0.2252  0.0917
    3TTP     C3 3788   2.606   3.285   1.358 -0.1483 -0.2240  0.1210
    3TTP     C4 3789   2.644   3.086   1.512 -0.3479 -0.2222  0.1736
    3TTP    C17 3790   2.607   3.198   1.580 -0.3553 -0.1994  0.1322
    3TTP    C18 3791   2.586   3.310   1.493 -0.2429 -0.2006  0.1029
    3TTP    C32 3792   2.590   3.389   1.120 -0.4097  0.4075  1.1687
    3TTP    C33 3793   2.718   3.341   1.052  0.8346  0.3220  0.2910
    3TTP    C34 3794   2.707   3.256   0.917 -0.2883  0.3968 -0.8046
    3TTP    C35 3795   2.632   3.121   0.930  0.2194  0.2177 -0.0262
    3TTP    C36 3796   2.567   3.085   0.795 -0.1794 -0.0429 -0.0129
    3TTP    C37 3797   2.494   2.953   0.803  0.2332 -0.6533 -0.7247
    3TTP    C38 3798   2.443   2.889   0.676  0.0479 -0.0150 -0.1994
    3TTP    C39 3799   2.546   2.866   0.559  0.3424 -0.3703 -0.9045
    3TTP    C40 3800   2.651   2.762   0.596  0.1555  0.1653 -0.0297
    3TTP    C41 3801   2.733   2.722   0.473 -0.3833  0.4779 -0.0467
    3TTP    C42 3802   2.852   2.637   0.515  0.1119 -0.1781 -0.0750
    4FIC     F1 3803   2.536   3.221   3.090  0.3641  0.2898 -0.2621
    4FIC     F2 3804   2.491   3.000   3.242  0.1279  0.4306 -0.1265
    4FIC     O1 3805   2.568   3.001   2.596  0.1041 -0.0442 -0.1309
    4FIC     N5 3806   2.448   2.525   3.109 -0.3966  0.3952  0.1621
    4FIC     N6 3807   2.482   2.398   2.692 -0.5520  0.1059  0.2372
    4FIC    C19 3808   2.536   2.712   2.566 -0.2137 -0.0283  0.0453
    4FIC    C20 3809   2.530   2.776   2.685 -0.1391  0.0503  0.0070
    4FIC    C21 3810   2.547   2.925   2.692  0.0243  0.0361 -0.0839
    4FIC    C22 3811   2.535   2.961   2.834  0.0699  0.1360 -0.1053
    4FIC    C23 3812   2.544   3.088   2.891  0.2112  0.1605 -0.1824
    4FIC    C24 3813   2.529   3.098   3.028  0.2273  0.2603 -0.1877
    4FIC    C25 3814   2.505   2.984   3.106  0.1056  0.3327 -0.1177
    4FIC    C26 3815   2.496   2.857   3.051 -0.0355  0.3086 -0.0405
    4FIC    C27 3816   2.511   2.845   2.912 -0.0542  0.2081 -0.0340
    4FIC    C28 3817   2.507   2.726   2.823 -0.1875  0.1584  0.0378
    4FIC    C29 3818   2.486   2.596   2.861 -0.3287  0.2038  0.1175
    4FIC    C30 3819   2.465   2.557   2.997 -0.3655  0.3089  0.1417
    4FIC    C31 3820   2.484   2.488   2.768 -0.4508  0.1496  0.1829
    5FIC     F1 3821   2.490   4.301   1.558 -0.0802  0.0015 -0.0696
    5FIC     F2 3822   2.500   4.369   1.294 -0.2362 -0.0740 -0.0955
    5FIC     O1 3823   2.522   3.762   1.526  0.0296 -0.0001  0.0730
    5FIC     N5 3824   2.538   4.082   0.893 -0.3822 -0.1841 -0.0310
    5FIC     N6 3825   2.562   3.647   0.922 -0.2651 -0.1702  0.0857
    5FIC    C19 3826   2.544   3.635   1.264 -0.0805 -0.0731  0.0990
    5FIC    C20 3827   2.535   3.768   1.282 -0.1020 -0.0697  0.0641
    5FIC    C21 3828   2.525   3.826   1.420 -0.0420 -0.0313  0.0528
    5FIC    C22 3829   2.517   3.972   1.404 -0.0849 -0.0378  0.0134
    5FIC    C23 3830   2.506   4.068   1.504 -0.0542 -0.0107 -0.0092
    5FIC    C24 3831   2.500   4.201   1.464 -0.1065 -0.0238 -0.0458
    5FIC    C25 3832   2.506   4.236   1.328 -0.1869 -0.0627 -0.0590
    5FIC    C26 3833   2.517   4.140   1.228 -0.2179 -0.0899 -0.0366
    5FIC    C27 3834   2.523   4.005   1.266 -0.1659 -0.0772  0.0005
    5FIC    C28 3835   2.534   3.881   1.186 -0.1796 -0.0984  0.0311
    5FIC    C29 3836   2.542   3.873   1.049 -0.2506 -0.1373  0.0292
    5FIC    C30 3837   2.540   3.988   0.964 -0.3227 -0.1628 -0.0039
    5FIC    C31 3838   2.553   3.749   0.980 -0.2582 -0.1551  0.0603
    1BTD     S2 3839   1.289   7.448   1.391 -0.4354 -0.1386  0.0812
    1BTD     N1 3840   1.304   7.479   1.215 -0.6600 -0.2116  0.0480
    1BTD     N2 3841   1.298   7.622   1.437 -0.0891 -0.1395  0.0212
    1BTD     N3 3842   1.345   8.031   1.212  0.2109 -0.2732 -0.1612
    1BTD     N4 3843   1.353   7.855   0.938 -0.4925 -0.3620 -0.1281
    1BTD     C5 3844   1.330   7.677   1.074 -0.5640 -0.2890 -0.0443
    1BTD     C6 3845   1.315   7.610   1.200 -0.4749 -0.2317 -0.0035
    1BTD     C7 3846   1.311   7.690   1.324 -0.1554 -0.1916 -0.0185
    1BTD     C8 3847   1.322   7.833   1.316  0.0590 -0.2104 -0.0736
    1BTD    C15 3848   1.336   7.895   1.190 -0.0385 -0.2667 -0.1123
    1BTD    C16 3849   1.340   7.818   1.071 -0.3464 -0.3056 -0.0978
    1BTD    C43 3850   1.308   7.987   0.888  0.3686  0.2911  0.4888
    1BTD    C44 3851   1.365   8.051   0.762  0.5525 -0.4924  0.2493
    1BTD    C45 3852   1.510   8.079   0.764 -0.4684 -0.0925  0.0510
    1BTD    C46 3853   1.585   8.109   0.639 -0.6521  0.2518  0.0012
    1BTD    C47 3854   1.276   8.160   0.696 -0.3972 -0.5933 -0.2619
    1BTD    C48 3855   1.134   8.126   0.654  0.1476  0.0519  0.2164
    1BTD    C49 3856   1.122   8.025   0.546  0.0358 -0.1799  0.3357
    1BTD    C50 3857   1.147   8.088   0.408 -0.2901 -0.5745  0.4323
    1BTD    C75 3858   1.428   8.130   1.134  0.2510 -0.3582  0.0314
    1BTD    C76 3859   1.399   8.282   1.131 -0.0460  0.4290  0.3334
    1BTD    C77 3860   1.267   8.317   1.057  0.5695 -0.2378 -0.5259
    1BTD    C78 3861   1.202   8.456   1.083  0.6065  0.0820 -0.8839
    1BTD    C79 3862   1.515   8.370   1.070  0.3639  0.3756  0.2384
    1BTD    C80 3863   1.651   8.343   1.126  0.2964 -0.4385 -0.5489
    1BTD    C81 3864   1.745   8.459   1.089  0.0130  0.3738 -0.3789
    1BTD    C82 3865   1.835   8.492   1.206 -0.3028 -0.2348  0.3148
    2TTP     S1 3866   1.344   7.474   0.855 -0.2918 -0.0905  0.0943
    2TTP     S5 3867   1.390   7.786   0.563 -0.1516  0.1944  0.4187
    2TTP     C1 3868   1.381   7.626   0.476 -0.2794  0.2927  0.2483
    2TTP     C2 3869   1.367   7.520   0.562 -0.3302  0.2104  0.1381
    2TTP     C3 3870   1.361   7.562   0.698 -0.2701  0.0670  0.1842
    2TTP     C4 3871   1.352   7.634   0.942 -0.1640 -0.1889  0.2647
    2TTP    C17 3872   1.367   7.739   0.857 -0.1132 -0.1066  0.3749
    2TTP    C18 3873   1.372   7.698   0.720 -0.1734  0.0370  0.3287
    2TTP    C32 3874   1.321   7.379   0.524 -0.3070  0.1382 -0.4677
    2TTP    C33 3875   1.433   7.275   0.566  0.2844  0.0976  0.4294
    2TTP    C34 3876   1.379   7.136   0.523 -0.3428  0.1461 -0.1895
    2TTP    C35 3877   1.445   7.021   0.607 -0.0443 -0.5621  0.4191
    2TTP    C36 3878   1.412   6.885   0.553 -0.3988  0.0880 -0.4444
    2TTP    C37 3879   1.478   6.775   0.632 -0.2178  0.5337 -0.4948
    2TTP    C38 3880   1.444   6.630   0.595  0.1047  0.0480 -0.2023
    2TTP    C39 3881   1.494   6.588   0.458 -0.7808 -0.4118  0.0879
    2TTP    C40 3882   1.479   6.445   0.423  0.4000  0.9111 -0.3493
    2TTP    C41 3883   1.527   6.372   0.297 -0.1242 -0.0234  0.0190
    2TTP    C42 3884   1.475   6.232   0.286  0.4220  0.1810 -0.5366
    3TTP     S1 3885   1.279   7.942   1.594 -0.3410 -0.2963  0.0824
    3TTP     S5 3886   1.255   8.335   1.422 -0.3265 -0.2056  0.2871
    3TTP     C1 3887   1.208   8.346   1.597 -0.3486 -0.2991  0.2868
    3TTP     C2 3888   1.213   8.225   1.661 -0.3543 -0.3326  0.2236
    3TTP     C3 3889   1.254   8.120   1.573 -0.3416 -0.2857  0.1731
    3TTP     C4 3890   1.327   7.932   1.419 -0.3189 -0.2028  0.0826
    3TTP    C17 3891   1.322   8.052   1.355 -0.3132 -0.1693  0.1459
    3TTP    C18 3892   1.281   8.158   1.443 -0.3260 -0.2162  0.1964
    3TTP    C32 3893   1.170   8.186   1.800 -0.6181  0.7203 -0.4223
    3TTP    C33 3894   1.285   8.160   1.898 -0.0368  0.4894 -0.1135
    3TTP    C34 3895   1.242   8.121   2.041  0.0721  0.3306  0.2964
    3TTP    C35 3896   1.367   8.086   2.123  0.3670 -1.0258 -0.2674
    3TTP    C36 3897   1.342   8.044   2.271 -0.8694 -0.1661  0.4597
    3TTP    C37 3898   1.246   7.928   2.309  0.6237  0.4037  0.4928
    3TTP    C38 3899   1.288   7.793   2.248 -0.8783  0.2032  0.2185
    3TTP    C39 3900   1.181   7.688   2.287 -0.0649 -0.0795  0.2783
    3TTP    C40 3901   1.233   7.544   2.261  0.1557 -0.5151  0.1049
    3TTP    C41 3902   1.127   7.444   2.290  0.3430  0.3559 -0.4127
    3TTP    C42 3903   1.183   7.295   2.270  0.4655  0.3123  0.0445
    4FIC     F1 3904   1.622   8.087  -0.168 -0.3564 -0.0167 -0.0727
    4FIC     F2 3905   1.585   7.870  -0.328  0.4196 -0.2451  0.0514
    4FIC     O1 3906   1.484   7.882   0.314 -0.5849  0.0505 -0.1096
    4FIC     N5 3907   1.435   7.413  -0.216  1.3722 -0.5262  0.2036
    4FIC     N6 3908   1.334   7.296   0.193  1.0372 -0.4277  0.1498
    4FIC    C19 3909   1.400   7.602   0.332  0.0752 -0.1442 -0.0041
    4FIC    C20 3910   1.436   7.662   0.217  0.1024 -0.1521  0.0003
    4FIC    C21 3911   1.478   7.806   0.216 -0.2502 -0.0482 -0.0560
    4FIC    C22 3912   1.510   7.840   0.076 -0.1190 -0.0868 -0.0350
    4FIC    C23 3913   1.554   7.962   0.025 -0.3421 -0.0210 -0.0706
    4FIC    C24 3914   1.578   7.969  -0.111 -0.1532 -0.0766 -0.0403
    4FIC    C25 3915   1.560   7.857  -0.194  0.2466 -0.1942  0.0236
    4FIC    C26 3916   1.516   7.735  -0.144  0.4710 -0.2604  0.0595
    4FIC    C27 3917   1.491   7.726  -0.006  0.2849 -0.2059  0.0297
    4FIC    C28 3918   1.444   7.612   0.077  0.4368 -0.2506  0.0539
    4FIC    C29 3919   1.415   7.485   0.033  0.8151 -0.3622  0.1144
    4FIC    C30 3920   1.426   7.446  -0.104  1.1201 -0.4518  0.1632
    4FIC    C31 3921   1.370   7.382   0.121  0.9351 -0.3974  0.1335
    5FIC     F1 3922   1.112   9.131   1.373  0.4874  0.1467  0.1805
    5FIC     F2 3923   1.042   9.189   1.630 -0.4627 -0.0868 -0.0210
    5FIC     O1 3924   1.200   8.598   1.409  0.5188  0.1435  0.0563
    5FIC     N5 3925   1.002   8.892   2.024 -1.8061 -0.4248 -0.3991
    5FIC     N6 3926   1.085   8.464   2.000 -1.5901 -0.3803 -0.4556
    5FIC    C19 3927   1.163   8.464   1.666 -0.3778 -0.0808 -0.1803
    5FIC    C20 3928   1.144   8.596   1.647 -0.3484 -0.0708 -0.1412
    5FIC    C21 3929   1.165   8.658   1.512  0.1255  0.0475 -0.0184
    5FIC    C22 3930   1.136   8.801   1.527  0.0293  0.0267 -0.0048
    5FIC    C23 3931   1.141   8.900   1.428  0.3579  0.1099  0.0940
    5FIC    C24 3932   1.109   9.029   1.466  0.1822  0.0692  0.0861
    5FIC    C25 3933   1.073   9.059   1.598 -0.3074 -0.0512 -0.0178
    5FIC    C26 3934   1.067   8.961   1.697 -0.6372 -0.1346 -0.1167
    5FIC    C27 3935   1.099   8.830   1.660 -0.4661 -0.0951 -0.1104
    5FIC    C28 3936   1.103   8.704   1.740 -0.7178 -0.1598 -0.1983
    5FIC    C29 3937   1.074   8.692   1.874 -1.2007 -0.2794 -0.3111
    5FIC    C30 3938   1.035   8.802   1.956 -1.5319 -0.3589 -0.3591
    5FIC    C31 3939   1.080   8.567   1.942 -1.4122 -0.3342 -0.3899
    1BTD     S2 3940   1.655   7.792   1.309 -0.1216  0.2017 -0.2030
    1BTD     N1 3941   1.677   7.748   1.136 -0.1887  0.2170 -0.2154
    1BTD     N2 3942   1.645   7.622   1.367  0.0576  0.1948 -0.1930
    1BTD     N3 3943   1.666   7.195   1.171  0.3018  0.2075 -0.1953
    1BTD     N4 3944   1.705   7.351   0.887 -0.0018  0.2345 -0.2229
    1BTD     C5 3945   1.691   7.539   1.010 -0.0874  0.2257 -0.2190
    1BTD     C6 3946   1.676   7.615   1.131 -0.0797  0.2159 -0.2117
    1BTD     C7 3947   1.658   7.545   1.259  0.0582  0.2035 -0.1992
    1BTD     C8 3948   1.656   7.401   1.261  0.1814  0.2018 -0.1945
    1BTD    C15 3949   1.671   7.330   1.140  0.1688  0.2117 -0.2020
    1BTD    C16 3950   1.688   7.398   1.016  0.0360  0.2234 -0.2140
    1BTD    C43 3951   1.777   7.224   0.842  0.6038 -0.5181  0.3868
    1BTD    C44 3952   1.929   7.198   0.849  0.1757 -0.7498 -0.4635
    1BTD    C45 3953   1.945   7.042   0.839 -0.4961 -0.5063 -0.0549
    1BTD    C46 3954   1.900   6.959   0.723  0.8566  0.1507  0.0778
    1BTD    C47 3955   2.009   7.291   0.749 -0.2007  0.0759 -0.1965
    1BTD    C48 3956   2.164   7.289   0.758  0.3091 -0.1489 -0.9004
    1BTD    C49 3957   2.233   7.379   0.657 -0.3886 -0.9466  0.0428
    1BTD    C50 3958   2.387   7.407   0.676 -0.0204 -0.0027 -0.0010
    1BTD    C75 3959   1.634   7.074   1.097  0.2004  0.3608  0.2432
    1BTD    C76 3960   1.488   7.017   1.070 -0.8348  0.0916 -0.0298
    1BTD    C77 3961   1.404   7.128   1.013 -0.4367  0.4803  0.4839
    1BTD    C78 3962   1.252   7.108   1.022  0.3332 -0.5919  0.6876
    1BTD    C79 3963   1.488   6.869   1.024 -0.0138  0.3289  0.5485
    1BTD    C80 3964   1.358   6.788   1.028  0.2728  0.0133  1.1895
    1BTD    C81 3965   1.383   6.640   1.001 -0.2738  0.2954 -0.0563
    1BTD    C82 3966   1.262   6.570   0.943  0.5608  0.5957  0.1930
    2TTP     S1 3967   1.742   7.717   0.766 -0.2331 -0.1094 -0.3212
    2TTP     S5 3968   1.749   7.367   0.515 -0.0198 -0.1693 -0.2321
    2TTP     C1 3969   1.773   7.514   0.411  0.1383 -0.1989 -0.2391
    2TTP     C2 3970   1.772   7.631   0.482  0.0818 -0.1823 -0.2671
    2TTP     C3 3971   1.753   7.608   0.622 -0.0885 -0.1452 -0.2839
    2TTP     C4 3972   1.719   7.570   0.871 -0.3913 -0.0795 -0.3141
    2TTP    C17 3973   1.720   7.453   0.799 -0.3347 -0.0964 -0.2861
    2TTP    C18 3974   1.739   7.476   0.660 -0.1645 -0.1333 -0.2693
    2TTP    C32 3975   1.791   7.776   0.437  0.2480 -0.1070  0.0859
    2TTP    C33 3976   1.935   7.825   0.434  0.5002 -0.2083 -0.2584
    2TTP    C34 3977   1.940   7.973   0.386 -0.1518  0.3909 -0.3488
    2TTP    C35 3978   2.077   8.033   0.411 -0.2292  0.0548  0.5169
    2TTP    C36 3979   2.111   8.168   0.362  0.2405 -0.7166  0.3293
    2TTP    C37 3980   2.117   8.203   0.211 -0.0095  0.7129 -0.4623
    2TTP    C38 3981   2.228   8.150   0.126 -0.2661 -0.2024  0.1280
    2TTP    C39 3982   2.213   8.177  -0.019 -0.0344 -0.1639  0.3049
    2TTP    C40 3983   2.094   8.092  -0.084 -0.0874 -0.0966 -0.1299
    2TTP    C41 3984   2.075   8.105  -0.229  0.0957 -0.2976  0.0349
    2TTP    C42 3985   1.933   8.058  -0.267 -0.4332  0.0271  0.3357
    3TTP     S1 3986   1.648   7.299   1.554  0.0769  0.0367  0.0338
    3TTP     S5 3987   1.712   6.902   1.400 -0.1614  0.0097  0.0045
    3TTP     C1 3988   1.717   6.895   1.581 -0.1663 -0.0074  0.0041
    3TTP     C2 3989   1.698   7.017   1.640 -0.0930 -0.0001  0.0131
    3TTP     C3 3990   1.678   7.121   1.543 -0.0303  0.0192  0.0207
    3TTP     C4 3991   1.642   7.306   1.372  0.0819  0.0538  0.0343
    3TTP    C17 3992   1.661   7.184   1.314  0.0086  0.0463  0.0253
    3TTP    C18 3993   1.682   7.080   1.410 -0.0541  0.0269  0.0176
    3TTP    C32 3994   1.694   7.055   1.787 -0.4058  0.0487  0.0977
    3TTP    C33 3995   1.559   7.064   1.851 -0.1920  0.0618  0.2604
    3TTP    C34 3996   1.561   7.164   1.965 -0.0929  0.2105 -0.0913
    3TTP    C35 3997   1.424   7.203   2.019  0.5064  0.1097 -0.4822
    3TTP    C36 3998   1.311   7.266   1.929 -0.1480 -0.0015 -0.1039
    3TTP    C37 3999   1.346   7.360   1.815 -0.3348 -0.5238  0.1863
    3TTP    C38 4000   1.404   7.492   1.858  0.0891 -0.3973  0.6248
    3TTP    C39 4001   1.458   7.572   1.742  0.1202  0.2611  0.4913
    3TTP    C40 4002   1.521   7.706   1.763 -0.2241 -0.7137 -0.6947
    3TTP    C41 4003   1.660   7.699   1.832  0.1716 -0.1011  0.5830
    3TTP    C42 4004   1.721   7.825   1.887 -0.4208 -0.0765 -0.4766
    4FIC     F1 4005   1.658   6.962  -0.193  0.4798  0.0051 -0.1694
    4FIC     F2 4006   1.745   7.149  -0.371  0.1535  0.2573 -0.0671
    4FIC     O1 4007   1.697   7.238   0.271  0.2375 -0.2663  0.0130
    4FIC     N5 4008   1.898   7.613  -0.296 -0.4885  0.4262  0.2099
    4FIC     N6 4009   1.911   7.791   0.102 -0.6122  0.1637  0.3319
    4FIC    C19 4010   1.794   7.514   0.266 -0.1604 -0.1217  0.1755
    4FIC    C20 4011   1.781   7.438   0.156 -0.0867 -0.0633  0.1257
    4FIC    C21 4012   1.730   7.297   0.167  0.1193 -0.1442  0.0429
    4FIC    C22 4013   1.728   7.242   0.030  0.1520 -0.0505  0.0051
    4FIC    C23 4014   1.689   7.115  -0.011  0.3211 -0.0792 -0.0717
    4FIC    C24 4015   1.695   7.086  -0.146  0.3175  0.0263 -0.0944
    4FIC    C25 4016   1.740   7.183  -0.238  0.1491  0.1561 -0.0415
    4FIC    C26 4017   1.780   7.310  -0.198 -0.0202  0.1855  0.0351
    4FIC    C27 4018   1.774   7.341  -0.061 -0.0193  0.0799  0.0591
    4FIC    C28 4019   1.808   7.464   0.013 -0.1726  0.0772  0.1353
    4FIC    C29 4020   1.856   7.582  -0.042 -0.3586  0.1845  0.2021
    4FIC    C30 4021   1.879   7.599  -0.181 -0.4295  0.3172  0.2062
    4FIC    C31 4022   1.886   7.696   0.038 -0.4970  0.1723  0.2731
    5FIC     F1 4023   1.889   6.100   1.469 -0.1417 -0.0205 -0.1552
    5FIC     F2 4024   1.874   6.064   1.738  0.1604 -0.0094 -0.1352
    5FIC     O1 4025   1.789   6.631   1.430 -0.0390  0.0067 -0.0514
    5FIC     N5 4026   1.779   6.391   2.098  0.6679  0.0259 -0.0325
    5FIC     N6 4027   1.704   6.812   2.013  0.6872  0.0449  0.0445
    5FIC    C19 4028   1.738   6.785   1.674  0.2860  0.0267  0.0045
    5FIC    C20 4029   1.764   6.653   1.673  0.2484  0.0196 -0.0224
    5FIC    C21 4030   1.789   6.580   1.543  0.0785  0.0094 -0.0501
    5FIC    C22 4031   1.814   6.439   1.578  0.0798  0.0032 -0.0752
    5FIC    C23 4032   1.842   6.334   1.492 -0.0497 -0.0067 -0.1053
    5FIC    C24 4033   1.862   6.209   1.548 -0.0191 -0.0106 -0.1250
    5FIC    C25 4034   1.853   6.190   1.687  0.1367 -0.0050 -0.1147
    5FIC    C26 4035   1.826   6.295   1.774  0.2665  0.0050 -0.0847
    5FIC    C27 4036   1.805   6.423   1.719  0.2378  0.0092 -0.0644
    5FIC    C28 4037   1.774   6.553   1.782  0.3476  0.0193 -0.0315
    5FIC    C29 4038   1.758   6.577   1.917  0.5102  0.0272 -0.0131
    5FIC    C30 4039   1.770   6.474   2.016  0.5963  0.0265 -0.0238
    5FIC    C31 4040   1.729   6.706   1.969  0.6066  0.0370  0.0185
    1BTD     S2 4041   2.743   5.095   1.517  0.0967 -0.1653 -0.4112
    1BTD     N1 4042   2.742   5.076   1.696  0.2075  0.0396 -0.3872
    1BTD     N2 4043   2.771   4.921   1.484  0.0286 -0.2120 -0.2305
    1BTD     N3 4044   2.827   4.530   1.738  0.0896  0.0629  0.1810
    1BTD     N4 4045   2.790   4.721   1.999  0.3101  0.3728 -0.0121
    1BTD     C5 4046   2.768   4.888   1.851  0.2584  0.2098 -0.1891
    1BTD     C6 4047   2.762   4.947   1.720  0.1889  0.0615 -0.2528
    1BTD     C7 4048   2.778   4.860   1.601  0.0888 -0.0794 -0.1650
    1BTD     C8 4049   2.800   4.719   1.619  0.0631 -0.0647 -0.0180
    1BTD    C15 4050   2.805   4.666   1.750  0.1335  0.0827  0.0398
    1BTD    C16 4051   2.789   4.749   1.864  0.2300  0.2184 -0.0447
    1BTD    C43 4052   2.840   4.610   2.075 -0.3011  0.5976 -0.8509
    1BTD    C44 4053   2.986   4.593   2.111 -0.0086 -0.4129 -0.6064
    1BTD    C45 4054   3.013   4.469   2.196 -0.5759 -0.1020  0.4917
    1BTD    C46 4055   2.981   4.470   2.346 -0.2692  0.2188 -0.8325
    1BTD    C47 4056   3.069   4.723   2.159  0.4996 -0.0098  0.0597
    1BTD    C48 4057   3.222   4.729   2.174 -0.4549  0.5213 -0.3217
    1BTD    C49 4058   3.289   4.660   2.057  0.1894 -0.0945  0.4756
    1BTD    C50 4059   3.440   4.686   2.055 -0.1926  0.0828 -0.0044
    1BTD    C75 4060   2.846   4.424   1.837  0.2077  0.3350  1.0316
    1BTD    C76 4061   2.737   4.323   1.878 -0.1547 -0.6433  0.4402
    1BTD    C77 4062   2.616   4.378   1.956  0.1777  0.0354  0.4897
    1BTD    C78 4063   2.475   4.317   1.930 -0.5406  0.0591  0.3987
    1BTD    C79 4064   2.799   4.188   1.920  0.1655  0.1373  1.0645
    1BTD    C80 4065   2.827   4.167   2.063 -0.6775  0.5784  0.6364
    1BTD    C81 4066   2.908   4.038   2.089  0.2520  0.1976  0.6117
    1BTD    C82 4067   2.916   4.031   2.243 -0.7980  0.4285  0.3370
    2TTP     S1 4068   2.741   5.103   2.068 -0.0338 -0.0799 -0.2212
    2TTP     S5 4069   2.739   4.794   2.367  0.1213  0.2460  0.1174
    2TTP     C1 4070   2.728   4.956   2.450  0.1301  0.3356 -0.0544
    2TTP     C2 4071   2.728   5.061   2.363  0.0827  0.2404 -0.1691
    2TTP     C3 4072   2.737   5.017   2.227  0.0377  0.0931 -0.1253
    2TTP     C4 4073   2.752   4.942   1.985 -0.0426 -0.1694 -0.0493
    2TTP    C17 4074   2.752   4.837   2.072  0.0048 -0.0741  0.0654
    2TTP    C18 4075   2.744   4.880   2.208  0.0497  0.0731  0.0216
    2TTP    C32 4076   2.750   5.210   2.399 -0.7165  0.4613 -0.0863
    2TTP    C33 4077   2.643   5.302   2.354  0.1295 -0.2876  0.1134
    2TTP    C34 4078   2.665   5.441   2.411 -0.3174  0.3249  0.0388
    2TTP    C35 4079   2.537   5.521   2.423  0.3958 -0.7799  0.1226
    2TTP    C36 4080   2.530   5.631   2.524  0.2885  0.0642  0.3156
    2TTP    C37 4081   2.650   5.728   2.524 -0.2294  0.4009 -0.4131
    2TTP    C38 4082   2.635   5.868   2.582  0.0846 -0.1215 -0.1426
    2TTP    C39 4083   2.740   5.958   2.526 -0.5063  0.1386 -0.0083
    2TTP    C40 4084   2.744   6.098   2.579 -0.2173 -0.3850  0.4228
    2TTP    C41 4085   2.856   6.194   2.523 -0.1587  0.0790 -0.2326
    2TTP    C42 4086   2.844   6.329   2.599 -0.2345  0.0360  0.1423
    3TTP     S1 4087   2.811   4.586   1.350  0.2390 -0.0132 -0.3111
    3TTP     S5 4088   2.870   4.210   1.550 -0.1518  0.0515 -0.0722
    3TTP     C1 4089   2.877   4.182   1.370 -0.0004 -0.0397 -0.0526
    3TTP     C2 4090   2.859   4.296   1.298  0.1292 -0.0652 -0.1252
    3TTP     C3 4091   2.839   4.410   1.381  0.1136 -0.0134 -0.1989
    3TTP     C4 4092   2.805   4.614   1.529  0.0877  0.0780 -0.3306
    3TTP    C17 4093   2.822   4.500   1.602 -0.0419  0.1035 -0.2580
    3TTP    C18 4094   2.842   4.385   1.518 -0.0263  0.0517 -0.1843
    3TTP    C32 4095   2.852   4.301   1.146 -0.3531  0.1057 -0.0563
    3TTP    C33 4096   2.732   4.380   1.095 -0.2461 -0.8229  0.4166
    3TTP    C34 4097   2.730   4.369   0.943  0.1659 -0.1434  0.1857
    3TTP    C35 4098   2.598   4.411   0.880  0.0420 -0.2981  0.0125
    3TTP    C36 4099   2.595   4.443   0.727 -0.1974  0.0250  0.2751
    3TTP    C37 4100   2.695   4.546   0.666  0.1247  0.8900 -0.5475
    3TTP    C38 4101   2.695   4.530   0.517  0.1398  0.1160  0.6867
    3TTP    C39 4102   2.808   4.612   0.451 -0.1939  0.4166 -0.2016
    3TTP    C40 4103   2.863   4.577   0.317  0.2621  0.3048  0.1398
    3TTP    C41 4104   2.771   4.618   0.204 -1.3212  1.1442  0.7123
    3TTP    C42 4105   2.725   4.495   0.128  0.3763  0.6986  0.2093
    4FIC     F1 4106   2.728   4.501   3.145  0.2778 -0.0778 -0.2008
    4FIC     F2 4107   2.698   4.732   3.286 -0.1945 -0.1843 -0.1248
    4FIC     O1 4108   2.741   4.693   2.639  0.5996  0.1792 -0.0957
    4FIC     N5 4109   2.664   5.200   3.129 -0.6442 -0.1541  0.0594
    4FIC     N6 4110   2.681   5.303   2.705 -0.2975  0.0682  0.1262
    4FIC    C19 4111   2.717   4.981   2.594  0.2628  0.1688  0.0143
    4FIC    C20 4112   2.715   4.924   2.716  0.2002  0.1082 -0.0151
    4FIC    C21 4113   2.728   4.775   2.731  0.3837  0.1181 -0.0714
    4FIC    C22 4114   2.722   4.747   2.875  0.2563  0.0416 -0.0916
    4FIC    C23 4115   2.730   4.622   2.938  0.3515  0.0221 -0.1419
    4FIC    C24 4116   2.721   4.621   3.076  0.1956 -0.0546 -0.1519
    4FIC    C25 4117   2.706   4.739   3.149 -0.0477 -0.1092 -0.1127
    4FIC    C26 4118   2.698   4.864   3.087 -0.1439 -0.0900 -0.0625
    4FIC    C27 4119   2.706   4.868   2.947  0.0112 -0.0130 -0.0516
    4FIC    C28 4120   2.702   4.981   2.852 -0.0329  0.0257 -0.0030
    4FIC    C29 4121   2.687   5.114   2.884 -0.2487 -0.0081  0.0442
    4FIC    C30 4122   2.675   5.161   3.019 -0.4654 -0.0882  0.0523
    4FIC    C31 4123   2.684   5.217   2.785 -0.2742  0.0341  0.0890
    5FIC     F1 4124   2.900   3.390   1.603  0.1540  0.3745  0.1491
    5FIC     F2 4125   2.922   3.322   1.340 -0.1497  0.2268  0.1602
    5FIC     O1 4126   2.876   3.929   1.568  0.2391  0.3613 -0.1169
    5FIC     N5 4127   2.938   3.609   0.937 -0.5255  0.0048 -0.0134
    5FIC     N6 4128   2.915   4.045   0.963 -0.3978  0.0244 -0.2235
    5FIC    C19 4129   2.889   4.056   1.304 -0.0208  0.2155 -0.2009
    5FIC    C20 4130   2.894   3.923   1.323 -0.0303  0.2246 -0.1343
    5FIC    C21 4131   2.887   3.865   1.462  0.1085  0.3015 -0.0946
    5FIC    C22 4132   2.895   3.719   1.446  0.0581  0.2910 -0.0245
    5FIC    C23 4133   2.892   3.623   1.547  0.1464  0.3462  0.0308
    5FIC    C24 4134   2.902   3.490   1.508  0.0735  0.3229  0.0923
    5FIC    C25 4135   2.913   3.455   1.373 -0.0830  0.2467  0.0979
    5FIC    C26 4136   2.916   3.551   1.272 -0.1718  0.1915  0.0430
    5FIC    C27 4137   2.907   3.686   1.309 -0.0998  0.2139 -0.0197
    5FIC    C28 4138   2.907   3.810   1.228 -0.1605  0.1701 -0.0870
    5FIC    C29 4139   2.916   3.818   1.091 -0.3088  0.0935 -0.1024
    5FIC    C30 4140   2.928   3.703   1.007 -0.4275  0.0451 -0.0534
    5FIC    C31 4141   2.915   3.943   1.021 -0.3570  0.0558 -0.1690
    1BTD     S2 4142   2.446   4.668   1.870 -0.0329  0.2688  0.0619
    1BTD     N1 4143   2.421   4.740   2.033 -0.0988  0.2558  0.0575
    1BTD     N2 4144   2.430   4.824   1.782  0.0572  0.2842  0.0724
    1BTD     N3 4145   2.351   5.272   1.895  0.1217  0.2923  0.0860
    1BTD     N4 4146   2.340   5.170   2.205 -0.0705  0.2574  0.0677
    1BTD     C5 4147   2.379   4.966   2.119 -0.0816  0.2570  0.0631
    1BTD     C6 4148   2.403   4.870   2.014 -0.0527  0.2633  0.0638
    1BTD     C7 4149   2.408   4.917   1.873  0.0346  0.2792  0.0722
    1BTD     C8 4150   2.389   5.057   1.845  0.0886  0.2880  0.0793
    1BTD    C15 4151   2.365   5.146   1.951  0.0575  0.2813  0.0782
    1BTD    C16 4152   2.361   5.101   2.086 -0.0267  0.2661  0.0702
    1BTD    C43 4153   2.290   5.308   2.224 -0.1679 -0.7649 -0.6428
    1BTD    C44 4154   2.138   5.335   2.240 -0.5309  0.0230 -0.2081
    1BTD    C45 4155   2.093   5.485   2.281  0.0510 -0.5435 -0.2362
    1BTD    C46 4156   2.161   5.546   2.400 -0.1370  0.4545  0.2089
    1BTD    C47 4157   2.040   5.263   2.143  0.2042  0.5020 -0.1821
    1BTD    C48 4158   1.886   5.283   2.158 -0.1576  0.2147  0.0981
    1BTD    C49 4159   1.817   5.213   2.272  0.1627  0.3388 -0.1966
    1BTD    C50 4160   1.666   5.220   2.261  0.2762  0.2104 -0.6255
    1BTD    C75 4161   2.367   5.408   1.944 -0.0287 -0.7291 -0.0776
    1BTD    C76 4162   2.497   5.491   1.944 -0.5264  0.2255  0.8882
    1BTD    C77 4163   2.622   5.432   2.003  0.4032  0.4481 -0.0972
    1BTD    C78 4164   2.761   5.491   1.985  0.1752 -0.2989  0.1574
    1BTD    C79 4165   2.479   5.640   1.976 -0.3167  0.0271 -0.2143
    1BTD    C80 4166   2.434   5.678   2.111  0.1404 -0.0450 -1.0216
    1BTD    C81 4167   2.391   5.822   2.128  0.1247 -0.4370 -0.0896
    1BTD    C82 4168   2.351   5.862   2.272 -0.3504 -0.5199 -0.1875
    2TTP     S1 4169   2.387   4.824   2.390  0.0120  0.0100 -0.2606
    2TTP     S5 4170   2.319   5.205   2.578  0.4010 -0.0801  0.0662
    2TTP     C1 4171   2.334   5.078   2.707  0.1740 -0.2235 -0.0461
    2TTP     C2 4172   2.356   4.953   2.657  0.0406 -0.2041 -0.1536
    2TTP     C3 4173   2.362   4.953   2.514  0.1127 -0.0755 -0.1512
    2TTP     C4 4174   2.372   4.951   2.260  0.2390  0.1532 -0.1484
    2TTP    C17 4175   2.350   5.076   2.310  0.3724  0.1338 -0.0408
    2TTP    C18 4176   2.345   5.076   2.453  0.3003  0.0051 -0.0432
    2TTP    C32 4177   2.367   4.816   2.725 -0.1023  0.9412  0.2023
    2TTP    C33 4178   2.256   4.714   2.702  0.4231  0.5510 -0.3310
    2TTP    C34 4179   2.244   4.600   2.807  0.8052 -0.5174  0.2037
    2TTP    C35 4180   2.333   4.486   2.763  0.0133  0.2270 -0.3731
    2TTP    C36 4181   2.307   4.419   2.626 -0.2741 -0.7210 -0.2495
    2TTP    C37 4182   2.399   4.306   2.596 -0.2187  0.6179  0.3477
    2TTP    C38 4183   2.357   4.225   2.472 -0.1420 -0.3552  0.0762
    2TTP    C39 4184   2.231   4.141   2.498 -0.0339  0.0600 -0.1603
    2TTP    C40 4185   2.242   3.989   2.460  0.1126 -0.6201 -0.4429
    2TTP    C41 4186   2.329   3.896   2.541 -0.2642  0.0492  0.6617
    2TTP    C42 4187   2.315   3.758   2.479 -0.3874  0.2094 -0.3675
    3TTP     S1 4188   2.383   5.100   1.542 -0.1341 -0.0197 -0.0125
    3TTP     S5 4189   2.323   5.521   1.608  0.1099  0.0468 -0.2164
    3TTP     C1 4190   2.318   5.489   1.429  0.1568 -0.0271 -0.2045
    3TTP     C2 4191   2.336   5.357   1.398  0.0842 -0.0521 -0.1408
    3TTP     C3 4192   2.355   5.277   1.515 -0.0111 -0.0136 -0.0992
    3TTP     C4 4193   2.388   5.132   1.721 -0.1810  0.0544 -0.0244
    3TTP    C17 4194   2.370   5.264   1.752 -0.1084  0.0792 -0.0881
    3TTP    C18 4195   2.351   5.345   1.635 -0.0132  0.0408 -0.1298
    3TTP    C32 4196   2.316   5.283   1.262  0.1294 -0.1586  0.4726
    3TTP    C33 4197   2.443   5.224   1.208 -1.5728 -0.6236  0.6655
    3TTP    C34 4198   2.430   5.120   1.097 -0.2533 -0.2041 -0.4913
    3TTP    C35 4199   2.563   5.060   1.048  0.0154  0.6587 -0.0457
    3TTP    C36 4200   2.626   4.965   1.152  0.5894  0.6020 -0.0326
    3TTP    C37 4201   2.750   4.874   1.121 -0.0500 -0.2102 -0.1070
    3TTP    C38 4202   2.743   4.784   0.998  0.1956  0.3422 -0.2700
    3TTP    C39 4203   2.705   4.839   0.859  0.6640  0.6307 -0.1600
    3TTP    C40 4204   2.806   4.936   0.783 -0.5469  0.4400 -0.2422
    3TTP    C41 4205   2.750   4.983   0.649  0.1024  0.3957  0.1665
    3TTP    C42 4206   2.858   5.049   0.556  0.7295 -0.0545 -0.8142
    4FIC     F1 4207   2.219   5.713   3.217  0.4135  0.0713  0.0431
    4FIC     F2 4208   2.239   5.540   3.427 -0.3301 -0.0343  0.0355
    4FIC     O1 4209   2.281   5.374   2.799  0.6511  0.0874  0.0651
    4FIC     N5 4210   2.314   5.051   3.431 -1.2298 -0.1745  0.0405
    4FIC     N6 4211   2.358   4.821   3.062 -0.8942 -0.1407  0.0592
    4FIC    C19 4212   2.323   5.089   2.852  0.0250 -0.0078  0.0658
    4FIC    C20 4213   2.306   5.181   2.948 -0.0057 -0.0075  0.0606
    4FIC    C21 4214   2.285   5.325   2.914  0.3290  0.0428  0.0606
    4FIC    C22 4215   2.271   5.397   3.042  0.1985  0.0288  0.0542
    4FIC    C23 4216   2.250   5.534   3.060  0.4083  0.0626  0.0519
    4FIC    C24 4217   2.240   5.579   3.191  0.2231  0.0402  0.0457
    4FIC    C25 4218   2.250   5.490   3.299 -0.1600 -0.0141  0.0417
    4FIC    C26 4219   2.272   5.354   3.281 -0.3711 -0.0479  0.0439
    4FIC    C27 4220   2.282   5.306   3.149 -0.1885 -0.0261  0.0503
    4FIC    C28 4221   2.304   5.170   3.096 -0.3291 -0.0509  0.0541
    4FIC    C29 4222   2.320   5.055   3.170 -0.6902 -0.1034  0.0520
    4FIC    C30 4223   2.316   5.053   3.313 -0.9855 -0.1423  0.0457
    4FIC    C31 4224   2.341   4.927   3.110 -0.8003 -0.1235  0.0560
    5FIC     F1 4225   2.106   6.280   1.332 -0.0142 -0.0488 -0.0787
    5FIC     F2 4226   2.139   6.248   1.064 -0.1833 -0.2257 -0.0792
    5FIC     O1 4227   2.226   5.782   1.509  0.1374  0.0788  0.1779
    5FIC     N5 4228   2.272   5.848   0.804 -0.3185 -0.3890  0.1030
    5FIC     N6 4229   2.359   5.466   0.997 -0.1659 -0.2536  0.3036
    5FIC    C19 4230   2.300   5.575   1.316  0.0297 -0.0451  0.2685
    5FIC    C20 4231   2.269   5.702   1.282 -0.0018 -0.0702  0.2040
    5FIC    C21 4232   2.232   5.803   1.387  0.0577 -0.0026  0.1605
    5FIC    C22 4233   2.203   5.929   1.316  0.0026 -0.0521  0.0938
    5FIC    C23 4234   2.165   6.051   1.371  0.0286 -0.0180  0.0369
    5FIC    C24 4235   2.144   6.156   1.284 -0.0353 -0.0781 -0.0206
    5FIC    C25 4236   2.161   6.140   1.146 -0.1225 -0.1689 -0.0208
    5FIC    C26 4237   2.200   6.019   1.090 -0.1489 -0.2035  0.0359
    5FIC    C27 4238   2.221   5.910   1.177 -0.0850 -0.1439  0.0946
    5FIC    C28 4239   2.262   5.770   1.150 -0.0912 -0.1585  0.1623
    5FIC    C29 4240   2.288   5.715   1.027 -0.1656 -0.2387  0.1824
    5FIC    C30 4241   2.279   5.788   0.905 -0.2494 -0.3210  0.1387
    5FIC    C31 4242   2.327   5.578   1.011 -0.1653 -0.2465  0.2489
    1BTD     S2 4243   2.076   1.473   1.018 -0.3036  0.1996  0.1617
    1BTD     N1 4244   2.060   1.517   0.844 -0.2156  0.1285  0.1356
    1BTD     N2 4245   2.086   1.643   1.075 -0.1942  0.2191  0.0836
    1BTD     N3 4246   2.079   2.069   0.877  0.1875  0.1307 -0.1226
    1BTD     N4 4247   2.046   1.913   0.593  0.1611  0.0191 -0.0586
    1BTD     C5 4248   2.053   1.726   0.717 -0.0187  0.0727  0.0334
    1BTD     C6 4249   2.063   1.649   0.838 -0.1145  0.1233  0.0732
    1BTD     C7 4250   2.078   1.720   0.967 -0.1026  0.1740  0.0442
    1BTD     C8 4251   2.082   1.864   0.968  0.0047  0.1716 -0.0233
    1BTD    C15 4252   2.072   1.934   0.847  0.0963  0.1211 -0.0604
    1BTD    C16 4253   2.058   1.866   0.723  0.0847  0.0724 -0.0324
    1BTD    C43 4254   2.011   2.045   0.540  0.3583 -0.8648  0.6553
    1BTD    C44 4255   1.868   2.067   0.487 -0.2368  0.5066 -0.4573
    1BTD    C45 4256   1.850   2.190   0.399 -0.0240  0.2477 -0.2373
    1BTD    C46 4257   1.961   2.230   0.299 -0.0059 -0.2602 -0.2593
    1BTD    C47 4258   1.762   2.049   0.600 -0.0997 -0.7748  0.0915
    1BTD    C48 4259   1.617   2.067   0.558  0.0671 -0.6542 -0.1637
    1BTD    C49 4260   1.519   2.059   0.673 -0.0710 -0.7820  0.2892
    1BTD    C50 4261   1.377   2.064   0.622 -0.3684  0.0899  0.7188
    1BTD    C75 4262   2.112   2.192   0.797 -0.3336 -0.1103 -0.1982
    1BTD    C76 4263   2.261   2.247   0.791  0.1937 -0.2046  0.3902
    1BTD    C77 4264   2.365   2.147   0.746  0.0663 -0.5371  0.9436
    1BTD    C78 4265   2.512   2.198   0.745 -0.7343  0.6429  0.3290
    1BTD    C79 4266   2.268   2.390   0.731  0.0118  0.4647  0.0402
    1BTD    C80 4267   2.237   2.403   0.585  0.4427  0.1743 -0.2008
    1BTD    C81 4268   2.307   2.518   0.524  0.3083 -0.7315 -0.4552
    1BTD    C82 4269   2.298   2.513   0.376  0.2794 -0.1999  0.0747
    2TTP     S1 4270   2.057   1.536   0.479  0.0873 -0.2195 -0.2759
    2TTP     S5 4271   2.070   1.878   0.219  0.3763  0.2048  0.2923
    2TTP     C1 4272   2.086   1.727   0.118  0.4286  0.3660  0.0591
    2TTP     C2 4273   2.083   1.613   0.192  0.3425  0.2445 -0.1301
    2TTP     C3 4274   2.068   1.640   0.332  0.2320  0.0197 -0.0977
    2TTP     C4 4275   2.041   1.686   0.580  0.0350 -0.3807 -0.0427
    2TTP    C17 4276   2.044   1.801   0.506  0.1212 -0.2592  0.1465
    2TTP    C18 4277   2.059   1.774   0.366  0.2315 -0.0344  0.1141
    2TTP    C32 4278   2.098   1.470   0.128  0.3369  0.3639  0.2632
    2TTP    C33 4279   2.101   1.338   0.205  0.2819  0.2731  0.7483
    2TTP    C34 4280   2.145   1.213   0.135  0.1884 -0.1358 -0.3840
    2TTP    C35 4281   2.152   1.094   0.230 -0.3274 -0.0661 -0.3231
    2TTP    C36 4282   2.264   0.987   0.212  0.1965  0.1147 -0.4965
    2TTP    C37 4283   2.273   0.922   0.074  0.6978  0.1495 -0.5124
    2TTP    C38 4284   2.409   0.855   0.049 -0.2466 -0.3215 -0.4436
    2TTP    C39 4285   2.416   0.798  -0.090  0.3802 -0.6367 -0.7137
    2TTP    C40 4286   2.543   0.714  -0.099 -0.2304  0.1155 -0.1274
    2TTP    C41 4287   2.560   0.635  -0.224 -0.0842  0.3562 -0.5596
    2TTP    C42 4288   2.696   0.585  -0.238  0.3292  0.0339  0.1147
    3TTP     S1 4289   2.081   1.967   1.254  0.3624  0.0372  0.0869
    3TTP     S5 4290   2.028   2.367   1.104 -0.4608 -0.1155 -0.0414
    3TTP     C1 4291   2.024   2.372   1.286 -0.0715 -0.0128 -0.0341
    3TTP     C2 4292   2.040   2.249   1.343  0.2058  0.0403  0.0059
    3TTP     C3 4293   2.056   2.146   1.245  0.1206  0.0020  0.0323
    3TTP     C4 4294   2.085   1.962   1.073 -0.0269 -0.0654  0.0796
    3TTP    C17 4295   2.069   2.085   1.016 -0.3041 -0.1186  0.0395
    3TTP    C18 4296   2.053   2.188   1.113 -0.2190 -0.0802  0.0131
    3TTP    C32 4297   2.033   2.214   1.491 -0.0432  0.4464  0.0271
    3TTP    C33 4298   2.168   2.162   1.543 -0.0494  0.1753 -0.1804
    3TTP    C34 4299   2.152   2.139   1.701 -0.0654  0.2030  0.5057
    3TTP    C35 4300   2.280   2.088   1.778  0.3955  0.3776 -0.0763
    3TTP    C36 4301   2.272   2.048   1.929  0.0839  0.0509 -0.2060
    3TTP    C37 4302   2.403   2.010   1.999 -0.1090 -0.3958  0.0063
    3TTP    C38 4303   2.379   1.980   2.145 -0.4938  1.0130 -0.6667
    3TTP    C39 4304   2.501   1.947   2.230 -0.1335 -0.2268  0.5710
    3TTP    C40 4305   2.462   1.932   2.375 -0.4538  0.2428  0.1774
    3TTP    C41 4306   2.573   1.986   2.468 -0.0247  0.1991  0.0366
    3TTP    C42 4307   2.515   2.015   2.609 -0.4672  0.5704  0.1041
    4FIC     F1 4308   2.032   2.249  -0.522  0.0877  0.0568 -0.1087
    4FIC     F2 4309   2.081   2.040  -0.689  0.0800  0.0360 -0.0849
    4FIC     O1 4310   2.045   2.000  -0.041 -0.0259  0.0920 -0.0873
    4FIC     N5 4311   2.161   1.563  -0.588 -0.0119  0.0312 -0.0358
    4FIC     N6 4312   2.161   1.410  -0.178 -0.0991  0.0628 -0.0238
    4FIC    C19 4313   2.096   1.712  -0.031 -0.0735  0.0846 -0.0571
    4FIC    C20 4314   2.091   1.783  -0.145 -0.0446  0.0766 -0.0634
    4FIC    C21 4315   2.064   1.931  -0.142 -0.0214  0.0810 -0.0790
    4FIC    C22 4316   2.065   1.976  -0.283  0.0073  0.0700 -0.0823
    4FIC    C23 4317   2.045   2.105  -0.330  0.0353  0.0695 -0.0954
    4FIC    C24 4318   2.051   2.124  -0.468  0.0593  0.0579 -0.0960
    4FIC    C25 4319   2.076   2.016  -0.554  0.0554  0.0472 -0.0837
    4FIC    C26 4320   2.096   1.887  -0.507  0.0275  0.0477 -0.0707
    4FIC    C27 4321   2.091   1.866  -0.368  0.0029  0.0592 -0.0699
    4FIC    C28 4322   2.108   1.743  -0.287 -0.0292  0.0629 -0.0578
    4FIC    C29 4323   2.134   1.617  -0.334 -0.0421  0.0550 -0.0440
    4FIC    C30 4324   2.148   1.587  -0.473 -0.0254  0.0419 -0.0395
    4FIC    C31 4325   2.148   1.504  -0.248 -0.0734  0.0594 -0.0330
    5FIC     F1 4326   1.896   3.176   1.140 -0.2790 -0.0833 -0.0200
    5FIC     F2 4327   1.846   3.211   1.405  0.0850  0.1285  0.0226
    5FIC     O1 4328   2.004   2.646   1.123 -0.5286 -0.1419  0.2171
    5FIC     N5 4329   1.851   2.882   1.775  0.4304  0.3913  0.2528
    5FIC     N6 4330   1.946   2.460   1.708  0.1619  0.3028  0.4294
    5FIC    C19 4331   1.995   2.490   1.371 -0.2696  0.0396  0.3420
    5FIC    C20 4332   1.970   2.622   1.365 -0.2210  0.0461  0.2807
    5FIC    C21 4333   1.976   2.696   1.233 -0.3621 -0.0507  0.2188
    5FIC    C22 4334   1.944   2.836   1.262 -0.2635 -0.0159  0.1612
    5FIC    C23 4335   1.937   2.942   1.172 -0.3365 -0.0776  0.0934
    5FIC    C24 4336   1.904   3.067   1.223 -0.2160 -0.0269  0.0479
    5FIC    C25 4337   1.879   3.084   1.360 -0.0285  0.0822  0.0699
    5FIC    C26 4338   1.885   2.979   1.450  0.0452  0.1443  0.1375
    5FIC    C27 4339   1.918   2.852   1.401 -0.0746  0.0944  0.1843
    5FIC    C28 4340   1.933   2.721   1.469 -0.0410  0.1368  0.2586
    5FIC    C29 4341   1.916   2.697   1.603  0.1252  0.2404  0.2992
    5FIC    C30 4342   1.881   2.798   1.697  0.2924  0.3230  0.2735
    5FIC    C31 4343   1.933   2.567   1.660  0.1444  0.2741  0.3706
    1BTD     S2 4344   2.445   1.937   1.141 -0.1621 -0.0467  0.0547
    1BTD     N1 4345   2.434   1.877   0.972  0.0438 -0.0976  0.0576
    1BTD     N2 4346   2.445   1.772   1.214 -0.3318 -0.0226  0.1093
    1BTD     N3 4347   2.423   1.330   1.058 -0.3058 -0.0651  0.2258
    1BTD     N4 4348   2.409   1.459   0.759  0.1571 -0.1577  0.1621
    1BTD     C5 4349   2.421   1.658   0.864  0.0973 -0.1278  0.1129
    1BTD     C6 4350   2.430   1.745   0.978 -0.0212 -0.0941  0.0971
    1BTD     C7 4351   2.437   1.686   1.114 -0.2314 -0.0521  0.1260
    1BTD     C8 4352   2.434   1.543   1.129 -0.3127 -0.0459  0.1693
    1BTD    C15 4353   2.424   1.462   1.014 -0.1911 -0.0798  0.1835
    1BTD    C16 4354   2.418   1.518   0.884  0.0115 -0.1203  0.1556
    1BTD    C43 4355   2.320   1.339   0.727  0.3499 -0.1509 -0.1027
    1BTD    C44 4356   2.323   1.248   0.602  1.1270 -0.0318 -0.5927
    1BTD    C45 4357   2.224   1.131   0.592  0.6595 -0.3000 -0.2059
    1BTD    C46 4358   2.072   1.166   0.600 -0.0930 -0.4047 -0.2401
    1BTD    C47 4359   2.460   1.194   0.585  0.0462 -0.5066 -0.0895
    1BTD    C48 4360   2.502   1.126   0.453  0.2913  0.1891 -0.2749
    1BTD    C49 4361   2.658   1.100   0.448  0.1274 -0.2401 -0.2787
    1BTD    C50 4362   2.708   1.014   0.334 -0.0578 -0.1659 -0.5706
    1BTD    C75 4363   2.486   1.219   0.980  0.4176 -0.0578 -0.3432
    1BTD    C76 4364   2.443   1.070   0.992  0.2267 -0.8961  0.6681
    1BTD    C77 4365   2.289   1.037   0.969 -0.0444 -0.4769  0.0696
    1BTD    C78 4366   2.192   1.115   1.060  0.1301  0.1239  0.0320
    1BTD    C79 4367   2.530   0.997   0.889 -0.3916  0.8623  0.1559
    1BTD    C80 4368   2.540   0.837   0.890  0.0364 -0.1284 -0.2014
    1BTD    C81 4369   2.532   0.762   0.755 -0.4256 -0.0771 -0.8946
    1BTD    C82 4370   2.394   0.761   0.689  0.3276  0.0789 -0.0943
    2TTP     S1 4371   2.444   1.824   0.612 -0.0983 -0.1076  0.2236
    2TTP     S5 4372   2.412   1.466   0.376  0.1615 -0.0939  0.1675
    2TTP     C1 4373   2.437   1.607   0.264  0.0822 -0.0612  0.1909
    2TTP     C2 4374   2.448   1.726   0.330 -0.0027 -0.0635  0.2096
    2TTP     C3 4375   2.438   1.710   0.472 -0.0082 -0.0912  0.2061
    2TTP     C4 4376   2.419   1.683   0.724 -0.0190 -0.1403  0.2001
    2TTP    C17 4377   2.408   1.564   0.658  0.0659 -0.1381  0.1814
    2TTP    C18 4378   2.419   1.580   0.516  0.0713 -0.1104  0.1849
    2TTP    C32 4379   2.461   1.862   0.266 -0.1945 -0.7850 -0.2368
    2TTP    C33 4380   2.422   1.992   0.346 -0.4163  0.2135  0.4600
    2TTP    C34 4381   2.435   2.124   0.266 -0.5294 -0.0153 -0.1853
    2TTP    C35 4382   2.350   2.136   0.145 -0.0835 -0.2695  0.0758
    2TTP    C36 4383   2.393   2.258   0.060  1.1350  1.0275  1.1107
    2TTP    C37 4384   2.326   2.251  -0.083  0.1191  0.3357 -0.0832
    2TTP    C38 4385   2.389   2.364  -0.159  0.5920 -0.5303  0.0488
    2TTP    C39 4386   2.321   2.415  -0.285  0.2661  0.5259 -0.3570
    2TTP    C40 4387   2.181   2.473  -0.265 -0.4105  0.4155 -0.2723
    2TTP    C41 4388   2.123   2.521  -0.389 -0.3313  0.3208 -0.1694
    2TTP    C42 4389   1.989   2.595  -0.368 -0.3062  0.8543 -0.5881
    3TTP     S1 4390   2.469   1.471   1.422 -0.1548  0.0739  0.0592
    3TTP     S5 4391   2.438   1.054   1.324  0.1446  0.0794 -0.0596
    3TTP     C1 4392   2.463   1.070   1.503 -0.2401  0.0623 -0.0036
    3TTP     C2 4393   2.474   1.199   1.544 -0.3551  0.0596  0.0364
    3TTP     C3 4394   2.463   1.291   1.435 -0.1436  0.0709  0.0243
    3TTP     C4 4395   2.444   1.455   1.242  0.2299  0.0910  0.0032
    3TTP    C17 4396   2.433   1.326   1.201  0.3450  0.0937 -0.0368
    3TTP    C18 4397   2.444   1.234   1.310  0.1336  0.0824 -0.0246
    3TTP    C32 4398   2.477   1.253   1.687 -0.6023  0.6008  0.8195
    3TTP    C33 4399   2.370   1.348   1.739 -0.6508  0.1886  0.3329
    3TTP    C34 4400   2.341   1.332   1.884 -0.7883  0.3828 -0.4973
    3TTP    C35 4401   2.226   1.408   1.952 -0.1160 -0.3040  0.4070
    3TTP    C36 4402   2.213   1.559   1.918  0.4488  0.5574 -0.8012
    3TTP    C37 4403   2.089   1.639   1.981 -0.0043  0.1695  0.8761
    3TTP    C38 4404   1.951   1.605   1.918 -0.2701 -0.6602 -0.0534
    3TTP    C39 4405   1.944   1.617   1.761  0.0238 -0.4894  0.6440
    3TTP    C40 4406   2.010   1.744   1.699 -0.3671  0.0195 -0.5893
    3TTP    C41 4407   2.031   1.742   1.553  0.2863 -0.3349  0.0262
    3TTP    C42 4408   2.132   1.643   1.477  0.0018  0.1348 -0.2812
    4FIC     F1 4409   2.490   1.003  -0.299  0.2613  0.2656 -0.2336
    4FIC     F2 4410   2.487   1.192  -0.494 -0.4189  0.3864 -0.1106
    4FIC     O1 4411   2.459   1.312   0.144  0.6316 -0.0638  0.0229
    4FIC     N5 4412   2.460   1.685  -0.459 -1.1327  0.3253  0.2491
    4FIC     N6 4413   2.437   1.888  -0.073 -0.7062  0.0435  0.4247
    4FIC    C19 4414   2.445   1.603   0.115  0.1133 -0.0654  0.2315
    4FIC    C20 4415   2.453   1.518   0.011  0.0467  0.0127  0.1622
    4FIC    C21 4416   2.460   1.369   0.034  0.3268  0.0079  0.0564
    4FIC    C22 4417   2.468   1.306  -0.099  0.1675  0.1046  0.0013
    4FIC    C23 4418   2.475   1.171  -0.129  0.3254  0.1353 -0.0994
    4FIC    C24 4419   2.482   1.135  -0.262  0.1218  0.2305 -0.1350
    4FIC    C25 4420   2.480   1.233  -0.363 -0.2285  0.2925 -0.0714
    4FIC    C26 4421   2.472   1.369  -0.334 -0.3878  0.2625  0.0290
    4FIC    C27 4422   2.466   1.407  -0.199 -0.1857  0.1664  0.0664
    4FIC    C28 4423   2.457   1.540  -0.135 -0.2738  0.1123  0.1678
    4FIC    C29 4424   2.453   1.662  -0.200 -0.5920  0.1479  0.2511
    4FIC    C30 4425   2.457   1.674  -0.342 -0.8881  0.2453  0.2497
    4FIC    C31 4426   2.444   1.786  -0.130 -0.6530  0.0903  0.3461
    5FIC     F1 4427   2.615   0.266   1.462  0.0789 -0.1317 -0.1306
    5FIC     F2 4428   2.553   0.244   1.726  0.1342 -0.1793 -0.1214
    5FIC     O1 4429   2.554   0.799   1.385 -0.1010 -0.1422 -0.0623
    5FIC     N5 4430   2.421   0.593   2.051  0.0855 -0.2552 -0.0597
    5FIC     N6 4431   2.386   1.014   1.938 -0.0663 -0.2539 -0.0082
    5FIC    C19 4432   2.474   0.967   1.611 -0.1121 -0.1914 -0.0294
    5FIC    C20 4433   2.492   0.834   1.620 -0.0690 -0.1869 -0.0468
    5FIC    C21 4434   2.533   0.754   1.499 -0.0662 -0.1611 -0.0632
    5FIC    C22 4435   2.543   0.614   1.544 -0.0144 -0.1628 -0.0800
    5FIC    C23 4436   2.578   0.503   1.467  0.0061 -0.1436 -0.0984
    5FIC    C24 4437   2.581   0.380   1.531  0.0562 -0.1497 -0.1120
    5FIC    C25 4438   2.549   0.369   1.667  0.0847 -0.1743 -0.1073
    5FIC    C26 4439   2.514   0.479   1.744  0.0645 -0.1935 -0.0890
    5FIC    C27 4440   2.511   0.605   1.681  0.0138 -0.1877 -0.0750
    5FIC    C28 4441   2.478   0.740   1.733 -0.0187 -0.2034 -0.0544
    5FIC    C29 4442   2.441   0.771   1.862 -0.0046 -0.2286 -0.0443
    5FIC    C30 4443   2.430   0.673   1.966  0.0449 -0.2431 -0.0528
    5FIC    C31 4444   2.411   0.904   1.903 -0.0386 -0.2424 -0.0245
    1BTD     S2 4445   2.462   6.884   1.570 -0.0825 -0.2493 -0.2202
    1BTD     N1 4446   2.477   6.814   1.735  0.0201 -0.2011 -0.2089
    1BTD     N2 4447   2.475   6.725   1.486 -0.0327 -0.2631 -0.1864
    1BTD     N3 4448   2.528   6.277   1.613  0.2540 -0.2047 -0.0973
    1BTD     N4 4449   2.530   6.386   1.920  0.3189 -0.1284 -0.1250
    1BTD     C5 4450   2.505   6.589   1.828  0.1752 -0.1639 -0.1648
    1BTD     C6 4451   2.490   6.683   1.720  0.0829 -0.1980 -0.1820
    1BTD     C7 4452   2.489   6.633   1.581  0.0534 -0.2327 -0.1694
    1BTD     C8 4453   2.503   6.492   1.556  0.1178 -0.2316 -0.1402
    1BTD    C15 4454   2.517   6.404   1.665  0.2075 -0.1977 -0.1243
    1BTD    C16 4455   2.518   6.452   1.800  0.2360 -0.1643 -0.1363
    1BTD    C43 4456   2.589   6.259   1.959 -0.3409  0.4865 -0.1213
    1BTD    C44 4457   2.745   6.227   1.963 -0.0509 -0.4471  0.0955
    1BTD    C45 4458   2.780   6.080   2.004  0.2580 -0.0102 -0.3242
    1BTD    C46 4459   2.740   6.045   2.151  0.3218  0.0628  0.6294
    1BTD    C47 4460   2.833   6.335   2.041  0.0276  0.1936  0.0291
    1BTD    C48 4461   2.980   6.323   2.034  0.0311  0.2079  0.3386
    1BTD    C49 4462   3.036   6.403   2.150  0.1363  0.2152  0.2769
    1BTD    C50 4463   3.187   6.393   2.161 -0.1747 -0.3927 -0.0946
    1BTD    C75 4464   2.535   6.140   1.673 -0.6929 -0.3308 -0.3543
    1BTD    C76 4465   2.415   6.049   1.665  0.6360 -0.1321 -0.0149
    1BTD    C77 4466   2.440   5.908   1.726 -1.2891 -0.4517  0.2214
    1BTD    C78 4467   2.566   5.828   1.679  0.3414 -0.1162 -0.6866
    1BTD    C79 4468   2.276   6.108   1.718  0.0734 -0.0271 -0.2117
    1BTD    C80 4469   2.247   6.109   1.874 -0.6629 -0.7187 -0.1442
    1BTD    C81 4470   2.099   6.107   1.911  0.1097 -0.3707  0.4134
    1BTD    C82 4471   2.076   6.094   2.063 -0.0994 -0.2401 -0.5557
    2TTP     S1 4472   2.464   6.732   2.096 -0.0714 -0.0504  0.0849
    2TTP     S5 4473   2.496   6.351   2.293  0.5380  0.1222  0.3221
    2TTP     C1 4474   2.458   6.478   2.418  0.3691  0.1444  0.2481
    2TTP     C2 4475   2.446   6.603   2.364  0.1709  0.0925  0.1705
    2TTP     C3 4476   2.466   6.603   2.223  0.1454  0.0333  0.1667
    2TTP     C4 4477   2.502   6.605   1.971  0.0976 -0.0726  0.1588
    2TTP    C17 4478   2.514   6.480   2.025  0.2956 -0.0205  0.2364
    2TTP    C18 4479   2.494   6.480   2.166  0.3211  0.0386  0.2403
    2TTP    C32 4480   2.427   6.740   2.431 -0.1967 -0.0619 -0.4883
    2TTP    C33 4481   2.549   6.827   2.414 -0.3616  0.0198 -0.0171
    2TTP    C34 4482   2.537   6.976   2.452  0.4609 -0.5471  0.1721
    2TTP    C35 4483   2.612   7.076   2.368  0.6297 -0.1934  0.3309
    2TTP    C36 4484   2.609   7.217   2.410 -0.0068  0.1625  0.1564
    2TTP    C37 4485   2.708   7.306   2.334 -0.1269  0.1745  0.1494
    2TTP    C38 4486   2.701   7.457   2.370  0.1813 -0.8286 -0.2831
    2TTP    C39 4487   2.805   7.557   2.315  0.5852  0.5098 -0.0802
    2TTP    C40 4488   2.944   7.536   2.368  0.3097 -0.7659  0.0745
    2TTP    C41 4489   2.960   7.547   2.521  0.0698  0.4186 -0.0928
    2TTP    C42 4490   3.108   7.584   2.556  0.1644  0.3676 -0.1418
    3TTP     S1 4491   2.515   6.440   1.258 -0.1440 -0.0837 -0.2264
    3TTP     S5 4492   2.592   6.024   1.330  0.2034 -0.0114 -0.1778
    3TTP     C1 4493   2.600   6.054   1.151 -0.0603 -0.0726 -0.2005
    3TTP     C2 4494   2.577   6.184   1.118 -0.1831 -0.0985 -0.2168
    3TTP     C3 4495   2.552   6.265   1.233 -0.0734 -0.0712 -0.2121
    3TTP     C4 4496   2.507   6.410   1.437  0.1196 -0.0226 -0.2036
    3TTP    C17 4497   2.531   6.280   1.470  0.2424  0.0032 -0.1873
    3TTP    C18 4498   2.556   6.199   1.355  0.1328 -0.0242 -0.1922
    3TTP    C32 4499   2.564   6.246   0.982 -0.0112 -0.4970 -0.0238
    3TTP    C33 4500   2.612   6.386   0.947  0.1903 -0.4568  0.4913
    3TTP    C34 4501   2.601   6.409   0.796 -0.1521 -0.1857 -0.6239
    3TTP    C35 4502   2.670   6.527   0.745 -0.3996  0.1717  0.3411
    3TTP    C36 4503   2.629   6.536   0.599  0.4575 -0.5724 -0.2353
    3TTP    C37 4504   2.694   6.637   0.514 -0.5111 -0.1087 -0.0227
    3TTP    C38 4505   2.630   6.648   0.379 -0.2046 -0.5711 -0.5341
    3TTP    C39 4506   2.718   6.727   0.277 -0.1679 -0.1391  0.1622
    3TTP    C40 4507   2.854   6.660   0.237  0.1956  0.4474 -0.3175
    3TTP    C41 4508   2.933   6.724   0.124  0.7242  0.1752  0.3018
    3TTP    C42 4509   3.068   6.652   0.094 -0.1364 -0.1769 -0.0111
    4FIC     F1 4510   2.200   5.817   2.825  0.3000  0.0428  0.1566
    4FIC     F2 4511   2.188   5.969   3.051  0.4119  0.1547  0.0872
    4FIC     O1 4512   2.374   6.181   2.465  0.0391 -0.1148 -0.1295
    4FIC     N5 4513   2.295   6.447   3.117  0.3867  0.2033 -0.2166
    4FIC     N6 4514   2.433   6.701   2.790  0.1604  0.0575 -0.4262
    4FIC    C19 4515   2.425   6.456   2.552  0.0533 -0.0639 -0.2974
    4FIC    C20 4516   2.381   6.358   2.634  0.1146 -0.0286 -0.2228
    4FIC    C21 4517   2.358   6.219   2.581  0.1026 -0.0582 -0.1389
    4FIC    C22 4518   2.311   6.139   2.696  0.1807 -0.0068 -0.0711
    4FIC    C23 4519   2.277   6.004   2.697  0.1993 -0.0113  0.0171
    4FIC    C24 4520   2.236   5.949   2.817  0.2775  0.0440  0.0688
    4FIC    C25 4521   2.230   6.028   2.933  0.3350  0.1014  0.0329
    4FIC    C26 4522   2.264   6.163   2.933  0.3170  0.1062 -0.0551
    4FIC    C27 4523   2.306   6.220   2.812  0.2381  0.0508 -0.1085
    4FIC    C28 4524   2.349   6.358   2.778  0.1997  0.0398 -0.2031
    4FIC    C29 4525   2.356   6.464   2.865  0.2360  0.0845 -0.2614
    4FIC    C30 4526   2.322   6.455   3.003  0.3189  0.1496 -0.2365
    4FIC    C31 4527   2.399   6.594   2.823  0.1943  0.0694 -0.3517
    5FIC     F1 4528   2.810   5.253   1.138 -0.0407  0.1010 -0.0941
    5FIC     F2 4529   2.864   5.278   0.872  0.0132  0.0944 -0.0837
    5FIC     O1 4530   2.642   5.754   1.257 -0.2595  0.0495 -0.1849
    5FIC     N5 4531   2.822   5.672   0.575 -0.0654  0.0488 -0.1336
    5FIC     N6 4532   2.680   6.058   0.722 -0.2472  0.0099 -0.2067
    5FIC    C19 4533   2.634   5.956   1.045 -0.2858  0.0251 -0.2073
    5FIC    C20 4534   2.674   5.829   1.026 -0.2329  0.0384 -0.1849
    5FIC    C21 4535   2.676   5.731   1.140 -0.2227  0.0504 -0.1746
    5FIC    C22 4536   2.724   5.603   1.084 -0.1610  0.0631 -0.1500
    5FIC    C23 4537   2.742   5.483   1.152 -0.1313  0.0767 -0.1335
    5FIC    C24 4538   2.789   5.375   1.078 -0.0727  0.0871 -0.1113
    5FIC    C25 4539   2.817   5.389   0.941 -0.0450  0.0838 -0.1060
    5FIC    C26 4540   2.799   5.508   0.873 -0.0744  0.0701 -0.1225
    5FIC    C27 4541   2.752   5.618   0.946 -0.1336  0.0595 -0.1450
    5FIC    C28 4542   2.722   5.758   0.905 -0.1768  0.0441 -0.1662
    5FIC    C29 4543   2.736   5.811   0.779 -0.1667  0.0367 -0.1682
    5FIC    C30 4544   2.783   5.734   0.667 -0.1110  0.0434 -0.1492
    5FIC    C31 4545   2.705   5.947   0.748 -0.2110  0.0219 -0.1894
    1BTD     S2 4546   2.156   6.430   1.660  0.0687 -0.0830  0.0282
    1BTD     N1 4547   2.132   6.462   1.835  0.2619 -0.0418  0.0477
    1BTD     N2 4548   2.149   6.603   1.612 -0.0622 -0.1001 -0.0149
    1BTD     N3 4549   2.092   7.015   1.830  0.0198 -0.0609 -0.0676
    1BTD     N4 4550   2.070   6.842   2.105  0.4193  0.0112  0.0095
    1BTD     C5 4551   2.100   6.662   1.973  0.3393 -0.0151  0.0269
    1BTD     C6 4552   2.120   6.594   1.848  0.2210 -0.0430  0.0224
    1BTD     C7 4553   2.130   6.672   1.723  0.0396 -0.0755 -0.0126
    1BTD     C8 4554   2.119   6.816   1.729 -0.0145 -0.0789 -0.0415
    1BTD    C15 4555   2.099   6.878   1.853  0.1057 -0.0507 -0.0359
    1BTD    C16 4556   2.089   6.803   1.974  0.2806 -0.0195 -0.0021
    1BTD    C43 4557   1.990   6.962   2.144  0.3574  0.7978 -0.2437
    1BTD    C44 4558   2.004   7.038   2.277 -0.0325 -0.4010 -0.0109
    1BTD    C45 4559   2.144   7.107   2.296  0.6635  0.1810  0.3453
    1BTD    C46 4560   2.159   7.153   2.444 -0.3130  0.0734 -0.1565
    1BTD    C47 4561   1.886   7.135   2.295 -0.7383  0.1355 -0.1258
    1BTD    C48 4562   1.872   7.253   2.196 -0.7542  0.1573 -0.3271
    1BTD    C49 4563   1.759   7.337   2.236 -0.4046 -0.6615 -0.2673
    1BTD    C50 4564   1.750   7.470   2.164 -0.1116 -0.2718 -0.1098
    1BTD    C75 4565   2.126   7.126   1.921  0.8153  0.0459  0.8676
    1BTD    C76 4566   2.268   7.184   1.935  0.3139  0.3120  0.2013
    1BTD    C77 4567   2.371   7.072   1.944  0.0286  0.0443  0.0710
    1BTD    C78 4568   2.512   7.098   1.980 -1.3340  0.0334  0.4267
    1BTD    C79 4569   2.288   7.303   2.037  0.1576  0.2229 -0.0050
    1BTD    C80 4570   2.198   7.423   2.009  0.1013 -0.2877 -0.4253
    1BTD    C81 4571   2.242   7.554   2.076  0.3649  0.1882  0.1578
    1BTD    C82 4572   2.304   7.547   2.217  0.0366 -0.2255 -0.2143
    2TTP     S1 4573   2.085   6.460   2.201 -0.1665 -0.1612  0.1584
    2TTP     S5 4574   2.022   6.788   2.472  0.2596 -0.0036  0.0681
    2TTP     C1 4575   2.022   6.633   2.567  0.1454  0.0302  0.1226
    2TTP     C2 4576   2.041   6.523   2.489  0.0070 -0.0166  0.1537
    2TTP     C3 4577   2.057   6.557   2.351 -0.0136 -0.0807  0.1356
    2TTP     C4 4578   2.085   6.615   2.106 -0.0523 -0.1950  0.1039
    2TTP    C17 4579   2.066   6.726   2.184  0.0861 -0.1482  0.0728
    2TTP    C18 4580   2.050   6.692   2.322  0.1069 -0.0842  0.0909
    2TTP    C32 4581   2.040   6.371   2.515 -0.9254  0.6380  0.0150
    2TTP    C33 4582   1.918   6.293   2.465 -0.2325  0.1498  0.5968
    2TTP    C34 4583   1.910   6.140   2.486 -0.2328  0.4792  0.4103
    2TTP    C35 4584   1.888   6.094   2.625  0.3549  0.0169 -0.6327
    2TTP    C36 4585   1.865   5.949   2.623  0.6801  0.0242  0.0231
    2TTP    C37 4586   1.865   5.892   2.766  0.0211 -0.4738 -0.3920
    2TTP    C38 4587   1.770   5.941   2.875  0.4691 -0.1869  0.4926
    2TTP    C39 4588   1.824   5.922   3.015  0.3873 -0.3425  0.3112
    2TTP    C40 4589   1.748   5.987   3.138 -0.7949  0.2724  0.3151
    2TTP    C41 4590   1.721   6.138   3.124 -0.0344 -0.3412 -1.0316
    2TTP    C42 4591   1.638   6.192   3.239  0.4482  0.0216  0.0957
    3TTP     S1 4592   2.124   6.940   1.448  0.1851  0.2317 -0.1494
    3TTP     S5 4593   2.031   7.322   1.623  0.0452  0.3186 -0.4118
    3TTP     C1 4594   2.035   7.340   1.442  0.1795  0.2270 -0.4184
    3TTP     C2 4595   2.064   7.224   1.377  0.2307  0.1948 -0.3378
    3TTP     C3 4596   2.084   7.115   1.468  0.1656  0.2412 -0.2679
    3TTP     C4 4597   2.120   6.921   1.629  0.0509  0.3232 -0.1428
    3TTP    C17 4598   2.091   7.038   1.693 -0.0003  0.3556 -0.2233
    3TTP    C18 4599   2.071   7.146   1.603  0.0648  0.3090 -0.2933
    3TTP    C32 4600   2.070   7.209   1.225 -0.4006  0.6210 -0.1539
    3TTP    C33 4601   2.170   7.110   1.160  0.2146 -0.0342  0.6041
    3TTP    C34 4602   2.313   7.134   1.187 -0.4705 -0.4008 -0.7812
    3TTP    C35 4603   2.412   7.034   1.120  0.7223  0.1952 -1.2009
    3TTP    C36 4604   2.432   7.053   0.968  0.3759 -0.0334 -0.3552
    3TTP    C37 4605   2.539   6.964   0.925 -0.8377  0.3886  0.3403
    3TTP    C38 4606   2.574   6.962   0.776 -0.6230 -0.1054  0.3543
    3TTP    C39 4607   2.481   6.894   0.672 -0.1489 -0.3181  0.1223
    3TTP    C40 4608   2.345   6.957   0.640 -0.3178 -0.2754  0.4297
    3TTP    C41 4609   2.231   6.868   0.576 -0.1950 -0.0090 -0.1313
    3TTP    C42 4610   2.256   6.826   0.429  0.4122 -0.1622 -0.6249
    4FIC     F1 4611   2.188   7.139   3.189  0.0130  0.2384 -0.0944
    4FIC     F2 4612   2.093   6.950   3.360  0.1346  0.2362 -0.0300
    4FIC     O1 4613   2.128   6.886   2.714 -0.0979  0.1513 -0.0339
    4FIC     N5 4614   1.915   6.498   3.269  0.2304  0.1708  0.1057
    4FIC     N6 4615   1.887   6.338   2.863  0.1193  0.1032  0.1401
    4FIC    C19 4616   2.016   6.615   2.709 -0.0211  0.1181  0.0492
    4FIC    C20 4617   2.035   6.686   2.822  0.0021  0.1402  0.0314
    4FIC    C21 4618   2.093   6.825   2.816 -0.0404  0.1562 -0.0113
    4FIC    C22 4619   2.100   6.873   2.956 -0.0004  0.1786 -0.0211
    4FIC    C23 4620   2.146   6.996   3.000 -0.0187  0.1987 -0.0573
    4FIC    C24 4621   2.143   7.020   3.137  0.0277  0.2180 -0.0595
    4FIC    C25 4622   2.094   6.922   3.225  0.0903  0.2166 -0.0262
    4FIC    C26 4623   2.048   6.799   3.181  0.1090  0.1967  0.0099
    4FIC    C27 4624   2.050   6.774   3.043  0.0626  0.1770  0.0127
    4FIC    C28 4625   2.009   6.655   2.965  0.0666  0.1534  0.0464
    4FIC    C29 4626   1.956   6.538   3.015  0.1200  0.1454  0.0840
    4FIC    C30 4627   1.934   6.516   3.154  0.1805  0.1595  0.0958
    4FIC    C31 4628   1.918   6.429   2.931  0.1193  0.1223  0.1147
    5FIC     F1 4629   1.915   8.133   1.639  0.3333 -0.1681  0.1109
    5FIC     F2 4630   1.932   8.194   1.375 -0.1795 -0.1221  0.0865
    5FIC     O1 4631   1.981   7.596   1.625  0.5642 -0.1346 -0.0840
    5FIC     N5 4632   2.003   7.899   0.984 -0.7523 -0.0327 -0.0875
    5FIC     N6 4633   2.052   7.467   1.026 -0.4684 -0.0157 -0.2348
    5FIC    C19 4634   2.021   7.463   1.367  0.1563 -0.0791 -0.1766
    5FIC    C20 4635   2.003   7.596   1.381  0.1182 -0.0892 -0.1265
    5FIC    C21 4636   1.983   7.657   1.517  0.3376 -0.1181 -0.0810
    5FIC    C22 4637   1.968   7.802   1.496  0.2301 -0.1224 -0.0327
    5FIC    C23 4638   1.947   7.900   1.593  0.3598 -0.1459  0.0193
    5FIC    C24 4639   1.935   8.031   1.549  0.2171 -0.1453  0.0586
    5FIC    C25 4640   1.944   8.062   1.413 -0.0470 -0.1218  0.0460
    5FIC    C26 4641   1.965   7.965   1.316 -0.1777 -0.0982 -0.0058
    5FIC    C27 4642   1.977   7.832   1.358 -0.0365 -0.0985 -0.0462
    5FIC    C28 4643   1.999   7.706   1.282 -0.1158 -0.0771 -0.1044
    5FIC    C29 4644   2.013   7.695   1.145 -0.3595 -0.0510 -0.1323
    5FIC    C30 4645   2.008   7.807   1.057 -0.5746 -0.0411 -0.1076
    5FIC    C31 4646   2.034   7.570   1.080 -0.4181 -0.0318 -0.1886
    1BTD     S2 4647   1.849   3.539   1.159  0.2865 -0.0916  0.1922
    1BTD     N1 4648   1.859   3.591   0.987  0.0785 -0.0957  0.1782
    1BTD     N2 4649   1.842   3.707   1.224  0.4278 -0.0888  0.2014
    1BTD     N3 4650   1.845   4.141   1.045  0.3401 -0.0910  0.1949
    1BTD     N4 4651   1.867   3.998   0.754 -0.0903 -0.0994  0.1664
    1BTD     C5 4652   1.863   3.805   0.869 -0.0045 -0.0975  0.1724
    1BTD     C6 4653   1.857   3.723   0.987  0.1228 -0.0950  0.1810
    1BTD     C7 4654   1.847   3.788   1.119  0.3183 -0.0911  0.1939
    1BTD     C8 4655   1.844   3.932   1.127  0.3768 -0.0901  0.1976
    1BTD    C15 4656   1.850   4.008   1.009  0.2474 -0.0926  0.1889
    1BTD    C16 4657   1.859   3.945   0.881  0.0590 -0.0963  0.1764
    1BTD    C43 4658   1.835   4.135   0.700  0.2903 -0.1568 -0.5027
    1BTD    C44 4659   1.688   4.173   0.675  0.0778  0.7103  0.1046
    1BTD    C45 4660   1.671   4.310   0.593 -0.8064  0.6706 -0.1535
    1BTD    C46 4661   1.757   4.351   0.471  0.6652 -0.7748  0.3343
    1BTD    C47 4662   1.587   4.158   0.789  0.4886  0.3737  0.2340
    1BTD    C48 4663   1.439   4.176   0.746 -0.0453  0.3503 -1.0213
    1BTD    C49 4664   1.394   4.066   0.651 -0.3146 -0.1655 -0.4549
    1BTD    C50 4665   1.350   3.937   0.723 -0.8266  0.4397 -0.3089
    1BTD    C75 4666   1.919   4.263   0.991 -0.2590  0.0676 -0.4330
    1BTD    C76 4667   2.066   4.312   1.045  0.2096 -0.2273 -0.0710
    1BTD    C77 4668   2.183   4.222   0.999  0.5537 -0.4417 -0.4183
    1BTD    C78 4669   2.211   4.221   0.851 -0.0885 -0.2840 -0.3166
    1BTD    C79 4670   2.093   4.462   1.036  0.0211 -0.4607 -0.0538
    1BTD    C80 4671   2.234   4.520   1.079  0.2060  0.0990  0.2704
    1BTD    C81 4672   2.260   4.671   1.083  0.0895 -0.5709  0.6048
    1BTD    C82 4673   2.272   4.729   0.941 -0.4057  0.2236 -0.3329
    2TTP     S1 4674   1.881   3.630   0.615 -0.1387 -0.1566 -0.1740
    2TTP     S5 4675   1.904   3.986   0.374  0.3933 -0.0956 -0.0349
    2TTP     C1 4676   1.917   3.841   0.265  0.2777 -0.0714 -0.0808
    2TTP     C2 4677   1.911   3.723   0.333  0.1066 -0.0889 -0.1265
    2TTP     C3 4678   1.895   3.742   0.473  0.0607 -0.1219 -0.1268
    2TTP     C4 4679   1.868   3.775   0.724 -0.0231 -0.1808 -0.1281
    2TTP    C17 4680   1.875   3.893   0.656  0.1480 -0.1633 -0.0825
    2TTP    C18 4681   1.890   3.874   0.515  0.1940 -0.1303 -0.0821
    2TTP    C32 4682   1.929   3.578   0.273 -0.6203 -0.1728  0.0776
    2TTP    C33 4683   1.871   3.450   0.339 -0.1598  0.1376 -0.2292
    2TTP    C34 4684   1.916   3.326   0.265  0.8046  0.9552  0.0418
    2TTP    C35 4685   1.866   3.197   0.333  0.3799  0.1573 -0.7654
    2TTP    C36 4686   1.943   3.080   0.279  0.1192  0.1266 -0.6654
    2TTP    C37 4687   1.895   2.955   0.349  0.0516  0.1731 -0.9418
    2TTP    C38 4688   1.966   2.824   0.317  0.0382 -0.3788 -0.3178
    2TTP    C39 4689   1.905   2.684   0.351 -0.1158 -0.4869  0.1233
    2TTP    C40 4690   1.755   2.679   0.332 -0.2048 -0.0679  0.3603
    2TTP    C41 4691   1.685   2.698   0.194  0.7650 -0.0287  0.2410
    2TTP    C42 4692   1.533   2.674   0.226 -0.3649 -0.6874  1.0518
    3TTP     S1 4693   1.814   4.029   1.418 -0.0057 -0.0636 -0.2338
    3TTP     S5 4694   1.776   4.432   1.273 -0.5929  0.1138  0.4046
    3TTP     C1 4695   1.750   4.433   1.453 -0.4585 -0.1906  0.4258
    3TTP     C2 4696   1.760   4.308   1.509 -0.2693 -0.2633  0.2298
    3TTP     C3 4697   1.789   4.208   1.411 -0.2236 -0.0813  0.0560
    3TTP     C4 4698   1.841   4.029   1.238 -0.1401  0.2408 -0.2551
    3TTP    C17 4699   1.830   4.153   1.183 -0.3294  0.3134 -0.0591
    3TTP    C18 4700   1.802   4.253   1.280 -0.3750  0.1314  0.1147
    3TTP    C32 4701   1.738   4.261   1.657  0.2898 -0.3637  0.1411
    3TTP    C33 4702   1.860   4.205   1.722 -0.1779  0.3434 -0.7043
    3TTP    C34 4703   1.805   4.158   1.860  0.1897  0.7150  0.0673
    3TTP    C35 4704   1.894   4.048   1.930  0.3355 -0.4941  0.4623
    3TTP    C36 4705   1.866   4.028   2.084 -0.0059 -0.6259  0.6732
    3TTP    C37 4706   1.981   3.957   2.160  0.2285 -0.2590  0.2144
    3TTP    C38 4707   2.005   3.809   2.129  0.3869  0.5014 -0.2499
    3TTP    C39 4708   1.903   3.701   2.175 -0.1320  0.5645  0.6383
    3TTP    C40 4709   1.756   3.713   2.147  0.7477 -0.3776  1.0820
    3TTP    C41 4710   1.704   3.720   1.999 -0.2921  0.3808 -0.2942
    3TTP    C42 4711   1.552   3.730   1.986 -0.8660  0.8458 -0.6522
    4FIC     F1 4712   2.138   4.384  -0.314  0.4139 -0.2303  0.1239
    4FIC     F2 4713   2.134   4.180  -0.496 -0.4060 -0.1136  0.0024
    4FIC     O1 4714   1.991   4.121   0.136  0.5629 -0.1462  0.2215
    4FIC     N5 4715   2.024   3.702  -0.435 -1.4784  0.1140 -0.1025
    4FIC     N6 4716   1.910   3.538  -0.046 -1.1967  0.1564 -0.0018
    4FIC    C19 4717   1.936   3.834   0.123 -0.1674 -0.0047  0.1401
    4FIC    C20 4718   1.973   3.908   0.017 -0.1729 -0.0305  0.1203
    4FIC    C21 4719   2.000   4.055   0.031  0.2154 -0.1037  0.1650
    4FIC    C22 4720   2.037   4.105  -0.102  0.1007 -0.1148  0.1283
    4FIC    C23 4721   2.071   4.235  -0.139  0.3571 -0.1745  0.1495
    4FIC    C24 4722   2.103   4.257  -0.272  0.1782 -0.1728  0.1061
    4FIC    C25 4723   2.101   4.152  -0.365 -0.2443 -0.1127  0.0436
    4FIC    C26 4724   2.068   4.022  -0.329 -0.5019 -0.0527  0.0222
    4FIC    C27 4725   2.035   3.998  -0.195 -0.3264 -0.0535  0.0654
    4FIC    C28 4726   1.995   3.873  -0.126 -0.5113  0.0007  0.0579
    4FIC    C29 4727   1.981   3.748  -0.182 -0.9184  0.0668  0.0037
    4FIC    C30 4728   2.005   3.723  -0.321 -1.2249  0.0926 -0.0545
    4FIC    C31 4729   1.942   3.633  -0.107 -1.0692  0.1158  0.0010
    5FIC     F1 4730   1.457   5.180   1.290  0.5729  0.0664  0.1480
    5FIC     F2 4731   1.493   5.245   1.552  0.2183 -0.0948  0.2379
    5FIC     O1 4732   1.625   4.666   1.287  0.4407  0.0236  0.0905
    5FIC     N5 4733   1.665   4.970   1.927 -0.3859 -0.3570  0.3262
    5FIC     N6 4734   1.790   4.555   1.871 -0.4177 -0.3580  0.2632
    5FIC    C19 4735   1.720   4.544   1.536  0.0549 -0.1457  0.1560
    5FIC    C20 4736   1.676   4.671   1.527  0.1020 -0.1286  0.1670
    5FIC    C21 4737   1.629   4.726   1.395  0.3035 -0.0398  0.1314
    5FIC    C22 4738   1.589   4.866   1.420  0.3050 -0.0437  0.1546
    5FIC    C23 4739   1.538   4.958   1.329  0.4596  0.0226  0.1357
    5FIC    C24 4740   1.507   5.084   1.376  0.4263  0.0038  0.1646
    5FIC    C25 4741   1.526   5.117   1.511  0.2435 -0.0794  0.2108
    5FIC    C26 4742   1.576   5.026   1.603  0.0885 -0.1460  0.2300
    5FIC    C27 4743   1.608   4.898   1.557  0.1194 -0.1280  0.2013
    5FIC    C28 4744   1.663   4.779   1.628 -0.0126 -0.1833  0.2107
    5FIC    C29 4745   1.695   4.771   1.761 -0.2042 -0.2692  0.2521
    5FIC    C30 4746   1.678   4.881   1.852 -0.3034 -0.3172  0.2927
    5FIC    C31 4747   1.747   4.653   1.821 -0.3206 -0.3176  0.2580
    1BTD     S2 4748   2.180   3.941   1.188 -0.0669  0.1414 -0.1019
    1BTD     N1 4749   2.216   3.918   1.013 -0.3276  0.0849 -0.1482
    1BTD     N2 4750   2.174   3.765   1.224  0.1751  0.1544  0.0029
    1BTD     N3 4751   2.226   3.365   0.983  0.1974  0.0784  0.1329
    1BTD     N4 4752   2.277   3.555   0.723 -0.4221 -0.0072 -0.0533
    1BTD     C5 4753   2.247   3.726   0.865 -0.3694  0.0378 -0.0964
    1BTD     C6 4754   2.221   3.787   0.992 -0.2262  0.0787 -0.0864
    1BTD     C7 4755   2.198   3.701   1.110  0.0553  0.1177 -0.0018
    1BTD     C8 4756   2.202   3.558   1.095  0.1792  0.1136  0.0685
    1BTD    C15 4757   2.228   3.503   0.968  0.0311  0.0730  0.0557
    1BTD    C16 4758   2.250   3.586   0.855 -0.2399  0.0354 -0.0258
    1BTD    C43 4759   2.386   3.456   0.687  0.1863 -0.3295  0.4961
    1BTD    C44 4760   2.406   3.392   0.555 -0.2245 -0.1847  0.0216
    1BTD    C45 4761   2.290   3.308   0.499  0.1785  0.0668 -0.1359
    1BTD    C46 4762   2.301   3.240   0.364  0.2576  0.4280  0.2681
    1BTD    C47 4763   2.546   3.324   0.541  0.3059 -0.5025 -0.0648
    1BTD    C48 4764   2.668   3.417   0.567  0.1447 -0.0899 -0.2050
    1BTD    C49 4765   2.799   3.354   0.549 -0.3348 -0.4691 -0.2313
    1BTD    C50 4766   2.923   3.442   0.579 -0.4236  0.6991 -0.1313
    1BTD    C75 4767   2.206   3.259   0.877 -0.6683  0.5499 -0.3349
    1BTD    C76 4768   2.068   3.205   0.835 -0.3234 -0.0499 -0.6380
    1BTD    C77 4769   1.966   3.319   0.798  0.1704  0.3107 -0.4106
    1BTD    C78 4770   1.823   3.273   0.780  0.0649 -0.3379 -0.8271
    1BTD    C79 4771   2.073   3.087   0.739 -0.1400  0.0974  0.8869
    1BTD    C80 4772   2.074   2.953   0.820 -0.2338 -0.8392 -0.6293
    1BTD    C81 4773   2.027   2.828   0.744  0.4583  0.2130  0.9077
    1BTD    C82 4774   2.062   2.702   0.817 -0.3502 -0.3321  0.0363
    2TTP     S1 4775   2.279   3.942   0.653 -0.1142 -0.0869  0.1600
    2TTP     S5 4776   2.295   3.633   0.354  0.0430  0.0320  0.0451
    2TTP     C1 4777   2.297   3.795   0.270 -0.1573  0.0634  0.1001
    2TTP     C2 4778   2.292   3.900   0.358 -0.2177  0.0286  0.1388
    2TTP     C3 4779   2.287   3.856   0.494 -0.1079 -0.0242  0.1265
    2TTP     C4 4780   2.277   3.780   0.736  0.0861 -0.1184  0.1051
    2TTP    C17 4781   2.282   3.675   0.649  0.1465 -0.0836  0.0663
    2TTP    C18 4782   2.287   3.719   0.513  0.0367 -0.0308  0.0787
    2TTP    C32 4783   2.299   4.046   0.314 -0.1299 -0.2217 -0.5023
    2TTP    C33 4784   2.414   4.136   0.364 -0.5734  0.4294 -0.1917
    2TTP    C34 4785   2.383   4.285   0.343  0.1042 -0.0048 -0.0745
    2TTP    C35 4786   2.281   4.342   0.443  0.5090 -0.3022 -0.3067
    2TTP    C36 4787   2.252   4.490   0.421  0.2474 -0.6028 -0.1822
    2TTP    C37 4788   2.369   4.600   0.418 -0.5548  0.3493 -0.0794
    2TTP    C38 4789   2.321   4.746   0.414  0.5671 -0.4309 -0.4949
    2TTP    C39 4790   2.435   4.847   0.375  1.2061 -0.0133 -0.1934
    2TTP    C40 4791   2.395   4.995   0.373  0.6544  0.0818  0.0973
    2TTP    C41 4792   2.304   5.039   0.256  0.1261  0.3004 -0.4026
    2TTP    C42 4793   2.261   5.188   0.254  0.0396  0.1578 -0.9539
    3TTP     S1 4794   2.191   3.427   1.372 -0.0887  0.0459  0.0472
    3TTP     S5 4795   2.268   3.048   1.184 -0.2186 -0.0467  0.1802
    3TTP     C1 4796   2.267   3.025   1.365 -0.4765 -0.0306  0.1814
    3TTP     C2 4797   2.243   3.140   1.433 -0.4516 -0.0010  0.1405
    3TTP     C3 4798   2.225   3.252   1.346 -0.2279  0.0100  0.1066
    3TTP     C4 4799   2.192   3.451   1.192  0.1693  0.0299  0.0460
    3TTP    C17 4800   2.216   3.336   1.123  0.1444  0.0002  0.0870
    3TTP    C18 4801   2.234   3.224   1.211 -0.0794 -0.0108  0.1208
    3TTP    C32 4802   2.250   3.155   1.590  0.2239 -0.0704  1.0858
    3TTP    C33 4803   2.175   3.261   1.667 -0.0508  0.1266  0.2251
    3TTP    C34 4804   2.024   3.270   1.662  0.4779 -0.0016  0.3784
    3TTP    C35 4805   1.973   3.385   1.759  0.1862 -0.2438 -0.3694
    3TTP    C36 4806   1.830   3.434   1.728  0.0364 -0.4819 -0.2425
    3TTP    C37 4807   1.819   3.507   1.592 -0.0634 -0.8308  0.1098
    3TTP    C38 4808   1.910   3.626   1.554 -0.4861 -0.0344  0.1403
    3TTP    C39 4809   1.910   3.745   1.648  0.3166 -0.1192 -0.2469
    3TTP    C40 4810   2.009   3.854   1.613 -0.0810 -0.3333  0.0579
    3TTP    C41 4811   2.158   3.817   1.627 -0.4316 -0.8209  0.4451
    3TTP    C42 4812   2.196   3.772   1.769 -0.7923  0.8343 -0.9923
    4FIC     F1 4813   2.281   3.320  -0.407 -0.7632  0.2242 -0.1051
    4FIC     F2 4814   2.385   3.529  -0.548  0.4203 -0.1872  0.1330
    4FIC     O1 4815   2.238   3.541   0.085 -1.1144  0.4277 -0.2270
    4FIC     N5 4816   2.503   3.986  -0.400  1.8715 -0.6336  0.3886
    4FIC     N6 4817   2.448   4.117   0.013  1.3584 -0.3918  0.2454
    4FIC    C19 4818   2.321   3.819   0.125 -0.1085  0.1070 -0.0427
    4FIC    C20 4819   2.328   3.755   0.007 -0.0664  0.0718 -0.0214
    4FIC    C21 4820   2.283   3.613  -0.006 -0.6036  0.2447 -0.1208
    4FIC    C22 4821   2.304   3.574  -0.147 -0.4028  0.1537 -0.0671
    4FIC    C23 4822   2.277   3.452  -0.206 -0.7427  0.2537 -0.1241
    4FIC    C24 4823   2.305   3.439  -0.342 -0.4539  0.1352 -0.0545
    4FIC    C25 4824   2.359   3.547  -0.414  0.1559 -0.0768  0.0681
    4FIC    C26 4825   2.386   3.669  -0.355  0.4977 -0.1776  0.1256
    4FIC    C27 4826   2.358   3.684  -0.218  0.2131 -0.0601  0.0567
    4FIC    C28 4827   2.375   3.799  -0.127  0.4442 -0.1189  0.0896
    4FIC    C29 4828   2.424   3.923  -0.160  1.0210 -0.3128  0.2016
    4FIC    C30 4829   2.467   3.957  -0.292  1.4867 -0.4886  0.3040
    4FIC    C31 4830   2.437   4.029  -0.065  1.2033 -0.3552  0.2251
    5FIC     F1 4831   2.501   2.280   1.113 -0.2966 -0.2261 -0.2328
    5FIC     F2 4832   2.451   2.186   1.364 -0.0281 -0.1799 -0.1611
    5FIC     O1 4833   2.384   2.805   1.175 -0.1382 -0.1972 -0.1775
    5FIC     N5 4834   2.295   2.425   1.768  0.4708 -0.0931 -0.0186
    5FIC     N6 4835   2.213   2.855   1.765  0.5404 -0.0799  0.0102
    5FIC    C19 4836   2.294   2.902   1.436  0.1745 -0.1428 -0.0893
    5FIC    C20 4837   2.325   2.773   1.411  0.1242 -0.1519 -0.1061
    5FIC    C21 4838   2.371   2.731   1.274 -0.0383 -0.1802 -0.1516
    5FIC    C22 4839   2.397   2.586   1.281 -0.0545 -0.1833 -0.1594
    5FIC    C23 4840   2.441   2.502   1.179 -0.1846 -0.2061 -0.1971
    5FIC    C24 4841   2.458   2.368   1.210 -0.1723 -0.2044 -0.1967
    5FIC    C25 4842   2.432   2.320   1.339 -0.0338 -0.1807 -0.1597
    5FIC    C26 4843   2.388   2.403   1.441  0.0964 -0.1579 -0.1220
    5FIC    C27 4844   2.370   2.539   1.412  0.0862 -0.1592 -0.1217
    5FIC    C28 4845   2.325   2.652   1.497  0.2015 -0.1390 -0.0875
    5FIC    C29 4846   2.290   2.646   1.630  0.3513 -0.1131 -0.0465
    5FIC    C30 4847   2.293   2.525   1.705  0.4165 -0.1022 -0.0313
    5FIC    C31 4848   2.248   2.761   1.704  0.4544 -0.0949 -0.0156
    1BTD     S2 4849   4.659   1.268   1.581 -0.1759  0.0945  0.2560
    1BTD     N1 4850   4.635   1.230   1.755  0.5955  0.1050  0.3736
    1BTD     N2 4851   4.680   1.096   1.532 -0.9031  0.0499  0.0821
    1BTD     N3 4852   4.679   0.678   1.745 -0.9923 -0.0221 -0.0597
    1BTD     N4 4853   4.623   0.842   2.020  0.8541  0.0456  0.2995
    1BTD     C5 4854   4.629   1.025   1.890  0.7081  0.0732  0.3306
    1BTD     C6 4855   4.643   1.098   1.767  0.2871  0.0761  0.2820
    1BTD     C7 4856   4.669   1.023   1.642 -0.5517  0.0453  0.1188
    1BTD     C8 4857   4.679   0.880   1.646 -0.9274  0.0131  0.0124
    1BTD    C15 4858   4.664   0.813   1.770 -0.4918  0.0114  0.0651
    1BTD    C16 4859   4.640   0.885   1.890  0.3162  0.0411  0.2224
    1BTD    C43 4860   4.554   0.717   2.069 -0.3933 -0.3230  0.5641
    1BTD    C44 4861   4.572   0.645   2.202  0.7989  0.7187  0.2143
    1BTD    C45 4862   4.462   0.533   2.216 -0.5230 -0.5390 -0.3880
    1BTD    C46 4863   4.310   0.568   2.211  0.2451 -0.1114 -0.4053
    1BTD    C47 4864   4.717   0.595   2.241 -0.2264 -0.7238 -1.0621
    1BTD    C48 4865   4.826   0.704   2.252  0.6234  0.0377 -0.2586
    1BTD    C49 4866   4.962   0.641   2.284 -0.4327 -0.1381 -0.5258
    1BTD    C50 4867   5.070   0.744   2.291 -0.2410  0.3012 -0.3289
    1BTD    C75 4868   4.726   0.571   1.843  0.5570  0.3239 -0.0576
    1BTD    C76 4869   4.637   0.438   1.848 -0.3423 -0.5117  0.5690
    1BTD    C77 4870   4.485   0.462   1.837  0.1422 -0.2367  0.6501
    1BTD    C78 4871   4.394   0.333   1.825 -0.5638 -1.2300 -0.2181
    1BTD    C79 4872   4.693   0.348   1.960  0.2604  0.1705  0.6301
    1BTD    C80 4873   4.832   0.283   1.964 -0.1383 -0.5633  0.2307
    1BTD    C81 4874   4.858   0.180   1.853  0.3498  0.4852  0.2780
    1BTD    C82 4875   5.000   0.133   1.865 -0.1014 -0.5516 -0.1388
    2TTP     S1 4876   4.620   1.223   2.120  0.0783  0.1830 -0.0609
    2TTP     S5 4877   4.602   0.894   2.396 -0.1680  0.0761 -0.2034
    2TTP     C1 4878   4.609   1.049   2.491 -0.3161  0.0428 -0.1370
    2TTP     C2 4879   4.615   1.160   2.411 -0.2487  0.0739 -0.0891
    2TTP     C3 4880   4.614   1.126   2.272 -0.0776  0.1251 -0.1031
    2TTP     C4 4881   4.613   1.068   2.025  0.2266  0.2163 -0.1273
    2TTP    C17 4882   4.607   0.957   2.105  0.1591  0.1852 -0.1752
    2TTP    C18 4883   4.608   0.991   2.244 -0.0119  0.1340 -0.1612
    2TTP    C32 4884   4.615   1.307   2.463  0.5440  0.0038 -0.0224
    2TTP    C33 4885   4.674   1.429   2.398 -0.4437  0.4424 -0.4333
    2TTP    C34 4886   4.660   1.567   2.475  0.3475  0.6049 -0.0351
    2TTP    C35 4887   4.516   1.611   2.513  0.2809  0.6714  0.3801
    2TTP    C36 4888   4.498   1.736   2.599  0.0770  0.4252  0.6866
    2TTP    C37 4889   4.573   1.737   2.723  0.1177  0.1678  0.2168
    2TTP    C38 4890   4.542   1.864   2.804 -0.1127 -0.6707 -0.0606
    2TTP    C39 4891   4.588   1.872   2.953 -1.2699 -0.4335  0.4154
    2TTP    C40 4892   4.556   2.001   3.021 -0.3892  0.0678  0.0997
    2TTP    C41 4893   4.594   1.989   3.165  0.5433 -0.4387 -0.6894
    2TTP    C42 4894   4.556   2.112   3.245  0.3288 -0.4542 -0.1778
    3TTP     S1 4895   4.741   0.765   1.368 -0.1560 -0.2437 -0.1404
    3TTP     S5 4896   4.744   0.369   1.535  0.0788 -0.2216 -0.0915
    3TTP     C1 4897   4.784   0.357   1.358  0.0234 -0.2262 -0.1036
    3TTP     C2 4898   4.785   0.479   1.295 -0.0526 -0.2333 -0.1194
    3TTP     C3 4899   4.755   0.586   1.386 -0.0696 -0.2354 -0.1226
    3TTP     C4 4900   4.702   0.777   1.545 -0.1005 -0.2391 -0.1283
    3TTP    C17 4901   4.701   0.655   1.607 -0.0247 -0.2321 -0.1125
    3TTP    C18 4902   4.731   0.548   1.517 -0.0076 -0.2300 -0.1093
    3TTP    C32 4903   4.810   0.512   1.148 -0.1691  0.3798  0.0568
    3TTP    C33 4904   4.687   0.572   1.075 -0.2984 -0.4024 -0.8027
    3TTP    C34 4905   4.721   0.612   0.935 -0.9185  0.0623 -0.7282
    3TTP    C35 4906   4.600   0.666   0.875 -0.4277  0.3385 -0.0932
    3TTP    C36 4907   4.627   0.754   0.749  0.0372 -0.6290 -0.7272
    3TTP    C37 4908   4.518   0.770   0.646 -0.3860  0.5907 -0.0559
    3TTP    C38 4909   4.577   0.833   0.522  0.0178  0.5186  0.1277
    3TTP    C39 4910   4.489   0.838   0.401  0.5229 -0.0080  0.8243
    3TTP    C40 4911   4.542   0.884   0.263  0.4843  0.0923  0.3752
    3TTP    C41 4912   4.659   0.804   0.203 -0.1318  0.6980 -1.0340
    3TTP    C42 4913   4.702   0.833   0.066  0.3177 -0.4363  0.1084
    4FIC     F1 4914   4.572   0.506   3.099 -0.4038 -0.0026  0.1419
    4FIC     F2 4915   4.518   0.710   3.272  0.0801  0.0892  0.1870
    4FIC     O1 4916   4.632   0.779   2.635 -0.4920 -0.1208  0.0609
    4FIC     N5 4917   4.484   1.196   3.190  0.7126  0.1369  0.1938
    4FIC     N6 4918   4.541   1.369   2.793  0.5462  0.0260  0.1213
    4FIC    C19 4919   4.602   1.070   2.636 -0.0610 -0.0752  0.0750
    4FIC    C20 4920   4.589   0.994   2.746 -0.0578 -0.0490  0.0937
    4FIC    C21 4921   4.606   0.845   2.738 -0.2868 -0.0752  0.0848
    4FIC    C22 4922   4.585   0.793   2.874 -0.2191 -0.0359  0.1101
    4FIC    C23 4923   4.591   0.660   2.916 -0.3704 -0.0420  0.1122
    4FIC    C24 4924   4.568   0.635   3.051 -0.2645  0.0007  0.1383
    4FIC    C25 4925   4.540   0.740   3.140 -0.0155  0.0480  0.1614
    4FIC    C26 4926   4.535   0.872   3.098  0.1366  0.0544  0.1594
    4FIC    C27 4927   4.557   0.900   2.962  0.0330  0.0115  0.1332
    4FIC    C28 4928   4.559   1.028   2.887  0.1420  0.0053  0.1240
    4FIC    C29 4929   4.536   1.153   2.939  0.3822  0.0428  0.1406
    4FIC    C30 4930   4.507   1.176   3.077  0.5631  0.0944  0.1698
    4FIC    C31 4931   4.539   1.271   2.858  0.4710  0.0333  0.1299
    5FIC     F1 4932   4.832  -0.444   1.549 -0.4470 -0.2466 -0.0971
    5FIC     F2 4933   4.848  -0.499   1.283  0.1265 -0.1601 -0.0830
    5FIC     O1 4934   4.802   0.096   1.539 -0.3173 -0.2374  0.0186
    5FIC     N5 4935   4.850  -0.193   0.894  1.0438 -0.0291  0.0198
    5FIC     N6 4936   4.823   0.240   0.940  1.0295 -0.0394  0.1073
    5FIC    C19 4937   4.807   0.236   1.282  0.2767 -0.1515  0.0731
    5FIC    C20 4938   4.814   0.102   1.295  0.2217 -0.1572  0.0435
    5FIC    C21 4939   4.811   0.038   1.431 -0.0900 -0.2024  0.0167
    5FIC    C22 4940   4.820  -0.108   1.408 -0.0705 -0.1968 -0.0120
    5FIC    C23 4941   4.821  -0.209   1.504 -0.3018 -0.2294 -0.0428
    5FIC    C24 4942   4.830  -0.340   1.459 -0.2291 -0.2160 -0.0662
    5FIC    C25 4943   4.838  -0.368   1.322  0.0667 -0.1714 -0.0588
    5FIC    C26 4944   4.838  -0.268   1.226  0.2985 -0.1388 -0.0283
    5FIC    C27 4945   4.828  -0.135   1.269  0.2295 -0.1516 -0.0042
    5FIC    C28 4946   4.825  -0.007   1.194  0.4206 -0.1255  0.0302
    5FIC    C29 4947   4.830   0.008   1.058  0.7240 -0.0806  0.0466
    5FIC    C30 4948   4.841  -0.103   0.968  0.8987 -0.0525  0.0318
    5FIC    C31 4949   4.826   0.136   0.994  0.8901 -0.0581  0.0799
    1BTD     S2 4950   4.338   0.807   1.712  0.2024  0.0205 -0.0494
    1BTD     N1 4951   4.299   0.878   1.873  0.3371 -0.0668  0.0231
    1BTD     N2 4952   4.324   0.962   1.623 -0.0470  0.0381  0.0173
    1BTD     N3 4953   4.226   1.409   1.730 -0.3122 -0.0837  0.2841
    1BTD     N4 4954   4.194   1.305   2.038  0.1612 -0.2129  0.2913
    1BTD     C5 4955   4.245   1.103   1.955  0.2396 -0.1416  0.1631
    1BTD     C6 4956   4.279   1.008   1.852  0.1963 -0.0778  0.0898
    1BTD     C7 4957   4.293   1.055   1.713 -0.0185 -0.0190  0.0866
    1BTD     C8 4958   4.273   1.194   1.683 -0.1799 -0.0270  0.1567
    1BTD    C15 4959   4.240   1.283   1.787 -0.1304 -0.0904  0.2270
    1BTD    C16 4960   4.226   1.238   1.921  0.0768 -0.1470  0.2302
    1BTD    C43 4961   4.091   1.407   2.054  0.1054 -0.2339  0.1999
    1BTD    C44 4962   4.089   1.519   2.163 -1.1843 -0.3344  0.0180
    1BTD    C45 4963   4.232   1.598   2.162  0.4095 -0.2245  0.2532
    1BTD    C46 4964   4.264   1.714   2.259 -0.5354 -0.1436 -0.0163
    1BTD    C47 4965   3.969   1.604   2.159 -0.2288 -0.8543 -0.6388
    1BTD    C48 4966   3.829   1.538   2.164 -0.3373 -0.2425  0.1769
    1BTD    C49 4967   3.788   1.443   2.282  0.5183 -0.0451 -0.3199
    1BTD    C50 4968   3.775   1.509   2.420  0.0403 -0.2287 -0.5034
    1BTD    C75 4969   4.225   1.546   1.791 -1.9204  0.4187 -0.5592
    1BTD    C76 4970   4.372   1.602   1.824  0.8226  0.5971  0.3139
    1BTD    C77 4971   4.472   1.511   1.897 -0.5389 -0.4067 -0.8388
    1BTD    C78 4972   4.610   1.565   1.931 -0.4060  0.3386 -0.4089
    1BTD    C79 4973   4.362   1.756   1.859  0.1452  0.7743  0.3085
    1BTD    C80 4974   4.268   1.847   1.770  0.1723  0.3560 -0.9633
    1BTD    C81 4975   4.236   1.989   1.824  0.1743 -0.4033 -0.1254
    1BTD    C82 4976   4.106   2.055   1.772 -0.1109 -0.3076  0.3532
    2TTP     S1 4977   4.246   0.963   2.220 -0.0801  0.1784 -0.3316
    2TTP     S5 4978   4.172   1.340   2.414  0.5283 -0.0734  0.3976
    2TTP     C1 4979   4.203   1.214   2.542  0.6763 -0.2952  0.1452
    2TTP     C2 4980   4.227   1.090   2.489  0.4971 -0.2305 -0.0948
    2TTP     C3 4981   4.223   1.090   2.346  0.2367 -0.0034 -0.0882
    2TTP     C4 4982   4.216   1.089   2.092 -0.2279  0.4002 -0.0793
    2TTP    C17 4983   4.191   1.213   2.145 -0.0488  0.3356  0.1608
    2TTP    C18 4984   4.195   1.213   2.288  0.2118  0.1085  0.1541
    2TTP    C32 4985   4.238   0.965   2.561 -0.7451  0.3277 -0.0415
    2TTP    C33 4986   4.160   0.839   2.531  0.5804 -0.7004 -0.1928
    2TTP    C34 4987   4.219   0.723   2.602  0.0298 -0.7699 -0.2155
    2TTP    C35 4988   4.138   0.595   2.577 -0.2269 -0.0510  0.4328
    2TTP    C36 4989   4.184   0.456   2.625 -0.8233  0.3791  0.4831
    2TTP    C37 4990   4.318   0.395   2.574  0.0879  0.7554  0.0595
    2TTP    C38 4991   4.447   0.462   2.599  0.2344 -0.5367  0.0765
    2TTP    C39 4992   4.573   0.386   2.565 -0.6022  0.0026 -0.4259
    2TTP    C40 4993   4.707   0.451   2.605  0.0573  0.4831 -0.0412
    2TTP    C41 4994   4.811   0.346   2.607 -0.1098 -0.4336  0.3162
    2TTP    C42 4995   4.938   0.389   2.682  0.0022  0.3797  0.2704
    3TTP     S1 4996   4.320   1.244   1.385 -0.2720 -0.3038 -0.0602
    3TTP     S5 4997   4.230   1.659   1.451  0.2122 -0.2199  0.0822
    3TTP     C1 4998   4.278   1.637   1.277  0.0058 -0.2490  0.0285
    3TTP     C2 4999   4.309   1.508   1.246 -0.1559 -0.2767 -0.0186
    3TTP     C3 5000   4.295   1.421   1.359 -0.1227 -0.2758 -0.0140
    3TTP     C4 5001   4.272   1.266   1.559 -0.0654 -0.2746 -0.0065
    3TTP    C17 5002   4.242   1.395   1.590  0.0961 -0.2469  0.0406
    3TTP    C18 5003   4.255   1.482   1.477  0.0628 -0.2478  0.0361
    3TTP    C32 5004   4.332   1.449   1.111 -0.8318 -0.1108 -0.1689
    3TTP    C33 5005   4.477   1.419   1.070 -0.6671 -0.2349 -0.1119
    3TTP    C34 5006   4.476   1.347   0.936  0.2477 -0.6180 -0.4717
    3TTP    C35 5007   4.610   1.300   0.885 -0.4113 -0.5194 -0.0771
    3TTP    C36 5008   4.615   1.232   0.755  0.0379  0.3921 -0.1754
    3TTP    C37 5009   4.754   1.176   0.718  0.2409  0.0647 -0.1335
    3TTP    C38 5010   4.769   1.128   0.576 -0.4427  0.3971 -0.4307
    3TTP    C39 5011   4.914   1.080   0.551 -0.5431  0.2897  0.1639
    3TTP    C40 5012   4.945   1.042   0.406  0.5397  0.7025  0.0197
    3TTP    C41 5013   5.051   0.941   0.374 -0.1446  0.3077  0.6231
    3TTP    C42 5014   5.042   0.893   0.227 -0.4388  0.3756 -0.3195
    4FIC     F1 5015   4.190   1.885   3.018  0.2867  0.0226  0.0730
    4FIC     F2 5016   4.168   1.721   3.234 -0.1839 -0.0290 -0.0129
    4FIC     O1 5017   4.215   1.522   2.617  0.3802  0.1363 -0.0243
    4FIC     N5 5018   4.153   1.227   3.259 -0.7932 -0.0221 -0.2059
    4FIC     N6 5019   4.176   0.977   2.902 -0.6251  0.0772 -0.2646
    4FIC    C19 5020   4.202   1.237   2.681 -0.0358  0.1274 -0.1410
    4FIC    C20 5021   4.197   1.335   2.773 -0.0409  0.1008 -0.1131
    4FIC    C21 5022   4.204   1.479   2.732  0.1804  0.1075 -0.0532
    4FIC    C22 5023   4.195   1.558   2.857  0.1124  0.0732 -0.0359
    4FIC    C23 5024   4.198   1.697   2.869  0.2577  0.0660  0.0162
    4FIC    C24 5025   4.188   1.749   2.998  0.1531  0.0315  0.0226
    4FIC    C25 5026   4.177   1.664   3.109 -0.0891  0.0050 -0.0217
    4FIC    C26 5027   4.174   1.526   3.097 -0.2351  0.0119 -0.0737
    4FIC    C27 5028   4.184   1.471   2.968 -0.1326  0.0467 -0.0811
    4FIC    C28 5029   4.184   1.330   2.921 -0.2364  0.0627 -0.1304
    4FIC    C29 5030   4.174   1.218   3.000 -0.4692  0.0453 -0.1820
    4FIC    C30 5031   4.162   1.224   3.142 -0.6466  0.0083 -0.1949
    4FIC    C31 5032   4.175   1.086   2.945 -0.5536  0.0630 -0.2271
    5FIC     F1 5033   4.156   2.451   1.286  0.2292  0.1157  0.0234
    5FIC     F2 5034   4.156   2.448   1.014  0.1190  0.0747  0.0237
    5FIC     O1 5035   4.250   1.929   1.394  0.2427  0.1265  0.0640
    5FIC     N5 5036   4.223   2.072   0.700 -0.0302  0.0235  0.0531
    5FIC     N6 5037   4.297   1.665   0.839  0.0025  0.0402  0.0848
    5FIC    C19 5038   4.284   1.741   1.172  0.1421  0.0911  0.0787
    5FIC    C20 5039   4.260   1.872   1.156  0.1431  0.0900  0.0685
    5FIC    C21 5040   4.244   1.963   1.275  0.1963  0.1089  0.0615
    5FIC    C22 5041   4.219   2.098   1.222  0.1827  0.1023  0.0509
    5FIC    C23 5042   4.198   2.215   1.294  0.2187  0.1143  0.0418
    5FIC    C24 5043   4.177   2.331   1.221  0.1961  0.1046  0.0327
    5FIC    C25 5044   4.177   2.330   1.081  0.1391  0.0836  0.0329
    5FIC    C26 5045   4.198   2.213   1.009  0.1031  0.0715  0.0420
    5FIC    C27 5046   4.220   2.094   1.080  0.1252  0.0809  0.0513
    5FIC    C28 5047   4.245   1.956   1.034  0.0985  0.0726  0.0620
    5FIC    C29 5048   4.252   1.913   0.904  0.0430  0.0525  0.0654
    5FIC    C30 5049   4.236   2.001   0.792  0.0030  0.0366  0.0586
    5FIC    C31 5050   4.277   1.776   0.869  0.0212  0.0458  0.0761
    1BTD     S2 5051   3.108   5.611   1.100 -0.2424 -0.1804 -0.1305
    1BTD     N1 5052   3.128   5.656   0.927  0.0758 -0.1501 -0.0869
    1BTD     N2 5053   3.081   5.779   1.156 -0.3360 -0.1891 -0.1491
    1BTD     N3 5054   3.061   6.205   0.959  0.0480 -0.1516 -0.1082
    1BTD     N4 5055   3.119   6.053   0.676  0.5555 -0.1035 -0.0316
    1BTD     C5 5056   3.123   5.865   0.800  0.3201 -0.1262 -0.0589
    1BTD     C6 5057   3.114   5.788   0.920  0.0950 -0.1479 -0.0883
    1BTD     C7 5058   3.087   5.857   1.049 -0.1355 -0.1699 -0.1231
    1BTD     C8 5059   3.071   6.000   1.050 -0.1293 -0.1692 -0.1268
    1BTD    C15 5060   3.081   6.071   0.929  0.0953 -0.1475 -0.0973
    1BTD    C16 5061   3.106   6.005   0.805  0.3173 -0.1262 -0.0637
    1BTD    C43 5062   3.044   6.170   0.623  0.3419  0.0676  0.0710
    1BTD    C44 5063   3.076   6.254   0.494  0.5306 -0.6291  0.0242
    1BTD    C45 5064   3.214   6.330   0.501  0.3414  0.7254  0.4287
    1BTD    C46 5065   3.262   6.417   0.378  0.1351  1.2973 -0.6445
    1BTD    C47 5066   2.959   6.342   0.450 -0.2394 -0.1281  0.3119
    1BTD    C48 5067   2.827   6.284   0.387  0.7337  0.3900 -0.2143
    1BTD    C49 5068   2.836   6.194   0.264  0.1126  0.2628  0.2009
    1BTD    C50 5069   2.899   6.247   0.139  0.0236 -0.7511  0.6021
    1BTD    C75 5070   3.086   6.336   0.885  0.8926  0.2323  0.2423
    1BTD    C76 5071   3.228   6.392   0.890  0.6955 -0.4492 -0.2903
    1BTD    C77 5072   3.321   6.293   0.822 -0.2493  0.2807 -0.2089
    1BTD    C78 5073   3.475   6.321   0.818 -0.3499 -0.2388  0.3469
    1BTD    C79 5074   3.223   6.538   0.848 -0.4787 -0.1036 -0.3026
    1BTD    C80 5075   3.165   6.651   0.935 -0.0205  0.2062 -0.0213
    1BTD    C81 5076   3.184   6.791   0.870 -0.0871  0.6087 -0.5129
    1BTD    C82 5077   3.320   6.866   0.874  0.2731  0.3777  0.0931
    2TTP     S1 5078   3.165   5.677   0.572 -0.2374  0.1856 -0.0830
    2TTP     S5 5079   3.159   6.011   0.301  0.1819  0.4742  0.2612
    2TTP     C1 5080   3.178   5.858   0.204 -0.1158  0.5405  0.0954
    2TTP     C2 5081   3.181   5.746   0.282 -0.2627  0.4555 -0.0207
    2TTP     C3 5082   3.168   5.776   0.421 -0.1457  0.3347  0.0171
    2TTP     C4 5083   3.146   5.829   0.669  0.0603  0.1192  0.0828
    2TTP    C17 5084   3.143   5.942   0.591  0.2073  0.2044  0.1989
    2TTP    C18 5085   3.156   5.911   0.452  0.0901  0.3251  0.1610
    2TTP    C32 5086   3.198   5.596   0.228 -0.3620  0.3600 -0.5989
    2TTP    C33 5087   3.235   5.474   0.325  0.2892 -0.2923  0.2661
    2TTP    C34 5088   3.248   5.342   0.241  0.1435 -0.1001 -0.0902
    2TTP    C35 5089   3.360   5.335   0.140 -0.4178  0.1152 -0.6282
    2TTP    C36 5090   3.359   5.196   0.080  0.4546 -0.2066  0.0377
    2TTP    C37 5091   3.441   5.191  -0.046  0.1939  0.8851 -0.8998
    2TTP    C38 5092   3.449   5.051  -0.096 -0.5426  0.2183 -0.1731
    2TTP    C39 5093   3.448   5.021  -0.252 -0.3859 -0.4194 -0.1175
    2TTP    C40 5094   3.549   5.102  -0.341  0.8661 -0.2739  0.1243
    2TTP    C41 5095   3.694   5.116  -0.304 -0.7759 -0.3381 -0.4821
    2TTP    C42 5096   3.781   4.983  -0.304  0.4729 -0.0203 -0.1076
    3TTP     S1 5097   3.014   6.097   1.331 -0.2605  0.0643 -0.3520
    3TTP     S5 5098   2.922   6.485   1.169 -0.1910  0.0098 -0.5231
    3TTP     C1 5099   2.879   6.484   1.346 -0.2452  0.0771 -0.5358
    3TTP     C2 5100   2.905   6.364   1.406 -0.2699  0.0979 -0.4837
    3TTP     C3 5101   2.960   6.269   1.315 -0.2469  0.0614 -0.4319
    3TTP     C4 5102   3.057   6.098   1.154 -0.2064 -0.0030 -0.3393
    3TTP    C17 5103   3.031   6.217   1.094 -0.1817 -0.0238 -0.3914
    3TTP    C18 5104   2.976   6.313   1.185 -0.2047  0.0125 -0.4432
    3TTP    C32 5105   2.886   6.331   1.556 -0.1639  0.6690  0.0579
    3TTP    C33 5106   2.950   6.221   1.634 -0.5619 -0.1216  0.2915
    3TTP    C34 5107   3.096   6.215   1.672  0.3191  0.3840  0.2435
    3TTP    C35 5108   3.138   6.072   1.722  0.1754  0.1781  0.2988
    3TTP    C36 5109   3.151   5.967   1.614 -0.2846 -0.2892 -0.0769
    3TTP    C37 5110   3.189   5.829   1.669 -0.0270  0.3444 -0.3233
    3TTP    C38 5111   3.177   5.720   1.556 -0.3421 -0.4181 -0.9527
    3TTP    C39 5112   3.037   5.701   1.499 -0.2154  0.7807 -0.2936
    3TTP    C40 5113   2.947   5.592   1.566 -0.0534  0.0796  0.5694
    3TTP    C41 5114   2.810   5.571   1.498 -0.1340  0.0635 -0.2951
    3TTP    C42 5115   2.723   5.472   1.574  0.4721 -0.1326  0.3323
    4FIC     F1 5116   3.207   6.394  -0.416  0.0709  0.1043 -0.0329
    4FIC     F2 5117   3.214   6.185  -0.590 -0.1811  0.0660  0.0011
    4FIC     O1 5118   3.196   6.133   0.058  0.2568  0.2017  0.0253
    4FIC     N5 5119   3.218   5.698  -0.502 -0.4108  0.0806  0.0916
    4FIC     N6 5120   3.208   5.536  -0.097 -0.2147  0.1645  0.1302
    4FIC    C19 5121   3.199   5.840   0.060  0.0822  0.1999  0.0785
    4FIC    C20 5122   3.202   5.914  -0.052  0.0453  0.1768  0.0625
    4FIC    C21 5123   3.200   6.064  -0.045  0.1407  0.1795  0.0355
    4FIC    C22 5124   3.203   6.113  -0.185  0.0690  0.1507  0.0235
    4FIC    C23 5125   3.203   6.245  -0.229  0.1166  0.1423 -0.0015
    4FIC    C24 5126   3.207   6.266  -0.366  0.0303  0.1139 -0.0085
    4FIC    C25 5127   3.211   6.158  -0.455 -0.0995  0.0940  0.0090
    4FIC    C26 5128   3.211   6.026  -0.412 -0.1477  0.1023  0.0340
    4FIC    C27 5129   3.207   6.003  -0.273 -0.0616  0.1310  0.0414
    4FIC    C28 5130   3.206   5.876  -0.196 -0.0814  0.1463  0.0662
    4FIC    C29 5131   3.209   5.749  -0.247 -0.1954  0.1345  0.0882
    4FIC    C30 5132   3.214   5.721  -0.387 -0.3134  0.1050  0.0900
    4FIC    C31 5133   3.208   5.632  -0.164 -0.2053  0.1510  0.1112
    5FIC     F1 5134   2.716   7.282   1.213 -0.3586 -0.1979  0.1169
    5FIC     F2 5135   2.733   7.323   1.482  0.2542 -0.1057  0.0671
    5FIC     O1 5136   2.804   6.748   1.186 -0.5469 -0.2286  0.1090
    5FIC     N5 5137   2.820   7.002   1.848  1.0008  0.0045 -0.0103
    5FIC     N6 5138   2.886   6.577   1.773  0.7302 -0.0379 -0.0064
    5FIC    C19 5139   2.852   6.598   1.433 -0.0284 -0.1516  0.0586
    5FIC    C20 5140   2.829   6.731   1.429 -0.0049 -0.1475  0.0625
    5FIC    C21 5141   2.805   6.801   1.298 -0.2820 -0.1886  0.0890
    5FIC    C22 5142   2.784   6.943   1.330 -0.1763 -0.1721  0.0864
    5FIC    C23 5143   2.759   7.047   1.241 -0.3508 -0.1979  0.1058
    5FIC    C24 5144   2.742   7.174   1.295 -0.1999 -0.1745  0.0987
    5FIC    C25 5145   2.751   7.195   1.434  0.1158 -0.1272  0.0730
    5FIC    C26 5146   2.776   7.092   1.523  0.2913 -0.1013  0.0536
    5FIC    C27 5147   2.793   6.963   1.470  0.1425 -0.1242  0.0604
    5FIC    C28 5148   2.821   6.833   1.536  0.2604 -0.1070  0.0447
    5FIC    C29 5149   2.837   6.812   1.671  0.5586 -0.0626  0.0186
    5FIC    C30 5150   2.828   6.916   1.768  0.8007 -0.0259  0.0028
    5FIC    C31 5151   2.864   6.683   1.726  0.6512 -0.0491  0.0050
    1BTD     S2 5152   3.401   6.022   1.124 -0.0985 -0.1304  0.2076
    1BTD     N1 5153   3.445   6.000   0.951 -0.0955  0.0206  0.1889
    1BTD     N2 5154   3.407   5.846   1.163 -0.2341 -0.1767  0.0215
    1BTD     N3 5155   3.499   5.449   0.930 -0.5050  0.0013 -0.3914
    1BTD     N4 5156   3.546   5.638   0.669 -0.3341  0.2445 -0.1852
    1BTD     C5 5157   3.497   5.809   0.807 -0.2221  0.1346 -0.0089
    1BTD     C6 5158   3.461   5.870   0.932 -0.1908  0.0283  0.0520
    1BTD     C7 5159   3.440   5.784   1.051 -0.2683 -0.0821 -0.0417
    1BTD     C8 5160   3.456   5.641   1.038 -0.3735 -0.0809 -0.1916
    1BTD    C15 5161   3.491   5.586   0.913 -0.4006  0.0252 -0.2465
    1BTD    C16 5162   3.512   5.669   0.799 -0.3259  0.1318 -0.1562
    1BTD    C43 5163   3.603   5.512   0.600 -0.2756 -0.4010  0.0097
    1BTD    C44 5164   3.757   5.492   0.568  0.3587 -0.2620  0.2491
    1BTD    C45 5165   3.769   5.347   0.506  0.2222 -0.4424 -0.8668
    1BTD    C46 5166   3.695   5.319   0.377  0.1003 -0.5329  0.2909
    1BTD    C47 5167   3.853   5.512   0.688  0.5650  0.3151 -0.0334
    1BTD    C48 5168   4.000   5.498   0.658 -0.3048 -0.1914 -0.6417
    1BTD    C49 5169   4.066   5.595   0.571 -0.3521 -0.5360 -0.1816
    1BTD    C50 5170   4.213   5.568   0.549  0.2618  0.0200 -0.2522
    1BTD    C75 5171   3.482   5.344   0.826  0.1036  0.1344  0.6167
    1BTD    C76 5172   3.347   5.282   0.788  0.1212  0.8147  0.0171
    1BTD    C77 5173   3.229   5.378   0.746 -0.5331 -0.0525 -1.0650
    1BTD    C78 5174   3.113   5.302   0.680  0.7648 -0.5416  0.5915
    1BTD    C79 5175   3.369   5.155   0.706 -0.1843  0.4164  0.5776
    1BTD    C80 5176   3.424   5.162   0.567  1.1186 -0.1595  0.5271
    1BTD    C81 5177   3.438   5.027   0.502  0.3957 -0.1884  0.0317
    1BTD    C82 5178   3.329   5.006   0.407  0.5387 -0.3116  0.4738
    2TTP     S1 5179   3.505   6.018   0.588 -0.0349  0.0240  0.0693
    2TTP     S5 5180   3.568   5.708   0.297  0.1855  0.1744 -0.0436
    2TTP     C1 5181   3.553   5.867   0.210 -0.2231  0.1569 -0.0084
    2TTP     C2 5182   3.532   5.972   0.294 -0.3154  0.1093  0.0286
    2TTP     C3 5183   3.528   5.931   0.431 -0.0665  0.0852  0.0303
    2TTP     C4 5184   3.520   5.859   0.675  0.3737  0.0415  0.0340
    2TTP    C17 5185   3.540   5.754   0.590  0.4660  0.0890 -0.0029
    2TTP    C18 5186   3.545   5.795   0.453  0.2171  0.1132 -0.0047
    2TTP    C32 5187   3.523   6.127   0.267  0.0663  0.1188 -0.2499
    2TTP    C33 5188   3.654   6.205   0.300  0.0822  0.1192  0.4504
    2TTP    C34 5189   3.657   6.356   0.270  0.6813  0.1788 -0.2316
    2TTP    C35 5190   3.803   6.407   0.275 -0.2154  0.0133 -0.8303
    2TTP    C36 5191   3.876   6.408   0.150 -0.2389  0.0377 -0.3320
    2TTP    C37 5192   4.016   6.461   0.181 -0.3943 -0.0664 -0.1390
    2TTP    C38 5193   4.130   6.446   0.076 -0.0927 -0.2179  0.1441
    2TTP    C39 5194   4.105   6.506  -0.057  0.0576  0.3030 -0.0969
    2TTP    C40 5195   4.225   6.482  -0.140  0.4052 -1.0163  0.1894
    2TTP    C41 5196   4.218   6.574  -0.262 -0.4016  0.9657  0.3902
    2TTP    C42 5197   4.336   6.555  -0.365 -0.3475  0.0469  0.0130
    3TTP     S1 5198   3.425   5.515   1.311 -0.2796  0.2883  0.1194
    3TTP     S5 5199   3.517   5.134   1.133  0.3245  0.4821  0.0115
    3TTP     C1 5200   3.494   5.111   1.312  0.2733  0.3801 -0.0084
    3TTP     C2 5201   3.464   5.227   1.377  0.0837  0.3142  0.0237
    3TTP     C3 5202   3.459   5.339   1.289 -0.0279  0.3419  0.0653
    3TTP     C4 5203   3.448   5.538   1.132 -0.2283  0.3902  0.1393
    3TTP    C17 5204   3.478   5.422   1.066 -0.0387  0.4561  0.1072
    3TTP    C18 5205   3.484   5.310   1.155  0.0729  0.4286  0.0657
    3TTP    C32 5206   3.425   5.237   1.523 -0.1597  0.6156 -0.3570
    3TTP    C33 5207   3.503   5.341   1.602  0.3729  0.0134 -0.1555
    3TTP    C34 5208   3.422   5.405   1.713 -0.4782 -0.5077 -0.1411
    3TTP    C35 5209   3.509   5.508   1.792 -0.1312 -0.4316 -0.2061
    3TTP    C36 5210   3.438   5.548   1.922  0.2408 -0.6795 -0.6655
    3TTP    C37 5211   3.535   5.635   2.005  0.1443 -0.4968 -0.2099
    3TTP    C38 5212   3.508   5.663   2.155  0.3907 -0.5501  0.4017
    3TTP    C39 5213   3.370   5.720   2.194  0.4201 -0.1425  0.0553
    3TTP    C40 5214   3.331   5.846   2.119  0.4894 -0.5966 -0.4722
    3TTP    C41 5215   3.192   5.903   2.139  0.1250  0.3694  0.2648
    3TTP    C42 5216   3.076   5.821   2.076 -0.0375 -0.4890  0.2321
    4FIC     F1 5217   3.636   5.397  -0.458 -0.2501  0.1761 -0.3263
    4FIC     F2 5218   3.619   5.622  -0.610  0.4722  0.3891 -0.0964
    4FIC     O1 5219   3.592   5.605   0.040 -0.4919 -0.2910 -0.1511
    4FIC     N5 5220   3.564   6.095  -0.473  1.3382  0.3626  0.3589
    4FIC     N6 5221   3.533   6.212  -0.054  1.0039 -0.0453  0.4495
    4FIC    C19 5222   3.560   5.894   0.072  0.1123 -0.2533  0.1307
    4FIC    C20 5223   3.572   5.833  -0.048  0.1450 -0.1441  0.0777
    4FIC    C21 5224   3.588   5.684  -0.056 -0.1783 -0.1720 -0.0682
    4FIC    C22 5225   3.598   5.651  -0.199 -0.0485 -0.0309 -0.0923
    4FIC    C23 5226   3.613   5.525  -0.257 -0.2500 -0.0024 -0.2125
    4FIC    C24 5227   3.620   5.518  -0.395 -0.0676  0.1401 -0.2109
    4FIC    C25 5228   3.612   5.634  -0.473  0.3045  0.2495 -0.0924
    4FIC    C26 5229   3.596   5.760  -0.417  0.5071  0.2218  0.0279
    4FIC    C27 5230   3.589   5.769  -0.277  0.3272  0.0783  0.0283
    4FIC    C28 5231   3.573   5.886  -0.186  0.4610  0.0131  0.1374
    4FIC    C29 5232   3.561   6.017  -0.224  0.8109  0.0849  0.2688
    4FIC    C30 5233   3.563   6.059  -0.361  1.0996  0.2372  0.3179
    4FIC    C31 5234   3.546   6.124  -0.130  0.9149  0.0129  0.3674
    5FIC     F1 5235   3.604   4.311   1.142 -0.1467 -0.0389  0.2731
    5FIC     F2 5236   3.620   4.263   1.409 -0.1961  0.1403  0.3087
    5FIC     O1 5237   3.527   4.847   1.139  0.0803 -0.0074 -0.1084
    5FIC     N5 5238   3.589   4.575   1.791 -0.1053  0.4203  0.0879
    5FIC     N6 5239   3.525   5.004   1.735  0.0821  0.4090 -0.2173
    5FIC    C19 5240   3.515   4.991   1.393  0.1138  0.1749 -0.2099
    5FIC    C20 5241   3.534   4.858   1.384  0.0585  0.1600 -0.1153
    5FIC    C21 5242   3.539   4.791   1.249  0.0448  0.0643 -0.0682
    5FIC    C22 5243   3.560   4.647   1.275 -0.0188  0.0728  0.0341
    5FIC    C23 5244   3.572   4.545   1.181 -0.0517  0.0025  0.1065
    5FIC    C24 5245   3.592   4.417   1.229 -0.1114  0.0272  0.1982
    5FIC    C25 5246   3.600   4.392   1.367 -0.1367  0.1196  0.2163
    5FIC    C26 5247   3.589   4.494   1.461 -0.1040  0.1901  0.1445
    5FIC    C27 5248   3.568   4.624   1.414 -0.0436  0.1664  0.0512
    5FIC    C28 5249   3.553   4.753   1.487  0.0030  0.2238 -0.0399
    5FIC    C29 5250   3.555   4.771   1.623 -0.0043  0.3178 -0.0520
    5FIC    C30 5251   3.573   4.663   1.715 -0.0598  0.3738  0.0250
    5FIC    C31 5252   3.539   4.899   1.684  0.0433  0.3674 -0.1429
    1BTD     S2 5253   4.385   3.258   1.539 -0.2436 -0.0411  0.0431
    1BTD     N1 5254   4.371   3.232   1.716 -0.2151 -0.0192  0.0488
    1BTD     N2 5255   4.421   3.086   1.502 -0.1037 -0.0190  0.0748
    1BTD     N3 5256   4.467   2.688   1.746  0.2331  0.0654  0.1495
    1BTD     N4 5257   4.405   2.868   2.010  0.0957  0.0651  0.1174
    1BTD     C5 5258   4.389   3.040   1.867 -0.0510  0.0249  0.0850
    1BTD     C6 5259   4.392   3.103   1.737 -0.1081  0.0023  0.0727
    1BTD     C7 5260   4.420   3.021   1.617 -0.0459  0.0024  0.0873
    1BTD     C8 5261   4.445   2.880   1.632  0.0703  0.0251  0.1134
    1BTD    C15 5262   4.441   2.823   1.761  0.1228  0.0467  0.1246
    1BTD    C16 5263   4.414   2.902   1.877  0.0627  0.0466  0.1106
    1BTD    C43 5264   4.359   2.732   2.058  0.1418 -0.7402  0.7279
    1BTD    C44 5265   4.389   2.663   2.193  0.3080 -1.0648  0.8393
    1BTD    C45 5266   4.312   2.535   2.211  0.3350  0.3348 -0.8728
    1BTD    C46 5267   4.160   2.530   2.190 -0.4106 -0.3460 -0.5423
    1BTD    C47 5268   4.539   2.650   2.223 -0.9305  0.0377  0.4650
    1BTD    C48 5269   4.587   2.569   2.346  0.5235  0.3636 -0.3521
    1BTD    C49 5270   4.541   2.624   2.481 -0.3190  0.0168 -0.3579
    1BTD    C50 5271   4.598   2.533   2.596 -0.1339  0.3185 -0.2210
    1BTD    C75 5272   4.550   2.609   1.846 -0.4050 -0.0406  0.0340
    1BTD    C76 5273   4.542   2.459   1.864 -0.7002  0.4432 -0.2181
    1BTD    C77 5274   4.399   2.415   1.896  0.1118 -0.5292 -0.0203
    1BTD    C78 5275   4.293   2.400   1.790 -0.3706 -0.3154 -0.2152
    1BTD    C79 5276   4.657   2.417   1.964 -0.0500  0.2368  0.5019
    1BTD    C80 5277   4.679   2.268   1.990 -0.1961 -0.6778 -0.3162
    1BTD    C81 5278   4.682   2.174   1.871 -0.5880 -0.4746  0.1309
    1BTD    C82 5279   4.682   2.025   1.914 -0.1440  0.3733 -0.5247
    2TTP     S1 5280   4.341   3.243   2.089 -0.1544 -0.0294  0.0400
    2TTP     S5 5281   4.359   2.926   2.379  0.2456 -0.0180  0.0283
    2TTP     C1 5282   4.343   3.085   2.467  0.0186 -0.0428  0.0334
    2TTP     C2 5283   4.337   3.192   2.383 -0.1184 -0.0478  0.0373
    2TTP     C3 5284   4.344   3.153   2.245 -0.0489 -0.0321  0.0364
    2TTP     C4 5285   4.356   3.084   2.001  0.0728 -0.0046  0.0349
    2TTP    C17 5286   4.363   2.977   2.085  0.2095  0.0004  0.0309
    2TTP    C18 5287   4.356   3.016   2.223  0.1402 -0.0151  0.0318
    2TTP    C32 5288   4.340   3.341   2.415 -0.0327 -0.1445  0.2101
    2TTP    C33 5289   4.220   3.422   2.365  0.5971  0.7046  0.3447
    2TTP    C34 5290   4.225   3.565   2.401 -0.0928 -0.3168 -0.0290
    2TTP    C35 5291   4.105   3.652   2.369 -0.3333 -0.5158 -0.1433
    2TTP    C36 5292   3.966   3.620   2.439  0.0453 -0.4208 -0.0211
    2TTP    C37 5293   3.851   3.695   2.372  0.0123 -0.1341 -0.6463
    2TTP    C38 5294   3.718   3.710   2.451  0.3280 -0.5515  0.4980
    2TTP    C39 5295   3.723   3.780   2.592 -0.2736 -0.2869  0.5319
    2TTP    C40 5296   3.584   3.819   2.649  0.5684 -0.2039  0.3369
    2TTP    C41 5297   3.589   3.849   2.799 -0.6687 -0.7812  0.1463
    2TTP    C42 5298   3.474   3.940   2.840 -0.5549 -0.0088  0.3345
    3TTP     S1 5299   4.505   2.762   1.364 -0.1303 -0.1352 -0.1177
    3TTP     S5 5300   4.543   2.372   1.542  0.0558 -0.0522  0.0243
    3TTP     C1 5301   4.567   2.356   1.363  0.3036 -0.0699  0.0584
    3TTP     C2 5302   4.557   2.476   1.297  0.2606 -0.0966  0.0166
    3TTP     C3 5303   4.529   2.584   1.386  0.0306 -0.1040 -0.0439
    3TTP     C4 5304   4.480   2.777   1.544 -0.3780 -0.1175 -0.1518
    3TTP    C17 5305   4.491   2.658   1.609 -0.3351 -0.0909 -0.1100
    3TTP    C18 5306   4.518   2.550   1.520 -0.1051 -0.0834 -0.0495
    3TTP    C32 5307   4.568   2.499   1.146  0.0797 -0.4309 -0.4579
    3TTP    C33 5308   4.457   2.565   1.076  0.6573 -0.3139  0.6293
    3TTP    C34 5309   4.488   2.592   0.929  0.1722 -0.0399  0.6111
    3TTP    C35 5310   4.599   2.699   0.891 -0.1909  0.0066  0.1401
    3TTP    C36 5311   4.586   2.849   0.926  0.5379  0.2340  1.1183
    3TTP    C37 5312   4.452   2.909   0.874 -0.3630  0.1567  0.0973
    3TTP    C38 5313   4.407   3.039   0.940  0.3240 -0.2238  0.4710
    3TTP    C39 5314   4.389   3.026   1.090  0.5054  0.8283 -0.2963
    3TTP    C40 5315   4.255   2.978   1.156 -0.4441 -0.3166  0.2933
    3TTP    C41 5316   4.205   2.838   1.122 -0.2287  0.9518  0.3565
    3TTP    C42 5317   4.083   2.793   1.200  0.3254 -0.0551  0.0561
    4FIC     F1 5318   4.287   2.584   3.122  0.2419 -0.1793 -0.0885
    4FIC     F2 5319   4.306   2.804   3.281 -0.1063 -0.1425 -0.0962
    4FIC     O1 5320   4.309   2.812   2.631  0.1906 -0.1902 -0.0960
    4FIC     N5 5321   4.349   3.282   3.161 -0.6436 -0.0973 -0.1124
    4FIC     N6 5322   4.362   3.416   2.745 -0.6133 -0.1131 -0.1167
    4FIC    C19 5323   4.335   3.103   2.609 -0.1601 -0.1589 -0.1059
    4FIC    C20 5324   4.329   3.037   2.726 -0.1338 -0.1576 -0.1037
    4FIC    C21 5325   4.315   2.887   2.729  0.0507 -0.1743 -0.0986
    4FIC    C22 5326   4.311   2.849   2.872  0.0317 -0.1680 -0.0974
    4FIC    C23 5327   4.300   2.720   2.924  0.1661 -0.1787 -0.0930
    4FIC    C24 5328   4.298   2.708   3.063  0.1158 -0.1697 -0.0928
    4FIC    C25 5329   4.308   2.822   3.145 -0.0639 -0.1506 -0.0967
    4FIC    C26 5330   4.320   2.950   3.093 -0.1985 -0.1400 -0.1010
    4FIC    C27 5331   4.321   2.964   2.953 -0.1502 -0.1489 -0.1014
    4FIC    C28 5332   4.332   3.084   2.867 -0.2590 -0.1416 -0.1054
    4FIC    C29 5333   4.344   3.215   2.910 -0.4411 -0.1236 -0.1099
    4FIC    C30 5334   4.347   3.251   3.048 -0.5517 -0.1092 -0.1113
    4FIC    C31 5335   4.354   3.325   2.819 -0.5348 -0.1180 -0.1136
    5FIC     F1 5336   4.613   1.563   1.570  0.0508  0.0224  0.1244
    5FIC     F2 5337   4.636   1.501   1.306  0.0094  0.0269  0.1199
    5FIC     O1 5338   4.582   2.103   1.546  0.0900  0.0255  0.1411
    5FIC     N5 5339   4.646   1.797   0.909 -0.0224  0.0352  0.1252
    5FIC     N6 5340   4.617   2.231   0.944  0.0166  0.0366  0.1392
    5FIC    C19 5341   4.592   2.236   1.285  0.0643  0.0307  0.1427
    5FIC    C20 5342   4.599   2.102   1.302  0.0561  0.0298  0.1387
    5FIC    C21 5343   4.593   2.042   1.439  0.0703  0.0270  0.1381
    5FIC    C22 5344   4.604   1.896   1.421  0.0563  0.0266  0.1333
    5FIC    C23 5345   4.603   1.798   1.519  0.0622  0.0245  0.1312
    5FIC    C24 5346   4.614   1.666   1.478  0.0461  0.0246  0.1267
    5FIC    C25 5347   4.625   1.634   1.342  0.0248  0.0268  0.1244
    5FIC    C26 5348   4.626   1.731   1.243  0.0187  0.0290  0.1265
    5FIC    C27 5349   4.615   1.866   1.283  0.0349  0.0289  0.1311
    5FIC    C28 5350   4.613   1.991   1.204  0.0339  0.0309  0.1342
    5FIC    C29 5351   4.622   2.002   1.067  0.0157  0.0334  0.1332
    5FIC    C30 5352   4.635   1.889   0.981 -0.0051  0.0343  0.1289
    5FIC    C31 5353   4.619   2.128   1.000  0.0165  0.0352  0.1365
    1BTD     S2 5354   4.089   2.704   1.756 -0.0462  0.1092 -0.0721
    1BTD     N1 5355   4.036   2.765   1.917 -0.2899  0.0343 -0.1231
    1BTD     N2 5356   4.078   2.864   1.675  0.0932  0.1501 -0.0106
    1BTD     N3 5357   3.961   3.301   1.799 -0.0628  0.0989  0.0224
    1BTD     N4 5358   3.909   3.180   2.097 -0.5350 -0.0439 -0.1162
    1BTD     C5 5359   3.970   2.983   2.007 -0.4122 -0.0048 -0.1178
    1BTD     C6 5360   4.014   2.895   1.902 -0.2564  0.0434 -0.0933
    1BTD     C7 5361   4.038   2.950   1.767 -0.0421  0.1082 -0.0303
    1BTD     C8 5362   4.016   3.091   1.743  0.0061  0.1216  0.0049
    1BTD    C15 5363   3.973   3.173   1.849 -0.1513  0.0730 -0.0209
    1BTD    C16 5364   3.950   3.120   1.979 -0.3579  0.0106 -0.0816
    1BTD    C43 5365   3.841   3.312   2.116  0.0236 -0.1462  0.6529
    1BTD    C44 5366   3.691   3.324   2.088  0.1629 -0.7937  0.3429
    1BTD    C45 5367   3.636   3.464   2.128  0.2991 -0.2471  0.8148
    1BTD    C46 5368   3.683   3.587   2.047 -0.5687 -0.0317  0.1839
    1BTD    C47 5369   3.605   3.220   2.161 -0.3408  0.4896 -0.5381
    1BTD    C48 5370   3.454   3.217   2.155 -1.0408 -0.1026  0.1215
    1BTD    C49 5371   3.423   3.071   2.203  0.0733 -0.6339  0.2013
    1BTD    C50 5372   3.269   3.062   2.219  0.3704 -0.3558 -0.8236
    1BTD    C75 5373   3.957   3.436   1.857  0.3682  0.3040  0.1396
    1BTD    C76 5374   4.077   3.498   1.926 -0.0354 -0.6666  0.5827
    1BTD    C77 5375   4.197   3.515   1.834 -0.8914  0.5896 -0.5308
    1BTD    C78 5376   4.333   3.546   1.904  0.2978 -0.1720  0.2283
    1BTD    C79 5377   4.040   3.618   2.011 -0.5756  0.0187  0.3450
    1BTD    C80 5378   4.009   3.751   1.934 -0.2249 -0.2457 -0.5004
    1BTD    C81 5379   3.983   3.866   2.035 -0.0364 -0.1609  0.7447
    1BTD    C82 5380   3.962   3.996   1.956  0.6320  0.1963  0.1543
    2TTP     S1 5381   3.968   2.827   2.267  0.1415  0.0125  0.2006
    2TTP     S5 5382   3.903   3.199   2.473 -0.1016  0.0350  0.0834
    2TTP     C1 5383   3.938   3.070   2.597 -0.0244  0.0950  0.1246
    2TTP     C2 5384   3.960   2.947   2.540  0.0553  0.0916  0.1633
    2TTP     C3 5385   3.950   2.951   2.398  0.0582  0.0414  0.1617
    2TTP     C4 5386   3.934   2.956   2.144  0.0643 -0.0475  0.1594
    2TTP    C17 5387   3.912   3.079   2.201 -0.0153 -0.0440  0.1208
    2TTP    C18 5388   3.921   3.075   2.343 -0.0183  0.0061  0.1223
    2TTP    C32 5389   3.998   2.820   2.613  0.2123 -0.2554 -0.2576
    2TTP    C33 5390   3.934   2.687   2.575 -0.2786 -0.8547  0.3706
    2TTP    C34 5391   3.990   2.583   2.671  0.1482 -0.3152 -0.7608
    2TTP    C35 5392   3.972   2.440   2.633  0.1489 -0.2865  0.1140
    2TTP    C36 5393   4.034   2.353   2.743 -0.4057 -0.3623 -0.7312
    2TTP    C37 5394   4.185   2.370   2.767 -0.4117  0.2242 -0.1826
    2TTP    C38 5395   4.282   2.356   2.650  0.5582  0.0474 -0.5776
    2TTP    C39 5396   4.264   2.235   2.560 -0.0842 -0.3255 -0.0934
    2TTP    C40 5397   4.367   2.243   2.442  0.7794 -0.1343  0.1574
    2TTP    C41 5398   4.350   2.120   2.349 -0.8355  0.0201  0.0096
    2TTP    C42 5399   4.417   2.133   2.213  0.0029 -0.8220  0.7648
    3TTP     S1 5400   4.058   3.148   1.454 -0.1677  0.0288 -0.0520
    3TTP     S5 5401   3.961   3.562   1.516  0.3373  0.1833 -0.2876
    3TTP     C1 5402   3.996   3.536   1.339  0.0979 -0.0046 -0.3090
    3TTP     C2 5403   4.028   3.407   1.310 -0.0721 -0.0633 -0.2375
    3TTP     C3 5404   4.026   3.323   1.426 -0.0194  0.0378 -0.1633
    3TTP     C4 5405   4.023   3.173   1.631  0.0719  0.2167 -0.0306
    3TTP    C17 5406   3.991   3.303   1.660  0.2419  0.2754 -0.1021
    3TTP    C18 5407   3.993   3.386   1.545  0.1891  0.1742 -0.1764
    3TTP    C32 5408   4.067   3.351   1.174 -0.0930 -0.1129 -0.8528
    3TTP    C33 5409   3.979   3.259   1.089  0.3233  0.0216  0.4955
    3TTP    C34 5410   4.037   3.218   0.958 -0.4371 -0.2646  0.3929
    3TTP    C35 5411   3.984   3.096   0.891 -0.4410 -0.2667  0.4580
    3TTP    C36 5412   4.048   3.055   0.754  0.3702  0.8497  0.5571
    3TTP    C37 5413   4.007   2.915   0.707  0.0431 -0.4340 -0.0110
    3TTP    C38 5414   4.097   2.879   0.583  0.1598  0.0432 -0.1173
    3TTP    C39 5415   4.061   2.754   0.505  0.0190  0.3943 -0.4723
    3TTP    C40 5416   4.065   2.623   0.585  0.4445 -0.0302  0.2798
    3TTP    C41 5417   4.036   2.503   0.491 -0.7369  0.0921 -0.1787
    3TTP    C42 5418   4.100   2.384   0.555  0.3641 -0.1898 -0.1337
    4FIC     F1 5419   3.992   3.743   3.068 -0.2162 -0.1601  0.1137
    4FIC     F2 5420   3.993   3.582   3.288 -0.0151 -0.1888  0.0927
    4FIC     O1 5421   3.965   3.374   2.672 -0.0398 -0.1307  0.0741
    4FIC     N5 5422   3.974   3.089   3.322  0.3996 -0.2091  0.0343
    4FIC     N6 5423   3.953   2.833   2.968  0.4970 -0.1802  0.0076
    4FIC    C19 5424   3.956   3.090   2.742  0.2150 -0.1476  0.0401
    4FIC    C20 5425   3.963   3.189   2.833  0.1627 -0.1538  0.0508
    4FIC    C21 5426   3.967   3.333   2.789  0.0312 -0.1444  0.0682
    4FIC    C22 5427   3.974   3.413   2.912  0.0041 -0.1546  0.0765
    4FIC    C23 5428   3.980   3.552   2.923 -0.1062 -0.1512  0.0927
    4FIC    C24 5429   3.986   3.606   3.050 -0.1100 -0.1629  0.0978
    4FIC    C25 5430   3.986   3.523   3.163 -0.0063 -0.1775  0.0869
    4FIC    C26 5431   3.981   3.385   3.154  0.1041 -0.1813  0.0708
    4FIC    C27 5432   3.975   3.328   3.025  0.1097 -0.1695  0.0654
    4FIC    C28 5433   3.968   3.187   2.981  0.2114 -0.1696  0.0491
    4FIC    C29 5434   3.966   3.076   3.062  0.3279 -0.1820  0.0352
    4FIC    C30 5435   3.970   3.083   3.205  0.3669 -0.1968  0.0348
    4FIC    C31 5436   3.959   2.943   3.010  0.4203 -0.1810  0.0202
    5FIC     F1 5437   3.897   4.353   1.316  0.2038 -0.1070  0.3112
    5FIC     F2 5438   3.921   4.343   1.045 -0.5140  0.0672  0.2368
    5FIC     O1 5439   3.956   3.831   1.444  0.5472 -0.1901 -0.1793
    5FIC     N5 5440   3.997   3.955   0.747 -1.3017  0.2586 -0.2196
    5FIC     N6 5441   4.039   3.549   0.902 -0.8885  0.1585 -0.5879
    5FIC    C19 5442   4.000   3.635   1.231 -0.0169 -0.0531 -0.4245
    5FIC    C20 5443   3.984   3.767   1.209 -0.0752 -0.0390 -0.2983
    5FIC    C21 5444   3.962   3.861   1.324  0.2286 -0.1128 -0.1771
    5FIC    C22 5445   3.949   3.996   1.266  0.0730 -0.0750 -0.0567
    5FIC    C23 5446   3.927   4.116   1.333  0.2502 -0.1181  0.0787
    5FIC    C24 5447   3.918   4.231   1.256  0.0457 -0.0687  0.1753
    5FIC    C25 5448   3.931   4.226   1.116 -0.3240  0.0212  0.1367
    5FIC    C26 5449   3.952   4.106   1.049 -0.5026  0.0645  0.0018
    5FIC    C27 5450   3.961   3.989   1.125 -0.3002  0.0156 -0.0974
    5FIC    C28 5451   3.984   3.848   1.085 -0.4059  0.0412 -0.2474
    5FIC    C29 5452   4.001   3.801   0.956 -0.7454  0.1237 -0.3243
    5FIC    C30 5453   3.999   3.886   0.842 -1.0501  0.1975 -0.2664
    5FIC    C31 5454   4.021   3.663   0.927 -0.8223  0.1423 -0.4689
    1BTD     S2 5455   2.743   7.603   1.236  0.1491  0.1302  0.2481
    1BTD     N1 5456   2.745   7.678   1.073  0.1574  0.0910  0.2300
    1BTD     N2 5457   2.728   7.759   1.324  0.0567  0.1452  0.2057
    1BTD     N3 5458   2.701   8.213   1.209 -0.1165  0.1051  0.0867
    1BTD     N4 5459   2.722   8.114   0.900  0.0077  0.0381  0.1166
    1BTD     C5 5460   2.733   7.907   0.986  0.0778  0.0643  0.1705
    1BTD     C6 5461   2.735   7.809   1.092  0.0942  0.0912  0.1951
    1BTD     C7 5462   2.725   7.854   1.232  0.0378  0.1215  0.1815
    1BTD     C8 5463   2.714   7.995   1.260 -0.0322  0.1235  0.1439
    1BTD    C15 5464   2.712   8.087   1.154 -0.0459  0.0966  0.1207
    1BTD    C16 5465   2.722   8.044   1.019  0.0085  0.0672  0.1339
    1BTD    C43 5466   2.673   8.242   0.860 -0.2529 -0.0915  0.0219
    1BTD    C44 5467   2.530   8.247   0.796 -0.5876 -0.3645 -0.1382
    1BTD    C45 5468   2.483   8.388   0.751  0.3469  0.0714 -0.9644
    1BTD    C46 5469   2.590   8.465   0.674  0.0480  0.2824  0.1094
    1BTD    C47 5470   2.421   8.160   0.858 -0.4990  0.0301 -1.1209
    1BTD    C48 5471   2.282   8.120   0.805  0.2009  0.1843 -0.0454
    1BTD    C49 5472   2.275   8.000   0.710  0.2629 -0.4742  0.3716
    1BTD    C50 5473   2.327   7.876   0.767  0.7889 -0.3910  0.1442
    1BTD    C75 5474   2.709   8.352   1.157 -0.3321  0.5532  0.2228
    1BTD    C76 5475   2.833   8.431   1.160 -0.6677 -0.4279  0.1493
    1BTD    C77 5476   2.951   8.347   1.099  1.1302 -0.2141  0.1761
    1BTD    C78 5477   3.090   8.401   1.104  0.3381  0.5037 -0.1594
    1BTD    C79 5478   2.820   8.574   1.104 -0.1173 -0.5911 -0.4806
    1BTD    C80 5479   2.724   8.662   1.192 -0.2681 -0.0833 -0.1697
    1BTD    C81 5480   2.702   8.807   1.145  0.0009  0.0212 -0.2789
    1BTD    C82 5481   2.599   8.886   1.222  0.5782 -0.8981  0.7532
    2TTP     S1 5482   2.739   7.772   0.717 -0.4674  0.0435  0.1764
    2TTP     S5 5483   2.746   8.158   0.528  0.4823  0.1128  0.3422
    2TTP     C1 5484   2.731   8.031   0.399  0.0859  0.2056  0.2928
    2TTP     C2 5485   2.729   7.904   0.450 -0.2307  0.1895  0.2387
    2TTP     C3 5486   2.738   7.903   0.592 -0.1717  0.1036  0.2343
    2TTP     C4 5487   2.754   7.899   0.846 -0.0712 -0.0492  0.2258
    2TTP    C17 5488   2.757   8.026   0.796  0.2454 -0.0333  0.2798
    2TTP    C18 5489   2.748   8.027   0.653  0.1865  0.0527  0.2843
    2TTP    C32 5490   2.704   7.780   0.361 -0.2430  0.2826  0.1877
    2TTP    C33 5491   2.699   7.643   0.420 -0.2147 -0.0187 -0.7535
    2TTP    C34 5492   2.629   7.544   0.330  0.3290  0.3269 -0.0775
    2TTP    C35 5493   2.618   7.405   0.395  0.4142 -0.2060  0.5328
    2TTP    C36 5494   2.742   7.329   0.449 -0.3114  0.6854  0.2352
    2TTP    C37 5495   2.850   7.272   0.355 -0.4843 -0.4452 -0.0736
    2TTP    C38 5496   2.800   7.203   0.228 -0.6676  0.1815 -0.2850
    2TTP    C39 5497   2.909   7.192   0.121 -0.5162 -0.1006  0.9377
    2TTP    C40 5498   3.020   7.108   0.161 -0.2179  0.9085 -0.2863
    2TTP    C41 5499   3.127   7.101   0.052  0.7024 -0.4379  0.2739
    2TTP    C42 5500   3.233   7.000   0.087 -0.0792 -0.1940  0.1568
    3TTP     S1 5501   2.669   8.039   1.558  0.0147  0.1944 -0.0299
    3TTP     S5 5502   2.671   8.464   1.493 -0.0829  0.2289  0.1909
    3TTP     C1 5503   2.640   8.433   1.670  0.0607  0.1330  0.1994
    3TTP     C2 5504   2.638   8.300   1.700  0.0994  0.1167  0.1317
    3TTP     C3 5505   2.660   8.218   1.585  0.0169  0.1794  0.0707
    3TTP     C4 5506   2.700   8.071   1.382 -0.1289  0.2903 -0.0384
    3TTP    C17 5507   2.702   8.204   1.351 -0.1676  0.3066  0.0293
    3TTP    C18 5508   2.680   8.286   1.466 -0.0851  0.2439  0.0903
    3TTP    C32 5509   2.623   8.242   1.842  0.0961 -0.0038 -0.3039
    3TTP    C33 5510   2.753   8.188   1.914  0.1754 -0.9771 -0.2314
    3TTP    C34 5511   2.870   8.281   1.940 -0.6541  0.1368 -0.5473
    3TTP    C35 5512   2.990   8.191   1.998 -0.4615  0.2349 -0.0533
    3TTP    C36 5513   2.980   8.129   2.135  0.6692  0.3319 -0.6680
    3TTP    C37 5514   3.106   8.073   2.177 -0.2506  0.7766 -0.2010
    3TTP    C38 5515   3.089   8.008   2.310 -0.4316  0.2376  0.4690
    3TTP    C39 5516   3.228   7.948   2.334 -0.0809  0.0850 -0.2047
    3TTP    C40 5517   3.261   7.896   2.477 -0.7231  0.2025 -0.4338
    3TTP    C41 5518   3.413   7.863   2.494 -0.2041 -0.3576  0.1259
    3TTP    C42 5519   3.437   7.780   2.620  0.7914 -0.1993  0.0861
    4FIC     F1 5520   2.916   8.682  -0.056 -0.1878 -0.0902  0.1095
    4FIC     F2 5521   2.777   8.570  -0.261 -0.2602 -0.0647  0.1444
    4FIC     O1 5522   2.865   8.299   0.324  0.1203 -0.2274  0.0132
    4FIC     N5 5523   2.542   8.135  -0.287 -0.1448 -0.1258  0.1259
    4FIC     N6 5524   2.530   7.859   0.051  0.1105 -0.2382  0.0437
    4FIC    C19 5525   2.714   8.056   0.262  0.1605 -0.2517  0.0124
    4FIC    C20 5526   2.733   8.157   0.175  0.0858 -0.2182  0.0352
    4FIC    C21 5527   2.811   8.279   0.214  0.0699 -0.2077  0.0340
    4FIC    C22 5528   2.812   8.368   0.096 -0.0167 -0.1697  0.0622
    4FIC    C23 5529   2.872   8.493   0.084 -0.0597 -0.1482  0.0713
    4FIC    C24 5530   2.859   8.558  -0.037 -0.1416 -0.1129  0.0991
    4FIC    C25 5531   2.787   8.500  -0.143 -0.1788 -0.1001  0.1171
    4FIC    C26 5532   2.727   8.376  -0.132 -0.1363 -0.1212  0.1081
    4FIC    C27 5533   2.739   8.308  -0.010 -0.0534 -0.1570  0.0801
    4FIC    C28 5534   2.688   8.176   0.034  0.0082 -0.1862  0.0642
    4FIC    C29 5535   2.613   8.088  -0.041 -0.0044 -0.1841  0.0744
    4FIC    C30 5536   2.574   8.114  -0.176 -0.0815 -0.1520  0.1027
    4FIC    C31 5537   2.568   7.962   0.010  0.0589 -0.2139  0.0575
    5FIC     F1 5538   2.571   9.253   1.700 -0.1091  0.0160  0.2115
    5FIC     F2 5539   2.530   9.235   1.969 -0.0274 -0.0752  0.2182
    5FIC     O1 5540   2.633   8.730   1.572 -0.0807  0.0647  0.0261
    5FIC     N5 5541   2.515   8.838   2.263  0.1101 -0.1716  0.0956
    5FIC     N6 5542   2.571   8.433   2.109  0.1159 -0.1151 -0.0507
    5FIC    C19 5543   2.615   8.528   1.783  0.0074 -0.0051 -0.0334
    5FIC    C20 5544   2.601   8.660   1.805 -0.0029 -0.0138  0.0130
    5FIC    C21 5545   2.612   8.758   1.691 -0.0489  0.0239  0.0412
    5FIC    C22 5546   2.592   8.892   1.749 -0.0488  0.0028  0.0900
    5FIC    C23 5547   2.593   9.015   1.683 -0.0839  0.0242  0.1289
    5FIC    C24 5548   2.572   9.128   1.760 -0.0757 -0.0029  0.1716
    5FIC    C25 5549   2.551   9.119   1.898 -0.0337 -0.0499  0.1749
    5FIC    C26 5550   2.550   8.997   1.965  0.0015 -0.0714  0.1363
    5FIC    C27 5551   2.571   8.881   1.889 -0.0061 -0.0445  0.0927
    5FIC    C28 5552   2.576   8.738   1.928  0.0237 -0.0566  0.0456
    5FIC    C29 5553   2.560   8.688   2.055  0.0677 -0.0993  0.0342
    5FIC    C30 5554   2.535   8.771   2.169  0.0909 -0.1389  0.0680
    5FIC    C31 5555   2.566   8.548   2.084  0.0939 -0.1078 -0.0124
    1BTD     S2 5556   4.045   0.196   1.222  0.0957 -0.1506  0.1144
    1BTD     N1 5557   4.057   0.164   1.045 -0.0993 -0.0628  0.0846
    1BTD     N2 5558   4.041   0.023   1.268  0.1268 -0.1735  0.0316
    1BTD     N3 5559   4.053  -0.389   1.043 -0.1615 -0.0615 -0.1909
    1BTD     N4 5560   4.074  -0.215   0.768 -0.4402  0.0749 -0.1255
    1BTD     C5 5561   4.066  -0.036   0.904 -0.2741  0.0075 -0.0259
    1BTD     C6 5562   4.057   0.033   1.030 -0.1296 -0.0554  0.0179
    1BTD     C7 5563   4.048  -0.047   1.155 -0.0030 -0.1174 -0.0118
    1BTD     C8 5564   4.048  -0.190   1.147 -0.0271 -0.1134 -0.0838
    1BTD    C15 5565   4.056  -0.253   1.021 -0.1704 -0.0508 -0.1248
    1BTD    C16 5566   4.065  -0.176   0.901 -0.2923  0.0090 -0.0961
    1BTD    C43 5567   4.123  -0.345   0.709  0.2693 -0.2309  0.4476
    1BTD    C44 5568   4.269  -0.368   0.675  0.0005  0.0819  0.2759
    1BTD    C45 5569   4.299  -0.520   0.643 -0.9988  0.4943  0.3173
    1BTD    C46 5570   4.251  -0.576   0.507  0.2574  0.1702  0.6163
    1BTD    C47 5571   4.341  -0.261   0.589 -0.5892  0.2137 -0.6225
    1BTD    C48 5572   4.493  -0.283   0.572 -0.1228  0.3256  0.3919
    1BTD    C49 5573   4.594  -0.170   0.532  0.6103 -0.0509 -0.2035
    1BTD    C50 5574   4.593  -0.048   0.634 -0.2096  0.6613 -0.2274
    1BTD    C75 5575   4.014  -0.495   0.952 -0.7563  0.6929  0.0935
    1BTD    C76 5576   3.872  -0.553   0.946  0.1307  0.5270 -0.3610
    1BTD    C77 5577   3.772  -0.445   0.903  0.5097  0.3719  0.6934
    1BTD    C78 5578   3.620  -0.492   0.901  0.1475  0.2255 -0.1331
    1BTD    C79 5579   3.871  -0.691   0.881  0.2560  0.5963  0.5076
    1BTD    C80 5580   3.903  -0.694   0.730 -0.0494  0.4329  0.3808
    1BTD    C81 5581   3.923  -0.836   0.687  0.2971  0.1761 -0.0281
    1BTD    C82 5582   4.006  -0.863   0.557  0.1702 -0.6064 -0.5558
    2TTP     S1 5583   4.070   0.166   0.667  0.3972  0.3308 -0.2309
    2TTP     S5 5584   4.069  -0.166   0.393 -0.3110  0.2705 -0.1572
    2TTP     C1 5585   4.072  -0.012   0.297 -0.0651  0.2434 -0.1926
    2TTP     C2 5586   4.073   0.100   0.376  0.1681  0.2605 -0.2175
    2TTP     C3 5587   4.071   0.067   0.515  0.1608  0.2955 -0.2094
    2TTP     C4 5588   4.067   0.011   0.763  0.1512  0.3579 -0.1955
    2TTP    C17 5589   4.066  -0.100   0.684 -0.0819  0.3409 -0.1706
    2TTP    C18 5590   4.068  -0.068   0.545 -0.0747  0.3058 -0.1787
    2TTP    C32 5591   4.080   0.249   0.334  0.0319  0.1041  0.3371
    2TTP    C33 5592   4.215   0.319   0.342  0.2258  0.1016 -0.1623
    2TTP    C34 5593   4.226   0.472   0.333  0.1386 -0.3125 -0.0757
    2TTP    C35 5594   4.204   0.527   0.193 -0.2213 -0.7421  0.0693
    2TTP    C36 5595   4.220   0.678   0.173 -0.1598 -0.5156 -0.2457
    2TTP    C37 5596   4.200   0.728   0.029 -0.5625  0.0339  0.0065
    2TTP    C38 5597   4.212   0.877   0.013  0.1866 -0.0969  0.3640
    2TTP    C39 5598   4.137   0.965   0.106 -0.0550  0.0536  0.5054
    2TTP    C40 5599   4.176   1.111   0.074 -0.5825 -0.0623 -0.3724
    2TTP    C41 5600   4.302   1.172   0.147 -0.3713  0.5814  0.2192
    2TTP    C42 5601   4.342   1.312   0.096 -0.3385  0.0539  0.2602
    3TTP     S1 5602   4.077  -0.310   1.426 -0.4046  0.0695 -0.1345
    3TTP     S5 5603   4.073  -0.703   1.252  0.2999 -0.0397  0.0890
    3TTP     C1 5604   4.106  -0.719   1.430  0.1905  0.1109  0.1229
    3TTP     C2 5605   4.109  -0.598   1.494 -0.0336  0.1535  0.0559
    3TTP     C3 5606   4.086  -0.489   1.405 -0.1269  0.0687 -0.0247
    3TTP     C4 5607   4.045  -0.294   1.248 -0.2952 -0.0813 -0.1685
    3TTP    C17 5608   4.042  -0.414   1.184 -0.0711 -0.1239 -0.1015
    3TTP    C18 5609   4.065  -0.523   1.273  0.0222 -0.0391 -0.0209
    3TTP    C32 5610   4.143  -0.564   1.638 -0.2584  0.0793 -0.6989
    3TTP    C33 5611   4.051  -0.487   1.730  0.5669  0.7029 -0.5099
    3TTP    C34 5612   3.914  -0.541   1.743  0.2166 -0.1484 -0.4112
    3TTP    C35 5613   3.822  -0.472   1.844 -0.0227 -0.8471  0.6411
    3TTP    C36 5614   3.787  -0.320   1.831 -0.2067 -0.3805 -0.1952
    3TTP    C37 5615   3.713  -0.268   1.706 -0.1133  0.6793  0.5677
    3TTP    C38 5616   3.716  -0.115   1.685 -0.7333 -0.1322 -0.2882
    3TTP    C39 5617   3.841  -0.028   1.710 -0.1745 -0.0335  0.2633
    3TTP    C40 5618   3.982  -0.064   1.658  0.3604  0.2871 -0.4884
    3TTP    C41 5619   4.092   0.027   1.708  0.5654  0.0238 -0.1800
    3TTP    C42 5620   4.107   0.148   1.623 -0.0813 -0.4058 -0.0083
    4FIC     F1 5621   3.853  -0.568  -0.260 -0.0172  0.1564  0.1377
    4FIC     F2 5622   4.003  -0.434  -0.443  0.1028  0.0929  0.1901
    4FIC     O1 5623   3.912  -0.250   0.174 -0.0542  0.1441  0.1518
    4FIC     N5 5624   4.263  -0.015  -0.396  0.2489 -0.0074  0.2755
    4FIC     N6 5625   4.280   0.206  -0.020  0.1957 -0.0041  0.2759
    4FIC    C19 5626   4.078  -0.010   0.154  0.0473  0.0791  0.2069
    4FIC    C20 5627   4.057  -0.095   0.052  0.0519  0.0849  0.2013
    4FIC    C21 5628   3.971  -0.216   0.070 -0.0024  0.1189  0.1724
    4FIC    C22 5629   3.969  -0.286  -0.060  0.0184  0.1162  0.1736
    4FIC    C23 5630   3.902  -0.404  -0.092 -0.0157  0.1414  0.1519
    4FIC    C24 5631   3.916  -0.452  -0.221  0.0138  0.1328  0.1581
    4FIC    C25 5632   3.994  -0.383  -0.315  0.0756  0.1001  0.1851
    4FIC    C26 5633   4.060  -0.265  -0.284  0.1099  0.0749  0.2068
    4FIC    C27 5634   4.048  -0.215  -0.153  0.0808  0.0830  0.2010
    4FIC    C28 5635   4.105  -0.095  -0.089  0.1038  0.0623  0.2191
    4FIC    C29 5636   4.187  -0.001  -0.148  0.1622  0.0288  0.2469
    4FIC    C30 5637   4.229  -0.009  -0.284  0.2096  0.0093  0.2625
    4FIC    C31 5638   4.237   0.112  -0.077  0.1804  0.0111  0.2627
    5FIC     F1 5639   4.298  -1.485   1.211  0.4117  0.0043  0.0407
    5FIC     F2 5640   4.288  -1.556   1.474 -0.1799 -0.0415  0.0093
    5FIC     O1 5641   4.187  -0.956   1.244  0.3742  0.0060 -0.1152
    5FIC     N5 5642   4.195  -1.281   1.874 -1.0573 -0.1060 -0.1469
    5FIC     N6 5643   4.110  -0.854   1.847 -0.9674 -0.0955 -0.2623
    5FIC    C19 5644   4.138  -0.836   1.506 -0.2044 -0.0371 -0.2005
    5FIC    C20 5645   4.166  -0.967   1.488 -0.1718 -0.0358 -0.1601
    5FIC    C21 5646   4.190  -1.021   1.350  0.1332 -0.0130 -0.1177
    5FIC    C22 5647   4.218  -1.165   1.366  0.0880 -0.0175 -0.0802
    5FIC    C23 5648   4.246  -1.257   1.266  0.3054 -0.0019 -0.0344
    5FIC    C24 5649   4.269  -1.388   1.305  0.2086 -0.0104 -0.0051
    5FIC    C25 5650   4.264  -1.425   1.440 -0.0962 -0.0340 -0.0213
    5FIC    C26 5651   4.236  -1.333   1.540 -0.3142 -0.0498 -0.0669
    5FIC    C27 5652   4.213  -1.200   1.503 -0.2208 -0.0415 -0.0971
    5FIC    C28 5653   4.180  -1.079   1.583 -0.3926 -0.0535 -0.1469
    5FIC    C29 5654   4.167  -1.074   1.720 -0.6979 -0.0769 -0.1753
    5FIC    C30 5655   4.182  -1.188   1.804 -0.8944 -0.0930 -0.1596
    5FIC    C31 5656   4.136  -0.953   1.789 -0.8444 -0.0869 -0.2230
    1BTD     S2 5657   4.206   5.064   1.417  0.3531 -0.0324  0.1992
    1BTD     N1 5658   4.230   5.010   1.587  0.2627 -0.1080  0.1879
    1BTD     N2 5659   4.216   4.898   1.348  0.2596 -0.0154  0.1446
    1BTD     N3 5660   4.278   4.463   1.513 -0.0938 -0.1167  0.0129
    1BTD     N4 5661   4.295   4.601   1.808 -0.0899 -0.2310  0.0663
    1BTD     C5 5662   4.264   4.794   1.699  0.0786 -0.1708  0.1237
    1BTD     C6 5663   4.243   4.878   1.583  0.1724 -0.1160  0.1462
    1BTD     C7 5664   4.235   4.815   1.449  0.1706 -0.0643  0.1220
    1BTD     C8 5665   4.248   4.673   1.437  0.0752 -0.0696  0.0765
    1BTD    C15 5666   4.269   4.595   1.553 -0.0148 -0.1240  0.0559
    1BTD    C16 5667   4.276   4.655   1.682 -0.0130 -0.1742  0.0792
    1BTD    C43 5668   4.398   4.498   1.834 -0.2375  0.3631  0.2928
    1BTD    C44 5669   4.414   4.408   1.958  0.0590  0.0553  0.0253
    1BTD    C45 5670   4.301   4.312   1.995 -0.0354 -0.0214 -0.0764
    1BTD    C46 5671   4.158   4.356   2.013 -0.2196 -0.6916 -0.1253
    1BTD    C47 5672   4.560   4.350   1.982 -0.0270 -0.4295 -0.3501
    1BTD    C48 5673   4.679   4.449   1.977  0.2050  0.1453 -0.3924
    1BTD    C49 5674   4.682   4.570   2.073  0.9574  0.3092  0.0141
    1BTD    C50 5675   4.799   4.658   2.037 -0.6472 -0.4120 -0.4074
    1BTD    C75 5676   4.257   4.339   1.594 -0.4953  0.6748  0.3980
    1BTD    C76 5677   4.114   4.274   1.598 -0.4010  0.4448  0.2231
    1BTD    C77 5678   4.016   4.364   1.676 -0.5013 -0.0011  0.1809
    1BTD    C78 5679   3.868   4.316   1.689  0.1506  0.0065 -0.6216
    1BTD    C79 5680   4.119   4.132   1.658 -0.4023 -0.1569  0.1670
    1BTD    C80 5681   4.220   4.039   1.598 -0.0288 -0.6683 -0.3338
    1BTD    C81 5682   4.269   3.925   1.682 -0.1512  0.1828 -0.0269
    1BTD    C82 5683   4.356   3.837   1.592  0.5057 -0.7806  0.1637
    2TTP     S1 5684   4.270   4.974   1.939 -0.0091 -0.2194 -0.0311
    2TTP     S5 5685   4.317   4.628   2.190 -0.1487 -0.1998  0.0222
    2TTP     C1 5686   4.307   4.776   2.296 -0.2097 -0.1917  0.0052
    2TTP     C2 5687   4.292   4.891   2.224 -0.1704 -0.1973 -0.0122
    2TTP     C3 5688   4.288   4.867   2.084 -0.0904 -0.2081 -0.0128
    2TTP     C4 5689   4.280   4.826   1.833  0.0521 -0.2276 -0.0142
    2TTP    C17 5690   4.295   4.710   1.904  0.0126 -0.2219  0.0032
    2TTP    C18 5691   4.299   4.734   2.045 -0.0674 -0.2112  0.0039
    2TTP    C32 5692   4.279   5.028   2.288 -0.2383 -0.4616  0.5996
    2TTP    C33 5693   4.197   5.138   2.223 -0.2212 -0.1413 -0.5055
    2TTP    C34 5694   4.219   5.273   2.302  0.4128  0.4913  0.5021
    2TTP    C35 5695   4.097   5.363   2.290 -0.7133  0.4261 -0.6496
    2TTP    C36 5696   4.096   5.497   2.368 -0.5361 -0.2675 -0.5813
    2TTP    C37 5697   4.147   5.497   2.513  0.0115 -0.0226 -0.4782
    2TTP    C38 5698   4.089   5.398   2.617  0.2285 -0.3899  0.0537
    2TTP    C39 5699   4.149   5.434   2.750 -0.3563  0.6170 -0.2324
    2TTP    C40 5700   4.075   5.364   2.870  0.4299  0.2769 -0.6720
    2TTP    C41 5701   4.099   5.438   3.003  0.2743 -0.0196 -0.2062
    2TTP    C42 5702   4.051   5.356   3.121  0.1268 -0.1118 -0.3672
    3TTP     S1 5703   4.273   4.597   1.146  0.2643  0.1169  0.0747
    3TTP     S5 5704   4.295   4.185   1.268 -0.0647 -0.0663 -0.4765
    3TTP     C1 5705   4.321   4.193   1.088  0.1419  0.1745 -0.4370
    3TTP     C2 5706   4.315   4.321   1.040  0.2555  0.2452 -0.2645
    3TTP     C3 5707   4.291   4.417   1.143  0.1836  0.1117 -0.1573
    3TTP     C4 5708   4.248   4.588   1.326  0.0577 -0.1239  0.0351
    3TTP    C17 5709   4.253   4.460   1.374 -0.0561 -0.1948 -0.1374
    3TTP    C18 5710   4.277   4.365   1.271  0.0157 -0.0612 -0.2446
    3TTP    C32 5711   4.329   4.377   0.902  0.3407 -0.8584 -0.3720
    3TTP    C33 5712   4.193   4.398   0.830 -0.4412 -0.3314  0.5649
    3TTP    C34 5713   4.202   4.457   0.694  0.2112 -0.8848  0.0929
    3TTP    C35 5714   4.067   4.514   0.652 -0.1077 -0.3052 -0.5435
    3TTP    C36 5715   4.060   4.561   0.508 -0.3276  0.5183 -0.1787
    3TTP    C37 5716   4.158   4.665   0.460  0.2613 -0.5603  0.7168
    3TTP    C38 5717   4.136   4.695   0.315 -0.6115 -0.4554  1.3591
    3TTP    C39 5718   3.997   4.739   0.257  0.1204 -0.2094 -0.1996
    3TTP    C40 5719   3.958   4.881   0.290  0.3887 -0.1459 -0.2050
    3TTP    C41 5720   3.830   4.931   0.228 -0.0212  0.3236 -0.2272
    3TTP    C42 5721   3.695   4.864   0.248  0.0087 -0.3088  0.0208
    4FIC     F1 5722   4.325   4.211   2.893  0.0023 -0.0323 -0.0677
    4FIC     F2 5723   4.230   4.400   3.064  0.0529 -0.0299 -0.0422
    4FIC     O1 5724   4.366   4.498   2.436 -0.1181 -0.0347 -0.0801
    4FIC     N5 5725   4.123   4.877   2.985  0.0403 -0.0285 -0.0145
    4FIC     N6 5726   4.174   5.063   2.593 -0.0638 -0.0309 -0.0294
    4FIC    C19 5727   4.290   4.781   2.437 -0.1122 -0.0335 -0.0602
    4FIC    C20 5728   4.283   4.701   2.545 -0.0839 -0.0330 -0.0581
    4FIC    C21 5729   4.324   4.557   2.537 -0.0889 -0.0336 -0.0688
    4FIC    C22 5730   4.305   4.500   2.671 -0.0532 -0.0328 -0.0632
    4FIC    C23 5731   4.329   4.369   2.712 -0.0443 -0.0330 -0.0694
    4FIC    C24 5732   4.303   4.338   2.845 -0.0084 -0.0321 -0.0621
    4FIC    C25 5733   4.254   4.436   2.933  0.0177 -0.0309 -0.0490
    4FIC    C26 5734   4.229   4.567   2.893  0.0091 -0.0306 -0.0427
    4FIC    C27 5735   4.255   4.600   2.759 -0.0272 -0.0316 -0.0500
    4FIC    C28 5736   4.240   4.727   2.685 -0.0449 -0.0316 -0.0464
    4FIC    C29 5737   4.195   4.847   2.736 -0.0286 -0.0308 -0.0343
    4FIC    C30 5738   4.156   4.863   2.873  0.0093 -0.0294 -0.0235
    4FIC    C31 5739   4.184   4.965   2.657 -0.0482 -0.0309 -0.0317
    5FIC     F1 5740   4.404   3.375   1.169 -0.1597 -0.1368 -0.1879
    5FIC     F2 5741   4.461   3.362   0.903  0.2986 -0.0989 -0.0942
    5FIC     O1 5742   4.320   3.907   1.229 -0.2685 -0.1461 -0.2579
    5FIC     N5 5743   4.482   3.721   0.564  0.8801 -0.0508 -0.0094
    5FIC     N6 5744   4.405   4.139   0.664  0.7026 -0.0658 -0.0830
    5FIC    C19 5745   4.344   4.083   0.996  0.1306 -0.1133 -0.1933
    5FIC    C20 5746   4.363   3.950   0.992  0.1402 -0.1122 -0.1793
    5FIC    C21 5747   4.349   3.866   1.116 -0.0725 -0.1298 -0.2147
    5FIC    C22 5748   4.376   3.727   1.075 -0.0018 -0.1239 -0.1878
    5FIC    C23 5749   4.375   3.613   1.156 -0.1395 -0.1352 -0.2053
    5FIC    C24 5750   4.404   3.492   1.095 -0.0338 -0.1264 -0.1730
    5FIC    C25 5751   4.433   3.485   0.958  0.2026 -0.1069 -0.1248
    5FIC    C26 5752   4.434   3.598   0.877  0.3408 -0.0955 -0.1070
    5FIC    C27 5753   4.405   3.722   0.937  0.2370 -0.1041 -0.1392
    5FIC    C28 5754   4.398   3.859   0.880  0.3337 -0.0963 -0.1321
    5FIC    C29 5755   4.421   3.894   0.749  0.5591 -0.0775 -0.0898
    5FIC    C30 5756   4.454   3.799   0.647  0.7348 -0.0630 -0.0457
    5FIC    C31 5757   4.412   4.029   0.703  0.6368 -0.0712 -0.0863
    1BTD     S2 5758   3.916   4.674   1.489 -0.0128  0.1578  0.0478
    1BTD     N1 5759   3.912   4.693   1.668  0.2283  0.1791  0.0514
    1BTD     N2 5760   3.900   4.850   1.456 -0.2587  0.1360  0.0443
    1BTD     N3 5761   3.861   5.242   1.711 -0.3245  0.1299  0.0437
    1BTD     N4 5762   3.876   5.048   1.972  0.2756  0.1830  0.0525
    1BTD     C5 5763   3.893   4.881   1.824  0.2458  0.1805  0.0518
    1BTD     C6 5764   3.900   4.822   1.693  0.1188  0.1693  0.0499
    1BTD     C7 5765   3.893   4.911   1.574 -0.1539  0.1452  0.0459
    1BTD     C8 5766   3.880   5.053   1.592 -0.2858  0.1334  0.0441
    1BTD    C15 5767   3.873   5.105   1.723 -0.1537  0.1451  0.0461
    1BTD    C16 5768   3.880   5.020   1.837  0.1089  0.1683  0.0499
    1BTD    C43 5769   3.823   5.164   2.051 -0.5247 -0.4239  0.8396
    1BTD    C44 5770   3.680   5.192   2.104 -0.0744  0.2659  0.4278
    1BTD    C45 5771   3.662   5.319   2.199  0.4017  0.3193  0.3817
    1BTD    C46 5772   3.733   5.315   2.333 -0.6114  0.9419  0.0924
    1BTD    C47 5773   3.568   5.156   2.014  0.4798  0.8093  1.3257
    1BTD    C48 5774   3.425   5.171   2.080 -0.0939 -0.0080  0.8071
    1BTD    C49 5775   3.308   5.117   1.998 -0.1504  0.0120  0.2842
    1BTD    C50 5776   3.179   5.108   2.073  0.2691 -0.5931 -0.1456
    1BTD    C75 5777   3.880   5.357   1.806 -0.2417  0.6488  0.6071
    1BTD    C76 5778   4.025   5.411   1.823  0.2886  0.6494  0.5298
    1BTD    C77 5779   4.136   5.309   1.860 -0.4861  0.3556 -0.4449
    1BTD    C78 5780   4.277   5.366   1.875  0.0651  0.4091 -0.4306
    1BTD    C79 5781   4.041   5.555   1.866 -0.1991 -0.6609  0.0808
    1BTD    C80 5782   3.960   5.585   1.999 -0.2017 -0.1719  0.1967
    1BTD    C81 5783   4.004   5.718   2.060  0.9578 -0.1275  0.4638
    1BTD    C82 5784   3.910   5.750   2.173 -0.2045 -0.4520  0.2711
    2TTP     S1 5785   3.905   4.667   2.039 -0.2359  0.0883  0.1916
    2TTP     S5 5786   3.856   4.972   2.337  0.6534  0.2676  0.1609
    2TTP     C1 5787   3.861   4.810   2.420  0.6062  0.2941  0.2154
    2TTP     C2 5788   3.877   4.707   2.333  0.3287  0.2402  0.2280
    2TTP     C3 5789   3.885   4.751   2.197  0.1435  0.1762  0.1953
    2TTP     C4 5790   3.900   4.828   1.956 -0.1886  0.0619  0.1371
    2TTP    C17 5791   3.884   4.932   2.043  0.0888  0.1158  0.1245
    2TTP    C18 5792   3.876   4.888   2.179  0.2740  0.1798  0.1574
    2TTP    C32 5793   3.879   4.559   2.370  0.1827 -0.2621 -0.0692
    2TTP    C33 5794   4.007   4.492   2.325 -0.0694  0.5417 -0.4017
    2TTP    C34 5795   4.023   4.337   2.355 -0.1295 -0.4787  0.2770
    2TTP    C35 5796   4.047   4.293   2.496 -0.0266 -0.0363 -0.4041
    2TTP    C36 5797   4.042   4.144   2.519  0.1868 -0.2833  0.1187
    2TTP    C37 5798   4.026   4.116   2.665 -0.1049  0.4501 -0.1279
    2TTP    C38 5799   4.059   3.970   2.715 -0.2968 -0.4906  0.3964
    2TTP    C39 5800   4.188   3.909   2.659 -0.1069 -0.6629  0.1407
    2TTP    C40 5801   4.320   3.969   2.708 -0.2945 -0.3072 -0.3363
    2TTP    C41 5802   4.439   3.895   2.661  0.3674 -0.2114 -0.1040
    2TTP    C42 5803   4.580   3.927   2.718 -0.3232 -0.1830 -0.7707
    3TTP     S1 5804   3.869   5.185   1.320 -0.2826 -0.1162 -0.1095
    3TTP     S5 5805   3.816   5.566   1.512  0.4269 -0.0362 -0.0640
    3TTP     C1 5806   3.806   5.590   1.332  0.1779 -0.0445 -0.0522
    3TTP     C2 5807   3.822   5.474   1.262 -0.0559 -0.0696 -0.0656
    3TTP     C3 5808   3.842   5.362   1.348 -0.0467 -0.0833 -0.0856
    3TTP     C4 5809   3.879   5.161   1.500 -0.0336 -0.1079 -0.1213
    3TTP    C17 5810   3.863   5.277   1.570  0.2002 -0.0829 -0.1079
    3TTP    C18 5811   3.843   5.390   1.484  0.1911 -0.0693 -0.0879
    3TTP    C32 5812   3.806   5.458   1.112 -0.8084  0.0216 -0.5019
    3TTP    C33 5813   3.929   5.436   1.026 -0.3686  0.4553 -0.1211
    3TTP    C34 5814   4.031   5.327   1.062  0.2839  0.3839 -0.1004
    3TTP    C35 5815   4.146   5.287   0.970  0.0107  0.0413  0.5678
    3TTP    C36 5816   4.228   5.156   0.974 -0.1284  0.6521  0.7413
    3TTP    C37 5817   4.127   5.033   0.979  0.7306  0.3097  0.8891
    3TTP    C38 5818   4.035   5.000   0.854 -1.4547  0.3190  0.9977
    3TTP    C39 5819   3.948   4.883   0.870 -0.1315  0.7832  1.0152
    3TTP    C40 5820   3.867   4.854   0.741 -0.9938  0.3637  0.3128
    3TTP    C41 5821   3.757   4.750   0.743 -0.0501 -0.1689 -1.1467
    3TTP    C42 5822   3.627   4.790   0.805  0.5610  0.3593  0.0586
    4FIC     F1 5823   3.714   5.288   3.074 -0.5488 -0.3518  0.2787
    4FIC     F2 5824   3.763   5.073   3.234  0.6895 -0.1664  0.1729
    4FIC     O1 5825   3.776   5.065   2.584 -1.2068 -0.1960  0.1229
    4FIC     N5 5826   3.876   4.606   3.116  2.0010  0.2111 -0.0902
    4FIC     N6 5827   3.915   4.476   2.701  1.2372  0.2955 -0.1906
    4FIC    C19 5828   3.844   4.781   2.563 -0.2574  0.0365 -0.0335
    4FIC    C20 5829   3.827   4.846   2.680 -0.1402 -0.0099  0.0098
    4FIC    C21 5830   3.792   4.992   2.683 -0.6530 -0.1301  0.0897
    4FIC    C22 5831   3.780   5.030   2.825 -0.3673 -0.1533  0.1203
    4FIC    C23 5832   3.750   5.155   2.877 -0.6583 -0.2536  0.1923
    4FIC    C24 5833   3.744   5.167   3.015 -0.2911 -0.2555  0.2085
    4FIC    C25 5834   3.769   5.056   3.098  0.3467 -0.1599  0.1539
    4FIC    C26 5835   3.800   4.931   3.046  0.6400 -0.0596  0.0820
    4FIC    C27 5836   3.806   4.917   2.907  0.2761 -0.0560  0.0646
    4FIC    C28 5837   3.835   4.799   2.821  0.4410  0.0359 -0.0055
    4FIC    C29 5838   3.865   4.672   2.864  1.0215  0.1429 -0.0719
    4FIC    C30 5839   3.871   4.636   3.002  1.5581  0.1800 -0.0817
    4FIC    C31 5840   3.892   4.565   2.774  1.1368  0.2263 -0.1369
    5FIC     F1 5841   3.591   6.348   1.561  0.2422  0.0966  0.2659
    5FIC     F2 5842   3.622   6.428   1.302 -0.2732  0.1390  0.2158
    5FIC     O1 5843   3.708   5.821   1.520  0.4370  0.1596 -0.0026
    5FIC     N5 5844   3.749   6.166   0.902 -0.8751  0.2451 -0.0475
    5FIC     N6 5845   3.835   5.738   0.923 -0.6190  0.2860 -0.2472
    5FIC    C19 5846   3.779   5.710   1.259  0.0139  0.2228 -0.1458
    5FIC    C20 5847   3.749   5.839   1.279 -0.0150  0.2052 -0.0763
    5FIC    C21 5848   3.713   5.889   1.417  0.2118  0.1730 -0.0053
    5FIC    C22 5849   3.685   6.033   1.403  0.1135  0.1605  0.0598
    5FIC    C23 5850   3.649   6.123   1.503  0.2521  0.1315  0.1372
    5FIC    C24 5851   3.628   6.255   1.467  0.1171  0.1248  0.1884
    5FIC    C25 5852   3.644   6.295   1.333 -0.1485  0.1467  0.1625
    5FIC    C26 5853   3.680   6.207   1.233 -0.2880  0.1758  0.0854
    5FIC    C27 5854   3.702   6.073   1.268 -0.1546  0.1830  0.0326
    5FIC    C28 5855   3.741   5.955   1.187 -0.2441  0.2112 -0.0520
    5FIC    C29 5856   3.766   5.954   1.052 -0.4919  0.2379 -0.0989
    5FIC    C30 5857   3.757   6.071   0.970 -0.7018  0.2418 -0.0705
    5FIC    C31 5858   3.804   5.835   0.981 -0.5603  0.2642 -0.1802
    1BTD     S2 5859   3.552   1.518   1.234 -0.0342  0.0731  0.0505
    1BTD     N1 5860   3.559   1.547   1.057 -0.1255  0.1206  0.0547
    1BTD     N2 5861   3.522   1.690   1.277  0.1425  0.0858  0.1222
    1BTD     N3 5862   3.475   2.094   1.043  0.3375  0.1976  0.2761
    1BTD     N4 5863   3.520   1.919   0.773  0.0072  0.2404  0.1929
    1BTD     C5 5864   3.538   1.743   0.912 -0.0523  0.1826  0.1279
    1BTD     C6 5865   3.540   1.677   1.039 -0.0249  0.1424  0.1067
    1BTD     C7 5866   3.519   1.757   1.162  0.1251  0.1229  0.1445
    1BTD     C8 5867   3.498   1.899   1.152  0.2403  0.1447  0.2016
    1BTD    C15 5868   3.497   1.959   1.024  0.2084  0.1841  0.2204
    1BTD    C16 5869   3.517   1.882   0.906  0.0638  0.2028  0.1840
    1BTD    C43 5870   3.579   2.049   0.728 -0.0667  0.3918  0.2936
    1BTD    C44 5871   3.569   2.110   0.589  0.0331  0.5002  0.9211
    1BTD    C45 5872   3.686   2.202   0.554  0.1161  0.0393 -0.7467
    1BTD    C46 5873   3.686   2.271   0.419  0.3912 -0.2019  0.2369
    1BTD    C47 5874   3.429   2.168   0.555  0.0916  0.2513  0.7645
    1BTD    C48 5875   3.311   2.066   0.558  0.0609 -0.0846 -0.7141
    1BTD    C49 5876   3.175   2.116   0.511  0.0872  0.0263 -0.4605
    1BTD    C50 5877   3.101   2.226   0.574 -0.3564 -0.6081  0.0906
    1BTD    C75 5878   3.404   2.185   0.951 -0.0727 -0.9280  0.4886
    1BTD    C76 5879   3.412   2.335   0.956  0.5169 -0.6500 -0.0960
    1BTD    C77 5880   3.555   2.399   0.968  0.2739  0.8381  0.6334
    1BTD    C78 5881   3.679   2.367   0.878  0.1801 -0.0363  0.2690
    1BTD    C79 5882   3.312   2.403   0.861 -0.0160  0.1164  0.1304
    1BTD    C80 5883   3.279   2.556   0.853 -0.9076  0.4606 -0.0109
    1BTD    C81 5884   3.224   2.628   0.980 -0.4322 -0.3855  0.0147
    1BTD    C82 5885   3.191   2.771   0.953  1.0220 -0.1203 -0.5670
    2TTP     S1 5886   3.558   1.535   0.695 -0.0947 -0.1549  0.1652
    2TTP     S5 5887   3.539   1.846   0.398 -0.2704 -0.3613 -0.0403
    2TTP     C1 5888   3.552   1.686   0.313 -0.1835 -0.4100  0.0656
    2TTP     C2 5889   3.559   1.580   0.400 -0.1240 -0.3491  0.1353
    2TTP     C3 5890   3.554   1.622   0.536 -0.1451 -0.2618  0.1076
    2TTP     C4 5891   3.544   1.696   0.779 -0.1816 -0.1061  0.0594
    2TTP    C17 5892   3.537   1.801   0.693 -0.2411 -0.1670 -0.0103
    2TTP    C18 5893   3.543   1.759   0.556 -0.2201 -0.2543  0.0174
    2TTP    C32 5894   3.559   1.437   0.367 -0.5102  0.2213 -0.6217
    2TTP    C33 5895   3.689   1.365   0.397  0.2888  0.3062  0.4672
    2TTP    C34 5896   3.676   1.210   0.390 -0.7450  0.0418  0.0252
    2TTP    C35 5897   3.803   1.137   0.344 -0.2574  0.2079 -0.5311
    2TTP    C36 5898   3.798   0.985   0.368 -0.3308  0.0938 -0.0760
    2TTP    C37 5899   3.803   0.934   0.509  0.2051  0.3401 -0.0198
    2TTP    C38 5900   3.840   0.791   0.488 -0.0161 -0.3089 -1.1408
    2TTP    C39 5901   3.904   0.741   0.624  0.3173 -0.8468 -0.1793
    2TTP    C40 5902   3.939   0.591   0.640  0.3946 -0.2089 -0.3227
    2TTP    C41 5903   4.036   0.561   0.752  0.1182  0.0249 -0.5840
    2TTP    C42 5904   4.181   0.600   0.729  0.3875 -0.4115  0.2559
    3TTP     S1 5905   3.469   2.010   1.431 -0.1682  0.1653  0.0906
    3TTP     S5 5906   3.432   2.404   1.262  0.3878  0.1686 -0.0274
    3TTP     C1 5907   3.431   2.418   1.443 -0.1504  0.1704 -0.0264
    3TTP     C2 5908   3.443   2.297   1.506 -0.3538  0.1696  0.0101
    3TTP     C3 5909   3.452   2.189   1.413 -0.0920  0.1673  0.0386
    3TTP     C4 5910   3.470   1.995   1.250  0.3700  0.1634  0.0895
    3TTP    C17 5911   3.458   2.116   1.187  0.5734  0.1643  0.0530
    3TTP    C18 5912   3.449   2.224   1.279  0.3116  0.1665  0.0246
    3TTP    C32 5913   3.436   2.268   1.661  0.4051 -0.8443  0.3435
    3TTP    C33 5914   3.562   2.211   1.720 -0.3621  0.5123  0.4970
    3TTP    C34 5915   3.560   2.201   1.866 -0.5886  0.7887 -0.3968
    3TTP    C35 5916   3.699   2.201   1.931  0.1542  0.0927  0.3485
    3TTP    C36 5917   3.708   2.193   2.082  0.5936  0.3489 -0.1751
    3TTP    C37 5918   3.850   2.226   2.132 -0.1228 -0.5005 -0.2578
    3TTP    C38 5919   3.874   2.227   2.286  0.0304 -0.2372 -0.6663
    3TTP    C39 5920   3.875   2.080   2.341 -0.6597 -0.1622  0.7816
    3TTP    C40 5921   3.862   2.071   2.491 -0.4265  0.2808  0.1213
    3TTP    C41 5922   3.873   1.928   2.549 -0.0020 -0.2838  0.3244
    3TTP    C42 5923   3.988   1.839   2.506  0.2113 -0.1538 -0.5958
    4FIC     F1 5924   3.616   2.161  -0.357 -0.1915  0.1441  0.2760
    4FIC     F2 5925   3.603   1.936  -0.510 -0.0560  0.2339  0.1314
    4FIC     O1 5926   3.580   1.950   0.140 -0.0225 -0.2002  0.1428
    4FIC     N5 5927   3.560   1.462  -0.374  0.2590  0.1177 -0.1713
    4FIC     N6 5928   3.535   1.343   0.045  0.3636 -0.1694 -0.2463
    4FIC    C19 5929   3.556   1.660   0.171  0.1669 -0.2366 -0.0427
    4FIC    C20 5930   3.565   1.722   0.052  0.1191 -0.1536 -0.0035
    4FIC    C21 5931   3.577   1.872   0.044  0.0219 -0.1402  0.0921
    4FIC    C22 5932   3.586   1.905  -0.099 -0.0093 -0.0425  0.1134
    4FIC    C23 5933   3.598   2.032  -0.156 -0.0949  0.0023  0.1940
    4FIC    C24 5934   3.604   2.039  -0.294 -0.1086  0.0954  0.1982
    4FIC    C25 5935   3.597   1.923  -0.373 -0.0387  0.1415  0.1236
    4FIC    C26 5936   3.585   1.797  -0.317  0.0466  0.0972  0.0429
    4FIC    C27 5937   3.579   1.787  -0.177  0.0619  0.0030  0.0374
    4FIC    C28 5938   3.566   1.670  -0.087  0.1436 -0.0634 -0.0374
    4FIC    C29 5939   3.557   1.538  -0.125  0.2261 -0.0448 -0.1218
    4FIC    C30 5940   3.559   1.497  -0.262  0.2439  0.0445 -0.1488
    4FIC    C31 5941   3.545   1.431  -0.031  0.3014 -0.1135 -0.1898
    5FIC     F1 5942   3.278   3.203   1.239  0.3284  0.0034  0.0721
    5FIC     F2 5943   3.251   3.261   1.503 -0.1852 -0.1535  0.0543
    5FIC     O1 5944   3.394   2.675   1.260  0.3697  0.0092 -0.0113
    5FIC     N5 5945   3.294   2.966   1.899 -0.8944 -0.3751 -0.0305
    5FIC     N6 5946   3.390   2.542   1.862 -0.7586 -0.3389 -0.0921
    5FIC    C19 5947   3.409   2.542   1.520 -0.1064 -0.1387 -0.0578
    5FIC    C20 5948   3.381   2.673   1.505 -0.0967 -0.1340 -0.0361
    5FIC    C21 5949   3.375   2.734   1.368  0.1554 -0.0558 -0.0130
    5FIC    C22 5950   3.343   2.876   1.387  0.0971 -0.0719  0.0070
    5FIC    C23 5951   3.327   2.974   1.288  0.2693 -0.0178  0.0318
    5FIC    C24 5952   3.296   3.102   1.331  0.1689 -0.0469  0.0473
    5FIC    C25 5953   3.281   3.132   1.467 -0.0959 -0.1277  0.0382
    5FIC    C26 5954   3.297   3.035   1.566 -0.2688 -0.1821  0.0134
    5FIC    C27 5955   3.329   2.904   1.525 -0.1706 -0.1537 -0.0026
    5FIC    C28 5956   3.352   2.780   1.603 -0.3003 -0.1951 -0.0294
    5FIC    C29 5957   3.347   2.768   1.740 -0.5595 -0.2749 -0.0451
    5FIC    C30 5958   3.318   2.877   1.827 -0.7427 -0.3297 -0.0370
    5FIC    C31 5959   3.371   2.644   1.806 -0.6676 -0.3096 -0.0708
    1BTD     S2 5960   3.881   2.112   0.978  0.0468  0.0028  0.0217
    1BTD     N1 5961   3.907   2.039   0.815 -0.3752  0.0175 -0.0535
    1BTD     N2 5962   3.893   1.956   1.066  0.3678  0.0071 -0.0133
    1BTD     N3 5963   3.965   1.506   0.952  0.2596  0.0423 -0.2204
    1BTD     N4 5964   3.981   1.609   0.643 -0.6558  0.0550 -0.2700
    1BTD     C5 5965   3.945   1.813   0.729 -0.5108  0.0370 -0.1659
    1BTD     C6 5966   3.922   1.909   0.834 -0.2611  0.0244 -0.0985
    1BTD     C7 5967   3.915   1.862   0.974  0.1548  0.0186 -0.0760
    1BTD     C8 5968   3.931   1.722   1.003  0.3003  0.0257 -0.1220
    1BTD    C15 5969   3.953   1.632   0.897  0.0452  0.0378 -0.1875
    1BTD    C16 5970   3.960   1.677   0.762 -0.3555  0.0434 -0.2092
    1BTD    C43 5971   4.049   1.475   0.624  0.0425 -0.1771  0.3990
    1BTD    C44 5972   4.199   1.439   0.614  0.0464 -0.1357  0.8636
    1BTD    C45 5973   4.212   1.284   0.608 -0.3660 -0.1044  0.2133
    1BTD    C46 5974   4.155   1.189   0.506 -0.2559  0.3353 -0.6059
    1BTD    C47 5975   4.270   1.519   0.496  0.3694  0.5316  0.7035
    1BTD    C48 5976   4.421   1.537   0.480  0.0459  0.0897  0.3664
    1BTD    C49 5977   4.492   1.614   0.595  0.0937 -0.0035  0.2573
    1BTD    C50 5978   4.645   1.620   0.572  0.0519 -0.2081 -0.8153
    1BTD    C75 5979   3.900   1.383   0.893 -0.3180 -0.4417 -0.0990
    1BTD    C76 5980   3.924   1.236   0.922  0.0398 -0.6922  0.3044
    1BTD    C77 5981   3.845   1.133   0.838 -0.4340 -0.6617 -0.0793
    1BTD    C78 5982   3.695   1.164   0.834  0.4174 -0.5220 -0.4436
    1BTD    C79 5983   4.071   1.198   0.921 -0.6907 -0.3159 -0.4256
    1BTD    C80 5984   4.121   1.065   0.976 -0.1375 -0.0076  0.3722
    1BTD    C81 5985   4.253   1.079   1.047 -0.3939  0.2974 -0.0664
    1BTD    C82 5986   4.326   0.939   1.048  0.0092 -0.3155  0.5354
    2TTP     S1 5987   3.930   1.949   0.463 -0.0358 -0.1121 -0.0032
    2TTP     S5 5988   3.974   1.569   0.268 -0.1686  0.0616 -0.3744
    2TTP     C1 5989   3.951   1.697   0.140  0.1697  0.2352 -0.2632
    2TTP     C2 5990   3.936   1.822   0.193  0.2306  0.1917 -0.1420
    2TTP     C3 5991   3.942   1.821   0.336  0.0123  0.0198 -0.1326
    2TTP     C4 5992   3.952   1.821   0.590 -0.3741 -0.2858 -0.1145
    2TTP    C17 5993   3.968   1.696   0.537 -0.4350 -0.2423 -0.2357
    2TTP    C18 5994   3.962   1.697   0.394 -0.2168 -0.0704 -0.2450
    2TTP    C32 5995   3.912   1.954   0.118  0.0923 -0.3011  0.2896
    2TTP    C33 5996   3.965   2.089   0.168 -0.2445 -0.6724  0.2162
    2TTP    C34 5997   3.995   2.196   0.052 -0.2183  0.4125  0.0255
    2TTP    C35 5998   3.873   2.234  -0.024  0.7199  0.3054  0.0494
    2TTP    C36 5999   3.758   2.316   0.043 -0.7616  0.0443  0.1896
    2TTP    C37 6000   3.798   2.453   0.108  1.1514  0.5542  0.0057
    2TTP    C38 6001   3.874   2.562   0.026  0.6330 -0.4338  0.0288
    2TTP    C39 6002   3.875   2.702   0.101 -0.6692  0.3400  0.4449
    2TTP    C40 6003   3.733   2.763   0.132 -0.4168  0.2245 -0.1601
    2TTP    C41 6004   3.721   2.889   0.222  0.1474  0.1870  0.0927
    2TTP    C42 6005   3.779   3.017   0.156  0.7705  0.3311 -0.4188
    3TTP     S1 6006   3.874   1.676   1.292 -0.1058 -0.1412 -0.1437
    3TTP     S5 6007   3.952   1.257   1.240 -0.0632 -0.1226 -0.2315
    3TTP     C1 6008   3.911   1.287   1.415  0.0191 -0.1496 -0.2075
    3TTP     C2 6009   3.884   1.418   1.441  0.0109 -0.1570 -0.1788
    3TTP     C3 6010   3.896   1.500   1.324 -0.0609 -0.1415 -0.1750
    3TTP     C4 6011   3.915   1.646   1.117 -0.1882 -0.1142 -0.1677
    3TTP    C17 6012   3.941   1.515   1.091 -0.1800 -0.1069 -0.1963
    3TTP    C18 6013   3.930   1.433   1.208 -0.1082 -0.1223 -0.2002
    3TTP    C32 6014   3.833   1.478   1.571  0.8331  0.5552 -0.5752
    3TTP    C33 6015   3.898   1.606   1.609 -0.4281 -0.8688  0.2720
    3TTP    C34 6016   3.854   1.679   1.740 -0.2893  1.0230  0.2020
    3TTP    C35 6017   3.702   1.698   1.754 -0.3927 -0.1818  0.0612
    3TTP    C36 6018   3.665   1.758   1.889 -0.2358 -0.5054  0.9061
    3TTP    C37 6019   3.513   1.782   1.904 -0.1018 -0.3025  0.0032
    3TTP    C38 6020   3.471   1.818   2.050 -0.0869  0.3786  0.1188
    3TTP    C39 6021   3.314   1.821   2.063  0.5206 -0.1417 -0.6067
    3TTP    C40 6022   3.241   1.872   2.187 -0.0558 -0.0762  0.3303
    3TTP    C41 6023   3.280   1.814   2.315  0.0059  0.6314  0.2671
    3TTP    C42 6024   3.204   1.681   2.333 -0.1188 -0.5847  0.0267
    4FIC     F1 6025   3.877   1.031  -0.341  0.4054 -0.0368 -0.1284
    4FIC     F2 6026   3.909   1.192  -0.557 -0.0179  0.0516 -0.1263
    4FIC     O1 6027   3.900   1.393   0.061  0.3640 -0.0959 -0.0726
    4FIC     N5 6028   3.971   1.682  -0.583 -0.6560  0.1365 -0.0837
    4FIC     N6 6029   3.983   1.933  -0.225 -0.6030  0.0725 -0.0406
    4FIC    C19 6030   3.939   1.676  -0.003 -0.0550 -0.0324 -0.0509
    4FIC    C20 6031   3.932   1.579  -0.096 -0.0281 -0.0210 -0.0650
    4FIC    C21 6032   3.912   1.435  -0.055  0.1926 -0.0555 -0.0755
    4FIC    C22 6033   3.909   1.356  -0.179  0.1640 -0.0320 -0.0898
    4FIC    C23 6034   3.893   1.219  -0.192  0.3226 -0.0501 -0.1029
    4FIC    C24 6035   3.893   1.166  -0.321  0.2569 -0.0212 -0.1150
    4FIC    C25 6036   3.909   1.250  -0.432  0.0387  0.0244 -0.1139
    4FIC    C26 6037   3.926   1.387  -0.420 -0.1205  0.0426 -0.1010
    4FIC    C27 6038   3.926   1.442  -0.291 -0.0570  0.0139 -0.0886
    4FIC    C28 6039   3.940   1.582  -0.244 -0.1836  0.0224 -0.0733
    4FIC    C29 6040   3.959   1.693  -0.323 -0.4030  0.0629 -0.0678
    4FIC    C30 6041   3.966   1.687  -0.466 -0.5413  0.1032 -0.0765
    4FIC    C31 6042   3.972   1.824  -0.269 -0.5116  0.0679 -0.0528
    5FIC     F1 6043   4.043   0.474   1.450 -0.2021 -0.0892  0.0933
    5FIC     F2 6044   4.018   0.487   1.720  0.3968  0.1187  0.1441
    5FIC     O1 6045   3.964   0.993   1.315 -0.2808 -0.1536 -0.1084
    5FIC     N5 6046   3.923   0.874   2.014  1.2019  0.3718  0.0733
    5FIC     N6 6047   3.866   1.277   1.854  1.0196  0.2796 -0.0947
    5FIC    C19 6048   3.910   1.189   1.526  0.2634  0.0222 -0.1316
    5FIC    C20 6049   3.932   1.058   1.549  0.2598  0.0303 -0.0828
    5FIC    C21 6050   3.958   0.963   1.436 -0.0289 -0.0636 -0.0741
    5FIC    C22 6051   3.977   0.830   1.496  0.0471 -0.0277 -0.0169
    5FIC    C23 6052   4.004   0.710   1.430 -0.1470 -0.0868  0.0100
    5FIC    C24 6053   4.017   0.596   1.508 -0.0231 -0.0355  0.0642
    5FIC    C25 6054   4.003   0.603   1.648  0.2857  0.0716  0.0903
    5FIC    C26 6055   3.977   0.722   1.714  0.4805  0.1311  0.0636
    5FIC    C27 6056   3.963   0.838   1.636  0.3591  0.0805  0.0087
    5FIC    C28 6057   3.935   0.979   1.675  0.5022  0.1204 -0.0307
    5FIC    C29 6058   3.915   1.026   1.802  0.8020  0.2216 -0.0208
    5FIC    C30 6059   3.920   0.942   1.918  1.0208  0.3038  0.0309
    5FIC    C31 6060   3.888   1.164   1.830  0.9199  0.2529 -0.0615
    1BTD     S2 6061   3.900   7.093   1.526  0.0591  0.0857  0.0150
    1BTD     N1 6062   3.904   7.070   1.704  0.1916  0.0433  0.0072
    1BTD     N2 6063   3.907   6.917   1.489 -0.1208  0.0879 -0.0299
    1BTD     N3 6064   3.927   6.518   1.736 -0.2479  0.0161 -0.1355
    1BTD     N4 6065   3.923   6.707   2.001  0.1369 -0.0390 -0.0899
    1BTD     C5 6066   3.914   6.878   1.856  0.1584  0.0011 -0.0440
    1BTD     C6 6067   3.909   6.940   1.726  0.0997  0.0334 -0.0268
    1BTD     C7 6068   3.911   6.854   1.605 -0.0751  0.0584 -0.0475
    1BTD     C8 6069   3.917   6.711   1.621 -0.1824  0.0498 -0.0845
    1BTD    C15 6070   3.921   6.655   1.750 -0.1197  0.0177 -0.1003
    1BTD    C16 6071   3.920   6.738   1.866  0.0488 -0.0066 -0.0803
    1BTD    C43 6072   4.015   6.612   2.066 -0.0521  0.1759 -0.2350
    1BTD    C44 6073   4.016   6.547   2.204 -0.3219  0.2285  0.1741
    1BTD    C45 6074   3.888   6.466   2.242 -0.5350 -1.3342 -0.3716
    1BTD    C46 6075   3.865   6.420   2.385 -0.0633  0.1364 -0.4393
    1BTD    C47 6076   4.136   6.456   2.237 -0.0897 -0.4073 -0.3139
    1BTD    C48 6077   4.280   6.508   2.230 -0.4661 -0.3082  0.1608
    1BTD    C49 6078   4.316   6.644   2.308  0.4196  0.4681  0.3896
    1BTD    C50 6079   4.418   6.720   2.233 -0.5341 -0.0096  0.0397
    1BTD    C75 6080   3.914   6.403   1.827 -0.5494 -0.8477 -0.9236
    1BTD    C76 6081   3.776   6.337   1.837 -0.2788 -0.2242  0.3335
    1BTD    C77 6082   3.669   6.429   1.894 -0.5049 -0.5331 -0.5158
    1BTD    C78 6083   3.521   6.415   1.869  0.6121 -0.2634  0.0682
    1BTD    C79 6084   3.764   6.189   1.885  0.7664 -0.3023 -0.9752
    1BTD    C80 6085   3.758   6.142   2.030 -0.4847 -0.1501 -0.6210
    1BTD    C81 6086   3.626   6.157   2.107 -0.1946 -0.7015 -0.1225
    1BTD    C82 6087   3.618   6.072   2.237  0.2187  0.3030  0.1672
    2TTP     S1 6088   3.896   7.091   2.058 -0.2630 -0.1218  0.0744
    2TTP     S5 6089   3.883   6.796   2.370 -0.0157 -0.2661 -0.0515
    2TTP     C1 6090   3.864   6.960   2.445 -0.2276 -0.3185  0.0110
    2TTP     C2 6091   3.867   7.061   2.353 -0.3165 -0.2768  0.0536
    2TTP     C3 6092   3.884   7.012   2.220 -0.2204 -0.2023  0.0383
    2TTP     C4 6093   3.915   6.927   1.982 -0.0511 -0.0694  0.0120
    2TTP    C17 6094   3.912   6.826   2.074  0.0377 -0.1110 -0.0306
    2TTP    C18 6095   3.895   6.875   2.208 -0.0584 -0.1855 -0.0154
    2TTP    C32 6096   3.865   7.208   2.378  0.3554 -0.5097 -0.4303
    2TTP    C33 6097   3.742   7.286   2.327  0.0476  0.2610  0.4873
    2TTP    C34 6098   3.724   7.433   2.371  0.3550 -0.0305  0.0866
    2TTP    C35 6099   3.837   7.525   2.330 -0.0831 -0.2469  0.0795
    2TTP    C36 6100   3.832   7.679   2.360  0.3090  0.1310  0.0612
    2TTP    C37 6101   3.775   7.735   2.495 -0.2622  0.4021  0.2567
    2TTP    C38 6102   3.859   7.673   2.610  0.4189  0.2142 -0.0918
    2TTP    C39 6103   3.806   7.707   2.754 -0.4088 -0.8890 -0.1223
    2TTP    C40 6104   3.875   7.629   2.864 -0.6135 -0.2427 -0.0726
    2TTP    C41 6105   3.820   7.656   2.997  0.3707 -0.0790  0.3893
    2TTP    C42 6106   3.846   7.543   3.098 -0.3770 -0.1553  0.1825
    3TTP     S1 6107   3.955   6.583   1.352  0.1831  0.1315  0.2012
    3TTP     S5 6108   4.014   6.202   1.543  0.1525 -0.1581 -0.3638
    3TTP     C1 6109   4.047   6.184   1.365  0.1561  0.1050 -0.3914
    3TTP     C2 6110   4.030   6.300   1.295  0.1657  0.2099 -0.2186
    3TTP     C3 6111   3.991   6.409   1.380  0.1706  0.0862 -0.0581
    3TTP     C4 6112   3.923   6.602   1.530  0.1796 -0.1315  0.2288
    3TTP    C17 6113   3.939   6.485   1.599  0.1699 -0.2364  0.0560
    3TTP    C18 6114   3.978   6.377   1.514  0.1649 -0.1130 -0.1045
    3TTP    C32 6115   4.043   6.325   1.146 -0.2326  0.0962  0.4490
    3TTP    C33 6116   3.956   6.420   1.068  0.6126 -0.0148  0.5578
    3TTP    C34 6117   3.992   6.465   0.923  0.4318  0.1670 -0.1619
    3TTP    C35 6118   4.102   6.569   0.891 -0.5858 -0.1446  0.5122
    3TTP    C36 6119   4.116   6.688   0.979 -0.3205 -1.1262 -0.2506
    3TTP    C37 6120   4.002   6.787   0.971  0.3785  0.3640 -0.7154
    3TTP    C38 6121   3.991   6.875   1.092  0.0907  0.1573 -0.1717
    3TTP    C39 6122   3.880   6.982   1.096 -0.1381 -0.1977 -0.1869
    3TTP    C40 6123   3.723   6.959   1.083 -0.1112 -0.1035 -0.3948
    3TTP    C41 6124   3.674   6.846   1.172  0.7559 -0.0652  0.4929
    3TTP    C42 6125   3.630   6.716   1.083  0.1891  0.2538  0.1873
    4FIC     F1 6126   3.646   6.489   3.079  0.1224  0.0967  0.0100
    4FIC     F2 6127   3.658   6.708   3.240  0.4252  0.1168 -0.0380
    4FIC     O1 6128   3.783   6.706   2.602 -0.2864 -0.0583 -0.1786
    4FIC     N5 6129   3.771   7.177   3.132  0.5687  0.0352 -0.2413
    4FIC     N6 6130   3.876   7.303   2.727  0.1881 -0.0901 -0.3791
    4FIC    C19 6131   3.842   6.992   2.587 -0.1426 -0.0942 -0.2914
    4FIC    C20 6132   3.807   6.929   2.700 -0.0516 -0.0560 -0.2421
    4FIC    C21 6133   3.778   6.782   2.700 -0.1345 -0.0396 -0.1858
    4FIC    C22 6134   3.744   6.746   2.839 -0.0002  0.0025 -0.1413
    4FIC    C23 6135   3.709   6.620   2.888 -0.0161  0.0300 -0.0824
    4FIC    C24 6136   3.681   6.610   3.023  0.1291  0.0680 -0.0487
    4FIC    C25 6137   3.687   6.723   3.106  0.2849  0.0785 -0.0735
    4FIC    C26 6138   3.721   6.849   3.058  0.3016  0.0513 -0.1323
    4FIC    C27 6139   3.750   6.861   2.921  0.1560  0.0123 -0.1670
    4FIC    C28 6140   3.790   6.978   2.839  0.1307 -0.0231 -0.2300
    4FIC    C29 6141   3.806   7.107   2.884  0.2528 -0.0253 -0.2695
    4FIC    C30 6142   3.787   7.145   3.020  0.4262  0.0080 -0.2539
    4FIC    C31 6143   3.844   7.214   2.797  0.2165 -0.0608 -0.3296
    5FIC     F1 6144   4.216   5.403   1.565 -0.4413  0.0529 -0.2449
    5FIC     F2 6145   4.255   5.350   1.301  0.1035  0.1767 -0.1917
    5FIC     O1 6146   4.093   5.930   1.546 -0.3954  0.0635 -0.2508
    5FIC     N5 6147   4.223   5.649   0.908  0.9192  0.3622 -0.1195
    5FIC     N6 6148   4.120   6.071   0.946  0.8451  0.3453 -0.1349
    5FIC    C19 6149   4.087   6.066   1.287  0.1411  0.1853 -0.2021
    5FIC    C20 6150   4.116   5.936   1.302  0.1085  0.1780 -0.2027
    5FIC    C21 6151   4.117   5.873   1.439 -0.1743  0.1136 -0.2285
    5FIC    C22 6152   4.153   5.731   1.419 -0.1357  0.1225 -0.2221
    5FIC    C23 6153   4.166   5.633   1.517 -0.3383  0.0765 -0.2395
    5FIC    C24 6154   4.201   5.505   1.474 -0.2517  0.0961 -0.2288
    5FIC    C25 6155   4.221   5.478   1.338  0.0289  0.1599 -0.2014
    5FIC    C26 6156   4.207   5.576   1.240  0.2321  0.2060 -0.1839
    5FIC    C27 6157   4.173   5.706   1.281  0.1487  0.1870 -0.1944
    5FIC    C28 6158   4.151   5.830   1.204  0.3097  0.2238 -0.1814
    5FIC    C29 6159   4.161   5.845   1.068  0.5918  0.2878 -0.1547
    5FIC    C30 6160   4.195   5.737   0.980  0.7707  0.3284 -0.1355
    5FIC    C31 6161   4.138   5.969   1.002  0.7294  0.3190 -0.1439
    1BTD     S2 6162   3.594   6.699   1.552  0.1617  0.3565 -0.0573
    1BTD     N1 6163   3.574   6.738   1.727 -0.3429  0.2671 -0.0926
    1BTD     N2 6164   3.584   6.870   1.498  0.6005  0.4100  0.0236
    1BTD     N3 6165   3.527   7.289   1.702  0.5841  0.3586  0.1249
    1BTD     N4 6166   3.515   7.126   1.984 -0.5785  0.1826 -0.0183
    1BTD     C5 6167   3.543   6.943   1.858 -0.4519  0.2252 -0.0521
    1BTD     C6 6168   3.561   6.870   1.735 -0.1673  0.2813 -0.0447
    1BTD     C7 6169   3.567   6.944   1.607  0.3609  0.3613  0.0203
    1BTD     C8 6170   3.554   7.087   1.608  0.5779  0.3810  0.0747
    1BTD    C15 6171   3.537   7.154   1.730  0.2850  0.3242  0.0652
    1BTD    C16 6172   3.531   7.083   1.854 -0.2238  0.2471  0.0026
    1BTD    C43 6173   3.472   7.258   2.039  0.7798  0.3063 -0.6184
    1BTD    C44 6174   3.322   7.306   2.047 -0.0400 -0.1917 -0.0426
    1BTD    C45 6175   3.291   7.456   2.082  0.1283  0.1298  0.4518
    1BTD    C46 6176   3.302   7.523   2.218 -0.9136  0.0584 -0.0556
    1BTD    C47 6177   3.226   7.203   2.110 -0.7588 -0.2556 -0.2859
    1BTD    C48 6178   3.072   7.214   2.098  0.1591  0.1990 -0.1276
    1BTD    C49 6179   2.985   7.112   2.189 -0.8061  0.2144 -0.2877
    1BTD    C50 6180   3.005   6.965   2.153  0.2656 -0.0607 -0.3066
    1BTD    C75 6181   3.549   7.411   1.778  0.5149  0.1291 -0.5976
    1BTD    C76 6182   3.690   7.476   1.790 -0.2374  0.1826 -0.0846
    1BTD    C77 6183   3.784   7.382   1.870 -0.4451  0.2154  0.0916
    1BTD    C78 6184   3.935   7.413   1.856 -0.5641  0.8004  0.3284
    1BTD    C79 6185   3.695   7.626   1.845 -0.2328 -0.6658 -0.1733
    1BTD    C80 6186   3.632   7.665   1.975  0.2817 -0.1941 -0.4457
    1BTD    C81 6187   3.654   7.813   2.011 -0.3734  0.7467 -1.0721
    1BTD    C82 6188   3.583   7.848   2.142 -0.0381 -0.1480 -0.3864
    2TTP     S1 6189   3.519   6.752   2.096  0.0388  0.1438 -0.0102
    2TTP     S5 6190   3.464   7.089   2.358 -0.2934  0.1254 -0.0559
    2TTP     C1 6191   3.446   6.937   2.455 -0.0056  0.1221 -0.0082
    2TTP     C2 6192   3.462   6.824   2.380  0.1140  0.1276  0.0088
    2TTP     C3 6193   3.489   6.854   2.243 -0.0175  0.1345 -0.0154
    2TTP     C4 6194   3.536   6.905   1.999 -0.2490  0.1471 -0.0580
    2TTP    C17 6195   3.520   7.018   2.074 -0.3685  0.1416 -0.0750
    2TTP    C18 6196   3.494   6.988   2.211 -0.2372  0.1346 -0.0508
    2TTP    C32 6197   3.479   6.684   2.431 -0.6950  0.0457 -0.6773
    2TTP    C33 6198   3.361   6.583   2.436 -0.0145 -0.2052 -0.5594
    2TTP    C34 6199   3.412   6.452   2.498  0.4569 -0.1088  0.1454
    2TTP    C35 6200   3.306   6.346   2.517  0.1116 -0.5875  0.6604
    2TTP    C36 6201   3.351   6.220   2.589  0.4207 -0.1445  0.0349
    2TTP    C37 6202   3.268   6.097   2.562  0.0316 -1.1983 -0.0033
    2TTP    C38 6203   3.323   5.967   2.614  0.0908 -0.0812 -0.8158
    2TTP    C39 6204   3.444   5.904   2.540  0.8439 -0.2303 -0.0090
    2TTP    C40 6205   3.519   5.801   2.621 -0.3784 -0.9649 -1.2248
    2TTP    C41 6206   3.631   5.731   2.550  0.0676 -0.1684  1.0104
    2TTP    C42 6207   3.704   5.626   2.636 -0.5934  1.1714  0.5438
    3TTP     S1 6208   3.536   7.196   1.323  0.1531  0.0614  0.1026
    3TTP     S5 6209   3.486   7.592   1.484 -0.3032  0.0448  0.0039
    3TTP     C1 6210   3.480   7.602   1.303 -0.0948  0.0226 -0.0042
    3TTP     C2 6211   3.495   7.481   1.242  0.0584  0.0263  0.0258
    3TTP     C3 6212   3.512   7.375   1.337  0.0166  0.0472  0.0563
    3TTP     C4 6213   3.541   7.186   1.504 -0.0553  0.0838  0.1107
    3TTP    C17 6214   3.526   7.307   1.565 -0.2085  0.0800  0.0807
    3TTP    C18 6215   3.510   7.413   1.470 -0.1668  0.0594  0.0502
    3TTP    C32 6216   3.493   7.445   1.090 -0.1609 -0.1916 -1.3640
    3TTP    C33 6217   3.635   7.427   1.041 -0.8075  0.1229  0.2022
    3TTP    C34 6218   3.634   7.367   0.904  0.6691  1.0340  0.0682
    3TTP    C35 6219   3.776   7.327   0.864 -0.6037  0.0089 -0.1502
    3TTP    C36 6220   3.796   7.246   0.730 -0.2894 -0.0903 -0.1003
    3TTP    C37 6221   3.731   7.110   0.711  0.4627  0.3014 -0.0598
    3TTP    C38 6222   3.767   7.036   0.585 -0.0242  0.5702 -0.4013
    3TTP    C39 6223   3.714   6.892   0.574 -0.1734 -0.3717 -0.0749
    3TTP    C40 6224   3.751   6.798   0.694  0.4998 -0.5211 -0.0808
    3TTP    C41 6225   3.687   6.660   0.704  0.5111  0.2326  0.5684
    3TTP    C42 6226   3.728   6.553   0.605  0.2441  0.0726 -0.5991
    4FIC     F1 6227   3.522   7.481   3.063 -0.4748  0.3142 -0.1694
    4FIC     F2 6228   3.384   7.312   3.225  0.2191 -0.0318  0.0721
    4FIC     O1 6229   3.535   7.193   2.604 -0.7257  0.4327 -0.2509
    4FIC     N5 6230   3.193   6.865   3.132  1.0381 -0.4447  0.3611
    4FIC     N6 6231   3.231   6.674   2.741  0.7020 -0.2824  0.2488
    4FIC    C19 6232   3.407   6.930   2.597 -0.1519  0.1442 -0.0490
    4FIC    C20 6233   3.409   7.009   2.706 -0.1158  0.1279 -0.0381
    4FIC    C21 6234   3.477   7.143   2.702 -0.4232  0.2823 -0.1460
    4FIC    C22 6235   3.461   7.202   2.836 -0.2937  0.2195 -0.1024
    4FIC    C23 6236   3.507   7.326   2.880 -0.4829  0.3153 -0.1695
    4FIC    C24 6237   3.480   7.360   3.012 -0.3036  0.2273 -0.1085
    4FIC    C25 6238   3.408   7.273   3.095  0.0538  0.0492  0.0159
    4FIC    C26 6239   3.362   7.150   3.052  0.2443 -0.0472  0.0835
    4FIC    C27 6240   3.389   7.113   2.919  0.0672  0.0396  0.0232
    4FIC    C28 6241   3.354   6.991   2.842  0.1908 -0.0240  0.0677
    4FIC    C29 6242   3.284   6.882   2.889  0.5255 -0.1912  0.1846
    4FIC    C30 6243   3.234   6.873   3.023  0.8061 -0.3300  0.2813
    4FIC    C31 6244   3.255   6.768   2.807  0.6207 -0.2404  0.2192
    5FIC     F1 6245   3.425   8.405   1.463  0.5997 -0.0987  0.0810
    5FIC     F2 6246   3.413   8.452   1.195 -0.2364 -0.0284  0.1272
    5FIC     O1 6247   3.459   7.865   1.471  0.5757 -0.1041 -0.1639
    5FIC     N5 6248   3.419   8.134   0.816 -1.4558  0.0687  0.0190
    5FIC     N6 6249   3.448   7.702   0.876 -1.3062  0.0501 -0.1817
    5FIC    C19 6250   3.459   7.717   1.218 -0.2319 -0.0389 -0.2068
    5FIC    C20 6251   3.451   7.851   1.226 -0.1931 -0.0404 -0.1470
    5FIC    C21 6252   3.452   7.920   1.360  0.2331 -0.0746 -0.1285
    5FIC    C22 6253   3.442   8.065   1.333  0.1616 -0.0668 -0.0607
    5FIC    C23 6254   3.439   8.168   1.426  0.4624 -0.0906 -0.0225
    5FIC    C24 6255   3.429   8.297   1.377  0.3194 -0.0767  0.0406
    5FIC    C25 6256   3.422   8.321   1.239 -0.1117 -0.0406  0.0642
    5FIC    C26 6257   3.425   8.218   1.145 -0.4134 -0.0169  0.0264
    5FIC    C27 6258   3.435   8.087   1.193 -0.2745 -0.0300 -0.0376
    5FIC    C28 6259   3.441   7.957   1.122 -0.5099 -0.0125 -0.0896
    5FIC    C29 6260   3.437   7.938   0.986 -0.9389  0.0228 -0.0855
    5FIC    C30 6261   3.427   8.046   0.893 -1.2215  0.0477 -0.0281
    5FIC    C31 6262   3.443   7.808   0.926 -1.1384  0.0376 -0.1384
    1BTD     S2 6263   3.272   3.614   1.233  0.3411  0.0066 -0.1186
    1BTD     N1 6264   3.265   3.635   1.054  0.5229 -0.0346 -0.1311
    1BTD     N2 6265   3.266   3.790   1.268 -0.0024  0.0033 -0.1528
    1BTD     N3 6266   3.241   4.187   1.018 -0.3740 -0.0781 -0.2452
    1BTD     N4 6267   3.239   3.995   0.755  0.2732 -0.1246 -0.2185
    1BTD     C5 6268   3.251   3.825   0.901  0.3847 -0.0811 -0.1771
    1BTD     C6 6269   3.259   3.765   1.032  0.3283 -0.0481 -0.1588
    1BTD     C7 6270   3.259   3.852   1.151  0.0343 -0.0268 -0.1709
    1BTD     C8 6271   3.253   3.995   1.134 -0.1886 -0.0396 -0.2007
    1BTD    C15 6272   3.246   4.049   1.005 -0.1234 -0.0722 -0.2179
    1BTD    C16 6273   3.245   3.965   0.889  0.1598 -0.0925 -0.2062
    1BTD    C43 6274   3.188   4.114   0.679 -0.2173  0.9167 -0.2050
    1BTD    C44 6275   3.043   4.139   0.647  0.3805 -0.2087 -0.1047
    1BTD    C45 6276   3.037   4.276   0.581 -0.8180 -0.2288  0.1919
    1BTD    C46 6277   3.089   4.294   0.441 -0.5024 -0.1747  0.6873
    1BTD    C47 6278   2.962   4.033   0.575 -0.2937 -0.4053  0.5494
    1BTD    C48 6279   2.805   4.047   0.590 -0.0303  0.0813  0.4124
    1BTD    C49 6280   2.718   3.931   0.540 -0.2967  0.3313  0.0001
    1BTD    C50 6281   2.745   3.797   0.608 -0.4557 -0.1654  0.0401
    1BTD    C75 6282   3.252   4.293   0.925  0.3147 -0.5462  0.2607
    1BTD    C76 6283   3.386   4.349   0.878  0.2280  0.0200  0.1283
    1BTD    C77 6284   3.495   4.245   0.840  0.4916  0.4165 -0.0992
    1BTD    C78 6285   3.637   4.294   0.836  0.1930  0.2305 -0.2312
    1BTD    C79 6286   3.379   4.474   0.787 -0.0842 -0.3637 -0.6210
    1BTD    C80 6287   3.296   4.587   0.838 -0.0851 -0.1664  0.1448
    1BTD    C81 6288   3.265   4.689   0.725 -0.2274  0.1916  0.0724
    1BTD    C82 6289   3.174   4.809   0.759 -0.1198 -0.1885 -0.4033
    2TTP     S1 6290   3.258   3.607   0.687 -0.3895 -0.1049 -0.1999
    2TTP     S5 6291   3.276   3.913   0.386 -0.1880 -0.1098 -0.1927
    2TTP     C1 6292   3.290   3.751   0.305 -0.4591 -0.1235 -0.2127
    2TTP     C2 6293   3.285   3.647   0.393 -0.5372 -0.1228 -0.2161
    2TTP     C3 6294   3.270   3.691   0.528 -0.3859 -0.1114 -0.2030
    2TTP     C4 6295   3.244   3.769   0.768 -0.1184 -0.0913 -0.1799
    2TTP    C17 6296   3.249   3.873   0.680 -0.0402 -0.0919 -0.1764
    2TTP    C18 6297   3.264   3.829   0.545 -0.1916 -0.1032 -0.1895
    2TTP    C32 6298   3.264   3.498   0.363  0.2020  0.0544  0.0901
    2TTP    C33 6299   3.395   3.421   0.390 -0.0086  0.6459  0.1637
    2TTP    C34 6300   3.387   3.273   0.372 -0.8640 -0.0136 -0.5656
    2TTP    C35 6301   3.308   3.204   0.475 -0.5830  0.2702 -0.0612
    2TTP    C36 6302   3.344   3.060   0.494 -0.3964  0.0935 -0.1592
    2TTP    C37 6303   3.239   2.980   0.571  0.9835  0.3699  0.0667
    2TTP    C38 6304   3.289   2.835   0.576  0.5904  0.5330  0.7443
    2TTP    C39 6305   3.299   2.753   0.441 -0.1023 -1.1435 -0.3562
    2TTP    C40 6306   3.390   2.628   0.455  0.1376  0.4178  0.2056
    2TTP    C41 6307   3.417   2.559   0.319 -0.8503  0.0011 -1.0586
    2TTP    C42 6308   3.299   2.480   0.266 -0.9447  0.0578 -0.6575
    3TTP     S1 6309   3.254   4.140   1.406  0.0406 -0.1403 -0.1554
    3TTP     S5 6310   3.190   4.511   1.197  0.0186  0.1783  0.4118
    3TTP     C1 6311   3.179   4.542   1.375 -0.0387 -0.1069  0.4597
    3TTP     C2 6312   3.198   4.430   1.451 -0.0354 -0.2223  0.2874
    3TTP     C3 6313   3.222   4.314   1.370  0.0127 -0.0893  0.1113
    3TTP     C4 6314   3.265   4.109   1.227  0.0979  0.1450 -0.2033
    3TTP    C17 6315   3.246   4.221   1.152  0.0946  0.2603 -0.0310
    3TTP    C18 6316   3.222   4.336   1.233  0.0465  0.1274  0.1451
    3TTP    C32 6317   3.196   4.418   1.605 -0.5011 -0.0853  0.1629
    3TTP    C33 6318   3.295   4.339   1.684 -0.5575  0.5818 -0.0044
    3TTP    C34 6319   3.269   4.346   1.832  0.4925  0.0298 -0.5868
    3TTP    C35 6320   3.361   4.263   1.915 -0.5542  0.5193  1.2888
    3TTP    C36 6321   3.313   4.225   2.048  0.5351  0.6183 -0.1835
    3TTP    C37 6322   3.412   4.155   2.146  0.0814 -0.1877 -0.3440
    3TTP    C38 6323   3.479   4.018   2.115 -0.6811  0.4686  0.6774
    3TTP    C39 6324   3.393   3.901   2.079 -0.4018  0.1022 -0.8645
    3TTP    C40 6325   3.287   3.866   2.186 -0.0291 -0.4028 -0.3412
    3TTP    C41 6326   3.227   3.729   2.150  0.0084 -0.0748  0.7553
    3TTP    C42 6327   3.107   3.712   2.251 -0.8070  0.2872  0.2194
    4FIC     F1 6328   3.387   4.239  -0.351 -0.0064 -0.0991 -0.0586
    4FIC     F2 6329   3.421   4.016  -0.505  0.0809 -0.1307  0.0061
    4FIC     O1 6330   3.307   4.016   0.136  0.0185  0.0098 -0.0045
    4FIC     N5 6331   3.414   3.538  -0.378  0.2244 -0.0983  0.1377
    4FIC     N6 6332   3.345   3.409   0.033  0.2263 -0.0069  0.1669
    4FIC    C19 6333   3.312   3.724   0.162  0.1108  0.0185  0.0766
    4FIC    C20 6334   3.331   3.789   0.046  0.1011 -0.0077  0.0604
    4FIC    C21 6335   3.327   3.939   0.040  0.0528 -0.0104  0.0185
    4FIC    C22 6336   3.351   3.976  -0.101  0.0545 -0.0417  0.0105
    4FIC    C23 6337   3.356   4.104  -0.155  0.0180 -0.0547 -0.0244
    4FIC    C24 6338   3.380   4.115  -0.291  0.0279 -0.0847 -0.0250
    4FIC    C25 6339   3.398   4.000  -0.370  0.0730 -0.1009  0.0084
    4FIC    C26 6340   3.392   3.872  -0.316  0.1094 -0.0880  0.0433
    4FIC    C27 6341   3.368   3.860  -0.179  0.1000 -0.0576  0.0445
    4FIC    C28 6342   3.357   3.740  -0.092  0.1307 -0.0374  0.0765
    4FIC    C29 6343   3.368   3.609  -0.132  0.1773 -0.0449  0.1138
    4FIC    C30 6344   3.393   3.570  -0.267  0.2029 -0.0743  0.1268
    4FIC    C31 6345   3.355   3.499  -0.041  0.2040 -0.0240  0.1428
    5FIC     F1 6346   3.097   5.302   1.071  0.1559  0.0571  0.0406
    5FIC     F2 6347   3.063   5.395   1.325 -0.1686 -0.0309  0.0305
    5FIC     O1 6348   3.162   4.773   1.164  0.0343  0.0242 -0.0599
    5FIC     N5 6349   3.061   5.151   1.755 -0.7216 -0.1810 -0.0557
    5FIC     N6 6350   3.119   4.719   1.777 -0.7512 -0.1889 -0.1322
    5FIC    C19 6351   3.153   4.674   1.439 -0.3188 -0.0715 -0.1052
    5FIC    C20 6352   3.138   4.803   1.406 -0.2756 -0.0597 -0.0795
    5FIC    C21 6353   3.144   4.847   1.262 -0.0911 -0.0098 -0.0573
    5FIC    C22 6354   3.124   4.993   1.261 -0.0896 -0.0094 -0.0322
    5FIC    C23 6355   3.121   5.078   1.151  0.0520  0.0291 -0.0062
    5FIC    C24 6356   3.101   5.213   1.175  0.0216  0.0206  0.0144
    5FIC    C25 6357   3.083   5.260   1.306 -0.1456 -0.0247  0.0092
    5FIC    C26 6358   3.086   5.176   1.417 -0.2875 -0.0633 -0.0167
    5FIC    C27 6359   3.106   5.039   1.394 -0.2593 -0.0556 -0.0378
    5FIC    C28 6360   3.114   4.924   1.488 -0.3803 -0.0883 -0.0672
    5FIC    C29 6361   3.102   4.930   1.625 -0.5556 -0.1359 -0.0803
    5FIC    C30 6362   3.080   5.052   1.696 -0.6462 -0.1606 -0.0668
    5FIC    C31 6363   3.111   4.814   1.708 -0.6622 -0.1647 -0.1088
    1BTD     S2 6364   3.608   4.003   1.189  0.3448 -0.1023  0.1651
    1BTD     N1 6365   3.609   3.966   1.013 -0.1431 -0.0570  0.1524
    1BTD     N2 6366   3.619   3.831   1.240  0.6317 -0.1077  0.0937
    1BTD     N3 6367   3.639   3.414   1.027  0.3355 -0.0370 -0.0748
    1BTD     N4 6368   3.627   3.580   0.747 -0.6192  0.0256 -0.0025
    1BTD     C5 6369   3.619   3.763   0.878 -0.3802 -0.0146  0.0706
    1BTD     C6 6370   3.616   3.834   1.002 -0.0707 -0.0486  0.0983
    1BTD     C7 6371   3.621   3.759   1.129  0.3630 -0.0770  0.0655
    1BTD     C8 6372   3.629   3.615   1.125  0.4656 -0.0700  0.0066
    1BTD    C15 6373   3.632   3.549   1.001  0.1525 -0.0363 -0.0187
    1BTD    C16 6374   3.626   3.622   0.879 -0.2655 -0.0090  0.0129
    1BTD    C43 6375   3.664   3.449   0.679  0.1526 -0.3176  0.0995
    1BTD    C44 6376   3.804   3.385   0.648  0.1256 -0.2817  0.4134
    1BTD    C45 6377   3.784   3.241   0.597 -0.1212 -0.5994 -0.0377
    1BTD    C46 6378   3.736   3.215   0.455  0.2298  0.4921  0.0329
    1BTD    C47 6379   3.904   3.482   0.581 -0.8225  0.0321 -0.3858
    1BTD    C48 6380   4.059   3.460   0.579  0.0124 -0.0003 -0.2550
    1BTD    C49 6381   4.107   3.329   0.515  0.1527 -0.1270 -0.3445
    1BTD    C50 6382   4.250   3.290   0.560 -0.2013 -0.5205 -0.0749
    1BTD    C75 6383   3.619   3.296   0.945 -0.1669 -1.2224  0.6599
    1BTD    C76 6384   3.486   3.225   0.930 -0.0740 -0.6816  0.3299
    1BTD    C77 6385   3.381   3.330   0.888 -0.8596 -0.3327 -0.4011
    1BTD    C78 6386   3.236   3.298   0.905 -0.2196 -0.6979  0.3366
    1BTD    C79 6387   3.494   3.095   0.855  0.5098 -0.0182  0.6151
    1BTD    C80 6388   3.586   2.987   0.914 -0.1249 -0.4037  0.0511
    1BTD    C81 6389   3.590   2.856   0.835 -0.7721  0.3170 -0.1174
    1BTD    C82 6390   3.707   2.776   0.879  0.1155 -0.0168  0.0109
    2TTP     S1 6391   3.662   3.961   0.660 -0.1630  0.0146 -0.2644
    2TTP     S5 6392   3.658   3.646   0.368 -0.0628 -0.2738  0.0443
    2TTP     C1 6393   3.682   3.804   0.281 -0.1632 -0.3451 -0.1159
    2TTP     C2 6394   3.685   3.911   0.367 -0.2000 -0.2602 -0.2207
    2TTP     C3 6395   3.668   3.871   0.503 -0.1504 -0.1358 -0.1782
    2TTP     C4 6396   3.638   3.803   0.746 -0.0626  0.0859 -0.1042
    2TTP    C17 6397   3.635   3.696   0.661 -0.0258  0.0011  0.0006
    2TTP    C18 6398   3.652   3.735   0.524 -0.0756 -0.1234 -0.0419
    2TTP    C32 6399   3.696   4.061   0.338  0.3929  0.1899  0.4758
    2TTP    C33 6400   3.564   4.132   0.314  0.2410 -0.7375  0.9552
    2TTP    C34 6401   3.581   4.283   0.303  0.1588  0.0520  0.3003
    2TTP    C35 6402   3.444   4.350   0.274 -0.5277 -0.1275  0.5113
    2TTP    C36 6403   3.402   4.342   0.127 -0.1784  0.3596  0.4969
    2TTP    C37 6404   3.311   4.458   0.101  0.1468  0.5733 -0.0475
    2TTP    C38 6405   3.227   4.430  -0.021  0.5586 -0.8368 -0.4094
    2TTP    C39 6406   3.145   4.563  -0.054  0.9930  0.5480 -0.0417
    2TTP    C40 6407   3.047   4.545  -0.174  0.7694 -0.3575  0.2186
    2TTP    C41 6408   2.934   4.650  -0.179 -0.6239  0.7030  0.1105
    2TTP    C42 6409   2.988   4.779  -0.233  0.3052 -0.0841  0.6460
    3TTP     S1 6410   3.632   3.493   1.407 -0.0595 -0.0384 -0.0154
    3TTP     S5 6411   3.666   3.100   1.235  0.0473 -0.1147  0.1808
    3TTP     C1 6412   3.677   3.085   1.416  0.2573  0.0005  0.1787
    3TTP     C2 6413   3.667   3.206   1.480  0.2367  0.0310  0.1181
    3TTP     C3 6414   3.650   3.314   1.388  0.0542 -0.0357  0.0709
    3TTP     C4 6415   3.622   3.508   1.226 -0.2695 -0.1535 -0.0134
    3TTP    C17 6416   3.632   3.387   1.162 -0.2489 -0.1839  0.0473
    3TTP    C18 6417   3.648   3.279   1.254 -0.0665 -0.1173  0.0944
    3TTP    C32 6418   3.655   3.226   1.638  0.0881  0.4841  0.5397
    3TTP    C33 6419   3.590   3.338   1.709 -0.4603 -0.4057  0.3542
    3TTP    C34 6420   3.443   3.306   1.748 -0.2071 -1.0539  0.0103
    3TTP    C35 6421   3.358   3.405   1.831 -0.5791  0.3862  0.0002
    3TTP    C36 6422   3.356   3.551   1.803  0.0814  0.3600  0.2658
    3TTP    C37 6423   3.302   3.599   1.665 -0.2139  0.0469 -0.0148
    3TTP    C38 6424   3.264   3.743   1.658  1.0689 -0.2954  0.3803
    3TTP    C39 6425   3.372   3.851   1.681  0.2442  0.4039 -0.6284
    3TTP    C40 6426   3.482   3.859   1.570 -0.2270  0.6556  0.1540
    3TTP    C41 6427   3.604   3.930   1.618  0.1816  0.2790  0.3988
    3TTP    C42 6428   3.701   3.844   1.694 -0.8437  0.7565 -0.3291
    4FIC     F1 6429   3.748   3.303  -0.362  0.0097  0.0476  0.1029
    4FIC     F2 6430   3.765   3.522  -0.523  0.1628  0.0749  0.1557
    4FIC     O1 6431   3.703   3.537   0.124 -0.2554 -0.0359  0.1191
    4FIC     N5 6432   3.758   4.003  -0.408  0.1943  0.0545  0.2432
    4FIC     N6 6433   3.719   4.142   0.004 -0.0436 -0.0162  0.2452
    4FIC    C19 6434   3.704   3.829   0.143 -0.2032 -0.0395  0.1753
    4FIC    C20 6435   3.714   3.762   0.027 -0.1423 -0.0196  0.1692
    4FIC    C21 6436   3.713   3.612   0.026 -0.1746 -0.0192  0.1398
    4FIC    C22 6437   3.726   3.571  -0.116 -0.0917  0.0050  0.1405
    4FIC    C23 6438   3.730   3.442  -0.167 -0.0869  0.0141  0.1182
    4FIC    C24 6439   3.743   3.428  -0.304 -0.0003  0.0376  0.1240
    4FIC    C25 6440   3.752   3.541  -0.387  0.0787  0.0515  0.1512
    4FIC    C26 6441   3.748   3.670  -0.337  0.0743  0.0428  0.1735
    4FIC    C27 6442   3.735   3.686  -0.198 -0.0126  0.0191  0.1681
    4FIC    C28 6443   3.728   3.808  -0.113 -0.0409  0.0044  0.1869
    4FIC    C29 6444   3.733   3.938  -0.157  0.0165  0.0117  0.2151
    4FIC    C30 6445   3.747   3.973  -0.295  0.1141  0.0353  0.2306
    4FIC    C31 6446   3.726   4.050  -0.068 -0.0169 -0.0037  0.2315
    5FIC     F1 6447   3.829   2.281   1.269 -0.5655 -0.2548  0.1119
    5FIC     F2 6448   3.821   2.239   1.538  0.4852  0.0721  0.2056
    5FIC     O1 6449   3.739   2.815   1.246 -0.7809 -0.3039 -0.1952
    5FIC     N5 6450   3.744   2.559   1.908  1.8423  0.5068  0.1213
    5FIC     N6 6451   3.676   2.984   1.836  1.4622  0.4025 -0.1375
    5FIC    C19 6452   3.699   2.964   1.495  0.1465 -0.0091 -0.2148
    5FIC    C20 6453   3.722   2.831   1.490  0.1596 -0.0095 -0.1412
    5FIC    C21 6454   3.742   2.762   1.358 -0.3338 -0.1661 -0.1361
    5FIC    C22 6455   3.764   2.619   1.389 -0.1805 -0.1230 -0.0477
    5FIC    C23 6456   3.787   2.515   1.299 -0.5037 -0.2275 -0.0124
    5FIC    C24 6457   3.806   2.389   1.352 -0.2690 -0.1585  0.0729
    5FIC    C25 6458   3.802   2.367   1.491  0.2724  0.0099  0.1210
    5FIC    C26 6459   3.779   2.470   1.581  0.5972  0.1148  0.0863
    5FIC    C27 6460   3.759   2.599   1.529  0.3667  0.0473 -0.0000
    5FIC    C28 6461   3.733   2.729   1.597  0.5972  0.1237 -0.0556
    5FIC    C29 6462   3.722   2.750   1.732  1.1170  0.2868 -0.0322
    5FIC    C30 6463   3.734   2.645   1.828  1.5140  0.4072  0.0522
    5FIC    C31 6464   3.696   2.879   1.788  1.3039  0.3495 -0.0903
    1BTD     S2 6465   6.099   1.127   1.659 -0.2873  0.0469  0.0024
    1BTD     N1 6466   6.079   1.098   1.835 -0.1451  0.0133  0.0128
    1BTD     N2 6467   6.123   0.953   1.618 -0.3701  0.0490 -0.0572
    1BTD     N3 6468   6.138   0.547   1.854 -0.2817 -0.0075 -0.1597
    1BTD     N4 6469   6.084   0.726   2.121 -0.0044 -0.0515 -0.0733
    1BTD     C5 6470   6.082   0.901   1.981 -0.0750 -0.0200 -0.0332
    1BTD     C6 6471   6.091   0.967   1.854 -0.1655  0.0057 -0.0265
    1BTD     C7 6472   6.116   0.886   1.732 -0.2916  0.0257 -0.0657
    1BTD     C8 6473   6.130   0.743   1.745 -0.3204  0.0189 -0.1097
    1BTD    C15 6474   6.121   0.683   1.872 -0.2290 -0.0065 -0.1145
    1BTD    C16 6475   6.097   0.761   1.989 -0.1076 -0.0257 -0.0768
    1BTD    C43 6476   6.007   0.603   2.161  0.5526  0.5311  0.5456
    1BTD    C44 6477   6.033   0.542   2.301 -0.2898 -0.3846 -0.2633
    1BTD    C45 6478   5.928   0.434   2.330 -0.1295 -0.5580 -0.0250
    1BTD    C46 6479   5.780   0.459   2.319  0.2337  0.0267 -0.0190
    1BTD    C47 6480   6.178   0.505   2.332 -0.3642 -0.0791 -0.6809
    1BTD    C48 6481   6.221   0.454   2.473  0.1427  0.7100 -0.2231
    1BTD    C49 6482   6.376   0.454   2.487 -0.1653  0.7185 -0.4201
    1BTD    C50 6483   6.403   0.429   2.636  0.7334 -0.0862  0.2806
    1BTD    C75 6484   6.207   0.453   1.953 -0.1264 -0.3063  0.6279
    1BTD    C76 6485   6.169   0.306   1.965  0.1238  0.5821  1.0208
    1BTD    C77 6486   6.014   0.269   2.002 -0.2892 -0.1729 -0.7009
    1BTD    C78 6487   5.904   0.300   1.907  0.0238 -0.5952 -0.1620
    1BTD    C79 6488   6.256   0.217   2.043 -0.4236  0.2262 -0.3256
    1BTD    C80 6489   6.413   0.217   2.030 -0.3217 -0.0163  0.6190
    1BTD    C81 6490   6.487   0.166   2.157 -0.3683  0.2291 -0.0895
    1BTD    C82 6491   6.631   0.194   2.189 -0.0486  0.1709  0.0778
    2TTP     S1 6492   6.077   1.112   2.198  0.1218 -0.2849 -0.2154
    2TTP     S5 6493   6.042   0.800   2.492 -0.0668 -0.0037  0.0611
    2TTP     C1 6494   6.038   0.961   2.577  0.3925  0.0665 -0.0462
    2TTP     C2 6495   6.049   1.066   2.491  0.4778 -0.0162 -0.1378
    2TTP     C3 6496   6.060   1.024   2.355  0.1835 -0.1380 -0.1267
    2TTP     C4 6497   6.081   0.951   2.112 -0.3376 -0.3551 -0.1081
    2TTP    C17 6498   6.070   0.845   2.198 -0.4228 -0.2724 -0.0164
    2TTP    C18 6499   6.059   0.887   2.334 -0.1285 -0.1506 -0.0275
    2TTP    C32 6500   6.045   1.218   2.531  0.4449  0.2298  0.1121
    2TTP    C33 6501   6.006   1.332   2.431  0.7201 -0.1571 -0.8321
    2TTP    C34 6502   6.031   1.475   2.483 -0.5573 -0.1926  0.3198
    2TTP    C35 6503   5.969   1.531   2.606  0.8062  0.0624 -0.0663
    2TTP    C36 6504   5.817   1.544   2.606 -0.0469 -0.0520  0.0942
    2TTP    C37 6505   5.770   1.611   2.732  0.1556  0.1592  0.1166
    2TTP    C38 6506   5.622   1.662   2.727 -0.5380  0.7230  0.4129
    2TTP    C39 6507   5.607   1.799   2.664 -0.0407  0.0920 -0.4051
    2TTP    C40 6508   5.465   1.848   2.674  0.8425  0.0172 -0.2048
    2TTP    C41 6509   5.455   2.001   2.657  0.0485  0.3039  0.2063
    2TTP    C42 6510   5.312   2.056   2.668 -0.2430 -0.2181  0.2354
    3TTP     S1 6511   6.163   0.625   1.468 -0.1768 -0.1630 -0.1346
    3TTP     S5 6512   6.204   0.237   1.648  0.1150 -0.0459  0.0520
    3TTP     C1 6513   6.212   0.218   1.467 -0.0164 -0.1442  0.0567
    3TTP     C2 6514   6.199   0.336   1.401 -0.1144 -0.1862 -0.0006
    3TTP     C3 6515   6.184   0.447   1.490 -0.0890 -0.1422 -0.0503
    3TTP     C4 6516   6.156   0.644   1.648 -0.0455 -0.0647 -0.1392
    3TTP    C17 6517   6.168   0.525   1.715  0.0525 -0.0227 -0.0819
    3TTP    C18 6518   6.184   0.415   1.625  0.0273 -0.0667 -0.0322
    3TTP    C32 6519   6.188   0.360   1.252  0.1969  0.2052  0.2469
    3TTP    C33 6520   6.265   0.481   1.197  0.4402 -0.6768  0.7468
    3TTP    C34 6521   6.193   0.545   1.076  1.0496 -0.0682 -0.3346
    3TTP    C35 6522   6.271   0.655   1.001 -1.3134  0.3657  0.1064
    3TTP    C36 6523   6.199   0.703   0.882 -0.2823 -0.3272 -0.3065
    3TTP    C37 6524   6.273   0.820   0.819 -0.4781 -0.0061 -0.5478
    3TTP    C38 6525   6.194   0.881   0.703  0.6222  0.9931 -0.1876
    3TTP    C39 6526   6.070   0.951   0.753 -0.4949  0.0036 -0.6201
    3TTP    C40 6527   5.979   0.991   0.640 -0.2403 -0.3174  0.5031
    3TTP    C41 6528   5.883   1.098   0.690  1.0236 -0.7355  0.0605
    3TTP    C42 6529   5.762   1.121   0.593 -0.2558  0.1642 -0.9818
    4FIC     F1 6530   5.775   0.486   3.192 -0.4450 -0.0056 -0.2335
    4FIC     F2 6531   5.815   0.694   3.362  0.0391 -0.2409 -0.0557
    4FIC     O1 6532   5.920   0.707   2.720 -0.3216  0.1830 -0.1073
    4FIC     N5 6533   5.977   1.153   3.269  0.8233 -0.4448  0.2900
    4FIC     N6 6534   6.083   1.284   2.866  0.8218 -0.2500  0.3529
    4FIC    C19 6535   6.010   0.986   2.714  0.1846  0.0252  0.1075
    4FIC    C20 6536   5.972   0.922   2.827  0.1348 -0.0131  0.0688
    4FIC    C21 6537   5.927   0.779   2.821 -0.1305  0.0735 -0.0424
    4FIC    C22 6538   5.893   0.740   2.960 -0.1178  0.0028 -0.0588
    4FIC    C23 6539   5.846   0.617   3.005 -0.3163  0.0439 -0.1497
    4FIC    C24 6540   5.821   0.605   3.141 -0.2579 -0.0401 -0.1464
    4FIC    C25 6541   5.842   0.712   3.228 -0.0081 -0.1613 -0.0547
    4FIC    C26 6542   5.889   0.836   3.184  0.1906 -0.2030  0.0363
    4FIC    C27 6543   5.915   0.850   3.046  0.1353 -0.1192  0.0345
    4FIC    C28 6544   5.964   0.966   2.968  0.3004 -0.1338  0.1165
    4FIC    C29 6545   5.997   1.090   3.017  0.5577 -0.2390  0.2174
    4FIC    C30 6546   5.986   1.124   3.156  0.7026 -0.3518  0.2570
    4FIC    C31 6547   6.044   1.196   2.934  0.7014 -0.2444  0.2913
    5FIC     F1 6548   6.324  -0.573   1.665  0.1460  0.4359  0.2321
    5FIC     F2 6549   6.339  -0.631   1.400 -0.0842  0.1838  0.2733
    5FIC     O1 6550   6.244  -0.038   1.649  0.2127  0.4336 -0.2047
    5FIC     N5 6551   6.303  -0.333   1.007 -0.3675 -0.1804  0.0210
    5FIC     N6 6552   6.237   0.097   1.048 -0.2693 -0.1314 -0.3286
    5FIC    C19 6553   6.230   0.097   1.390  0.0163  0.1918 -0.3206
    5FIC    C20 6554   6.249  -0.035   1.404  0.0086  0.2023 -0.2123
    5FIC    C21 6555   6.255  -0.098   1.541  0.1134  0.3300 -0.1586
    5FIC    C22 6556   6.277  -0.242   1.521  0.0747  0.3071 -0.0414
    5FIC    C23 6557   6.290  -0.340   1.618  0.1411  0.3967  0.0413
    5FIC    C24 6558   6.311  -0.471   1.574  0.0855  0.3526  0.1464
    5FIC    C25 6559   6.318  -0.500   1.438 -0.0331  0.2228  0.1674
    5FIC    C26 6560   6.306  -0.402   1.340 -0.1000  0.1327  0.0853
    5FIC    C27 6561   6.285  -0.270   1.382 -0.0449  0.1756 -0.0216
    5FIC    C28 6562   6.268  -0.144   1.305 -0.0905  0.1060 -0.1258
    5FIC    C29 6563   6.269  -0.131   1.168 -0.2028 -0.0230 -0.1395
    5FIC    C30 6564   6.288  -0.242   1.080 -0.2931 -0.1091 -0.0512
    5FIC    C31 6565   6.252  -0.006   1.103 -0.2388 -0.0819 -0.2435
    1BTD     S2 6566   5.786   0.793   1.657 -0.1183  0.1229 -0.0525
    1BTD     N1 6567   5.754   0.829   1.830  0.1643  0.2298 -0.0210
    1BTD     N2 6568   5.791   0.965   1.606 -0.1478  0.0931 -0.1570
    1BTD     N3 6569   5.742   1.383   1.816  0.3020  0.2254 -0.3131
    1BTD     N4 6570   5.696   1.215   2.091  0.6868  0.3938 -0.1455
    1BTD     C5 6571   5.724   1.033   1.963  0.4325  0.3134 -0.0880
    1BTD     C6 6572   5.748   0.961   1.841  0.2192  0.2374 -0.0866
    1BTD     C7 6573   5.769   1.038   1.715  0.0443  0.1609 -0.1628
    1BTD     C8 6574   5.765   1.181   1.719  0.0916  0.1642 -0.2365
    1BTD    C15 6575   5.741   1.247   1.841  0.3028  0.2400 -0.2350
    1BTD    C16 6576   5.721   1.174   1.962  0.4713  0.3138 -0.1617
    1BTD    C43 6577   5.672   1.344   2.155  0.5667 -0.3114  0.3141
    1BTD    C44 6578   5.534   1.403   2.149  0.0470 -0.1383  0.0647
    1BTD    C45 6579   5.522   1.551   2.173  0.4688 -0.0743  0.0061
    1BTD    C46 6580   5.559   1.593   2.310 -0.3553 -0.1800  0.5713
    1BTD    C47 6581   5.442   1.305   2.223  0.2857 -0.3771  0.3387
    1BTD    C48 6582   5.287   1.339   2.227  0.3508  0.1156  0.0144
    1BTD    C49 6583   5.221   1.210   2.271 -0.5542 -0.4049  0.1301
    1BTD    C50 6584   5.072   1.203   2.278 -0.8119  0.0617  0.3563
    1BTD    C75 6585   5.780   1.505   1.900  0.7608  0.1843  0.1147
    1BTD    C76 6586   5.928   1.524   1.938 -0.2716  0.3559 -0.0685
    1BTD    C77 6587   6.005   1.404   1.993 -0.2023 -0.2281  0.5147
    1BTD    C78 6588   6.154   1.408   1.966  0.1090 -0.6715 -0.5134
    1BTD    C79 6589   5.963   1.660   2.010 -0.2514 -0.6494  0.2378
    1BTD    C80 6590   5.918   1.687   2.153  0.0627 -0.3046  0.2560
    1BTD    C81 6591   5.945   1.827   2.209 -0.1862 -0.7395 -0.3410
    1BTD    C82 6592   5.867   1.858   2.337 -0.3569 -0.1531  0.0247
    2TTP     S1 6593   5.693   0.837   2.192 -0.2785  0.1764 -0.0870
    2TTP     S5 6594   5.669   1.167   2.467  0.1258  0.0249  0.1317
    2TTP     C1 6595   5.657   1.013   2.561  0.2491 -0.0274  0.0622
    2TTP     C2 6596   5.664   0.901   2.482  0.1315  0.0163 -0.0095
    2TTP     C3 6597   5.678   0.935   2.344 -0.0602  0.0927 -0.0121
    2TTP     C4 6598   5.705   0.992   2.098 -0.4016  0.2287 -0.0175
    2TTP    C17 6599   5.698   1.103   2.177 -0.2840  0.1850  0.0541
    2TTP    C18 6600   5.683   1.070   2.315 -0.0924  0.1086  0.0567
    2TTP    C32 6601   5.640   0.757   2.526 -0.0790 -0.1668  0.1313
    2TTP    C33 6602   5.500   0.712   2.496  0.5200  0.8930  0.1862
    2TTP    C34 6603   5.471   0.559   2.526 -0.3786  0.5128  0.0771
    2TTP    C35 6604   5.347   0.497   2.452 -0.0087  0.5782 -0.8212
    2TTP    C36 6605   5.344   0.340   2.466 -0.5862  0.3384 -0.0185
    2TTP    C37 6606   5.218   0.270   2.409  0.7013  0.6700  0.3142
    2TTP    C38 6607   5.265   0.129   2.374  0.3852  0.4229 -0.0991
    2TTP    C39 6608   5.159   0.031   2.316 -0.5910 -0.1181 -0.2741
    2TTP    C40 6609   5.218  -0.097   2.255 -0.0258  0.1891 -0.3768
    2TTP    C41 6610   5.112  -0.164   2.169 -0.0150 -0.2591  0.4379
    2TTP    C42 6611   5.175  -0.271   2.082 -0.1919  0.0223 -0.2389
    3TTP     S1 6612   5.766   1.289   1.442  0.2540  0.2054  0.0548
    3TTP     S5 6613   5.711   1.688   1.595 -0.3803  0.0059  0.3536
    3TTP     C1 6614   5.701   1.693   1.413 -0.3987  0.1245  0.3582
    3TTP     C2 6615   5.717   1.571   1.355 -0.2040  0.1931  0.2662
    3TTP     C3 6616   5.739   1.468   1.452 -0.0331  0.1545  0.1888
    3TTP     C4 6617   5.776   1.284   1.623  0.2723  0.0868  0.0502
    3TTP    C17 6618   5.760   1.406   1.681  0.0776  0.0183  0.1422
    3TTP    C18 6619   5.739   1.509   1.584 -0.0931  0.0568  0.2197
    3TTP    C32 6620   5.699   1.538   1.208  0.2510  0.0927 -0.1827
    3TTP    C33 6621   5.818   1.475   1.134 -0.6796 -0.8222  0.2590
    3TTP    C34 6622   5.778   1.384   1.012 -0.2835  0.4215 -0.2081
    3TTP    C35 6623   5.720   1.244   1.041  0.2044 -0.3166  0.5042
    3TTP    C36 6624   5.820   1.133   1.080  0.9621 -0.5871  0.3716
    3TTP    C37 6625   5.762   0.995   1.084  0.4042 -0.3703  0.6686
    3TTP    C38 6626   5.847   0.874   1.109 -0.4012 -0.0451 -0.3727
    3TTP    C39 6627   5.913   0.860   1.255  0.7854 -0.3865 -0.0551
    3TTP    C40 6628   5.995   0.976   1.310  0.6004 -0.0226  0.2942
    3TTP    C41 6629   6.113   1.020   1.230  0.6868 -0.0864 -0.1744
    3TTP    C42 6630   6.178   1.146   1.280 -0.1404  0.3628 -0.6661
    4FIC     F1 6631   5.684   1.516   3.212 -0.5066  0.2376 -0.0753
    4FIC     F2 6632   5.573   1.318   3.362 -0.0401  0.0293 -0.0026
    4FIC     O1 6633   5.728   1.268   2.733 -0.4363  0.3474 -0.1256
    4FIC     N5 6634   5.445   0.857   3.237  0.6813 -0.1919  0.0660
    4FIC     N6 6635   5.502   0.703   2.832  0.6421 -0.0641  0.0120
    4FIC    C19 6636   5.638   0.991   2.706  0.0346  0.1874 -0.0740
    4FIC    C20 6637   5.631   1.061   2.821 -0.0015  0.1679 -0.0643
    4FIC    C21 6638   5.679   1.203   2.827 -0.2488  0.2543 -0.0924
    4FIC    C22 6639   5.658   1.249   2.965 -0.2239  0.2065 -0.0725
    4FIC    C23 6640   5.687   1.374   3.019 -0.4044  0.2556 -0.0870
    4FIC    C24 6641   5.658   1.395   3.153 -0.3373  0.1941 -0.0628
    4FIC    C25 6642   5.601   1.292   3.230 -0.0967  0.0868 -0.0254
    4FIC    C26 6643   5.571   1.167   3.177  0.0844  0.0373 -0.0108
    4FIC    C27 6644   5.600   1.145   3.041  0.0199  0.0983 -0.0348
    4FIC    C28 6645   5.581   1.025   2.956  0.1662  0.0703 -0.0283
    4FIC    C29 6646   5.528   0.905   2.994  0.4102 -0.0274  0.0049
    4FIC    C30 6647   5.483   0.879   3.127  0.5583 -0.1175  0.0384
    4FIC    C31 6648   5.514   0.794   2.905  0.5364 -0.0470  0.0086
    5FIC     F1 6649   5.603   2.495   1.573  0.0049  0.0690 -0.0375
    5FIC     F2 6650   5.623   2.544   1.306 -0.0176  0.0445 -0.0438
    5FIC     O1 6651   5.649   1.955   1.580  0.1019  0.0781  0.0170
    5FIC     N5 6652   5.685   2.232   0.927  0.0185  0.0157 -0.0140
    5FIC     N6 6653   5.717   1.800   0.987  0.0987  0.0277  0.0298
    5FIC    C19 6654   5.685   1.811   1.328  0.1145  0.0578  0.0303
    5FIC    C20 6655   5.673   1.945   1.336  0.0910  0.0565  0.0168
    5FIC    C21 6656   5.654   2.012   1.470  0.0858  0.0674  0.0108
    5FIC    C22 6657   5.644   2.156   1.443  0.0587  0.0627 -0.0040
    5FIC    C23 6658   5.627   2.259   1.536  0.0452  0.0694 -0.0139
    5FIC    C24 6659   5.620   2.388   1.487  0.0196  0.0630 -0.0271
    5FIC    C25 6660   5.630   2.414   1.349  0.0079  0.0504 -0.0304
    5FIC    C26 6661   5.648   2.312   1.256  0.0212  0.0437 -0.0205
    5FIC    C27 6662   5.655   2.180   1.304  0.0472  0.0500 -0.0071
    5FIC    C28 6663   5.673   2.051   1.233  0.0666  0.0457  0.0056
    5FIC    C29 6664   5.687   2.034   1.097  0.0626  0.0339  0.0067
    5FIC    C30 6665   5.686   2.143   1.004  0.0384  0.0239 -0.0047
    5FIC    C31 6666   5.703   1.905   1.037  0.0826  0.0305  0.0194
    1BTD     S2 6667   4.529   5.707   1.153 -0.0822 -0.1720  0.1188
    1BTD     N1 6668   4.532   5.757   0.981  0.2675 -0.1774  0.1224
    1BTD     N2 6669   4.498   5.873   1.216 -0.4270 -0.2049  0.0387
    1BTD     N3 6670   4.440   6.301   1.031 -0.4984 -0.2818 -0.1182
    1BTD     N4 6671   4.483   6.158   0.741  0.3573 -0.2481 -0.0151
    1BTD     C5 6672   4.506   5.968   0.859  0.3041 -0.2147  0.0494
    1BTD     C6 6673   4.511   5.888   0.979  0.1169 -0.2023  0.0665
    1BTD     C7 6674   4.492   5.953   1.110 -0.2717 -0.2176  0.0197
    1BTD     C8 6675   4.468   6.095   1.116 -0.4539 -0.2446 -0.0420
    1BTD    C15 6676   4.464   6.169   0.997 -0.2599 -0.2560 -0.0567
    1BTD    C16 6677   4.482   6.107   0.870  0.1146 -0.2413 -0.0116
    1BTD    C43 6678   4.432   6.286   0.687  0.2234 -0.5844  0.1493
    1BTD    C44 6679   4.288   6.335   0.653  0.0783  0.4468  0.4022
    1BTD    C45 6680   4.291   6.473   0.582 -0.3338  0.1621  0.1326
    1BTD    C46 6681   4.337   6.495   0.434  0.2181  0.1399 -0.2131
    1BTD    C47 6682   4.193   6.224   0.604 -0.3935  0.6201 -0.3561
    1BTD    C48 6683   4.047   6.265   0.600  0.0105 -0.4807 -0.1813
    1BTD    C49 6684   3.941   6.163   0.627  0.0643  0.1680  0.2662
    1BTD    C50 6685   3.923   6.041   0.539  0.4644  0.5514  0.6983
    1BTD    C75 6686   4.475   6.430   0.959  0.1953 -0.0185  0.2249
    1BTD    C76 6687   4.613   6.495   0.988  0.5272  0.0568 -0.0812
    1BTD    C77 6688   4.742   6.410   0.964  0.3555  0.1333  0.6550
    1BTD    C78 6689   4.765   6.372   0.818  0.4239  0.4973  0.6824
    1BTD    C79 6690   4.616   6.637   0.932 -0.0376 -0.6451  0.2050
    1BTD    C80 6691   4.721   6.734   1.001  0.5172  0.6084  0.3553
    1BTD    C81 6692   4.728   6.862   0.925 -0.3445 -0.1434  0.7219
    1BTD    C82 6693   4.812   6.961   1.002 -0.1035  0.0446  0.7292
    2TTP     S1 6694   4.565   5.796   0.620  0.2676 -0.1349  0.2768
    2TTP     S5 6695   4.534   6.144   0.369 -0.0730 -0.2152  0.2070
    2TTP     C1 6696   4.576   6.001   0.265  0.0461 -0.1989  0.2327
    2TTP     C2 6697   4.588   5.885   0.337  0.1583 -0.1732  0.2558
    2TTP     C3 6698   4.564   5.905   0.476  0.1543 -0.1655  0.2540
    2TTP     C4 6699   4.522   5.939   0.725  0.1484 -0.1514  0.2511
    2TTP    C17 6700   4.510   6.055   0.653  0.0363 -0.1770  0.2280
    2TTP    C18 6701   4.534   6.035   0.514  0.0403 -0.1848  0.2298
    2TTP    C32 6702   4.614   5.745   0.278 -0.1329  0.4713 -0.2347
    2TTP    C33 6703   4.587   5.618   0.354  0.2540  0.1494  0.0963
    2TTP    C34 6704   4.586   5.494   0.266 -1.0523  0.0317 -0.0891
    2TTP    C35 6705   4.719   5.456   0.208 -0.4185  0.3739 -0.3619
    2TTP    C36 6706   4.724   5.317   0.131  0.7060  0.0014  0.1897
    2TTP    C37 6707   4.859   5.270   0.087 -0.0956  0.2932  0.5305
    2TTP    C38 6708   4.848   5.180  -0.033 -0.4391  0.1365 -0.3943
    2TTP    C39 6709   4.985   5.175  -0.107  0.1069  0.1651 -0.7989
    2TTP    C40 6710   4.949   5.082  -0.230 -0.8313  0.4450 -0.0347
    2TTP    C41 6711   5.047   5.069  -0.348  0.4774  0.3518  0.1540
    2TTP    C42 6712   4.992   4.963  -0.442  0.2653  0.1413 -0.5683
    3TTP     S1 6713   4.410   6.187   1.408  0.2187  0.0637 -0.0108
    3TTP     S5 6714   4.346   6.586   1.261  0.2613  0.1390  0.1744
    3TTP     C1 6715   4.318   6.585   1.440  0.2155  0.0487  0.1669
    3TTP     C2 6716   4.336   6.462   1.496  0.1996  0.0199  0.1093
    3TTP     C3 6717   4.373   6.364   1.399  0.2230  0.0683  0.0690
    3TTP     C4 6718   4.438   6.187   1.228  0.2646  0.1539 -0.0034
    3TTP    C17 6719   4.420   6.311   1.172  0.2804  0.1827  0.0542
    3TTP    C18 6720   4.383   6.409   1.269  0.2570  0.1342  0.0946
    3TTP    C32 6721   4.323   6.419   1.645 -0.3913  0.3042  0.1098
    3TTP    C33 6722   4.295   6.281   1.697 -0.1915 -0.3400 -0.3357
    3TTP    C34 6723   4.327   6.273   1.847  0.3842  0.5916  0.3678
    3TTP    C35 6724   4.290   6.135   1.914  0.1456  0.5245  0.7597
    3TTP    C36 6725   4.321   6.143   2.060  0.2530 -0.0730 -0.4277
    3TTP    C37 6726   4.318   6.014   2.148 -0.2335 -0.2667 -0.0511
    3TTP    C38 6727   4.397   5.901   2.091 -0.4866  0.3950 -0.0019
    3TTP    C39 6728   4.373   5.781   2.187  0.1174  0.5703 -0.2288
    3TTP    C40 6729   4.419   5.643   2.142 -0.2288  0.1885  0.7037
    3TTP    C41 6730   4.557   5.623   2.086 -0.0832  0.1458 -0.1333
    3TTP    C42 6731   4.578   5.475   2.082 -0.1259 -0.0042  1.2009
    4FIC     F1 6732   4.787   6.593  -0.269 -0.1878 -0.0563 -0.0666
    4FIC     F2 6733   4.783   6.408  -0.469 -0.0601 -0.0991 -0.0299
    4FIC     O1 6734   4.658   6.286   0.158 -0.2859  0.0010 -0.0551
    4FIC     N5 6735   4.684   5.924  -0.452  0.0532 -0.1199  0.0312
    4FIC     N6 6736   4.584   5.721  -0.078 -0.0494 -0.0665  0.0328
    4FIC    C19 6737   4.608   6.000   0.118 -0.1991 -0.0196 -0.0159
    4FIC    C20 6738   4.640   6.085   0.019 -0.1794 -0.0323 -0.0203
    4FIC    C21 6739   4.665   6.230   0.047 -0.2269 -0.0205 -0.0408
    4FIC    C22 6740   4.698   6.293  -0.082 -0.1897 -0.0393 -0.0403
    4FIC    C23 6741   4.728   6.426  -0.107 -0.2128 -0.0368 -0.0559
    4FIC    C24 6742   4.756   6.462  -0.238 -0.1680 -0.0573 -0.0520
    4FIC    C25 6743   4.754   6.367  -0.340 -0.1024 -0.0794 -0.0330
    4FIC    C26 6744   4.724   6.234  -0.317 -0.0789 -0.0819 -0.0174
    4FIC    C27 6745   4.695   6.195  -0.185 -0.1234 -0.0614 -0.0211
    4FIC    C28 6746   4.660   6.063  -0.127 -0.1144 -0.0579 -0.0080
    4FIC    C29 6747   4.647   5.945  -0.195 -0.0572 -0.0752  0.0117
    4FIC    C30 6748   4.667   5.933  -0.336  0.0033 -0.0998  0.0224
    4FIC    C31 6749   4.612   5.822  -0.130 -0.0532 -0.0703  0.0232
    5FIC     F1 6750   4.228   7.392   1.306 -0.0780 -0.0726 -0.0322
    5FIC     F2 6751   4.210   7.427   1.575 -0.1293  0.1029 -0.0580
    5FIC     O1 6752   4.292   6.855   1.276  0.0805 -0.0745  0.3374
    5FIC     N5 6753   4.230   7.095   1.941 -0.0906  0.3535  0.1683
    5FIC     N6 6754   4.284   6.668   1.864  0.0434  0.3166  0.4623
    5FIC    C19 6755   4.298   6.698   1.523  0.0873  0.0923  0.4441
    5FIC    C20 6756   4.282   6.832   1.520  0.0496  0.0859  0.3521
    5FIC    C21 6757   4.280   6.906   1.389  0.0485 -0.0021  0.3021
    5FIC    C22 6758   4.262   7.048   1.422  0.0029  0.0145  0.2037
    5FIC    C23 6759   4.254   7.155   1.333 -0.0143 -0.0470  0.1306
    5FIC    C24 6760   4.236   7.282   1.388 -0.0588 -0.0152  0.0433
    5FIC    C25 6761   4.227   7.299   1.527 -0.0854  0.0751  0.0301
    5FIC    C26 6762   4.235   7.193   1.615 -0.0687  0.1367  0.1028
    5FIC    C27 6763   4.253   7.064   1.562 -0.0235  0.1060  0.1917
    5FIC    C28 6764   4.265   6.932   1.628  0.0042  0.1534  0.2824
    5FIC    C29 6765   4.261   6.907   1.763 -0.0097  0.2428  0.2985
    5FIC    C30 6766   4.244   7.010   1.861 -0.0540  0.3034  0.2269
    5FIC    C31 6767   4.274   6.776   1.818  0.0197  0.2829  0.3886
    1BTD     S2 6768   4.841   6.074   1.092  0.1123  0.0573  0.1222
    1BTD     N1 6769   4.880   6.050   0.919  0.2413  0.1107  0.1433
    1BTD     N2 6770   4.846   5.899   1.133 -0.0031  0.0383  0.0537
    1BTD     N3 6771   4.925   5.498   0.902 -0.0052  0.0962 -0.0477
    1BTD     N4 6772   4.967   5.684   0.638  0.2961  0.1856  0.0627
    1BTD     C5 6773   4.925   5.856   0.775  0.2664  0.1487  0.0999
    1BTD     C6 6774   4.894   5.919   0.901  0.1943  0.1117  0.1004
    1BTD     C7 6775   4.875   5.835   1.021  0.0573  0.0710  0.0503
    1BTD     C8 6776   4.888   5.692   1.009 -0.0006  0.0697  0.0021
    1BTD    C15 6777   4.919   5.635   0.884  0.0737  0.1067  0.0034
    1BTD    C16 6778   4.937   5.716   0.769  0.2057  0.1458  0.0518
    1BTD    C43 6779   5.008   5.559   0.572  0.5371 -0.0209 -0.5225
    1BTD    C44 6780   5.153   5.507   0.551 -0.0078  0.2932 -0.5202
    1BTD    C45 6781   5.160   5.351   0.543  0.1436  0.0335  0.3545
    1BTD    C46 6782   5.095   5.308   0.410 -0.4288 -0.3506  0.2565
    1BTD    C47 6783   5.254   5.595   0.474 -0.9722  0.5402 -0.0749
    1BTD    C48 6784   5.402   5.544   0.473 -0.1444  0.9524 -0.1747
    1BTD    C49 6785   5.494   5.657   0.426 -0.1203 -0.2090 -0.0346
    1BTD    C50 6786   5.635   5.608   0.388  0.6554  0.0104 -0.3018
    1BTD    C75 6787   4.906   5.386   0.809 -0.0329 -0.8967 -0.0658
    1BTD    C76 6788   4.766   5.324   0.778 -0.1943  0.0662 -0.0610
    1BTD    C77 6789   4.664   5.432   0.741 -0.8609 -0.1017 -0.1648
    1BTD    C78 6790   4.522   5.402   0.713 -0.1029  0.7527  0.1778
    1BTD    C79 6791   4.783   5.202   0.685  0.7307 -0.1390  0.1494
    1BTD    C80 6792   4.887   5.097   0.718  0.5406 -0.6514  0.6222
    1BTD    C81 6793   4.895   4.992   0.603  0.5820  0.1706 -0.8301
    1BTD    C82 6794   4.986   4.881   0.642 -0.1590  0.5864 -0.1707
    2TTP     S1 6795   4.929   6.063   0.551  0.0156 -0.0228 -0.0881
    2TTP     S5 6796   4.998   5.745   0.269 -0.5616  0.0819 -0.3516
    2TTP     C1 6797   4.986   5.902   0.178 -0.3562  0.1704 -0.2291
    2TTP     C2 6798   4.963   6.010   0.259 -0.1661  0.1433 -0.1405
    2TTP     C3 6799   4.955   5.972   0.397 -0.1754  0.0516 -0.1662
    2TTP     C4 6800   4.941   5.906   0.642 -0.1897 -0.1113 -0.2105
    2TTP    C17 6801   4.963   5.799   0.560 -0.3800 -0.0841 -0.2991
    2TTP    C18 6802   4.971   5.837   0.423 -0.3706  0.0075 -0.2735
    2TTP    C32 6803   4.947   6.157   0.225  0.8407  0.1003 -0.1043
    2TTP    C33 6804   5.062   6.250   0.258  0.0369  0.2813  0.4224
    2TTP    C34 6805   5.038   6.391   0.236 -0.1774  0.8710  0.9562
    2TTP    C35 6806   4.945   6.453   0.331 -0.6251 -0.5020  0.1143
    2TTP    C36 6807   4.914   6.603   0.308 -0.2460  0.1609  0.7664
    2TTP    C37 6808   4.829   6.671   0.418  0.0424  0.5993 -0.2739
    2TTP    C38 6809   4.776   6.811   0.414 -0.4079  0.0026  0.6179
    2TTP    C39 6810   4.692   6.836   0.296  0.0887  0.1049  0.5381
    2TTP    C40 6811   4.663   6.984   0.291 -0.5337 -0.0922  0.0547
    2TTP    C41 6812   4.558   7.040   0.192 -0.4032  0.2506 -0.3168
    2TTP    C42 6813   4.555   7.187   0.165 -0.0290 -0.8183  0.1987
    3TTP     S1 6814   4.888   5.560   1.286  0.1384 -0.0415 -0.1420
    3TTP     S5 6815   4.947   5.176   1.103  0.1030 -0.0849 -0.0620
    3TTP     C1 6816   4.947   5.154   1.284 -0.2317 -0.0964 -0.0619
    3TTP     C2 6817   4.929   5.272   1.351 -0.2404 -0.0833 -0.0865
    3TTP     C3 6818   4.914   5.383   1.262  0.0168 -0.0643 -0.1065
    3TTP     C4 6819   4.888   5.581   1.106  0.4733 -0.0300 -0.1421
    3TTP    C17 6820   4.906   5.464   1.038  0.4820 -0.0429 -0.1174
    3TTP    C18 6821   4.921   5.353   1.127  0.2245 -0.0620 -0.0975
    3TTP    C32 6822   4.928   5.303   1.503 -0.3860  0.2630  0.3483
    3TTP    C33 6823   4.799   5.313   1.581  0.3775  0.6889  0.6197
    3TTP    C34 6824   4.739   5.450   1.585  0.0975  0.4064 -0.5909
    3TTP    C35 6825   4.603   5.464   1.655 -0.9202 -0.5409 -0.2012
    3TTP    C36 6826   4.525   5.588   1.633  0.2472 -0.8396 -0.3786
    3TTP    C37 6827   4.602   5.721   1.666 -0.1388  0.1226 -0.0939
    3TTP    C38 6828   4.518   5.847   1.700 -0.9632  0.1583  0.3182
    3TTP    C39 6829   4.603   5.973   1.730 -0.3863 -0.1427  0.0701
    3TTP    C40 6830   4.689   5.964   1.864  0.2786  0.2046 -0.0165
    3TTP    C41 6831   4.746   6.095   1.915 -0.0790 -0.5367  0.3840
    3TTP    C42 6832   4.816   6.092   2.050 -0.0759  0.4024 -0.1465
    4FIC     F1 6833   5.025   5.398  -0.466 -0.4039  0.1620 -0.0655
    4FIC     F2 6834   5.069   5.615  -0.625  0.4947  0.0390  0.0060
    4FIC     O1 6835   4.977   5.635   0.019 -0.7288  0.3166 -0.1725
    4FIC     N5 6836   5.098   6.095  -0.508  1.5548 -0.0277  0.0324
    4FIC     N6 6837   5.052   6.236  -0.097  1.1199  0.1178 -0.0656
    4FIC    C19 6838   5.002   5.926   0.039  0.0141  0.2539 -0.1422
    4FIC    C20 6839   5.013   5.858  -0.077  0.0608  0.2198 -0.1181
    4FIC    C21 6840   4.999   5.709  -0.079 -0.3371  0.2556 -0.1360
    4FIC    C22 6841   5.015   5.667  -0.220 -0.1695  0.2041 -0.1015
    4FIC    C23 6842   5.010   5.538  -0.271 -0.4145  0.2131 -0.1029
    4FIC    C24 6843   5.029   5.523  -0.408 -0.1822  0.1566 -0.0664
    4FIC    C25 6844   5.051   5.635  -0.490  0.2807  0.0934 -0.0296
    4FIC    C26 6845   5.056   5.764  -0.439  0.5273  0.0839 -0.0279
    4FIC    C27 6846   5.038   5.781  -0.301  0.2979  0.1405 -0.0646
    4FIC    C28 6847   5.037   5.903  -0.216  0.4579  0.1477 -0.0734
    4FIC    C29 6848   5.056   6.032  -0.259  0.8911  0.0970 -0.0454
    4FIC    C30 6849   5.079   6.066  -0.396  1.2544  0.0286 -0.0027
    4FIC    C31 6850   5.054   6.144  -0.170  1.0145  0.1088 -0.0567
    5FIC     F1 6851   5.089   4.359   1.105 -0.0943  0.0706 -0.0009
    5FIC     F2 6852   5.085   4.306   1.372  0.3157  0.2346  0.0390
    5FIC     O1 6853   5.002   4.893   1.105 -0.1940  0.0546 -0.1990
    5FIC     N5 6854   5.017   4.610   1.756  0.8341  0.4585 -0.0448
    5FIC     N6 6855   4.950   5.039   1.702  0.6735  0.4128 -0.2076
    5FIC    C19 6856   4.967   5.033   1.360  0.1622  0.2054 -0.2312
    5FIC    C20 6857   4.989   4.900   1.350  0.1713  0.2031 -0.1829
    5FIC    C21 6858   5.006   4.836   1.215 -0.0184  0.1233 -0.1693
    5FIC    C22 6859   5.028   4.692   1.240  0.0455  0.1425 -0.1142
    5FIC    C23 6860   5.049   4.592   1.145 -0.0772  0.0882 -0.0842
    5FIC    C24 6861   5.068   4.463   1.193  0.0178  0.1210 -0.0327
    5FIC    C25 6862   5.066   4.436   1.330  0.2292  0.2052 -0.0123
    5FIC    C26 6863   5.045   4.535   1.425  0.3524  0.2598 -0.0420
    5FIC    C27 6864   5.026   4.667   1.379  0.2589  0.2278 -0.0941
    5FIC    C28 6865   5.002   4.793   1.452  0.3446  0.2685 -0.1356
    5FIC    C29 6866   4.993   4.809   1.589  0.5462  0.3508 -0.1309
    5FIC    C30 6867   5.006   4.700   1.680  0.7038  0.4097 -0.0836
    5FIC    C31 6868   4.969   4.935   1.650  0.6152  0.3844 -0.1732
    1BTD     S2 6869   5.947   3.222   1.594  0.0611  0.0223  0.0570
    1BTD     N1 6870   5.937   3.193   1.771 -0.0495 -0.0033  0.0465
    1BTD     N2 6871   5.949   3.048   1.550 -0.0660  0.0288  0.0243
    1BTD     N3 6872   5.935   2.639   1.781 -0.5250 -0.0045 -0.0613
    1BTD     N4 6873   5.920   2.818   2.053 -0.5046 -0.0442 -0.0341
    1BTD     C5 6874   5.928   2.995   1.915 -0.2873 -0.0243  0.0041
    1BTD     C6 6875   5.935   3.061   1.787 -0.1693 -0.0057  0.0205
    1BTD     C7 6876   5.942   2.980   1.664 -0.1786  0.0123  0.0081
    1BTD     C8 6877   5.941   2.837   1.674 -0.3054  0.0109 -0.0201
    1BTD    C15 6878   5.934   2.776   1.800 -0.4184 -0.0075 -0.0353
    1BTD    C16 6879   5.927   2.854   1.920 -0.4094 -0.0249 -0.0234
    1BTD    C43 6880   5.978   2.694   2.115 -0.0527 -0.0501  0.4395
    1BTD    C44 6881   6.119   2.687   2.162 -0.9630  0.2287  0.4636
    1BTD    C45 6882   6.147   2.554   2.235  0.7429 -0.0588 -0.1537
    1BTD    C46 6883   6.086   2.539   2.370  0.0998 -0.2407  0.0077
    1BTD    C47 6884   6.226   2.733   2.049  0.0331  0.3419 -0.4220
    1BTD    C48 6885   6.373   2.761   2.072 -0.1361  0.0798 -0.4362
    1BTD    C49 6886   6.408   2.880   2.170  0.0343  0.4660 -0.4051
    1BTD    C50 6887   6.398   3.027   2.115  0.4182  0.0105  0.1832
    1BTD    C75 6888   5.897   2.526   1.877 -0.0032 -0.1859  0.0829
    1BTD    C76 6889   5.749   2.476   1.877 -0.4584  0.4107  0.5513
    1BTD    C77 6890   5.645   2.579   1.917 -0.2530  0.1548 -0.0874
    1BTD    C78 6891   5.496   2.547   1.904  0.3498 -0.3722  0.7758
    1BTD    C79 6892   5.749   2.340   1.947  0.0904 -0.1717  0.3896
    1BTD    C80 6893   5.818   2.220   1.891  0.2502 -0.3232  0.8554
    1BTD    C81 6894   5.753   2.086   1.924 -0.2917 -0.0740 -0.7894
    1BTD    C82 6895   5.819   1.970   1.852 -0.0616 -0.0811 -0.2185
    2TTP     S1 6896   5.881   3.195   2.133 -0.0668 -0.0047  0.1879
    2TTP     S5 6897   5.874   2.877   2.422 -0.2913 -0.4192 -0.2702
    2TTP     C1 6898   5.846   3.035   2.508 -0.1266 -0.5174 -0.0353
    2TTP     C2 6899   5.846   3.142   2.424 -0.0478 -0.3952  0.1200
    2TTP     C3 6900   5.869   3.104   2.288 -0.1142 -0.2196  0.0591
    2TTP     C4 6901   5.909   3.038   2.046 -0.2315  0.0935 -0.0471
    2TTP    C17 6902   5.909   2.930   2.130 -0.3105 -0.0287 -0.2025
    2TTP    C18 6903   5.886   2.968   2.266 -0.2438 -0.2043 -0.1415
    2TTP    C32 6904   5.820   3.292   2.466  0.7390  0.5733  0.1199
    2TTP    C33 6905   5.913   3.396   2.398 -0.4206 -0.2317  0.0335
    2TTP    C34 6906   5.892   3.530   2.456 -0.4547 -0.4992 -0.2597
    2TTP    C35 6907   6.011   3.619   2.470 -0.9288 -0.7691  0.3190
    2TTP    C36 6908   5.971   3.761   2.518  0.3196  0.1189 -0.4055
    2TTP    C37 6909   6.073   3.870   2.509  0.1678  0.0350  0.3850
    2TTP    C38 6910   5.994   4.003   2.504  0.0168 -0.1251 -0.3454
    2TTP    C39 6911   6.089   4.124   2.503  0.1963  0.1571 -0.2718
    2TTP    C40 6912   6.025   4.260   2.510  0.0056  0.4661  0.2570
    2TTP    C41 6913   6.120   4.368   2.555 -0.4502 -0.7284 -0.6516
    2TTP    C42 6914   6.051   4.503   2.554  0.1578  0.6928  0.1153
    3TTP     S1 6915   5.959   2.712   1.399  0.2017  0.0700 -0.0838
    3TTP     S5 6916   5.968   2.322   1.581 -0.1925 -0.0948 -0.4149
    3TTP     C1 6917   5.988   2.303   1.401  0.0273  0.0561 -0.4082
    3TTP     C2 6918   5.986   2.422   1.334  0.1620  0.1159 -0.3056
    3TTP     C3 6919   5.969   2.533   1.423  0.0964  0.0447 -0.2285
    3TTP     C4 6920   5.940   2.731   1.579 -0.0181 -0.0808 -0.0905
    3TTP    C17 6921   5.942   2.612   1.646 -0.1527 -0.1406 -0.1931
    3TTP    C18 6922   5.958   2.501   1.557 -0.0874 -0.0694 -0.2702
    3TTP    C32 6923   5.991   2.436   1.186  0.5604 -0.2546 -0.0076
    3TTP    C33 6924   6.032   2.566   1.114  0.3980  0.8095 -0.2673
    3TTP    C34 6925   6.019   2.557   0.955  0.7560 -0.0239  0.0401
    3TTP    C35 6926   5.888   2.503   0.893  0.1868 -0.6490 -0.4962
    3TTP    C36 6927   5.869   2.505   0.742 -0.2120 -0.2226  0.2367
    3TTP    C37 6928   5.963   2.405   0.670  0.4487  0.0263 -0.1127
    3TTP    C38 6929   5.973   2.407   0.519  0.0085  0.2569  0.7015
    3TTP    C39 6930   6.000   2.548   0.455  0.4975  1.1638  0.3174
    3TTP    C40 6931   6.001   2.545   0.301 -0.7665 -0.1727  0.7134
    3TTP    C41 6932   5.884   2.493   0.219  0.0772  0.5456  0.4223
    3TTP    C42 6933   5.749   2.565   0.235  0.2472 -0.1462  0.0958
    4FIC     F1 6934   5.595   2.552   3.126  0.3656 -0.1019  0.1599
    4FIC     F2 6935   5.632   2.761   3.297 -0.0113 -0.0036  0.1224
    4FIC     O1 6936   5.736   2.778   2.655  0.4206 -0.0727  0.1905
    4FIC     N5 6937   5.785   3.222   3.206 -0.5140  0.1588  0.0902
    4FIC     N6 6938   5.889   3.357   2.804 -0.3952  0.1618  0.1217
    4FIC    C19 6939   5.822   3.058   2.651  0.0798  0.0317  0.1655
    4FIC    C20 6940   5.785   2.993   2.763  0.0808  0.0206  0.1593
    4FIC    C21 6941   5.742   2.849   2.757  0.2617 -0.0342  0.1730
    4FIC    C22 6942   5.709   2.810   2.895  0.2124 -0.0326  0.1616
    4FIC    C23 6943   5.664   2.685   2.940  0.3333 -0.0739  0.1680
    4FIC    C24 6944   5.639   2.672   3.075  0.2543 -0.0629  0.1545
    4FIC    C25 6945   5.658   2.780   3.163  0.0599 -0.0122  0.1352
    4FIC    C26 6946   5.702   2.904   3.119 -0.0616  0.0291  0.1287
    4FIC    C27 6947   5.728   2.919   2.982  0.0161  0.0188  0.1422
    4FIC    C28 6948   5.776   3.036   2.904 -0.0725  0.0535  0.1400
    4FIC    C29 6949   5.806   3.161   2.954 -0.2608  0.1061  0.1233
    4FIC    C30 6950   5.795   3.194   3.093 -0.3992  0.1348  0.1051
    4FIC    C31 6951   5.851   3.268   2.871 -0.3335  0.1365  0.1225
    5FIC     F1 6952   6.126   1.524   1.621 -0.5107 -0.1536 -0.1397
    5FIC     F2 6953   6.153   1.461   1.358  0.2227  0.1456 -0.1421
    5FIC     O1 6954   6.025   2.055   1.589 -0.6347 -0.1581  0.1715
    5FIC     N5 6955   6.119   1.748   0.957  1.1888  0.5724  0.0763
    5FIC     N6 6956   6.035   2.176   0.985  0.9439  0.5087  0.3200
    5FIC    C19 6957   6.015   2.183   1.326  0.0218  0.1261  0.2798
    5FIC    C20 6958   6.039   2.052   1.345  0.0246  0.1156  0.2016
    5FIC    C21 6959   6.043   1.994   1.483 -0.3244 -0.0347  0.1497
    5FIC    C22 6960   6.072   1.850   1.467 -0.2242 -0.0057  0.0687
    5FIC    C23 6961   6.085   1.754   1.567 -0.4556 -0.1104  0.0003
    5FIC    C24 6962   6.112   1.624   1.528 -0.2977 -0.0563 -0.0698
    5FIC    C25 6963   6.126   1.592   1.392  0.0803  0.0979 -0.0709
    5FIC    C26 6964   6.113   1.687   1.291  0.3127  0.2030 -0.0029
    5FIC    C27 6965   6.085   1.819   1.330  0.1578  0.1503  0.0687
    5FIC    C28 6966   6.066   1.942   1.249  0.3258  0.2310  0.1503
    5FIC    C29 6967   6.071   1.952   1.112  0.6906  0.3835  0.1738
    5FIC    C30 6968   6.098   1.840   1.027  0.9633  0.4868  0.1201
    5FIC    C31 6969   6.051   2.075   1.043  0.8278  0.4514  0.2541
    1BTD     S2 6970   5.595   2.804   1.557  0.1619 -0.1096 -0.0138
    1BTD     N1 6971   5.570   2.872   1.722  0.2624 -0.0415 -0.0263
    1BTD     N2 6972   5.590   2.964   1.475 -0.1379 -0.1650 -0.1065
    1BTD     N3 6973   5.536   3.412   1.605 -0.5685 -0.1552 -0.3178
    1BTD     N4 6974   5.511   3.298   1.910 -0.0749 -0.0030 -0.2191
    1BTD     C5 6975   5.540   3.096   1.816  0.0803 -0.0232 -0.1282
    1BTD     C6 6976   5.560   3.003   1.708  0.0768 -0.0626 -0.0953
    1BTD     C7 6977   5.571   3.055   1.570 -0.1475 -0.1317 -0.1402
    1BTD     C8 6978   5.562   3.197   1.547 -0.3568 -0.1581 -0.2156
    1BTD    C15 6979   5.541   3.283   1.656 -0.3450 -0.1177 -0.2454
    1BTD    C16 6980   5.531   3.234   1.789 -0.1289 -0.0512 -0.2022
    1BTD    C43 6981   5.429   3.419   1.925 -0.1508  0.7006  0.1477
    1BTD    C44 6982   5.445   3.502   2.049  0.5868 -1.0365  0.0914
    1BTD    C45 6983   5.589   3.556   2.065  0.3978  0.6227  0.0271
    1BTD    C46 6984   5.620   3.629   2.195  0.5801  0.4483 -0.1016
    1BTD    C47 6985   5.337   3.609   2.073  0.4300  0.8063  0.2951
    1BTD    C48 6986   5.192   3.572   2.081  0.4049  0.7156  0.4027
    1BTD    C49 6987   5.138   3.480   2.191  0.2736 -0.2768  0.4295
    1BTD    C50 6988   5.146   3.530   2.332 -0.2857  0.7399  0.2540
    1BTD    C75 6989   5.567   3.541   1.672 -0.3540 -0.2159 -0.4667
    1BTD    C76 6990   5.702   3.611   1.665 -0.9159  0.1511 -0.2773
    1BTD    C77 6991   5.824   3.530   1.694  0.4507 -0.1657  0.0613
    1BTD    C78 6992   5.877   3.509   1.828  0.7001 -0.5036 -0.9835
    1BTD    C79 6993   5.697   3.762   1.715 -0.4138 -0.4509  0.5782
    1BTD    C80 6994   5.821   3.850   1.691  0.5792 -0.2113  0.2517
    1BTD    C81 6995   5.778   4.001   1.715 -0.3723  0.0046 -0.5264
    1BTD    C82 6996   5.894   4.102   1.709  0.1110  0.5511 -0.1544
    2TTP     S1 6997   5.532   2.943   2.080 -0.0020  0.1452  0.0236
    2TTP     S5 6998   5.447   3.307   2.293 -0.2046 -0.0118  0.2118
    2TTP     C1 6999   5.457   3.170   2.413  0.0916 -0.0328  0.1665
    2TTP     C2 7000   5.483   3.050   2.354  0.1715  0.0143  0.1056
    2TTP     C3 7001   5.497   3.061   2.212  0.0018  0.0690  0.0927
    2TTP     C4 7002   5.523   3.080   1.960 -0.2981  0.1662  0.0690
    2TTP    C17 7003   5.496   3.200   2.019 -0.3781  0.1191  0.1297
    2TTP    C18 7004   5.482   3.189   2.161 -0.2084  0.0646  0.1428
    2TTP    C32 7005   5.503   2.914   2.423  0.2029  0.1139  0.0260
    2TTP    C33 7006   5.381   2.819   2.399 -0.5623 -0.6478 -0.3190
    2TTP    C34 7007   5.396   2.692   2.472 -0.6298 -1.0675  0.2961
    2TTP    C35 7008   5.494   2.590   2.426 -0.2381 -0.3117  0.9716
    2TTP    C36 7009   5.462   2.451   2.486 -0.0042  0.2367  0.3906
    2TTP    C37 7010   5.562   2.329   2.451  0.2983 -0.2593  0.6634
    2TTP    C38 7011   5.717   2.349   2.454  0.3014 -0.4191 -0.4504
    2TTP    C39 7012   5.792   2.378   2.587  0.2703 -0.2724 -1.0858
    2TTP    C40 7013   5.781   2.265   2.694 -0.0439 -0.4376  0.6732
    2TTP    C41 7014   5.795   2.327   2.833  0.6234 -0.4680 -0.1133
    2TTP    C42 7015   5.791   2.208   2.935  0.5771  0.0789  0.3064
    3TTP     S1 7016   5.588   3.252   1.253  0.1375 -0.3397  0.1574
    3TTP     S5 7017   5.492   3.663   1.333  0.2592 -0.2487 -0.1585
    3TTP     C1 7018   5.515   3.643   1.154 -0.0286 -0.4535 -0.1737
    3TTP     C2 7019   5.546   3.515   1.118 -0.0832 -0.4936 -0.0769
    3TTP     C3 7020   5.553   3.428   1.232  0.1004 -0.3641  0.0125
    3TTP     C4 7021   5.565   3.272   1.432  0.4252 -0.1348  0.1725
    3TTP    C17 7022   5.534   3.400   1.467  0.4798 -0.0946  0.0758
    3TTP    C18 7023   5.528   3.487   1.354  0.2962 -0.2241 -0.0136
    3TTP    C32 7024   5.591   3.469   0.980  0.0234  0.2244  0.1054
    3TTP    C33 7025   5.485   3.382   0.912 -0.6855 -0.2464  0.2589
    3TTP    C34 7026   5.565   3.276   0.843  1.1115 -0.1893 -0.0926
    3TTP    C35 7027   5.484   3.165   0.762 -0.2146 -0.5663 -0.8163
    3TTP    C36 7028   5.381   3.082   0.838 -1.0388  0.2996  0.0055
    3TTP    C37 7029   5.439   3.014   0.961  1.4773  0.1961  0.4083
    3TTP    C38 7030   5.502   2.875   0.919  0.4725 -0.2456 -1.0615
    3TTP    C39 7031   5.567   2.800   1.029 -0.5026  0.2601 -0.3737
    3TTP    C40 7032   5.664   2.860   1.118 -0.5772 -0.0464 -1.0356
    3TTP    C41 7033   5.800   2.894   1.053 -0.2345  0.3265 -0.3849
    3TTP    C42 7034   5.905   2.970   1.145  0.1197  0.7713  0.5637
    4FIC     F1 7035   5.590   3.780   2.942 -0.0287  0.1000 -0.1435
    4FIC     F2 7036   5.537   3.607   3.146 -0.1022  0.1599 -0.1119
    4FIC     O1 7037   5.529   3.454   2.514  0.1279 -0.0264 -0.0701
    4FIC     N5 7038   5.417   3.127   3.133 -0.0955  0.1557 -0.0141
    4FIC     N6 7039   5.381   2.908   2.757  0.0416  0.0448  0.0368
    4FIC    C19 7040   5.457   3.174   2.556  0.1137 -0.0142 -0.0138
    4FIC    C20 7041   5.474   3.262   2.656  0.0771  0.0153 -0.0335
    4FIC    C21 7042   5.511   3.405   2.626  0.0873  0.0066 -0.0620
    4FIC    C22 7043   5.522   3.473   2.756  0.0399  0.0451 -0.0781
    4FIC    C23 7044   5.555   3.607   2.780  0.0309  0.0520 -0.1056
    4FIC    C24 7045   5.559   3.649   2.912 -0.0174  0.0910 -0.1165
    4FIC    C25 7046   5.531   3.560   3.017 -0.0550  0.1217 -0.1001
    4FIC    C26 7047   5.499   3.427   2.994 -0.0463  0.1150 -0.0727
    4FIC    C27 7048   5.494   3.382   2.861  0.0023  0.0757 -0.0613
    4FIC    C28 7049   5.464   3.249   2.803  0.0236  0.0587 -0.0333
    4FIC    C29 7050   5.432   3.135   2.873 -0.0013  0.0792 -0.0113
    4FIC    C30 7051   5.424   3.131   3.016 -0.0532  0.1212 -0.0129
    4FIC    C31 7052   5.404   3.011   2.809  0.0224  0.0601  0.0150
    5FIC     F1 7053   5.361   4.456   1.127  0.1376 -0.0020  0.0582
    5FIC     F2 7054   5.395   4.446   0.857 -0.6156 -0.2542 -0.0346
    5FIC     O1 7055   5.443   3.937   1.260  0.7749  0.1724  0.3505
    5FIC     N5 7056   5.504   4.062   0.564 -1.2441 -0.4921  0.0403
    5FIC     N6 7057   5.562   3.659   0.723 -0.5943 -0.3051  0.2874
    5FIC    C19 7058   5.506   3.744   1.050  0.2816 -0.0064  0.3656
    5FIC    C20 7059   5.483   3.875   1.027  0.1509 -0.0405  0.2958
    5FIC    C21 7060   5.452   3.968   1.140  0.4221  0.0570  0.2927
    5FIC    C22 7061   5.434   4.102   1.081  0.1869 -0.0117  0.2083
    5FIC    C23 7062   5.403   4.220   1.146  0.3110  0.0385  0.1760
    5FIC    C24 7063   5.391   4.335   1.068  0.0348 -0.0453  0.0940
    5FIC    C25 7064   5.409   4.329   0.929 -0.3532 -0.1750  0.0464
    5FIC    C26 7065   5.439   4.211   0.863 -0.4790 -0.2259  0.0782
    5FIC    C27 7066   5.452   4.094   0.940 -0.2035 -0.1425  0.1610
    5FIC    C28 7067   5.484   3.955   0.902 -0.2412 -0.1654  0.2129
    5FIC    C29 7068   5.508   3.908   0.774 -0.5753 -0.2803  0.1886
    5FIC    C30 7069   5.506   3.993   0.659 -0.9418 -0.3965  0.1071
    5FIC    C31 7070   5.537   3.771   0.747 -0.5838 -0.2933  0.2431
    1BTD     S2 7071   4.184   7.668   1.266  0.1365  0.0409 -0.2198
    1BTD     N1 7072   4.196   7.708   1.091  0.0836  0.0588 -0.2195
    1BTD     N2 7073   4.192   7.839   1.321  0.0710  0.0408 -0.2097
    1BTD     N3 7074   4.232   8.260   1.117 -0.1572  0.0734 -0.1888
    1BTD     N4 7075   4.238   8.099   0.834 -0.1419  0.0949 -0.2009
    1BTD     C5 7076   4.218   7.914   0.960 -0.0342  0.0772 -0.2096
    1BTD     C6 7077   4.206   7.840   1.083  0.0231  0.0635 -0.2123
    1BTD     C7 7078   4.203   7.913   1.211  0.0160  0.0536 -0.2069
    1BTD     C8 7079   4.213   8.057   1.211 -0.0480  0.0584 -0.1989
    1BTD    C15 7080   4.225   8.125   1.088 -0.1029  0.0718 -0.1966
    1BTD    C16 7081   4.227   8.055   0.964 -0.0960  0.0813 -0.2019
    1BTD    C43 7082   4.210   8.226   0.765 -0.7216 -0.2540 -0.1316
    1BTD    C44 7083   4.072   8.285   0.734  0.0315 -0.2693 -0.4183
    1BTD    C45 7084   4.087   8.440   0.704 -0.0724 -0.0727  0.4315
    1BTD    C46 7085   4.162   8.468   0.571 -0.0108 -0.3709  0.3688
    1BTD    C47 7086   3.984   8.191   0.648 -0.2320 -0.6801  0.1081
    1BTD    C48 7087   3.845   8.252   0.623 -0.3429 -0.9197  0.1043
    1BTD    C49 7088   3.770   8.166   0.519 -0.7515  0.3193  0.7678
    1BTD    C50 7089   3.626   8.226   0.498 -0.2204 -0.4449 -0.0635
    1BTD    C75 7090   4.287   8.366   1.037  0.2362  0.2408  0.5905
    1BTD    C76 7091   4.437   8.399   1.051 -0.8391  0.2945  0.0648
    1BTD    C77 7092   4.538   8.287   1.013  0.2778 -0.6083  0.5674
    1BTD    C78 7093   4.681   8.297   1.062 -0.8132 -0.0448  0.2218
    1BTD    C79 7094   4.474   8.537   1.001 -0.5436 -0.8129  0.1292
    1BTD    C80 7095   4.419   8.578   0.863 -0.0177  0.1462 -0.5285
    1BTD    C81 7096   4.478   8.707   0.806  0.8818  0.4041  0.0256
    1BTD    C82 7097   4.451   8.697   0.654  0.1936  0.8211 -0.0194
    2TTP     S1 7098   4.236   7.721   0.728  0.1481 -0.0350 -0.1050
    2TTP     S5 7099   4.290   8.058   0.468 -0.2469 -0.0744 -0.2385
    2TTP     C1 7100   4.292   7.907   0.367 -0.0767 -0.1112 -0.1794
    2TTP     C2 7101   4.276   7.793   0.442  0.0553 -0.1012 -0.1347
    2TTP     C3 7102   4.261   7.822   0.581  0.0267 -0.0641 -0.1455
    2TTP     C4 7103   4.234   7.872   0.829 -0.0222  0.0019 -0.1641
    2TTP    C17 7104   4.250   7.986   0.754 -0.1543 -0.0081 -0.2088
    2TTP    C18 7105   4.265   7.957   0.615 -0.1258 -0.0453 -0.1980
    2TTP    C32 7106   4.278   7.646   0.396 -0.0972  0.2247  0.4020
    2TTP    C33 7107   4.172   7.537   0.411 -0.5861 -0.0010  0.5482
    2TTP    C34 7108   4.223   7.406   0.343 -0.0595  0.0563 -0.6393
    2TTP    C35 7109   4.148   7.284   0.385 -0.6429 -0.0722  0.3210
    2TTP    C36 7110   4.202   7.155   0.327 -0.4703 -0.0728 -0.1583
    2TTP    C37 7111   4.116   7.031   0.351  0.3834  0.2729  0.5013
    2TTP    C38 7112   4.166   6.903   0.292 -0.5388 -0.3825  0.2798
    2TTP    C39 7113   4.203   6.901   0.142 -0.2331  0.2869 -0.1302
    2TTP    C40 7114   4.091   6.916   0.036 -0.5472 -0.3825  0.2139
    2TTP    C41 7115   3.968   6.833   0.058  0.9480 -0.0574  0.2282
    2TTP    C42 7116   3.869   6.852  -0.054  0.5937  0.3031  0.4335
    3TTP     S1 7117   4.184   8.167   1.490 -0.1296  0.2124 -0.2781
    3TTP     S5 7118   4.171   8.565   1.328 -0.1525  0.3833  0.1394
    3TTP     C1 7119   4.133   8.573   1.505 -0.3006  0.1772  0.1181
    3TTP     C2 7120   4.134   8.451   1.566 -0.3024  0.1123 -0.0121
    3TTP     C3 7121   4.166   8.346   1.475 -0.1867  0.2230 -0.0997
    3TTP     C4 7122   4.222   8.158   1.313  0.0184  0.4186 -0.2568
    3TTP    C17 7123   4.221   8.280   1.252  0.0202  0.4835 -0.1266
    3TTP    C18 7124   4.189   8.385   1.344 -0.0954  0.3728 -0.0390
    3TTP    C32 7125   4.105   8.417   1.713 -0.9553  0.0612  0.7132
    3TTP    C33 7126   4.220   8.376   1.803  0.0170 -0.7075  0.3729
    3TTP    C34 7127   4.173   8.345   1.942  0.0785  0.2671 -0.0956
    3TTP    C35 7128   4.281   8.324   2.054  0.2456 -0.3302  0.3640
    3TTP    C36 7129   4.399   8.237   2.020 -0.0434  0.0316 -0.1955
    3TTP    C37 7130   4.371   8.093   2.004  0.5648  0.2485 -0.4563
    3TTP    C38 7131   4.477   7.990   1.979  0.0464  0.2884  0.3207
    3TTP    C39 7132   4.544   7.974   1.838 -0.5529  0.3187 -0.1020
    3TTP    C40 7133   4.458   7.906   1.730  0.6637  0.2954  0.1823
    3TTP    C41 7134   4.416   7.767   1.753  0.1138 -0.5777 -0.1401
    3TTP    C42 7135   4.312   7.730   1.653 -0.2587 -0.4054 -0.0422
    4FIC     F1 7136   4.499   8.427  -0.240  0.3334 -0.1355  0.0665
    4FIC     F2 7137   4.475   8.220  -0.415 -0.5127  0.0616 -0.0598
    4FIC     O1 7138   4.375   8.180   0.226  0.5059 -0.1842  0.0865
    4FIC     N5 7139   4.353   7.747  -0.335 -1.6066  0.3102 -0.2272
    4FIC     N6 7140   4.261   7.596   0.064 -1.3012  0.2326 -0.1861
    4FIC    C19 7141   4.309   7.895   0.224 -0.2413 -0.0132 -0.0270
    4FIC    C20 7142   4.341   7.966   0.114 -0.2517 -0.0087 -0.0272
    4FIC    C21 7143   4.374   8.112   0.123  0.1460 -0.0998  0.0332
    4FIC    C22 7144   4.404   8.157  -0.014  0.0229 -0.0690  0.0163
    4FIC    C23 7145   4.439   8.285  -0.056  0.2832 -0.1277  0.0564
    4FIC    C24 7146   4.463   8.303  -0.191  0.0944 -0.0820  0.0295
    4FIC    C25 7147   4.451   8.196  -0.282 -0.3417  0.0197 -0.0356
    4FIC    C26 7148   4.415   8.069  -0.241 -0.6036  0.0788 -0.0759
    4FIC    C27 7149   4.391   8.048  -0.104 -0.4181  0.0337 -0.0495
    4FIC    C28 7150   4.352   7.926  -0.029 -0.6040  0.0749 -0.0788
    4FIC    C29 7151   4.330   7.801  -0.081 -1.0228  0.1717 -0.1418
    4FIC    C30 7152   4.342   7.772  -0.221 -1.3422  0.2476 -0.1885
    4FIC    C31 7153   4.292   7.689  -0.001 -1.1736  0.2046 -0.1658
    5FIC     F1 7154   3.975   9.361   1.323  0.4903  0.0899  0.2796
    5FIC     F2 7155   3.957   9.413   1.589 -0.1869 -0.0603  0.2676
    5FIC     O1 7156   4.079   8.830   1.328  0.5823  0.1076  0.2462
    5FIC     N5 7157   4.006   9.109   1.977 -1.0947 -0.2638  0.2262
    5FIC     N6 7158   4.091   8.683   1.927 -0.8866 -0.2197  0.2026
    5FIC    C19 7159   4.099   8.691   1.585 -0.0321 -0.0298  0.2227
    5FIC    C20 7160   4.074   8.822   1.573 -0.0286 -0.0283  0.2316
    5FIC    C21 7161   4.065   8.887   1.438  0.2972  0.0445  0.2435
    5FIC    C22 7162   4.036   9.030   1.461  0.2106  0.0260  0.2510
    5FIC    C23 7163   4.019   9.130   1.366  0.4293  0.0752  0.2627
    5FIC    C24 7164   3.993   9.258   1.412  0.2885  0.0445  0.2681
    5FIC    C25 7165   3.984   9.284   1.549 -0.0604 -0.0329  0.2618
    5FIC    C26 7166   4.001   9.185   1.645 -0.2801 -0.0823  0.2501
    5FIC    C27 7167   4.027   9.055   1.600 -0.1421 -0.0523  0.2446
    5FIC    C28 7168   4.050   8.928   1.674 -0.3031 -0.0888  0.2324
    5FIC    C29 7169   4.049   8.913   1.811 -0.6419 -0.1642  0.2235
    5FIC    C30 7170   4.025   9.021   1.902 -0.8898 -0.2187  0.2251
    5FIC    C31 7171   4.072   8.787   1.874 -0.7745 -0.1943  0.2121
    1BTD     S2 7172   5.488   0.165   1.315 -0.4970 -0.2083  0.1470
    1BTD     N1 7173   5.517   0.143   1.139 -0.1726 -0.0477  0.1785
    1BTD     N2 7174   5.494  -0.010   1.353 -0.6742 -0.2512 -0.0174
    1BTD     N3 7175   5.559  -0.409   1.114 -0.4499 -0.0485 -0.2955
    1BTD     N4 7176   5.587  -0.221   0.850  0.1682  0.2022 -0.0541
    1BTD     C5 7177   5.553  -0.049   0.991 -0.0021  0.0796  0.0542
    1BTD     C6 7178   5.529   0.012   1.119 -0.2111 -0.0350  0.0705
    1BTD     C7 7179   5.516  -0.074   1.239 -0.4921 -0.1489 -0.0392
    1BTD     C8 7180   5.528  -0.216   1.225 -0.5498 -0.1423 -0.1597
    1BTD    C15 7181   5.552  -0.272   1.098 -0.3385 -0.0280 -0.1712
    1BTD    C16 7182   5.564  -0.189   0.982 -0.0679  0.0816 -0.0655
    1BTD    C43 7183   5.682  -0.336   0.813  0.1330  0.3880 -0.0718
    1BTD    C44 7184   5.704  -0.401   0.674 -0.3351  0.1644 -0.1822
    1BTD    C45 7185   5.583  -0.482   0.631  0.0866 -0.5183  0.7251
    1BTD    C46 7186   5.589  -0.513   0.480 -0.2990  0.5762  0.5805
    1BTD    C47 7187   5.844  -0.454   0.631 -0.8826 -0.4675  0.1814
    1BTD    C48 7188   5.972  -0.382   0.681  0.6920 -0.2751 -0.3544
    1BTD    C49 7189   6.105  -0.423   0.621  0.2490 -0.4292  0.1257
    1BTD    C50 7190   6.221  -0.329   0.669  0.2238  0.3459 -0.5008
    1BTD    C75 7191   5.510  -0.518   1.025  0.5288 -0.1358  0.2358
    1BTD    C76 7192   5.357  -0.556   1.017 -0.4108  0.2578 -0.1710
    1BTD    C77 7193   5.271  -0.444   0.967  0.0131 -0.3220  0.2810
    1BTD    C78 7194   5.117  -0.470   0.983  0.1713 -0.0318 -0.3123
    1BTD    C79 7195   5.326  -0.699   0.963  0.4227 -0.1809 -0.2704
    1BTD    C80 7196   5.375  -0.734   0.827 -0.0526  0.5492  0.1943
    1BTD    C81 7197   5.348  -0.880   0.803  0.0910 -0.0410  0.6083
    1BTD    C82 7198   5.395  -0.920   0.662  0.1094 -0.3060  0.3555
    2TTP     S1 7199   5.583   0.163   0.778  0.2877 -0.0497  0.0215
    2TTP     S5 7200   5.638  -0.147   0.485 -0.1918 -0.1359  0.0207
    2TTP     C1 7201   5.649   0.014   0.402 -0.1143 -0.1565 -0.0086
    2TTP     C2 7202   5.633   0.119   0.487  0.0383 -0.1311 -0.0101
    2TTP     C3 7203   5.611   0.076   0.622  0.0995 -0.0944  0.0119
    2TTP     C4 7204   5.571   0.001   0.861  0.2102 -0.0291  0.0509
    2TTP    C17 7205   5.588  -0.104   0.776  0.0575 -0.0547  0.0524
    2TTP    C18 7206   5.610  -0.061   0.641 -0.0037 -0.0912  0.0304
    2TTP    C32 7207   5.642   0.270   0.444 -0.6544  0.6326 -0.0311
    2TTP    C33 7208   5.676   0.379   0.537  0.5003  0.0124 -0.7491
    2TTP    C34 7209   5.666   0.509   0.450  0.4513 -0.7643  0.0439
    2TTP    C35 7210   5.754   0.629   0.485  0.2343  0.0662 -0.0932
    2TTP    C36 7211   5.903   0.616   0.451  0.1691 -0.1168 -0.6180
    2TTP    C37 7212   5.949   0.548   0.326  0.1851  0.1607 -0.4232
    2TTP    C38 7213   6.088   0.582   0.285 -0.4827 -0.1567  0.4244
    2TTP    C39 7214   6.114   0.522   0.148 -0.4346  1.1484 -0.1598
    2TTP    C40 7215   6.133   0.370   0.121  0.2257  0.4763  0.2193
    2TTP    C41 7216   6.209   0.346  -0.011 -0.0832 -0.0802  0.3267
    2TTP    C42 7217   6.289   0.216  -0.029 -0.0157 -0.1411  0.0271
    3TTP     S1 7218   5.506  -0.348   1.492 -0.0095  0.0977 -0.0609
    3TTP     S5 7219   5.599  -0.729   1.314  0.4046  0.0880  0.1743
    3TTP     C1 7220   5.582  -0.751   1.494  0.0643  0.1123  0.1453
    3TTP     C2 7221   5.552  -0.635   1.559 -0.0838  0.1168  0.0710
    3TTP     C3 7222   5.542  -0.524   1.470  0.0665  0.1011  0.0342
    3TTP     C4 7223   5.524  -0.325   1.312  0.3309  0.0734 -0.0319
    3TTP    C17 7224   5.554  -0.442   1.247  0.4790  0.0688  0.0424
    3TTP    C18 7225   5.564  -0.553   1.336  0.3288  0.0844  0.0792
    3TTP    C32 7226   5.541  -0.626   1.715  0.3041  0.6822  0.5762
    3TTP    C33 7227   5.614  -0.508   1.773  0.4364 -0.3797 -0.5816
    3TTP    C34 7228   5.537  -0.445   1.887 -0.2172 -0.0146 -0.0164
    3TTP    C35 7229   5.618  -0.329   1.943  0.4786 -0.1620  0.7008
    3TTP    C36 7230   5.560  -0.306   2.083  0.1079  0.6409 -0.1091
    3TTP    C37 7231   5.623  -0.174   2.136 -0.2934 -0.1193 -0.1089
    3TTP    C38 7232   5.592  -0.148   2.282 -0.2468  1.0983 -0.0350
    3TTP    C39 7233   5.648  -0.018   2.338  0.1338 -0.7120  0.1327
    3TTP    C40 7234   5.669  -0.011   2.493  0.4454  0.0393  0.0070
    3TTP    C41 7235   5.672   0.134   2.546 -0.3275  0.1223  0.8895
    3TTP    C42 7236   5.636   0.139   2.690  0.5865  0.2035 -0.4055
    4FIC     F1 7237   5.627  -0.456  -0.273 -0.1286 -0.0639  0.0061
    4FIC     F2 7238   5.681  -0.235  -0.423 -0.0445 -0.0796  0.0134
    4FIC     O1 7239   5.619  -0.243   0.225 -0.2207 -0.0457 -0.0032
    4FIC     N5 7240   5.752   0.234  -0.283  0.0113 -0.0893  0.0172
    4FIC     N6 7241   5.735   0.356   0.136 -0.0778 -0.0718  0.0085
    4FIC    C19 7242   5.667   0.044   0.258 -0.1730 -0.0542  0.0004
    4FIC    C20 7243   5.667  -0.018   0.139 -0.1531 -0.0582  0.0025
    4FIC    C21 7244   5.641  -0.166   0.130 -0.1799 -0.0533  0.0004
    4FIC    C22 7245   5.649  -0.201  -0.013 -0.1481 -0.0596  0.0035
    4FIC    C23 7246   5.631  -0.327  -0.071 -0.1575 -0.0581  0.0030
    4FIC    C24 7247   5.643  -0.335  -0.209 -0.1219 -0.0650  0.0064
    4FIC    C25 7248   5.671  -0.221  -0.286 -0.0784 -0.0730  0.0101
    4FIC    C26 7249   5.688  -0.096  -0.229 -0.0689 -0.0746  0.0107
    4FIC    C27 7250   5.677  -0.085  -0.089 -0.1044 -0.0677  0.0073
    4FIC    C28 7251   5.689   0.032   0.001 -0.1060 -0.0671  0.0068
    4FIC    C29 7252   5.716   0.161  -0.036 -0.0702 -0.0738  0.0098
    4FIC    C30 7253   5.736   0.201  -0.172 -0.0255 -0.0824  0.0138
    4FIC    C31 7254   5.726   0.268   0.059 -0.0745 -0.0727  0.0091
    5FIC     F1 7255   5.757  -1.536   1.302 -0.1147 -0.1907  0.0076
    5FIC     F2 7256   5.713  -1.601   1.562  0.4032 -0.0197  0.1401
    5FIC     O1 7257   5.671  -1.001   1.316 -0.4678 -0.2400 -0.2557
    5FIC     N5 7258   5.589  -1.315   1.947  0.8959  0.1916  0.1429
    5FIC     N6 7259   5.531  -0.884   1.905  0.5157  0.1189 -0.0896
    5FIC    C19 7260   5.599  -0.874   1.569 -0.0985 -0.0937 -0.2227
    5FIC    C20 7261   5.622  -1.006   1.556 -0.0298 -0.0881 -0.1616
    5FIC    C21 7262   5.658  -1.064   1.422 -0.2309 -0.1662 -0.1836
    5FIC    C22 7263   5.677  -1.209   1.443 -0.0913 -0.1374 -0.1029
    5FIC    C23 7264   5.711  -1.304   1.348 -0.1956 -0.1870 -0.0911
    5FIC    C24 7265   5.723  -1.436   1.391 -0.0246 -0.1458 -0.0087
    5FIC    C25 7266   5.700  -1.469   1.525  0.2419 -0.0574  0.0595
    5FIC    C26 7267   5.666  -1.375   1.620  0.3475 -0.0076  0.0482
    5FIC    C27 7268   5.654  -1.241   1.579  0.1774 -0.0483 -0.0348
    5FIC    C28 7269   5.619  -1.118   1.653  0.2257 -0.0145 -0.0682
    5FIC    C29 7270   5.590  -1.109   1.788  0.4623  0.0691 -0.0214
    5FIC    C30 7271   5.590  -1.223   1.875  0.6999  0.1360  0.0688
    5FIC    C31 7272   5.558  -0.986   1.851  0.4902  0.0958 -0.0592
    1BTD     S2 7273   5.706   5.013   1.295  0.5014 -0.0415  0.1411
    1BTD     N1 7274   5.700   4.982   1.472  0.6826 -0.0906  0.1393
    1BTD     N2 7275   5.700   4.839   1.249 -0.0378 -0.0092  0.0830
    1BTD     N3 7276   5.675   4.429   1.476 -0.8086 -0.0324 -0.0384
    1BTD     N4 7277   5.675   4.605   1.750  0.0790 -0.1326  0.0310
    1BTD     C5 7278   5.687   4.783   1.614  0.3567 -0.1113  0.0820
    1BTD     C6 7279   5.694   4.851   1.487  0.3492 -0.0809  0.0977
    1BTD     C7 7280   5.694   4.771   1.362 -0.0538 -0.0353  0.0662
    1BTD     C8 7281   5.687   4.627   1.371 -0.4295 -0.0225  0.0204
    1BTD    C15 7282   5.680   4.565   1.497 -0.4072 -0.0533  0.0064
    1BTD    C16 7283   5.681   4.642   1.617 -0.0188 -0.0973  0.0369
    1BTD    C43 7284   5.760   4.493   1.813  0.1532  0.4733  0.5399
    1BTD    C44 7285   5.726   4.432   1.956  0.4757  0.1910 -0.5475
    1BTD    C45 7286   5.595   4.352   1.971 -0.0094 -0.3702 -0.1360
    1BTD    C46 7287   5.543   4.307   2.109  0.7681 -0.0686 -0.1277
    1BTD    C47 7288   5.842   4.347   2.024  0.6817  0.4815  0.0858
    1BTD    C48 7289   5.981   4.412   2.038  0.2388  0.7734  0.1300
    1BTD    C49 7290   5.994   4.546   2.102  0.0528 -0.2441  0.3654
    1BTD    C50 7291   6.144   4.589   2.115 -0.2894 -0.4254 -0.2782
    1BTD    C75 7292   5.619   4.322   1.560 -0.2649  0.5817 -0.1910
    1BTD    C76 7293   5.472   4.282   1.552  0.5488  0.4110  0.8697
    1BTD    C77 7294   5.378   4.392   1.597 -0.0318  0.1012 -0.5354
    1BTD    C78 7295   5.333   4.406   1.740  0.1936  0.5732  0.1391
    1BTD    C79 7296   5.451   4.137   1.589  0.6792  0.6687  0.3151
    1BTD    C80 7297   5.314   4.077   1.540 -0.6782  0.6762  0.1355
    1BTD    C81 7298   5.285   3.939   1.594  0.1889  0.3633  0.0901
    1BTD    C82 7299   5.158   3.900   1.527  0.5913 -0.0384  0.0034
    2TTP     S1 7300   5.710   4.990   1.832  0.0853 -0.1718 -0.1721
    2TTP     S5 7301   5.658   4.682   2.127 -0.0299  0.0126  0.0007
    2TTP     C1 7302   5.679   4.841   2.212  0.0246  0.0538 -0.0888
    2TTP     C2 7303   5.696   4.945   2.126  0.0632 -0.0007 -0.1472
    2TTP     C3 7304   5.693   4.903   1.990  0.0515 -0.0771 -0.1237
    2TTP     C4 7305   5.690   4.830   1.746  0.0308 -0.2129 -0.0828
    2TTP    C17 7306   5.673   4.726   1.832 -0.0079 -0.1585 -0.0242
    2TTP    C18 7307   5.675   4.768   1.969  0.0039 -0.0821 -0.0477
    2TTP    C32 7308   5.731   5.097   2.162  0.2186 -0.4437  0.4131
    2TTP    C33 7309   5.676   5.210   2.072 -0.0298 -0.3278 -0.0688
    2TTP    C34 7310   5.734   5.349   2.073 -0.3987 -0.7807 -0.7639
    2TTP    C35 7311   5.692   5.439   2.196 -0.1199 -0.4733  0.7535
    2TTP    C36 7312   5.537   5.449   2.211  0.1935 -0.2428 -0.3993
    2TTP    C37 7313   5.500   5.532   2.337  0.1053  0.4593 -0.1547
    2TTP    C38 7314   5.355   5.515   2.387 -0.5006  0.3269  0.3888
    2TTP    C39 7315   5.331   5.585   2.524  0.1084  0.0427 -0.2527
    2TTP    C40 7316   5.314   5.735   2.527 -0.1422  0.2624  0.1016
    2TTP    C41 7317   5.261   5.798   2.656  0.2463  0.0882  0.1440
    2TTP    C42 7318   5.243   5.949   2.678  0.2034 -0.4023  0.2128
    3TTP     S1 7319   5.738   4.512   1.095 -0.1718  0.0048 -0.0811
    3TTP     S5 7320   5.765   4.124   1.278 -0.1510 -0.1215 -0.3507
    3TTP     C1 7321   5.816   4.110   1.104 -0.3708 -0.0424 -0.4221
    3TTP     C2 7322   5.811   4.229   1.037 -0.3903  0.0012 -0.3431
    3TTP     C3 7323   5.766   4.336   1.121 -0.2322 -0.0263 -0.2233
    3TTP     C4 7324   5.687   4.527   1.269  0.0479 -0.0743 -0.0098
    3TTP    C17 7325   5.693   4.408   1.335  0.0673 -0.1180 -0.0888
    3TTP    C18 7326   5.737   4.301   1.252 -0.0907 -0.0906 -0.2086
    3TTP    C32 7327   5.843   4.255   0.890  0.3649 -0.1256 -0.0206
    3TTP    C33 7328   5.756   4.349   0.804  0.3995 -0.0234 -0.0605
    3TTP    C34 7329   5.811   4.374   0.670  0.1457  0.1406  0.7670
    3TTP    C35 7330   5.751   4.493   0.592  0.7667 -0.5624  0.0379
    3TTP    C36 7331   5.601   4.470   0.552  0.1088 -0.2720  0.0793
    3TTP    C37 7332   5.530   4.596   0.489 -0.6549 -0.0362 -0.2375
    3TTP    C38 7333   5.530   4.725   0.570 -0.0139 -0.4265  0.0400
    3TTP    C39 7334   5.413   4.746   0.664 -0.1436 -0.3069 -0.8987
    3TTP    C40 7335   5.413   4.874   0.751  0.2285 -0.2212  0.3385
    3TTP    C41 7336   5.395   4.835   0.897  0.2662  0.0473  0.1399
    3TTP    C42 7337   5.394   4.958   0.981 -0.2178  0.5543 -0.7276
    4FIC     F1 7338   5.744   4.366   2.880  0.3601  0.1051 -0.0401
    4FIC     F2 7339   5.676   4.581   3.032 -0.1388 -0.0279 -0.0700
    4FIC     O1 7340   5.739   4.585   2.385  0.5286  0.1879 -0.0052
    4FIC     N5 7341   5.576   5.047   2.898 -0.7360 -0.1603 -0.0883
    4FIC     N6 7342   5.586   5.175   2.480 -0.5039 -0.0688 -0.0550
    4FIC    C19 7343   5.673   4.869   2.354  0.1116  0.0900 -0.0214
    4FIC    C20 7344   5.677   4.805   2.473  0.0887  0.0745 -0.0290
    4FIC    C21 7345   5.712   4.659   2.481  0.3117  0.1277 -0.0198
    4FIC    C22 7346   5.706   4.622   2.623  0.2218  0.0937 -0.0317
    4FIC    C23 7347   5.731   4.497   2.680  0.3606  0.1223 -0.0288
    4FIC    C24 7348   5.720   4.487   2.818  0.2343  0.0803 -0.0420
    4FIC    C25 7349   5.686   4.598   2.896 -0.0226  0.0117 -0.0575
    4FIC    C26 7350   5.661   4.723   2.840 -0.1622 -0.0173 -0.0604
    4FIC    C27 7351   5.671   4.735   2.701 -0.0377  0.0247 -0.0473
    4FIC    C28 7352   5.651   4.852   2.611 -0.1296  0.0101 -0.0462
    4FIC    C29 7353   5.617   4.980   2.650 -0.3713 -0.0513 -0.0588
    4FIC    C30 7354   5.594   5.016   2.786 -0.5710 -0.1110 -0.0749
    4FIC    C31 7355   5.600   5.086   2.556 -0.4429 -0.0607 -0.0566
    5FIC     F1 7356   5.947   3.331   1.336  0.1611 -0.0566 -0.1151
    5FIC     F2 7357   5.983   3.265   1.074 -0.2168  0.0112 -0.1861
    5FIC     O1 7358   5.855   3.863   1.295  0.1951 -0.0290  0.1636
    5FIC     N5 7359   5.970   3.549   0.669 -0.7355  0.1283 -0.0895
    5FIC     N6 7360   5.892   3.978   0.690 -0.6328  0.1361  0.1425
    5FIC    C19 7361   5.858   3.989   1.031 -0.1535  0.0454  0.1947
    5FIC    C20 7362   5.879   3.857   1.051 -0.1473  0.0359  0.1274
    5FIC    C21 7363   5.877   3.800   1.190  0.0374 -0.0030  0.1157
    5FIC    C22 7364   5.904   3.656   1.176 -0.0064 -0.0038  0.0368
    5FIC    C23 7365   5.911   3.561   1.278  0.1193 -0.0339 -0.0002
    5FIC    C24 7366   5.938   3.430   1.241  0.0446 -0.0280 -0.0752
    5FIC    C25 7367   5.957   3.396   1.106 -0.1502  0.0070 -0.1116
    5FIC    C26 7368   5.949   3.490   1.004 -0.2763  0.0370 -0.0751
    5FIC    C27 7369   5.922   3.623   1.040 -0.2034  0.0317  0.0009
    5FIC    C28 7370   5.908   3.746   0.958 -0.2978  0.0574  0.0551
    5FIC    C29 7371   5.919   3.754   0.821 -0.4882  0.0942  0.0409
    5FIC    C30 7372   5.947   3.641   0.738 -0.6235  0.1128 -0.0308
    5FIC    C31 7373   5.904   3.877   0.750 -0.5664  0.1171  0.0969
    1BTD     S2 7374   5.359   4.713   1.451 -0.0060 -0.1219  0.0295
    1BTD     N1 7375   5.343   4.750   1.626 -0.0647 -0.1369  0.0271
    1BTD     N2 7376   5.354   4.885   1.399  0.0308 -0.1163  0.0435
    1BTD     N3 7377   5.312   5.302   1.610 -0.0005 -0.1318  0.0680
    1BTD     N4 7378   5.299   5.136   1.890 -0.1181 -0.1570  0.0478
    1BTD     C5 7379   5.321   4.954   1.760 -0.0912 -0.1472  0.0382
    1BTD     C6 7380   5.335   4.882   1.636 -0.0545 -0.1370  0.0365
    1BTD     C7 7381   5.341   4.957   1.509 -0.0010 -0.1255  0.0457
    1BTD     C8 7382   5.332   5.101   1.512  0.0131 -0.1247  0.0560
    1BTD    C15 7383   5.318   5.167   1.636 -0.0242 -0.1350  0.0574
    1BTD    C16 7384   5.312   5.094   1.758 -0.0756 -0.1461  0.0485
    1BTD    C43 7385   5.258   5.269   1.946  0.2704  0.4240 -0.1225
    1BTD    C44 7386   5.109   5.302   1.936 -0.0495 -0.5651 -0.7918
    1BTD    C45 7387   5.073   5.452   1.962 -0.3328 -0.1303  0.5072
    1BTD    C46 7388   5.131   5.524   2.078  0.4588 -0.2411 -0.0728
    1BTD    C47 7389   5.017   5.206   2.012  0.7222 -0.0350 -0.0186
    1BTD    C48 7390   4.866   5.218   1.979  0.0549 -0.2871 -0.3035
    1BTD    C49 7391   4.787   5.112   2.053  0.4193 -0.4850  0.6912
    1BTD    C50 7392   4.639   5.110   2.006 -0.2898  0.2691 -0.1204
    1BTD    C75 7393   5.362   5.413   1.690  0.1737  0.0531 -0.0945
    1BTD    C76 7394   5.512   5.443   1.679  0.5272 -0.1764 -0.0240
    1BTD    C77 7395   5.609   5.326   1.728 -0.1403 -0.6982  0.0636
    1BTD    C78 7396   5.757   5.347   1.696 -0.3676  0.5745 -0.4494
    1BTD    C79 7397   5.540   5.584   1.733  0.0529 -0.0655  0.4037
    1BTD    C80 7398   5.516   5.630   1.874  0.0129  0.2035 -0.2588
    1BTD    C81 7399   5.470   5.767   1.878  0.0389  0.1554 -0.3637
    1BTD    C82 7400   5.448   5.824   2.019  0.4512 -0.2919  0.1698
    2TTP     S1 7401   5.298   4.762   1.994  0.1496 -0.1539  0.0116
    2TTP     S5 7402   5.279   5.096   2.265 -0.1186  0.0782 -0.2922
    2TTP     C1 7403   5.263   4.942   2.361  0.0508  0.1508 -0.1469
    2TTP     C2 7404   5.268   4.830   2.283  0.1436  0.0833 -0.0446
    2TTP     C3 7405   5.284   4.861   2.145  0.0844 -0.0280 -0.0772
    2TTP     C4 7406   5.314   4.915   1.898 -0.0197 -0.2263 -0.1337
    2TTP    C17 7407   5.309   5.028   1.976 -0.1127 -0.1590 -0.2360
    2TTP    C18 7408   5.292   4.996   2.114 -0.0533 -0.0476 -0.2034
    2TTP    C32 7409   5.241   4.681   2.321  0.0440  0.2201  0.4114
    2TTP    C33 7410   5.362   4.590   2.354  0.1028 -0.0311 -0.4219
    2TTP    C34 7411   5.323   4.453   2.405 -0.0726  0.4794  0.0728
    2TTP    C35 7412   5.428   4.378   2.494 -0.0449 -1.2296  0.1553
    2TTP    C36 7413   5.386   4.236   2.515 -0.2384 -0.3333 -0.3119
    2TTP    C37 7414   5.490   4.147   2.580 -0.0684 -0.1458  0.5577
    2TTP    C38 7415   5.520   4.176   2.721 -0.9311 -0.2944 -0.3397
    2TTP    C39 7416   5.435   4.095   2.820 -0.5944  0.3497  0.4501
    2TTP    C40 7417   5.440   4.159   2.958  0.2468 -0.0868  0.0026
    2TTP    C41 7418   5.389   4.301   2.982  0.0240  0.2155 -0.2116
    2TTP    C42 7419   5.376   4.345   3.127  0.0029  0.2643 -0.0703
    3TTP     S1 7420   5.327   5.210   1.230  0.0755 -0.0334  0.1150
    3TTP     S5 7421   5.283   5.609   1.384  0.1549  0.2643 -0.6253
    3TTP     C1 7422   5.282   5.617   1.202  0.6100 -0.0224 -0.6415
    3TTP     C2 7423   5.296   5.494   1.144  0.6124 -0.1312 -0.4138
    3TTP     C3 7424   5.307   5.389   1.240  0.2548  0.0079 -0.2184
    3TTP     C4 7425   5.327   5.202   1.411 -0.3797  0.2534  0.1312
    3TTP    C17 7426   5.314   5.325   1.470 -0.3821  0.3621 -0.0965
    3TTP    C18 7427   5.302   5.430   1.373 -0.0244  0.2230 -0.2919
    3TTP    C32 7428   5.290   5.461   0.999  0.5291 -0.0386  0.5091
    3TTP    C33 7429   5.409   5.383   0.932 -0.1337 -0.3616  0.2287
    3TTP    C34 7430   5.408   5.327   0.788 -0.0126  0.2089 -0.5644
    3TTP    C35 7431   5.552   5.291   0.735 -0.8210  0.4326 -0.0704
    3TTP    C36 7432   5.540   5.210   0.606 -0.3425 -0.5813  0.1906
    3TTP    C37 7433   5.657   5.114   0.567 -0.0988  0.3351 -0.2393
    3TTP    C38 7434   5.809   5.161   0.565  0.6489  0.6659 -0.2295
    3TTP    C39 7435   5.922   5.055   0.536 -0.3686 -0.6876  0.3484
    3TTP    C40 7436   5.889   4.948   0.424 -0.4387 -0.3397 -0.2615
    3TTP    C41 7437   5.959   4.822   0.445 -0.4317  0.7592 -0.4046
    3TTP    C42 7438   5.956   4.733   0.321 -0.0088  0.6973 -0.4902
    4FIC     F1 7439   5.269   5.449   3.011 -0.1792  0.0385 -0.0190
    4FIC     F2 7440   5.206   5.237   3.169  0.3819 -0.0637  0.0728
    4FIC     O1 7441   5.296   5.210   2.525 -0.4541  0.0746 -0.0523
    4FIC     N5 7442   5.134   4.761   3.051  0.9929 -0.1844  0.1810
    4FIC     N6 7443   5.168   4.618   2.640  0.6651 -0.1357  0.1364
    4FIC    C19 7444   5.245   4.922   2.504 -0.0155 -0.0101  0.0236
    4FIC    C20 7445   5.241   4.991   2.620  0.0316 -0.0153  0.0284
    4FIC    C21 7446   5.268   5.139   2.623 -0.2046  0.0303 -0.0123
    4FIC    C22 7447   5.255   5.181   2.764 -0.0813  0.0113  0.0048
    4FIC    C23 7448   5.272   5.309   2.816 -0.2182  0.0395 -0.0200
    4FIC    C24 7449   5.254   5.325   2.953 -0.0572  0.0131  0.0037
    4FIC    C25 7450   5.222   5.215   3.034  0.2321 -0.0393  0.0510
    4FIC    C26 7451   5.205   5.087   2.983  0.3701 -0.0677  0.0761
    4FIC    C27 7452   5.222   5.069   2.844  0.2105 -0.0418  0.0526
    4FIC    C28 7453   5.212   4.948   2.760  0.2913 -0.0601  0.0688
    4FIC    C29 7454   5.182   4.821   2.802  0.5562 -0.1094  0.1131
    4FIC    C30 7455   5.156   4.789   2.939  0.7955 -0.1506  0.1503
    4FIC    C31 7456   5.175   4.710   2.713  0.6145 -0.1235  0.1256
    5FIC     F1 7457   5.048   6.394   1.325 -0.0094  0.1378 -0.1229
    5FIC     F2 7458   5.106   6.444   1.064 -0.0262 -0.0343 -0.1603
    5FIC     O1 7459   5.170   5.867   1.356  0.0600  0.1743  0.2349
    5FIC     N5 7460   5.276   6.142   0.711 -0.0012 -0.2557  0.0408
    5FIC     N6 7461   5.359   5.720   0.787  0.0564 -0.1924  0.3279
    5FIC    C19 7462   5.268   5.728   1.117  0.0686  0.0230  0.3262
    5FIC    C20 7463   5.235   5.859   1.120  0.0517  0.0204  0.2376
    5FIC    C21 7464   5.186   5.923   1.246  0.0485  0.1012  0.1956
    5FIC    C22 7465   5.159   6.064   1.214  0.0288  0.0756  0.0992
    5FIC    C23 7466   5.112   6.164   1.299  0.0193  0.1283  0.0328
    5FIC    C24 7467   5.095   6.291   1.246  0.0008  0.0896 -0.0539
    5FIC    C25 7468   5.125   6.317   1.111 -0.0078  0.0008 -0.0731
    5FIC    C26 7469   5.172   6.218   1.026  0.0015 -0.0521 -0.0072
    5FIC    C27 7470   5.190   6.089   1.078  0.0203 -0.0139  0.0811
    5FIC    C28 7471   5.238   5.964   1.015  0.0341 -0.0514  0.1654
    5FIC    C29 7472   5.277   5.948   0.884  0.0309 -0.1365  0.1746
    5FIC    C30 7473   5.276   6.055   0.789  0.0134 -0.2017  0.1010
    5FIC    C31 7474   5.322   5.823   0.832  0.0449 -0.1667  0.2589
    1BTD     S2 7475   4.972   1.810   1.324  0.1296  0.0207 -0.0088
    1BTD     N1 7476   4.966   1.836   1.146  0.4845  0.1038 -0.0091
    1BTD     N2 7477   4.974   1.985   1.364 -0.3270  0.0066  0.0946
    1BTD     N3 7478   4.970   2.390   1.126 -0.6163  0.1277  0.3045
    1BTD     N4 7479   4.960   2.206   0.857  0.3834  0.2476  0.1768
    1BTD     C5 7480   4.963   2.032   0.998  0.4196  0.1774  0.0895
    1BTD     C6 7481   4.966   1.967   1.127  0.2562  0.1161  0.0640
    1BTD     C7 7482   4.971   2.051   1.249 -0.1980  0.0616  0.1221
    1BTD     C8 7483   4.972   2.194   1.237 -0.4661  0.0713  0.2027
    1BTD    C15 7484   4.968   2.252   1.109 -0.2921  0.1321  0.2249
    1BTD    C16 7485   4.964   2.172   0.991  0.1454  0.1846  0.1690
    1BTD    C43 7486   4.884   2.319   0.797  0.4746 -0.5896  0.1880
    1BTD    C44 7487   4.904   2.397   0.669  0.2372 -0.4076  0.1459
    1BTD    C45 7488   5.038   2.474   0.664  0.2768 -0.3002 -0.3373
    1BTD    C46 7489   5.073   2.544   0.537  0.4259 -0.2546 -0.0947
    1BTD    C47 7490   4.787   2.488   0.633 -0.2344 -0.6243 -0.0409
    1BTD    C48 7491   4.653   2.422   0.613 -0.4352 -0.4735 -0.3239
    1BTD    C49 7492   4.642   2.307   0.506  0.4329 -0.1834  0.7232
    1BTD    C50 7493   4.518   2.216   0.512 -0.7608 -0.4008 -0.0334
    1BTD    C75 7494   4.999   2.501   1.035  0.1636  0.0767  0.3684
    1BTD    C76 7495   5.138   2.556   1.016  0.1812 -0.2648 -0.3813
    1BTD    C77 7496   5.230   2.445   0.967  0.4058  0.1135 -0.2451
    1BTD    C78 7497   5.369   2.476   0.926 -0.0005 -0.4277 -0.1610
    1BTD    C79 7498   5.142   2.686   0.940  0.5431 -0.5425 -0.6079
    1BTD    C80 7499   5.062   2.807   0.991 -0.7987  0.4163 -0.1756
    1BTD    C81 7500   5.078   2.932   0.902  0.6668  0.4248  0.1206
    1BTD    C82 7501   5.016   2.910   0.763 -0.5402 -0.0073 -0.3886
    2TTP     S1 7502   4.976   1.826   0.773  0.3326  0.0229 -0.0642
    2TTP     S5 7503   4.973   2.151   0.491  0.4156  0.0042 -0.0866
    2TTP     C1 7504   4.992   1.995   0.399  0.2472 -0.0172 -0.0861
    2TTP     C2 7505   4.994   1.885   0.481  0.2118 -0.0127 -0.0792
    2TTP     C3 7506   4.980   1.921   0.619  0.3161  0.0078 -0.0740
    2TTP     C4 7507   4.956   1.982   0.864  0.5010  0.0444 -0.0646
    2TTP    C17 7508   4.954   2.091   0.783  0.5364  0.0399 -0.0716
    2TTP    C18 7509   4.968   2.056   0.645  0.4320  0.0193 -0.0768
    2TTP    C32 7510   4.982   1.740   0.432 -0.0581 -0.2605  0.1881
    2TTP    C33 7511   5.021   1.622   0.514  0.2411 -0.0411 -1.0156
    2TTP    C34 7512   5.014   1.482   0.450  0.6181 -0.7071  0.2072
    2TTP    C35 7513   5.113   1.457   0.339  0.1435 -0.0956  0.3462
    2TTP    C36 7514   5.073   1.335   0.259  0.4049  0.3089  0.2314
    2TTP    C37 7515   5.155   1.303   0.133 -0.8773  0.5128  0.3155
    2TTP    C38 7516   5.306   1.269   0.131  0.3794 -0.4869  0.3589
    2TTP    C39 7517   5.346   1.146   0.215  0.3570 -0.3148  0.2406
    2TTP    C40 7518   5.503   1.137   0.224 -0.4147 -0.3396 -0.0258
    2TTP    C41 7519   5.557   1.025   0.307 -0.1069  0.2875 -0.2557
    2TTP    C42 7520   5.525   0.884   0.251  0.7390  0.3609 -1.0513
    3TTP     S1 7521   4.968   2.324   1.510 -0.0977 -0.1696  0.1567
    3TTP     S5 7522   4.907   2.706   1.322  0.4890 -0.0184  0.2679
    3TTP     C1 7523   4.898   2.728   1.502  0.2743 -0.1020  0.2681
    3TTP     C2 7524   4.916   2.612   1.571  0.0803 -0.1535  0.2338
    3TTP     C3 7525   4.938   2.501   1.483  0.0945 -0.1290  0.2061
    3TTP     C4 7526   4.977   2.302   1.329  0.1171 -0.0859  0.1565
    3TTP    C17 7527   4.959   2.419   1.260  0.3111 -0.0344  0.1908
    3TTP    C18 7528   4.937   2.530   1.348  0.2970 -0.0590  0.2185
    3TTP    C32 7529   4.908   2.592   1.723  0.2847 -0.5261 -0.6088
    3TTP    C33 7530   5.028   2.514   1.781  0.1064  0.2585  0.6844
    3TTP    C34 7531   5.015   2.442   1.914  0.0977  0.3803  0.1641
    3TTP    C35 7532   5.134   2.358   1.964  0.0155 -0.0207  0.5895
    3TTP    C36 7533   5.097   2.264   2.083  0.1528  1.0552 -0.3124
    3TTP    C37 7534   5.206   2.202   2.172 -0.2132  0.2840 -0.0895
    3TTP    C38 7535   5.322   2.124   2.103 -0.3312  0.3819 -0.5084
    3TTP    C39 7536   5.295   1.986   2.029  0.2241  0.0556 -0.8200
    3TTP    C40 7537   5.226   1.998   1.893  0.0189  0.3570  0.2490
    3TTP    C41 7538   5.311   2.048   1.777 -0.7820 -0.4873  0.8488
    3TTP    C42 7539   5.221   2.094   1.663  0.0206  0.1915  0.4336
    4FIC     F1 7540   5.156   2.536  -0.207  0.0644 -0.0315 -0.0358
    4FIC     F2 7541   5.161   2.327  -0.380 -0.2323 -0.0232 -0.0558
    4FIC     O1 7542   5.047   2.280   0.258  0.2702  0.0136  0.0374
    4FIC     N5 7543   5.091   1.843  -0.299 -0.5124  0.0208 -0.0325
    4FIC     N6 7544   5.005   1.686   0.099 -0.2917  0.0543  0.0287
    4FIC    C19 7545   5.013   1.989   0.257  0.0599  0.0374  0.0443
    4FIC    C20 7546   5.040   2.062   0.147  0.0197  0.0258  0.0266
    4FIC    C21 7547   5.056   2.211   0.155  0.1343  0.0139  0.0243
    4FIC    C22 7548   5.085   2.258   0.019  0.0533  0.0030  0.0034
    4FIC    C23 7549   5.107   2.389  -0.023  0.1124 -0.0100 -0.0058
    4FIC    C24 7550   5.133   2.409  -0.158  0.0136 -0.0185 -0.0257
    4FIC    C25 7551   5.135   2.301  -0.248 -0.1393 -0.0143 -0.0361
    4FIC    C26 7552   5.113   2.170  -0.206 -0.1988 -0.0014 -0.0270
    4FIC    C27 7553   5.087   2.148  -0.070 -0.1006  0.0075 -0.0068
    4FIC    C28 7554   5.060   2.023   0.005 -0.1274  0.0217  0.0070
    4FIC    C29 7555   5.054   1.896  -0.047 -0.2627  0.0295  0.0026
    4FIC    C30 7556   5.075   1.868  -0.186 -0.3994  0.0247 -0.0167
    4FIC    C31 7557   5.027   1.781   0.034 -0.2778  0.0432  0.0170
    5FIC     F1 7558   4.678   3.499   1.308  0.1626  0.1134  0.2520
    5FIC     F2 7559   4.629   3.545   1.572 -0.5510 -0.1777  0.1761
    5FIC     O1 7560   4.846   2.984   1.325  0.6226  0.2612  0.1974
    5FIC     N5 7561   4.679   3.246   1.963 -1.2492 -0.4908  0.0281
    5FIC     N6 7562   4.820   2.834   1.923 -0.7457 -0.3167  0.0006
    5FIC    C19 7563   4.859   2.846   1.583  0.1044  0.0356  0.1055
    5FIC    C20 7564   4.819   2.974   1.568  0.0166  0.0098  0.1222
    5FIC    C21 7565   4.815   3.038   1.432  0.2981  0.1316  0.1698
    5FIC    C22 7566   4.767   3.176   1.453  0.1124  0.0662  0.1769
    5FIC    C23 7567   4.747   3.274   1.356  0.2623  0.1361  0.2159
    5FIC    C24 7568   4.700   3.397   1.399  0.0324  0.0514  0.2147
    5FIC    C25 7569   4.675   3.421   1.535 -0.3352 -0.0987  0.1755
    5FIC    C26 7570   4.695   3.324   1.632 -0.4863 -0.1692  0.1366
    5FIC    C27 7571   4.742   3.198   1.590 -0.2580 -0.0851  0.1371
    5FIC    C28 7572   4.773   3.075   1.667 -0.3316 -0.1256  0.1019
    5FIC    C29 7573   4.762   3.058   1.803 -0.6597 -0.2627  0.0588
    5FIC    C30 7574   4.716   3.161   1.890 -0.9825 -0.3877  0.0421
    5FIC    C31 7575   4.794   2.935   1.868 -0.7052 -0.2916  0.0271
    1BTD     S2 7576   5.314   2.173   1.254 -0.1818  0.1434  0.0224
    1BTD     N1 7577   5.326   2.130   1.080 -0.4108  0.0940  0.0184
    1BTD     N2 7578   5.306   2.002   1.310  0.1521  0.1529  0.1015
    1BTD     N3 7579   5.312   1.577   1.110  0.4190  0.0830  0.2559
    1BTD     N4 7580   5.336   1.735   0.826 -0.2745  0.0104  0.1534
    1BTD     C5 7581   5.331   1.922   0.951 -0.3313  0.0512  0.0902
    1BTD     C6 7582   5.323   1.998   1.073 -0.2357  0.0874  0.0735
    1BTD     C7 7583   5.312   1.926   1.202  0.0794  0.1204  0.1200
    1BTD     C8 7584   5.309   1.782   1.202  0.2830  0.1155  0.1809
    1BTD    C15 7585   5.317   1.712   1.080  0.1795  0.0795  0.1951
    1BTD    C16 7586   5.327   1.781   0.956 -0.1241  0.0478  0.1503
    1BTD    C43 7587   5.350   1.599   0.769 -0.2273 -0.6098 -0.0528
    1BTD    C44 7588   5.485   1.527   0.742  0.4176  0.2277  0.7360
    1BTD    C45 7589   5.471   1.382   0.696  0.4069 -0.1509  0.5803
    1BTD    C46 7590   5.400   1.340   0.570  0.5356  0.4096 -0.2721
    1BTD    C47 7591   5.592   1.610   0.673  0.4685 -0.4846  0.7465
    1BTD    C48 7592   5.734   1.560   0.660  0.0059  0.3942  0.2395
    1BTD    C49 7593   5.839   1.662   0.609 -0.2367 -0.2880 -0.1844
    1BTD    C50 7594   5.863   1.802   0.675  0.1322 -0.4014  0.4958
    1BTD    C75 7595   5.291   1.455   1.028  0.8468  0.2105 -0.5578
    1BTD    C76 7596   5.142   1.395   1.022  0.0507 -0.1606 -0.1985
    1BTD    C77 7597   5.037   1.509   0.989  0.2376 -0.1046 -0.3579
    1BTD    C78 7598   4.894   1.471   1.003  0.4194 -0.1297 -0.4033
    1BTD    C79 7599   5.127   1.275   0.918  0.2452 -0.1352 -0.2159
    1BTD    C80 7600   5.216   1.152   0.942  0.0802  0.4805  0.5815
    1BTD    C81 7601   5.163   1.037   1.028 -0.0968  0.5796  0.1372
    1BTD    C82 7602   5.024   0.982   0.994  0.3762  0.1893  0.4195
    2TTP     S1 7603   5.357   2.111   0.719 -0.0190 -0.0911  0.2157
    2TTP     S5 7604   5.379   1.777   0.449  0.4143  0.1260 -0.0219
    2TTP     C1 7605   5.386   1.930   0.352  0.1186  0.2061  0.0792
    2TTP     C2 7606   5.380   2.043   0.429 -0.0325  0.1438  0.1585
    2TTP     C3 7607   5.369   2.012   0.568  0.0796  0.0305  0.1423
    2TTP     C4 7608   5.350   1.958   0.816  0.2764 -0.1711  0.1146
    2TTP    C17 7609   5.356   1.845   0.739  0.4278 -0.1088  0.0353
    2TTP    C18 7610   5.367   1.877   0.599  0.3157  0.0044  0.0515
    2TTP    C32 7611   5.403   2.190   0.383  0.4420  0.4290 -0.1118
    2TTP    C33 7612   5.513   2.274   0.454 -0.7789  0.3267  0.7226
    2TTP    C34 7613   5.460   2.405   0.519 -0.0417 -0.0157  0.3890
    2TTP    C35 7614   5.573   2.488   0.583  0.3888 -0.0770  0.2827
    2TTP    C36 7615   5.540   2.618   0.649 -0.0262 -0.6556 -0.2479
    2TTP    C37 7616   5.503   2.728   0.545 -0.9363  0.1349 -0.0293
    2TTP    C38 7617   5.555   2.867   0.553  0.5043  0.4018  0.2385
    2TTP    C39 7618   5.703   2.881   0.576 -0.3525  0.2969  0.1271
    2TTP    C40 7619   5.747   3.022   0.564 -0.5250 -0.6740  0.0256
    2TTP    C41 7620   5.891   3.047   0.610  0.1189 -0.8900  0.0766
    2TTP    C42 7621   5.925   3.197   0.604  0.1163  0.1921 -0.2208
    3TTP     S1 7622   5.319   1.672   1.490 -0.3556 -0.0619  0.2345
    3TTP     S5 7623   5.362   1.278   1.325 -0.1752  0.0363  0.0461
    3TTP     C1 7624   5.382   1.267   1.505 -0.1709 -0.0407  0.0412
    3TTP     C2 7625   5.370   1.389   1.567 -0.2264 -0.0755  0.0991
    3TTP     C3 7626   5.345   1.494   1.474 -0.2743 -0.0427  0.1494
    3TTP     C4 7627   5.299   1.683   1.310 -0.3599  0.0150  0.2394
    3TTP    C17 7628   5.311   1.562   1.248 -0.3045  0.0499  0.1814
    3TTP    C18 7629   5.337   1.456   1.341 -0.2565  0.0171  0.1312
    3TTP    C32 7630   5.380   1.420   1.718  0.4242 -0.2048  0.0273
    3TTP    C33 7631   5.247   1.442   1.787 -0.3334 -0.4104  0.2869
    3TTP    C34 7632   5.247   1.541   1.899 -0.3508 -0.5411 -0.2229
    3TTP    C35 7633   5.121   1.554   1.964  0.3092  0.1234 -0.2301
    3TTP    C36 7634   5.112   1.666   2.069  0.0677 -0.0509 -0.1443
    3TTP    C37 7635   4.962   1.667   2.116 -0.4089 -0.6081  0.6953
    3TTP    C38 7636   4.936   1.808   2.185 -0.4538  0.3512  0.2327
    3TTP    C39 7637   4.830   1.823   2.291 -0.1990 -0.0913 -0.5072
    3TTP    C40 7638   4.796   1.970   2.309 -0.0135 -0.2254 -0.0473
    3TTP    C41 7639   4.746   2.000   2.445  0.7211 -0.2422 -0.4238
    3TTP    C42 7640   4.712   2.153   2.439 -0.9435 -0.3435 -0.3051
    4FIC     F1 7641   5.348   1.409  -0.282 -0.5043  0.0535  0.1103
    4FIC     F2 7642   5.421   1.614  -0.446  0.2064 -0.1432  0.1743
    4FIC     O1 7643   5.331   1.661   0.196 -0.4904  0.1570  0.0564
    4FIC     N5 7644   5.514   2.088  -0.340  1.2377 -0.3521  0.2280
    4FIC     N6 7645   5.486   2.244   0.067  1.1054 -0.2316  0.1729
    4FIC    C19 7646   5.394   1.946   0.210  0.1934  0.0059  0.0984
    4FIC    C20 7647   5.396   1.875   0.096  0.1621 -0.0125  0.1095
    4FIC    C21 7648   5.362   1.728   0.097 -0.1987  0.0691  0.0864
    4FIC    C22 7649   5.373   1.682  -0.042 -0.1366  0.0240  0.1063
    4FIC    C23 7650   5.351   1.553  -0.091 -0.3905  0.0704  0.0957
    4FIC    C24 7651   5.368   1.533  -0.227 -0.2674  0.0123  0.1191
    4FIC    C25 7652   5.406   1.639  -0.311  0.0986 -0.0889  0.1521
    4FIC    C26 7653   5.428   1.768  -0.263  0.3538 -0.1358  0.1628
    4FIC    C27 7654   5.411   1.790  -0.126  0.2342 -0.0782  0.1395
    4FIC    C28 7655   5.427   1.913  -0.044  0.4323 -0.1046  0.1428
    4FIC    C29 7656   5.463   2.037  -0.090  0.7964 -0.1969  0.1712
    4FIC    C30 7657   5.491   2.065  -0.227  1.0378 -0.2819  0.2023
    4FIC    C31 7658   5.475   2.150  -0.003  0.9642 -0.2155  0.1720
    5FIC     F1 7659   5.522   0.467   1.358 -0.2890 -0.1799 -0.0098
    5FIC     F2 7660   5.498   0.421   1.625  0.1802 -0.1737  0.0340
    5FIC     O1 7661   5.449   1.004   1.341 -0.3018 -0.1779  0.1070
    5FIC     N5 7662   5.413   0.736   1.997  0.8459 -0.1633  0.1803
    5FIC     N6 7663   5.361   1.164   1.930  0.7415 -0.1630  0.2628
    5FIC    C19 7664   5.401   1.150   1.590  0.1421 -0.1712  0.1904
    5FIC    C20 7665   5.420   1.016   1.584  0.1270 -0.1720  0.1593
    5FIC    C21 7666   5.445   0.949   1.452 -0.1078 -0.1754  0.1172
    5FIC    C22 7667   5.461   0.805   1.481 -0.0608 -0.1754  0.0910
    5FIC    C23 7668   5.486   0.702   1.391 -0.2239 -0.1780  0.0495
    5FIC    C24 7669   5.498   0.574   1.442 -0.1378 -0.1774  0.0311
    5FIC    C25 7670   5.486   0.550   1.579  0.1042 -0.1742  0.0538
    5FIC    C26 7671   5.461   0.652   1.670  0.2677 -0.1715  0.0952
    5FIC    C27 7672   5.449   0.783   1.620  0.1839 -0.1721  0.1143
    5FIC    C28 7673   5.423   0.912   1.689  0.3090 -0.1699  0.1571
    5FIC    C29 7674   5.406   0.930   1.824  0.5478 -0.1666  0.1889
    5FIC    C30 7675   5.410   0.823   1.919  0.7110 -0.1648  0.1840
    5FIC    C31 7676   5.381   1.059   1.881  0.6529 -0.1646  0.2293
    1BTD     S2 7677   5.369   6.962   1.589  0.2251  0.0441  0.0831
    1BTD     N1 7678   5.363   6.905   1.759  0.1322  0.0539  0.0829
    1BTD     N2 7679   5.376   6.797   1.517  0.0105  0.0348  0.0848
    1BTD     N3 7680   5.377   6.357   1.680 -0.5944  0.0329  0.0879
    1BTD     N4 7681   5.361   6.489   1.977 -0.4445  0.0564  0.0856
    1BTD     C5 7682   5.362   6.686   1.869 -0.1708  0.0547  0.0844
    1BTD     C6 7683   5.366   6.772   1.754 -0.0448  0.0498  0.0841
    1BTD     C7 7684   5.373   6.712   1.619 -0.1129  0.0391  0.0851
    1BTD     C8 7685   5.376   6.569   1.606 -0.3035  0.0341  0.0864
    1BTD    C15 7686   5.372   6.489   1.721 -0.4217  0.0394  0.0866
    1BTD    C16 7687   5.365   6.546   1.851 -0.3563  0.0497  0.0856
    1BTD    C43 7688   5.451   6.379   2.019 -0.1651 -0.2380  0.0418
    1BTD    C44 7689   5.429   6.285   2.133 -0.2391 -0.2182 -0.2511
    1BTD    C45 7690   5.303   6.208   2.111 -0.1813 -0.0095  0.4713
    1BTD    C46 7691   5.239   6.140   2.226  0.3801  0.6221 -0.4553
    1BTD    C47 7692   5.544   6.195   2.184 -0.4441  0.5253  0.3601
    1BTD    C48 7693   5.687   6.255   2.211  0.6644  0.3766  0.1037
    1BTD    C49 7694   5.699   6.364   2.321  0.3709  0.0610 -0.0690
    1BTD    C50 7695   5.845   6.384   2.366 -0.1794 -0.4091 -0.2248
    1BTD    C75 7696   5.354   6.227   1.744 -0.0894 -0.7225 -0.3030
    1BTD    C76 7697   5.217   6.163   1.708 -0.4878 -0.1509  0.9058
    1BTD    C77 7698   5.099   6.262   1.735 -0.6006  0.1976  0.6854
    1BTD    C78 7699   5.050   6.291   1.874 -0.1375 -0.7347 -0.1500
    1BTD    C79 7700   5.200   6.023   1.761  0.4329  0.0875  0.5862
    1BTD    C80 7701   5.092   5.934   1.701  0.0069  0.0487  0.3730
    1BTD    C81 7702   5.082   5.794   1.757  0.0408 -0.6365 -0.1764
    1BTD    C82 7703   4.973   5.714   1.688  0.3447  0.6787 -0.4565
    2TTP     S1 7704   5.332   6.852   2.116  0.0688 -0.0417  0.2270
    2TTP     S5 7705   5.300   6.496   2.355 -0.4549 -0.2618 -0.1658
    2TTP     C1 7706   5.293   6.641   2.465 -0.5734 -0.3651 -0.0374
    2TTP     C2 7707   5.302   6.759   2.398 -0.4185 -0.3034  0.0915
    2TTP     C3 7708   5.315   6.740   2.257 -0.2009 -0.1719  0.0934
    2TTP     C4 7709   5.339   6.708   2.006  0.1872  0.0616  0.0985
    2TTP    C17 7710   5.330   6.589   2.073  0.0325 -0.0001 -0.0303
    2TTP    C18 7711   5.317   6.608   2.214 -0.1851 -0.1314 -0.0324
    2TTP    C32 7712   5.296   6.903   2.454 -0.3899  0.2275 -0.4868
    2TTP    C33 7713   5.369   7.019   2.394 -0.0628 -0.2555  1.0771
    2TTP    C34 7714   5.340   7.153   2.452  0.3556  0.0214 -0.1144
    2TTP    C35 7715   5.367   7.259   2.348  0.2565  0.5735  0.4973
    2TTP    C36 7716   5.331   7.398   2.390  0.2805 -0.6502  0.0790
    2TTP    C37 7717   5.396   7.501   2.299  0.3345  0.0861  0.2011
    2TTP    C38 7718   5.366   7.640   2.343  0.0799  0.0095  0.1689
    2TTP    C39 7719   5.412   7.683   2.485 -0.1018 -0.4580 -0.2498
    2TTP    C40 7720   5.349   7.814   2.554 -0.0729  0.1720 -0.0117
    2TTP    C41 7721   5.197   7.841   2.537  0.1913 -0.1074  0.5520
    2TTP    C42 7722   5.154   7.966   2.604  1.3356 -0.4083 -0.3390
    3TTP     S1 7723   5.450   6.495   1.322 -0.0539 -0.2645 -0.2965
    3TTP     S5 7724   5.508   6.088   1.448 -0.2321 -0.0701  0.4234
    3TTP     C1 7725   5.563   6.103   1.275 -0.0368 -0.3528  0.4578
    3TTP     C2 7726   5.548   6.230   1.226  0.0299 -0.4294  0.2376
    3TTP     C3 7727   5.493   6.319   1.323 -0.0710 -0.2677  0.0336
    3TTP     C4 7728   5.395   6.479   1.495 -0.2493  0.0184 -0.3310
    3TTP    C17 7729   5.410   6.353   1.544 -0.3159  0.0949 -0.1107
    3TTP    C18 7730   5.465   6.264   1.447 -0.2149 -0.0669  0.0933
    3TTP    C32 7731   5.602   6.279   1.091  0.2585 -0.0356  0.2731
    3TTP    C33 7732   5.507   6.355   1.005  0.3427  0.0235  0.5209
    3TTP    C34 7733   5.571   6.420   0.886 -0.2059  0.3280  0.1856
    3TTP    C35 7734   5.676   6.533   0.907  0.2655  0.6824  0.1762
    3TTP    C36 7735   5.628   6.658   0.985 -0.2385  0.1467 -0.1187
    3TTP    C37 7736   5.523   6.739   0.923  0.5470 -0.2876 -0.3534
    3TTP    C38 7737   5.476   6.872   1.000 -0.0831  0.5342  0.3237
    3TTP    C39 7738   5.392   6.859   1.121  0.0399  0.0520  0.1493
    3TTP    C40 7739   5.256   6.798   1.096  0.0847  0.2834 -0.5729
    3TTP    C41 7740   5.174   6.808   1.224 -0.5304 -0.1838  0.5787
    3TTP    C42 7741   5.038   6.737   1.205  0.3846  0.0423  0.1201
    4FIC     F1 7742   5.047   6.078   3.014  0.1093 -0.2500 -0.1782
    4FIC     F2 7743   5.057   6.269   3.207  0.1054 -0.3787 -0.0504
    4FIC     O1 7744   5.204   6.362   2.580  0.0176  0.0645 -0.0063
    4FIC     N5 7745   5.185   6.747   3.176  0.0346 -0.3395  0.2561
    4FIC     N6 7746   5.306   6.930   2.798 -0.0361 -0.0678  0.3647
    4FIC    C19 7747   5.270   6.645   2.611 -0.0184  0.0534  0.1770
    4FIC    C20 7748   5.230   6.567   2.712  0.0048 -0.0209  0.1287
    4FIC    C21 7749   5.198   6.422   2.689  0.0223 -0.0095  0.0349
    4FIC    C22 7750   5.158   6.366   2.819  0.0457 -0.1031  0.0021
    4FIC    C23 7751   5.119   6.235   2.847  0.0675 -0.1277 -0.0813
    4FIC    C24 7752   5.086   6.206   2.979  0.0872 -0.2209 -0.0971
    4FIC    C25 7753   5.091   6.304   3.078  0.0853 -0.2871 -0.0311
    4FIC    C26 7754   5.130   6.435   3.051  0.0635 -0.2630  0.0523
    4FIC    C27 7755   5.164   6.467   2.918  0.0433 -0.1690  0.0696
    4FIC    C28 7756   5.209   6.594   2.857  0.0180 -0.1212  0.1499
    4FIC    C29 7757   5.227   6.714   2.921  0.0088 -0.1619  0.2289
    4FIC    C30 7758   5.204   6.732   3.061  0.0231 -0.2594  0.2436
    4FIC    C31 7759   5.270   6.832   2.853 -0.0159 -0.1098  0.3031
    5FIC     F1 7760   5.721   5.305   1.369 -0.1971  0.1611 -0.1263
    5FIC     F2 7761   5.733   5.283   1.098 -0.1422  0.1606 -0.1238
    5FIC     O1 7762   5.628   5.836   1.425 -0.1116  0.1777 -0.1429
    5FIC     N5 7763   5.685   5.630   0.748 -0.0027  0.1719 -0.1320
    5FIC     N6 7764   5.610   6.049   0.847  0.0530  0.1851 -0.1455
    5FIC    C19 7765   5.607   6.003   1.186 -0.0288  0.1832 -0.1464
    5FIC    C20 7766   5.630   5.871   1.183 -0.0525  0.1792 -0.1423
    5FIC    C21 7767   5.639   5.791   1.310 -0.0948  0.1764 -0.1408
    5FIC    C22 7768   5.665   5.652   1.270 -0.1118  0.1720 -0.1362
    5FIC    C23 7769   5.681   5.541   1.353 -0.1502  0.1686 -0.1334
    5FIC    C24 7770   5.704   5.419   1.293 -0.1597  0.1647 -0.1293
    5FIC    C25 7771   5.710   5.408   1.153 -0.1314  0.1644 -0.1280
    5FIC    C26 7772   5.694   5.517   1.069 -0.0931  0.1680 -0.1307
    5FIC    C27 7773   5.671   5.642   1.129 -0.0830  0.1719 -0.1350
    5FIC    C28 7774   5.650   5.777   1.070 -0.0453  0.1763 -0.1387
    5FIC    C29 7775   5.649   5.808   0.936 -0.0106  0.1773 -0.1387
    5FIC    C30 7776   5.668   5.710   0.833 -0.0064  0.1743 -0.1350
    5FIC    C31 7777   5.627   5.940   0.887  0.0242  0.1816 -0.1425
    1BTD     S2 7778   5.040   6.595   1.598  0.1640 -0.1404  0.3432
    1BTD     N1 7779   4.998   6.618   1.772 -0.6869 -0.0559  0.1360
    1BTD     N2 7780   5.036   6.770   1.558  0.9458 -0.1104  0.3567
    1BTD     N3 7781   4.951   7.169   1.790  1.0024  0.1034  0.0103
    1BTD     N4 7782   4.905   6.982   2.053 -1.0095  0.1706 -0.2618
    1BTD     C5 7783   4.950   6.810   1.915 -0.8312  0.0616 -0.0684
    1BTD     C6 7784   4.984   6.749   1.790 -0.3613 -0.0118  0.0900
    1BTD     C7 7785   5.005   6.834   1.671  0.5527 -0.0424  0.2135
    1BTD     C8 7786   4.991   6.976   1.683  0.9512  0.0020  0.1726
    1BTD    C15 7787   4.958   7.032   1.807  0.4660  0.0736  0.0160
    1BTD    C16 7788   4.938   6.951   1.922 -0.4145  0.1031 -0.1031
    1BTD    C43 7789   4.808   7.086   2.097  0.2367  0.2851 -0.6430
    1BTD    C44 7790   4.796   7.148   2.237 -0.2088  1.0252 -1.4353
    1BTD    C45 7791   4.942   7.204   2.269  0.4782  0.2523 -0.1405
    1BTD    C46 7792   4.962   7.225   2.421  0.0658  0.0863 -0.1338
    1BTD    C47 7793   4.679   7.236   2.274 -0.5644 -0.8197 -0.2939
    1BTD    C48 7794   4.544   7.189   2.246  0.1157 -0.1092 -0.2467
    1BTD    C49 7795   4.424   7.275   2.267  0.3204 -0.2109 -0.2629
    1BTD    C50 7796   4.287   7.224   2.264  0.5861 -0.3831 -0.3705
    1BTD    C75 7797   4.973   7.276   1.891  0.7079  0.3769 -0.7002
    1BTD    C76 7798   5.117   7.313   1.930 -0.8156  1.0615 -0.3989
    1BTD    C77 7799   5.203   7.195   1.977 -0.5658  0.2541  0.3691
    1BTD    C78 7800   5.356   7.193   1.958  0.3838 -0.3835  0.1506
    1BTD    C79 7801   5.151   7.447   1.996  0.3868 -0.1078 -0.5768
    1BTD    C80 7802   5.119   7.570   1.906  0.0326  0.2615 -0.3162
    1BTD    C81 7803   5.136   7.707   1.975 -0.5576  0.2366  0.7361
    1BTD    C82 7804   5.031   7.742   2.073 -0.3739 -0.3375  0.4528
    2TTP     S1 7805   4.946   6.603   2.134 -0.0579  0.0620 -0.0689
    2TTP     S5 7806   4.868   6.907   2.429  0.0721 -0.0867  0.1195
    2TTP     C1 7807   4.880   6.746   2.513  0.1556 -0.1228  0.0386
    2TTP     C2 7808   4.905   6.643   2.427  0.1203 -0.0789 -0.0244
    2TTP     C3 7809   4.915   6.687   2.291  0.0262 -0.0153 -0.0110
    2TTP     C4 7810   4.934   6.764   2.050 -0.1414  0.0983  0.0120
    2TTP    C17 7811   4.909   6.867   2.136 -0.1061  0.0544  0.0751
    2TTP    C18 7812   4.899   6.823   2.271 -0.0119 -0.0093  0.0616
    2TTP    C32 7813   4.914   6.493   2.466  0.2608 -0.2542 -0.1688
    2TTP    C33 7814   4.847   6.394   2.376  0.3634  0.0542  0.1426
    2TTP    C34 7815   4.697   6.368   2.380  0.1306  0.0913 -0.1220
    2TTP    C35 7816   4.657   6.296   2.507 -0.9255 -0.4152 -0.5148
    2TTP    C36 7817   4.509   6.263   2.506 -0.2170 -0.2838 -0.1131
    2TTP    C37 7818   4.452   6.216   2.643  0.4701  0.5826 -0.4401
    2TTP    C38 7819   4.295   6.192   2.641 -0.0645 -0.6080  0.9758
    2TTP    C39 7820   4.201   6.313   2.605  0.3280  0.5114 -0.8280
    2TTP    C40 7821   4.204   6.441   2.684 -0.0009  0.5240 -0.1479
    2TTP    C41 7822   4.113   6.546   2.621  0.3189 -0.2666 -0.6609
    2TTP    C42 7823   4.091   6.666   2.716  0.0740  0.3696  0.3617
    3TTP     S1 7824   5.000   7.110   1.405  0.2156  0.1289 -0.1111
    3TTP     S5 7825   4.939   7.492   1.594  0.1185  0.0416  0.0337
    3TTP     C1 7826   4.942   7.516   1.414  0.2046  0.1239  0.0465
    3TTP     C2 7827   4.961   7.400   1.345  0.2397  0.1557  0.0025
    3TTP     C3 7828   4.974   7.287   1.432  0.1998  0.1161 -0.0428
    3TTP     C4 7829   4.996   7.086   1.585  0.1295  0.0464 -0.1237
    3TTP    C17 7830   4.977   7.202   1.654  0.0945  0.0148 -0.0798
    3TTP    C18 7831   4.965   7.315   1.567  0.1342  0.0542 -0.0345
    3TTP    C32 7832   4.968   7.385   1.191 -0.0074  0.8163  0.2949
    3TTP    C33 7833   5.084   7.315   1.126 -0.0591  0.6132 -0.3804
    3TTP    C34 7834   5.052   7.238   0.997 -0.5628  0.2034  0.0523
    3TTP    C35 7835   5.172   7.153   0.945 -0.7477 -0.4604 -0.0924
    3TTP    C36 7836   5.118   7.066   0.830  0.2678  0.0959 -0.6054
    3TTP    C37 7837   5.222   6.974   0.774  0.2723  0.4212  0.7309
    3TTP    C38 7838   5.189   6.873   0.657  0.0397  0.6570 -0.1367
    3TTP    C39 7839   5.069   6.771   0.673 -0.7851 -0.0520  0.4809
    3TTP    C40 7840   5.080   6.655   0.775 -0.0764 -0.4335  0.1456
    3TTP    C41 7841   5.195   6.555   0.768  0.3270 -0.5703  0.8030
    3TTP    C42 7842   5.176   6.462   0.656  0.4910 -1.2123  0.3287
    4FIC     F1 7843   4.972   7.244   3.167 -0.0603 -0.0736  0.0184
    4FIC     F2 7844   4.908   7.034   3.327 -0.0993 -0.0772 -0.0017
    4FIC     O1 7845   4.944   7.012   2.678  0.2391 -0.1090  0.0175
    4FIC     N5 7846   4.796   6.566   3.210  0.0582 -0.1078 -0.0310
    4FIC     N6 7847   4.787   6.427   2.796  0.2999 -0.1347 -0.0277
    4FIC    C19 7848   4.873   6.729   2.658  0.3080 -0.1251 -0.0020
    4FIC    C20 7849   4.882   6.795   2.775  0.2345 -0.1160 -0.0010
    4FIC    C21 7850   4.919   6.941   2.777  0.2030 -0.1081  0.0093
    4FIC    C22 7851   4.921   6.982   2.919  0.1217 -0.0993  0.0077
    4FIC    C23 7852   4.950   7.108   2.971  0.0688 -0.0901  0.0150
    4FIC    C24 7853   4.945   7.122   3.108 -0.0050 -0.0829  0.0117
    4FIC    C25 7854   4.912   7.014   3.191 -0.0250 -0.0847  0.0013
    4FIC    C26 7855   4.883   6.888   3.140  0.0274 -0.0938 -0.0060
    4FIC    C27 7856   4.887   6.871   3.000  0.1024 -0.1013 -0.0028
    4FIC    C28 7857   4.862   6.752   2.915  0.1709 -0.1117 -0.0085
    4FIC    C29 7858   4.827   6.627   2.958  0.1749 -0.1163 -0.0188
    4FIC    C30 7859   4.810   6.594   3.096  0.1107 -0.1116 -0.0255
    4FIC    C31 7860   4.805   6.518   2.869  0.2435 -0.1265 -0.0236
    5FIC     F1 7861   4.813   8.296   1.638  0.0361  0.0212  0.1532
    5FIC     F2 7862   4.833   8.369   1.377 -0.1148  0.1013  0.1639
    5FIC     O1 7863   4.890   7.761   1.603  0.1068  0.0445 -0.0450
    5FIC     N5 7864   4.916   8.092   0.975 -0.2813  0.2334  0.0379
    5FIC     N6 7865   4.972   7.659   1.000 -0.1956  0.2354 -0.1192
    5FIC    C19 7866   4.936   7.641   1.340 -0.0124  0.1295 -0.1053
    5FIC    C20 7867   4.916   7.772   1.359 -0.0242  0.1205 -0.0558
    5FIC    C21 7868   4.893   7.827   1.497  0.0399  0.0761 -0.0274
    5FIC    C22 7869   4.875   7.973   1.482  0.0076  0.0771  0.0250
    5FIC    C23 7870   4.851   8.066   1.583  0.0451  0.0439  0.0654
    5FIC    C24 7871   4.837   8.199   1.544  0.0027  0.0528  0.1117
    5FIC    C25 7872   4.847   8.236   1.409 -0.0751  0.0943  0.1171
    5FIC    C26 7873   4.871   8.143   1.309 -0.1130  0.1278  0.0770
    5FIC    C27 7874   4.885   8.008   1.346 -0.0708  0.1194  0.0298
    5FIC    C28 7875   4.911   7.887   1.265 -0.0933  0.1475 -0.0197
    5FIC    C29 7876   4.927   7.881   1.128 -0.1647  0.1903 -0.0299
    5FIC    C30 7877   4.921   7.997   1.045 -0.2285  0.2139  0.0074
    5FIC    C31 7878   4.952   7.759   1.058 -0.1814  0.2149 -0.0790
    1BTD     S2 7879   4.752   3.643   0.984  0.0904  0.0699 -0.1169
    1BTD     N1 7880   4.789   3.680   0.812  0.1786  0.1462 -0.0818
    1BTD     N2 7881   4.732   3.815   1.032 -0.0712  0.0418 -0.0815
    1BTD     N3 7882   4.759   4.233   0.818 -0.2414  0.1225  0.0538
    1BTD     N4 7883   4.829   4.065   0.547  0.0664  0.2511  0.0535
    1BTD     C5 7884   4.809   3.883   0.677  0.1162  0.1994 -0.0111
    1BTD     C6 7885   4.785   3.812   0.800  0.0876  0.1469 -0.0473
    1BTD     C7 7886   4.753   3.888   0.922 -0.0521  0.0885 -0.0472
    1BTD     C8 7887   4.747   4.031   0.917 -0.1563  0.0856 -0.0108
    1BTD    C15 7888   4.771   4.097   0.795 -0.1236  0.1382  0.0238
    1BTD    C16 7889   4.802   4.024   0.676  0.0110  0.1944  0.0237
    1BTD    C43 7890   4.931   4.173   0.525  0.3183  0.1124 -0.3674
    1BTD    C44 7891   4.938   4.248   0.394  0.2975 -0.3225  0.0088
    1BTD    C45 7892   5.053   4.345   0.376  0.1778  0.4142  0.0956
    1BTD    C46 7893   5.197   4.312   0.428  0.0843  0.5231  0.2560
    1BTD    C47 7894   4.802   4.317   0.369  0.4713  0.8524 -0.6298
    1BTD    C48 7895   4.783   4.380   0.230 -0.0768  0.2177 -0.2698
    1BTD    C49 7896   4.643   4.436   0.195 -0.4055  0.3502 -0.3188
    1BTD    C50 7897   4.519   4.334   0.200 -0.6751 -0.2189 -0.4430
    1BTD    C75 7898   4.705   4.321   0.712  0.3514  0.0502  0.4910
    1BTD    C76 7899   4.708   4.475   0.701 -0.3564  0.0163  0.7910
    1BTD    C77 7900   4.848   4.551   0.685  0.1754  0.1148  0.0908
    1BTD    C78 7901   4.952   4.521   0.788  0.4661 -0.7304 -0.2755
    1BTD    C79 7902   4.605   4.515   0.594 -0.3033 -0.2666  0.3626
    1BTD    C80 7903   4.575   4.668   0.577  0.7019  0.4028 -0.5477
    1BTD    C81 7904   4.506   4.720   0.704  0.3508 -0.3807 -0.3331
    1BTD    C82 7905   4.473   4.865   0.684 -0.1393  0.3208  0.3054
    2TTP     S1 7906   4.819   3.687   0.448 -0.1070 -0.0906  0.2558
    2TTP     S5 7907   4.843   4.017   0.174  0.0936 -0.1040  0.2570
    2TTP     C1 7908   4.843   3.863   0.078  0.0711 -0.1059  0.2600
    2TTP     C2 7909   4.836   3.751   0.157  0.0080 -0.1019  0.2599
    2TTP     C3 7910   4.830   3.784   0.296 -0.0250 -0.0972  0.2573
    2TTP     C4 7911   4.819   3.841   0.543 -0.0845 -0.0886  0.2527
    2TTP    C17 7912   4.826   3.953   0.464 -0.0214 -0.0927  0.2529
    2TTP    C18 7913   4.832   3.920   0.326  0.0117 -0.0974  0.2555
    2TTP    C32 7914   4.817   3.610   0.109  0.0585  0.2893  0.1625
    2TTP    C33 7915   4.866   3.490   0.188  0.2558 -0.3616 -0.1885
    2TTP    C34 7916   4.842   3.367   0.109 -0.0625 -0.0485  0.3671
    2TTP    C35 7917   4.909   3.244   0.159  0.5275  0.1013 -0.3300
    2TTP    C36 7918   4.880   3.122   0.071  0.4478  0.2540 -0.2707
    2TTP    C37 7919   4.911   2.987   0.137  0.5254 -0.1163 -0.1790
    2TTP    C38 7920   5.065   2.952   0.150  0.6534  0.1872  0.0425
    2TTP    C39 7921   5.091   2.819   0.218  0.4300  0.1628  0.0047
    2TTP    C40 7922   5.236   2.789   0.205 -0.3234  0.0522 -0.3356
    2TTP    C41 7923   5.247   2.645   0.227 -0.7741 -0.2572  0.2778
    2TTP    C42 7924   5.400   2.607   0.215  0.4832  0.2216 -0.3840
    3TTP     S1 7925   4.694   4.145   1.198 -0.2162  0.2190  0.0747
    3TTP     S5 7926   4.698   4.542   1.033  0.5022  0.1129 -0.1678
    3TTP     C1 7927   4.665   4.554   1.212  0.0852  0.2520 -0.2523
    3TTP     C2 7928   4.662   4.432   1.273 -0.1611  0.2930 -0.1824
    3TTP     C3 7929   4.685   4.325   1.182 -0.0294  0.2159 -0.0596
    3TTP     C4 7930   4.727   4.133   1.020  0.2009  0.0798  0.1593
    3TTP    C17 7931   4.730   4.255   0.958  0.4471  0.0390  0.0893
    3TTP    C18 7932   4.707   4.362   1.050  0.3157  0.1160 -0.0335
    3TTP    C32 7933   4.623   4.398   1.420 -0.9016 -0.3031 -0.0781
    3TTP    C33 7934   4.738   4.353   1.523  0.4849 -0.2901  0.5692
    3TTP    C34 7935   4.787   4.207   1.535  0.0293 -0.9581  0.0302
    3TTP    C35 7936   4.900   4.185   1.630  0.0145 -0.1457  0.3846
    3TTP    C36 7937   4.873   4.163   1.776 -0.4300 -0.0919  0.2682
    3TTP    C37 7938   5.004   4.176   1.855 -0.3705  0.5711 -0.1504
    3TTP    C38 7939   4.991   4.162   2.008  0.3229 -0.0723  0.2540
    3TTP    C39 7940   5.116   4.201   2.088  0.8150 -0.1153  0.0338
    3TTP    C40 7941   5.232   4.104   2.105 -0.0512  0.4818 -0.1667
    3TTP    C41 7942   5.211   3.949   2.127 -0.4069  0.0985  0.2577
    3TTP    C42 7943   5.174   3.912   2.274  0.3694  0.5770  0.4012
    4FIC     F1 7944   4.892   4.388  -0.549 -0.1614  0.2434  0.0146
    4FIC     F2 7945   4.890   4.177  -0.720  0.1705  0.2386  0.0151
    4FIC     O1 7946   4.862   4.134  -0.072 -0.4176  0.2267 -0.0104
    4FIC     N5 7947   4.865   3.692  -0.627  0.4653  0.2198 -0.0020
    4FIC     N6 7948   4.842   3.536  -0.219  0.1982  0.2076 -0.0217
    4FIC    C19 7949   4.849   3.842  -0.066 -0.1913  0.2162 -0.0189
    4FIC    C20 7950   4.856   3.914  -0.180 -0.1400  0.2206 -0.0126
    4FIC    C21 7951   4.863   4.064  -0.174 -0.2638  0.2258 -0.0085
    4FIC    C22 7952   4.870   4.110  -0.314 -0.1667  0.2298 -0.0020
    4FIC    C23 7953   4.878   4.242  -0.360 -0.2267  0.2351  0.0033
    4FIC    C24 7954   4.884   4.261  -0.497 -0.1104  0.2380  0.0091
    4FIC    C25 7955   4.883   4.152  -0.585  0.0604  0.2356  0.0093
    4FIC    C26 7956   4.876   4.021  -0.540  0.1215  0.2301  0.0039
    4FIC    C27 7957   4.869   3.999  -0.402  0.0057  0.2272 -0.0018
    4FIC    C28 7958   4.861   3.874  -0.322  0.0288  0.2214 -0.0083
    4FIC    C29 7959   4.857   3.746  -0.372  0.1782  0.2176 -0.0101
    4FIC    C30 7960   4.861   3.717  -0.512  0.3355  0.2189 -0.0057
    4FIC    C31 7961   4.849   3.631  -0.288  0.1884  0.2123 -0.0165
    5FIC     F1 7962   4.542   5.354   1.050 -0.1800  0.0513  0.4034
    5FIC     F2 7963   4.520   5.398   1.318  0.4625 -0.0193  0.4708
    5FIC     O1 7964   4.627   4.820   1.041 -0.6126 -0.0124  0.0303
    5FIC     N5 7965   4.549   5.080   1.696  1.0779 -0.1665  0.3018
    5FIC     N6 7966   4.620   4.654   1.635  0.6104 -0.2021 -0.0033
    5FIC    C19 7967   4.637   4.672   1.293 -0.1525 -0.1024 -0.0379
    5FIC    C20 7968   4.616   4.805   1.285 -0.0689 -0.0838  0.0534
    5FIC    C21 7969   4.612   4.874   1.152 -0.3191 -0.0374  0.0830
    5FIC    C22 7970   4.588   5.017   1.179 -0.1472 -0.0273  0.1861
    5FIC    C23 7971   4.577   5.120   1.086 -0.2780  0.0119  0.2453
    5FIC    C24 7972   4.554   5.247   1.136 -0.0669  0.0135  0.3408
    5FIC    C25 7973   4.543   5.270   1.274  0.2639 -0.0230  0.3754
    5FIC    C26 7974   4.554   5.167   1.367  0.3960 -0.0621  0.3167
    5FIC    C27 7975   4.577   5.037   1.318  0.1862 -0.0644  0.2198
    5FIC    C28 7976   4.594   4.908   1.389  0.2476 -0.1006  0.1396
    5FIC    C29 7977   4.589   4.888   1.525  0.5416 -0.1419  0.1445
    5FIC    C30 7978   4.567   4.994   1.619  0.8354 -0.1553  0.2309
    5FIC    C31 7979   4.606   4.759   1.585  0.5777 -0.1748  0.0631
    1BTD     S2 7980   5.118   4.084   0.890  0.0361 -0.0722 -0.1065
    1BTD     N1 7981   5.158   4.007   0.732 -0.0533 -0.0951 -0.1184
    1BTD     N2 7982   5.097   3.928   0.977  0.0733 -0.0596 -0.0752
    1BTD     N3 7983   5.128   3.472   0.870 -0.0119 -0.0755 -0.0328
    1BTD     N4 7984   5.204   3.569   0.569 -0.1677 -0.1193 -0.0861
    1BTD     C5 7985   5.181   3.778   0.651 -0.1111 -0.1072 -0.1009
    1BTD     C6 7986   5.154   3.876   0.752 -0.0508 -0.0924 -0.0994
    1BTD     C7 7987   5.120   3.832   0.889  0.0201 -0.0725 -0.0752
    1BTD     C8 7988   5.114   3.691   0.918  0.0268 -0.0684 -0.0537
    1BTD    C15 7989   5.141   3.598   0.815 -0.0337 -0.0834 -0.0560
    1BTD    C16 7990   5.174   3.641   0.684 -0.1019 -0.1025 -0.0793
    1BTD    C43 7991   5.286   3.444   0.569 -0.4177 -0.5070  0.0343
    1BTD    C44 7992   5.282   3.343   0.453  0.4705  1.0217  0.1903
    1BTD    C45 7993   5.152   3.259   0.442  0.2986 -0.4044 -0.0192
    1BTD    C46 7994   5.146   3.131   0.529 -0.7284 -0.1999  0.6394
    1BTD    C47 7995   5.418   3.272   0.436  0.2595  0.5893 -0.5806
    1BTD    C48 7996   5.420   3.183   0.308 -0.3606  0.5309 -0.1201
    1BTD    C49 7997   5.425   3.242   0.169  0.1831  0.0914 -0.1818
    1BTD    C50 7998   5.448   3.150   0.046 -0.3033 -0.0295 -0.2900
    1BTD    C75 7999   5.092   3.338   0.811  0.3131 -0.5341 -0.0862
    1BTD    C76 8000   4.945   3.319   0.771 -0.4669  0.5071 -0.0173
    1BTD    C77 8001   4.849   3.317   0.894  0.3059  0.1410 -0.9895
    1BTD    C78 8002   4.844   3.188   0.980  0.0344 -0.2060  0.4439
    1BTD    C79 8003   4.901   3.404   0.648  0.3040 -0.3781 -0.1398
    1BTD    C80 8004   4.766   3.362   0.587  0.3477 -0.1474  0.3928
    1BTD    C81 8005   4.772   3.221   0.534  0.2012 -0.3940  0.6581
    1BTD    C82 8006   4.640   3.160   0.484  0.1624  0.2418  0.3224
    2TTP     S1 8007   5.201   3.916   0.389  0.0297  0.1690  0.2598
    2TTP     S5 8008   5.222   3.534   0.192 -0.2561  0.2315  0.1066
    2TTP     C1 8009   5.215   3.664   0.065 -0.1467  0.2887  0.1587
    2TTP     C2 8010   5.208   3.789   0.118 -0.0522  0.2728  0.2091
    2TTP     C3 8011   5.208   3.787   0.261 -0.0625  0.2149  0.2083
    2TTP     C4 8012   5.209   3.785   0.516 -0.0795  0.1117  0.2077
    2TTP    C17 8013   5.216   3.660   0.462 -0.1740  0.1277  0.1573
    2TTP    C18 8014   5.215   3.662   0.319 -0.1637  0.1857  0.1581
    2TTP    C32 8015   5.191   3.925   0.041 -0.1211 -0.6138  0.4395
    2TTP    C33 8016   5.240   4.053   0.100 -0.3607  0.4883 -0.3488
    2TTP    C34 8017   5.210   4.185   0.017  0.1322  0.3339 -0.7307
    2TTP    C35 8018   5.296   4.202  -0.110 -0.1576  0.0775 -0.4318
    2TTP    C36 8019   5.245   4.293  -0.218  0.0277  0.2498 -0.2506
    2TTP    C37 8020   5.185   4.432  -0.175 -0.2133  0.5521 -0.2477
    2TTP    C38 8021   5.283   4.518  -0.092  0.7613 -0.6009 -0.3763
    2TTP    C39 8022   5.224   4.660  -0.087 -0.4381 -0.4479  0.2417
    2TTP    C40 8023   5.094   4.694  -0.009 -0.0409  0.2712 -0.3419
    2TTP    C41 8024   5.069   4.643   0.130  0.4883  0.2045  0.0088
    2TTP    C42 8025   5.177   4.668   0.234  0.3811  0.0287  0.4193
    3TTP     S1 8026   5.111   3.657   1.216  0.0236  0.3292  0.1615
    3TTP     S5 8027   5.163   3.234   1.161 -0.4106  0.2559  0.3060
    3TTP     C1 8028   5.181   3.272   1.338 -0.1895  0.3251  0.2702
    3TTP     C2 8029   5.165   3.405   1.365 -0.0423  0.3518  0.2235
    3TTP     C3 8030   5.140   3.481   1.248 -0.0989  0.3186  0.2143
    3TTP     C4 8031   5.094   3.619   1.039 -0.1975  0.2601  0.1973
    3TTP    C17 8032   5.109   3.486   1.011 -0.3446  0.2334  0.2440
    3TTP    C18 8033   5.135   3.409   1.129 -0.2880  0.2666  0.2532
    3TTP    C32 8034   5.169   3.479   1.500  0.2749  0.4295 -0.5324
    3TTP    C33 8035   5.032   3.494   1.573 -0.2074  0.0113 -0.1421
    3TTP    C34 8036   5.058   3.604   1.686 -0.1895  0.2562  0.3259
    3TTP    C35 8037   4.927   3.635   1.755  0.2093 -0.4465  0.1225
    3TTP    C36 8038   4.919   3.740   1.861 -0.0107  0.5124 -0.4134
    3TTP    C37 8039   4.767   3.764   1.889  0.3151  0.0934 -1.0893
    3TTP    C38 8040   4.738   3.871   2.003 -0.1009  0.1823  0.6391
    3TTP    C39 8041   4.598   3.901   2.054 -0.2806  0.0320  0.0553
    3TTP    C40 8042   4.592   3.995   2.171 -0.0782  0.2208 -0.7146
    3TTP    C41 8043   4.450   4.023   2.209  0.5852 -0.1054  1.1349
    3TTP    C42 8044   4.428   4.130   2.314  0.1636 -0.2362 -0.6057
    4FIC     F1 8045   5.110   3.041  -0.466 -0.1986  0.0367  0.0591
    4FIC     F2 8046   5.135   3.218  -0.671  0.1117 -0.0266  0.0415
    4FIC     O1 8047   5.170   3.368  -0.039 -0.3599  0.0911  0.0401
    4FIC     N5 8048   5.214   3.707  -0.660  0.4431 -0.0788  0.0024
    4FIC     N6 8049   5.256   3.926  -0.285  0.2545 -0.0234 -0.0089
    4FIC    C19 8050   5.215   3.653  -0.082 -0.1206  0.0500  0.0164
    4FIC    C20 8051   5.199   3.564  -0.182 -0.0921  0.0388  0.0219
    4FIC    C21 8052   5.176   3.419  -0.151 -0.2211  0.0615  0.0341
    4FIC    C22 8053   5.163   3.350  -0.281 -0.1506  0.0414  0.0374
    4FIC    C23 8054   5.141   3.215  -0.304 -0.2244  0.0517  0.0479
    4FIC    C24 8055   5.132   3.173  -0.436 -0.1332  0.0282  0.0490
    4FIC    C25 8056   5.145   3.265  -0.541  0.0268 -0.0043  0.0399
    4FIC    C26 8057   5.167   3.400  -0.519  0.1011 -0.0148  0.0294
    4FIC    C27 8058   5.176   3.444  -0.386  0.0107  0.0086  0.0281
    4FIC    C28 8059   5.199   3.579  -0.329  0.0530  0.0057  0.0182
    4FIC    C29 8060   5.217   3.696  -0.400  0.1987 -0.0224  0.0076
    4FIC    C30 8061   5.215   3.701  -0.543  0.3325 -0.0533  0.0048
    4FIC    C31 8062   5.238   3.822  -0.336  0.2286 -0.0228 -0.0014
    5FIC     F1 8063   5.347   2.470   1.348 -0.1566 -0.1130 -0.0564
    5FIC     F2 8064   5.316   2.470   1.618  0.1476 -0.1259 -0.0204
    5FIC     O1 8065   5.256   2.991   1.233 -0.2359 -0.0975  0.0767
    5FIC     N5 8066   5.206   2.843   1.925  0.5286 -0.1333  0.1263
    5FIC     N6 8067   5.141   3.250   1.781  0.4053 -0.1186  0.2230
    5FIC    C19 8068   5.194   3.177   1.450  0.0264 -0.1042  0.1584
    5FIC    C20 8069   5.218   3.046   1.469  0.0347 -0.1077  0.1235
    5FIC    C21 8070   5.249   2.956   1.352 -0.1054 -0.1038  0.0827
    5FIC    C22 8071   5.270   2.821   1.407 -0.0565 -0.1091  0.0514
    5FIC    C23 8072   5.301   2.705   1.337 -0.1464 -0.1079  0.0091
    5FIC    C24 8073   5.316   2.588   1.411 -0.0746 -0.1137 -0.0143
    5FIC    C25 8074   5.300   2.589   1.550  0.0823 -0.1204  0.0043
    5FIC    C26 8075   5.269   2.705   1.620  0.1725 -0.1215  0.0466
    5FIC    C27 8076   5.253   2.824   1.547  0.1018 -0.1157  0.0708
    5FIC    C28 8077   5.220   2.961   1.591  0.1643 -0.1151  0.1158
    5FIC    C29 8078   5.197   3.003   1.720  0.3134 -0.1205  0.1447
    5FIC    C30 8079   5.202   2.915   1.832  0.4311 -0.1275  0.1345
    5FIC    C31 8080   5.166   3.139   1.753  0.3630 -0.1194  0.1876
   7.34401   7.84229   2.87758   0.00000   0.00000  -0.96216   0.00000  -0.14826  -0.66959
