nature communications crystal with symmetry
 8080
    1BTD     S2    1   0.219   1.475   1.649  0.0000  0.0000  0.0000
    1BTD     N1    2   0.216   1.461   1.810  0.0000  0.0000  0.0000
    1BTD     N2    3   0.236   1.322   1.603  0.0000  0.0000  0.0000
    1BTD     N3    4   0.285   0.909   1.829  0.0000  0.0000  0.0000
    1BTD     N4    5   0.259   1.094   2.112  0.0000  0.0000  0.0000
    1BTD     C5    6   0.241   1.267   1.959  0.0000  0.0000  0.0000
    1BTD     C6    7   0.235   1.326   1.834  0.0000  0.0000  0.0000
    1BTD     C7    8   0.245   1.248   1.719  0.0000  0.0000  0.0000
    1BTD     C8    9   0.261   1.110   1.731  0.0000  0.0000  0.0000
    1BTD    C15   10   0.267   1.051   1.856  0.0000  0.0000  0.0000
    1BTD    C16   11   0.257   1.130   1.971  0.0000  0.0000  0.0000
    1BTD    C43   12   0.286   0.971   2.193  0.0000  0.0000  0.0000
    1BTD    C44   13   0.421   0.954   2.262  0.0000  0.0000  0.0000
    1BTD    C45   14   0.442   0.818   2.331  0.0000  0.0000  0.0000
    1BTD    C46   15   0.339   0.817   2.448  0.0000  0.0000  0.0000
    1BTD    C47   16   0.529   0.985   2.160  0.0000  0.0000  0.0000
    1BTD    C48   17   0.663   0.987   2.239  0.0000  0.0000  0.0000
    1BTD    C49   18   0.771   1.016   2.136  0.0000  0.0000  0.0000
    1BTD    C50   19   0.907   0.993   2.205  0.0000  0.0000  0.0000
    1BTD    C75   20   0.303   0.796   1.914  0.0000  0.0000  0.0000
    1BTD    C76   21   0.187   0.703   1.948  0.0000  0.0000  0.0000
    1BTD    C77   22   0.051   0.757   1.984  0.0000  0.0000  0.0000
    1BTD    C78   23  -0.069   0.668   1.943  0.0000  0.0000  0.0000
    1BTD    C79   24   0.225   0.582   2.037  0.0000  0.0000  0.0000
    1BTD    C80   25   0.320   0.472   1.988  0.0000  0.0000  0.0000
    1BTD    C81   26   0.380   0.347   2.060  0.0000  0.0000  0.0000
    1BTD    C82   27   0.362   0.239   1.974  0.0000  0.0000  0.0000
    2TTP     S1   28   0.208   1.474   2.164  0.0000  0.0000  0.0000
    2TTP     S5   29   0.223   1.184   2.470  0.0000  0.0000  0.0000
    2TTP     C1   30   0.198   1.348   2.535  0.0000  0.0000  0.0000
    2TTP     C2   31   0.194   1.453   2.438  0.0000  0.0000  0.0000
    2TTP     C3   32   0.208   1.390   2.324  0.0000  0.0000  0.0000
    2TTP     C4   33   0.230   1.319   2.094  0.0000  0.0000  0.0000
    2TTP    C17   34   0.243   1.217   2.179  0.0000  0.0000  0.0000
    2TTP    C18   35   0.228   1.262   2.312  0.0000  0.0000  0.0000
    2TTP    C32   36   0.192   1.600   2.481  0.0000  0.0000  0.0000
    2TTP    C33   37   0.046   1.647   2.473  0.0000  0.0000  0.0000
    2TTP    C34   38   0.042   1.799   2.486  0.0000  0.0000  0.0000
    2TTP    C35   39  -0.096   1.853   2.518  0.0000  0.0000  0.0000
    2TTP    C36   40  -0.157   1.936   2.408  0.0000  0.0000  0.0000
    2TTP    C37   41  -0.297   1.992   2.438  0.0000  0.0000  0.0000
    2TTP    C38   42  -0.381   1.907   2.531  0.0000  0.0000  0.0000
    2TTP    C39   43  -0.303   1.797   2.601  0.0000  0.0000  0.0000
    2TTP    C40   44  -0.386   1.676   2.635  0.0000  0.0000  0.0000
    2TTP    C41   45  -0.337   1.547   2.574  0.0000  0.0000  0.0000
    2TTP    C42   46  -0.214   1.559   2.486  0.0000  0.0000  0.0000
    3TTP     S1   47   0.273   1.002   1.458  0.0000  0.0000  0.0000
    3TTP     S5   48   0.327   0.614   1.613  0.0000  0.0000  0.0000
    3TTP     C1   49   0.336   0.602   1.440  0.0000  0.0000  0.0000
    3TTP     C2   50   0.317   0.728   1.375  0.0000  0.0000  0.0000
    3TTP     C3   51   0.298   0.826   1.473  0.0000  0.0000  0.0000
    3TTP     C4   52   0.269   1.013   1.626  0.0000  0.0000  0.0000
    3TTP    C17   53   0.282   0.889   1.693  0.0000  0.0000  0.0000
    3TTP    C18   54   0.300   0.783   1.603  0.0000  0.0000  0.0000
    3TTP    C32   55   0.337   0.756   1.224  0.0000  0.0000  0.0000
    3TTP    C33   56   0.215   0.780   1.137  0.0000  0.0000  0.0000
    3TTP    C34   57   0.228   0.815   0.986  0.0000  0.0000  0.0000
    3TTP    C35   58   0.212   0.962   0.953  0.0000  0.0000  0.0000
    3TTP    C36   59   0.206   1.012   0.808  0.0000  0.0000  0.0000
    3TTP    C37   60   0.191   1.162   0.793  0.0000  0.0000  0.0000
    3TTP    C38   61   0.066   1.206   0.720  0.0000  0.0000  0.0000
    3TTP    C39   62  -0.029   1.293   0.798  0.0000  0.0000  0.0000
    3TTP    C40   63  -0.149   1.332   0.716  0.0000  0.0000  0.0000
    3TTP    C41   64  -0.249   1.419   0.787  0.0000  0.0000  0.0000
    3TTP    C42   65  -0.371   1.459   0.706  0.0000  0.0000  0.0000
    4FIC     F1   66   0.133   0.834   3.178  0.0000  0.0000  0.0000
    4FIC     F2   67   0.104   1.043   3.339  0.0000  0.0000  0.0000
    4FIC     O1   68   0.196   1.065   2.701  0.0000  0.0000  0.0000
    4FIC     N5   69   0.075   1.512   3.218  0.0000  0.0000  0.0000
    4FIC     N6   70   0.154   1.676   2.830  0.0000  0.0000  0.0000
    4FIC    C19   71   0.180   1.370   2.678  0.0000  0.0000  0.0000
    4FIC    C20   72   0.173   1.288   2.787  0.0000  0.0000  0.0000
    4FIC    C21   73   0.175   1.148   2.794  0.0000  0.0000  0.0000
    4FIC    C22   74   0.156   1.096   2.934  0.0000  0.0000  0.0000
    4FIC    C23   75   0.156   0.970   2.993  0.0000  0.0000  0.0000
    4FIC    C24   76   0.137   0.958   3.130  0.0000  0.0000  0.0000
    4FIC    C25   77   0.117   1.071   3.208  0.0000  0.0000  0.0000
    4FIC    C26   78   0.116   1.197   3.149  0.0000  0.0000  0.0000
    4FIC    C27   79   0.135   1.209   3.012  0.0000  0.0000  0.0000
    4FIC    C28   80   0.146   1.333   2.937  0.0000  0.0000  0.0000
    4FIC    C29   81   0.128   1.460   2.970  0.0000  0.0000  0.0000
    4FIC    C30   82   0.097   1.489   3.105  0.0000  0.0000  0.0000
    4FIC    C31   83   0.140   1.578   2.895  0.0000  0.0000  0.0000
    5FIC     F1   84   0.469  -0.168   1.669  0.0000  0.0000  0.0000
    5FIC     F2   85   0.494  -0.230   1.419  0.0000  0.0000  0.0000
    5FIC     O1   86   0.367   0.355   1.634  0.0000  0.0000  0.0000
    5FIC     N5   87   0.445   0.043   1.017  0.0000  0.0000  0.0000
    5FIC     N6   88   0.376   0.460   1.028  0.0000  0.0000  0.0000
    5FIC    C19   89   0.358   0.485   1.366  0.0000  0.0000  0.0000
    5FIC    C20   90   0.376   0.351   1.393  0.0000  0.0000  0.0000
    5FIC    C21   91   0.383   0.302   1.521  0.0000  0.0000  0.0000
    5FIC    C22   92   0.407   0.153   1.521  0.0000  0.0000  0.0000
    5FIC    C23   93   0.427   0.057   1.618  0.0000  0.0000  0.0000
    5FIC    C24   94   0.452  -0.071   1.575  0.0000  0.0000  0.0000
    5FIC    C25   95   0.469  -0.102   1.442  0.0000  0.0000  0.0000
    5FIC    C26   96   0.450  -0.016   1.346  0.0000  0.0000  0.0000
    5FIC    C27   97   0.422   0.115   1.386  0.0000  0.0000  0.0000
    5FIC    C28   98   0.402   0.240   1.306  0.0000  0.0000  0.0000
    5FIC    C29   99   0.405   0.249   1.168  0.0000  0.0000  0.0000
    5FIC    C30  100   0.427   0.141   1.087  0.0000  0.0000  0.0000
    5FIC    C31  101   0.391   0.364   1.096  0.0000  0.0000  0.0000
    6BTD     S2  102  -0.063   1.008   1.659  0.0000  0.0000  0.0000
    6BTD     N1  103  -0.071   1.027   1.827  0.0000  0.0000  0.0000
    6BTD     N2  104  -0.086   1.161   1.613  0.0000  0.0000  0.0000
    6BTD     N3  105  -0.137   1.582   1.820  0.0000  0.0000  0.0000
    6BTD     N4  106  -0.150   1.394   2.112  0.0000  0.0000  0.0000
    6BTD     C5  107  -0.108   1.228   1.966  0.0000  0.0000  0.0000
    6BTD     C6  108  -0.087   1.168   1.845  0.0000  0.0000  0.0000
    6BTD     C7  109  -0.104   1.230   1.725  0.0000  0.0000  0.0000
    6BTD     C8  110  -0.121   1.371   1.733  0.0000  0.0000  0.0000
    6BTD    C15  111  -0.130   1.448   1.851  0.0000  0.0000  0.0000
    6BTD    C16  112  -0.131   1.363   1.976  0.0000  0.0000  0.0000
    6BTD    C43  113  -0.197   1.520   2.172  0.0000  0.0000  0.0000
    6BTD    C44  114  -0.349   1.547   2.160  0.0000  0.0000  0.0000
    6BTD    C45  115  -0.369   1.681   2.239  0.0000  0.0000  0.0000
    6BTD    C46  116  -0.475   1.770   2.171  0.0000  0.0000  0.0000
    6BTD    C47  117  -0.425   1.431   2.221  0.0000  0.0000  0.0000
    6BTD    C48  118  -0.578   1.439   2.215  0.0000  0.0000  0.0000
    6BTD    C49  119  -0.676   1.335   2.269  0.0000  0.0000  0.0000
    6BTD    C50  120  -0.588   1.210   2.236  0.0000  0.0000  0.0000
    6BTD    C75  121  -0.171   1.699   1.904  0.0000  0.0000  0.0000
    6BTD    C76  122  -0.059   1.801   1.931  0.0000  0.0000  0.0000
    6BTD    C77  123   0.062   1.735   1.989  0.0000  0.0000  0.0000
    6BTD    C78  124   0.188   1.826   1.999  0.0000  0.0000  0.0000
    6BTD    C79  125  -0.102   1.905   2.037  0.0000  0.0000  0.0000
    6BTD    C80  126  -0.185   2.012   1.965  0.0000  0.0000  0.0000
    6BTD    C81  127  -0.221   2.128   2.063  0.0000  0.0000  0.0000
    6BTD    C82  128  -0.334   2.208   1.994  0.0000  0.0000  0.0000
    7TTP     S1  129  -0.088   1.024   2.177  0.0000  0.0000  0.0000
    7TTP     S5  130  -0.158   1.317   2.470  0.0000  0.0000  0.0000
    7TTP     C1  131  -0.137   1.164   2.547  0.0000  0.0000  0.0000
    7TTP     C2  132  -0.118   1.056   2.458  0.0000  0.0000  0.0000
    7TTP     C3  133  -0.113   1.102   2.323  0.0000  0.0000  0.0000
    7TTP     C4  134  -0.112   1.180   2.093  0.0000  0.0000  0.0000
    7TTP    C17  135  -0.132   1.274   2.186  0.0000  0.0000  0.0000
    7TTP    C18  136  -0.137   1.240   2.322  0.0000  0.0000  0.0000
    7TTP    C32  137  -0.096   0.904   2.494  0.0000  0.0000  0.0000
    7TTP    C33  138  -0.019   0.821   2.392  0.0000  0.0000  0.0000
    7TTP    C34  139   0.001   0.679   2.446  0.0000  0.0000  0.0000
    7TTP    C35  140   0.055   0.586   2.338  0.0000  0.0000  0.0000
    7TTP    C36  141   0.099   0.447   2.388  0.0000  0.0000  0.0000
    7TTP    C37  142   0.154   0.352   2.286  0.0000  0.0000  0.0000
    7TTP    C38  143   0.075   0.218   2.272  0.0000  0.0000  0.0000
    7TTP    C39  144   0.077   0.128   2.396  0.0000  0.0000  0.0000
    7TTP    C40  145   0.000  -0.002   2.381  0.0000  0.0000  0.0000
    7TTP    C41  146   0.050  -0.091   2.271  0.0000  0.0000  0.0000
    7TTP    C42  147   0.044  -0.028   2.128  0.0000  0.0000  0.0000
    8TTP     S1  148  -0.107   1.472   1.454  0.0000  0.0000  0.0000
    8TTP     S5  149  -0.145   1.870   1.587  0.0000  0.0000  0.0000
    8TTP     C1  150  -0.136   1.869   1.413  0.0000  0.0000  0.0000
    8TTP     C2  151  -0.127   1.741   1.359  0.0000  0.0000  0.0000
    8TTP     C3  152  -0.119   1.645   1.459  0.0000  0.0000  0.0000
    8TTP     C4  153  -0.117   1.464   1.629  0.0000  0.0000  0.0000
    8TTP    C17  154  -0.125   1.590   1.681  0.0000  0.0000  0.0000
    8TTP    C18  155  -0.129   1.703   1.586  0.0000  0.0000  0.0000
    8TTP    C32  156  -0.123   1.704   1.211  0.0000  0.0000  0.0000
    8TTP    C33  157   0.024   1.698   1.157  0.0000  0.0000  0.0000
    8TTP    C34  158   0.038   1.621   1.024  0.0000  0.0000  0.0000
    8TTP    C35  159   0.186   1.584   0.985  0.0000  0.0000  0.0000
    8TTP    C36  160   0.216   1.585   0.837  0.0000  0.0000  0.0000
    8TTP    C37  161   0.259   1.451   0.783  0.0000  0.0000  0.0000
    8TTP    C38  162   0.274   1.344   0.888  0.0000  0.0000  0.0000
    8TTP    C39  163   0.214   1.379   1.022  0.0000  0.0000  0.0000
    8TTP    C40  164   0.227   1.274   1.127  0.0000  0.0000  0.0000
    8TTP    C41  165   0.167   1.309   1.260  0.0000  0.0000  0.0000
    8TTP    C42  166   0.180   1.205   1.366  0.0000  0.0000  0.0000
    9FIC     F1  167  -0.260   1.665   3.183  0.0000  0.0000  0.0000
    9FIC     F2  168  -0.277   1.450   3.344  0.0000  0.0000  0.0000
    9FIC     O1  169  -0.171   1.438   2.712  0.0000  0.0000  0.0000
    9FIC     N5  170  -0.223   0.973   3.232  0.0000  0.0000  0.0000
    9FIC     N6  171  -0.168   0.830   2.838  0.0000  0.0000  0.0000
    9FIC    C19  172  -0.149   1.141   2.687  0.0000  0.0000  0.0000
    9FIC    C20  173  -0.175   1.208   2.801  0.0000  0.0000  0.0000
    9FIC    C21  174  -0.180   1.351   2.797  0.0000  0.0000  0.0000
    9FIC    C22  175  -0.203   1.405   2.938  0.0000  0.0000  0.0000
    9FIC    C23  176  -0.221   1.533   2.990  0.0000  0.0000  0.0000
    9FIC    C24  177  -0.247   1.550   3.125  0.0000  0.0000  0.0000
    9FIC    C25  178  -0.255   1.439   3.209  0.0000  0.0000  0.0000
    9FIC    C26  179  -0.237   1.312   3.157  0.0000  0.0000  0.0000
    9FIC    C27  180  -0.211   1.295   3.021  0.0000  0.0000  0.0000
    9FIC    C28  181  -0.195   1.168   2.943  0.0000  0.0000  0.0000
    9FIC    C29  182  -0.195   1.044   2.974  0.0000  0.0000  0.0000
    9FIC    C30  183  -0.211   1.016   3.133  0.0000  0.0000  0.0000
    9FIC    C31  184  -0.182   0.926   2.897  0.0000  0.0000  0.0000
   10FIC     F1  185  -0.254   2.658   1.590  0.0000  0.0000  0.0000
   10FIC     F2  186  -0.270   2.707   1.320  0.0000  0.0000  0.0000
   10FIC     O1  187  -0.155   2.138   1.592  0.0000  0.0000  0.0000
   10FIC     N5  188  -0.209   2.393   0.941  0.0000  0.0000  0.0000
   10FIC     N6  189  -0.145   1.985   0.983  0.0000  0.0000  0.0000
   10FIC    C19  190  -0.152   1.986   1.329  0.0000  0.0000  0.0000
   10FIC    C20  191  -0.165   2.125   1.348  0.0000  0.0000  0.0000
   10FIC    C21  192  -0.168   2.177   1.480  0.0000  0.0000  0.0000
   10FIC    C22  193  -0.198   2.328   1.452  0.0000  0.0000  0.0000
   10FIC    C23  194  -0.214   2.432   1.543  0.0000  0.0000  0.0000
   10FIC    C24  195  -0.238   2.561   1.497  0.0000  0.0000  0.0000
   10FIC    C25  196  -0.246   2.586   1.360  0.0000  0.0000  0.0000
   10FIC    C26  197  -0.229   2.482   1.269  0.0000  0.0000  0.0000
   10FIC    C27  198  -0.205   2.353   1.315  0.0000  0.0000  0.0000
   10FIC    C28  199  -0.182   2.225   1.241  0.0000  0.0000  0.0000
   10FIC    C29  200  -0.179   2.202   1.119  0.0000  0.0000  0.0000
   10FIC    C30  201  -0.200   2.331   1.036  0.0000  0.0000  0.0000
   10FIC    C31  202  -0.159   2.084   1.042  0.0000  0.0000  0.0000
   11BTD     S2  203  -0.219  -1.475  -1.649  0.0000  0.0000  0.0000
   11BTD     N1  204  -0.216  -1.461  -1.810  0.0000  0.0000  0.0000
   11BTD     N2  205  -0.236  -1.322  -1.603  0.0000  0.0000  0.0000
   11BTD     N3  206  -0.285  -0.909  -1.829  0.0000  0.0000  0.0000
   11BTD     N4  207  -0.259  -1.094  -2.112  0.0000  0.0000  0.0000
   11BTD     C5  208  -0.241  -1.267  -1.959  0.0000  0.0000  0.0000
   11BTD     C6  209  -0.235  -1.326  -1.834  0.0000  0.0000  0.0000
   11BTD     C7  210  -0.245  -1.248  -1.719  0.0000  0.0000  0.0000
   11BTD     C8  211  -0.261  -1.110  -1.731  0.0000  0.0000  0.0000
   11BTD    C15  212  -0.267  -1.051  -1.856  0.0000  0.0000  0.0000
   11BTD    C16  213  -0.257  -1.130  -1.971  0.0000  0.0000  0.0000
   11BTD    C43  214  -0.286  -0.971  -2.193  0.0000  0.0000  0.0000
   11BTD    C44  215  -0.421  -0.954  -2.262  0.0000  0.0000  0.0000
   11BTD    C45  216  -0.442  -0.818  -2.331  0.0000  0.0000  0.0000
   11BTD    C46  217  -0.339  -0.817  -2.448  0.0000  0.0000  0.0000
   11BTD    C47  218  -0.529  -0.985  -2.160  0.0000  0.0000  0.0000
   11BTD    C48  219  -0.663  -0.987  -2.239  0.0000  0.0000  0.0000
   11BTD    C49  220  -0.771  -1.016  -2.136  0.0000  0.0000  0.0000
   11BTD    C50  221  -0.907  -0.993  -2.205  0.0000  0.0000  0.0000
   11BTD    C75  222  -0.303  -0.796  -1.914  0.0000  0.0000  0.0000
   11BTD    C76  223  -0.187  -0.703  -1.948  0.0000  0.0000  0.0000
   11BTD    C77  224  -0.051  -0.757  -1.984  0.0000  0.0000  0.0000
   11BTD    C78  225   0.069  -0.668  -1.943  0.0000  0.0000  0.0000
   11BTD    C79  226  -0.225  -0.582  -2.037  0.0000  0.0000  0.0000
   11BTD    C80  227  -0.320  -0.472  -1.988  0.0000  0.0000  0.0000
   11BTD    C81  228  -0.380  -0.347  -2.060  0.0000  0.0000  0.0000
   11BTD    C82  229  -0.362  -0.239  -1.974  0.0000  0.0000  0.0000
   12TTP     S1  230  -0.208  -1.474  -2.164  0.0000  0.0000  0.0000
   12TTP     S5  231  -0.223  -1.184  -2.470  0.0000  0.0000  0.0000
   12TTP     C1  232  -0.198  -1.348  -2.535  0.0000  0.0000  0.0000
   12TTP     C2  233  -0.194  -1.453  -2.438  0.0000  0.0000  0.0000
   12TTP     C3  234  -0.208  -1.390  -2.324  0.0000  0.0000  0.0000
   12TTP     C4  235  -0.230  -1.319  -2.094  0.0000  0.0000  0.0000
   12TTP    C17  236  -0.243  -1.217  -2.179  0.0000  0.0000  0.0000
   12TTP    C18  237  -0.228  -1.262  -2.312  0.0000  0.0000  0.0000
   12TTP    C32  238  -0.192  -1.600  -2.481  0.0000  0.0000  0.0000
   12TTP    C33  239  -0.046  -1.647  -2.473  0.0000  0.0000  0.0000
   12TTP    C34  240  -0.042  -1.799  -2.486  0.0000  0.0000  0.0000
   12TTP    C35  241   0.096  -1.853  -2.518  0.0000  0.0000  0.0000
   12TTP    C36  242   0.157  -1.936  -2.408  0.0000  0.0000  0.0000
   12TTP    C37  243   0.297  -1.992  -2.438  0.0000  0.0000  0.0000
   12TTP    C38  244   0.381  -1.907  -2.531  0.0000  0.0000  0.0000
   12TTP    C39  245   0.303  -1.797  -2.601  0.0000  0.0000  0.0000
   12TTP    C40  246   0.386  -1.676  -2.635  0.0000  0.0000  0.0000
   12TTP    C41  247   0.337  -1.547  -2.574  0.0000  0.0000  0.0000
   12TTP    C42  248   0.214  -1.559  -2.486  0.0000  0.0000  0.0000
   13TTP     S1  249  -0.273  -1.002  -1.458  0.0000  0.0000  0.0000
   13TTP     S5  250  -0.327  -0.614  -1.613  0.0000  0.0000  0.0000
   13TTP     C1  251  -0.336  -0.602  -1.440  0.0000  0.0000  0.0000
   13TTP     C2  252  -0.317  -0.728  -1.375  0.0000  0.0000  0.0000
   13TTP     C3  253  -0.298  -0.826  -1.473  0.0000  0.0000  0.0000
   13TTP     C4  254  -0.269  -1.013  -1.626  0.0000  0.0000  0.0000
   13TTP    C17  255  -0.282  -0.889  -1.693  0.0000  0.0000  0.0000
   13TTP    C18  256  -0.300  -0.783  -1.603  0.0000  0.0000  0.0000
   13TTP    C32  257  -0.337  -0.756  -1.224  0.0000  0.0000  0.0000
   13TTP    C33  258  -0.215  -0.780  -1.137  0.0000  0.0000  0.0000
   13TTP    C34  259  -0.228  -0.815  -0.986  0.0000  0.0000  0.0000
   13TTP    C35  260  -0.212  -0.962  -0.953  0.0000  0.0000  0.0000
   13TTP    C36  261  -0.206  -1.012  -0.808  0.0000  0.0000  0.0000
   13TTP    C37  262  -0.191  -1.162  -0.793  0.0000  0.0000  0.0000
   13TTP    C38  263  -0.066  -1.206  -0.720  0.0000  0.0000  0.0000
   13TTP    C39  264   0.029  -1.293  -0.798  0.0000  0.0000  0.0000
   13TTP    C40  265   0.149  -1.332  -0.716  0.0000  0.0000  0.0000
   13TTP    C41  266   0.249  -1.419  -0.787  0.0000  0.0000  0.0000
   13TTP    C42  267   0.371  -1.459  -0.706  0.0000  0.0000  0.0000
   14FIC     F1  268  -0.133  -0.834  -3.178  0.0000  0.0000  0.0000
   14FIC     F2  269  -0.104  -1.043  -3.339  0.0000  0.0000  0.0000
   14FIC     O1  270  -0.196  -1.065  -2.701  0.0000  0.0000  0.0000
   14FIC     N5  271  -0.074  -1.512  -3.218  0.0000  0.0000  0.0000
   14FIC     N6  272  -0.154  -1.676  -2.830  0.0000  0.0000  0.0000
   14FIC    C19  273  -0.180  -1.370  -2.678  0.0000  0.0000  0.0000
   14FIC    C20  274  -0.173  -1.288  -2.787  0.0000  0.0000  0.0000
   14FIC    C21  275  -0.175  -1.148  -2.794  0.0000  0.0000  0.0000
   14FIC    C22  276  -0.155  -1.096  -2.934  0.0000  0.0000  0.0000
   14FIC    C23  277  -0.156  -0.970  -2.993  0.0000  0.0000  0.0000
   14FIC    C24  278  -0.137  -0.958  -3.130  0.0000  0.0000  0.0000
   14FIC    C25  279  -0.117  -1.071  -3.208  0.0000  0.0000  0.0000
   14FIC    C26  280  -0.116  -1.197  -3.149  0.0000  0.0000  0.0000
   14FIC    C27  281  -0.135  -1.209  -3.012  0.0000  0.0000  0.0000
   14FIC    C28  282  -0.146  -1.333  -2.937  0.0000  0.0000  0.0000
   14FIC    C29  283  -0.128  -1.460  -2.970  0.0000  0.0000  0.0000
   14FIC    C30  284  -0.097  -1.489  -3.105  0.0000  0.0000  0.0000
   14FIC    C31  285  -0.140  -1.578  -2.895  0.0000  0.0000  0.0000
   15FIC     F1  286  -0.468   0.168  -1.669  0.0000  0.0000  0.0000
   15FIC     F2  287  -0.494   0.230  -1.419  0.0000  0.0000  0.0000
   15FIC     O1  288  -0.367  -0.355  -1.634  0.0000  0.0000  0.0000
   15FIC     N5  289  -0.445  -0.043  -1.017  0.0000  0.0000  0.0000
   15FIC     N6  290  -0.375  -0.460  -1.028  0.0000  0.0000  0.0000
   15FIC    C19  291  -0.358  -0.485  -1.366  0.0000  0.0000  0.0000
   15FIC    C20  292  -0.376  -0.351  -1.393  0.0000  0.0000  0.0000
   15FIC    C21  293  -0.383  -0.302  -1.521  0.0000  0.0000  0.0000
   15FIC    C22  294  -0.407  -0.153  -1.521  0.0000  0.0000  0.0000
   15FIC    C23  295  -0.427  -0.057  -1.618  0.0000  0.0000  0.0000
   15FIC    C24  296  -0.452   0.070  -1.575  0.0000  0.0000  0.0000
   15FIC    C25  297  -0.469   0.102  -1.442  0.0000  0.0000  0.0000
   15FIC    C26  298  -0.450   0.016  -1.346  0.0000  0.0000  0.0000
   15FIC    C27  299  -0.422  -0.115  -1.386  0.0000  0.0000  0.0000
   15FIC    C28  300  -0.402  -0.240  -1.306  0.0000  0.0000  0.0000
   15FIC    C29  301  -0.405  -0.249  -1.168  0.0000  0.0000  0.0000
   15FIC    C30  302  -0.427  -0.141  -1.087  0.0000  0.0000  0.0000
   15FIC    C31  303  -0.391  -0.364  -1.096  0.0000  0.0000  0.0000
   16BTD     S2  304   0.063  -1.008  -1.659  0.0000  0.0000  0.0000
   16BTD     N1  305   0.071  -1.027  -1.827  0.0000  0.0000  0.0000
   16BTD     N2  306   0.086  -1.161  -1.613  0.0000  0.0000  0.0000
   16BTD     N3  307   0.137  -1.582  -1.820  0.0000  0.0000  0.0000
   16BTD     N4  308   0.150  -1.394  -2.112  0.0000  0.0000  0.0000
   16BTD     C5  309   0.108  -1.228  -1.966  0.0000  0.0000  0.0000
   16BTD     C6  310   0.087  -1.168  -1.845  0.0000  0.0000  0.0000
   16BTD     C7  311   0.104  -1.230  -1.725  0.0000  0.0000  0.0000
   16BTD     C8  312   0.121  -1.371  -1.733  0.0000  0.0000  0.0000
   16BTD    C15  313   0.130  -1.448  -1.851  0.0000  0.0000  0.0000
   16BTD    C16  314   0.131  -1.363  -1.976  0.0000  0.0000  0.0000
   16BTD    C43  315   0.197  -1.520  -2.172  0.0000  0.0000  0.0000
   16BTD    C44  316   0.349  -1.547  -2.160  0.0000  0.0000  0.0000
   16BTD    C45  317   0.369  -1.681  -2.239  0.0000  0.0000  0.0000
   16BTD    C46  318   0.475  -1.770  -2.171  0.0000  0.0000  0.0000
   16BTD    C47  319   0.425  -1.431  -2.221  0.0000  0.0000  0.0000
   16BTD    C48  320   0.578  -1.439  -2.215  0.0000  0.0000  0.0000
   16BTD    C49  321   0.676  -1.335  -2.269  0.0000  0.0000  0.0000
   16BTD    C50  322   0.588  -1.210  -2.236  0.0000  0.0000  0.0000
   16BTD    C75  323   0.171  -1.699  -1.904  0.0000  0.0000  0.0000
   16BTD    C76  324   0.060  -1.801  -1.931  0.0000  0.0000  0.0000
   16BTD    C77  325  -0.062  -1.735  -1.989  0.0000  0.0000  0.0000
   16BTD    C78  326  -0.188  -1.826  -1.999  0.0000  0.0000  0.0000
   16BTD    C79  327   0.102  -1.905  -2.037  0.0000  0.0000  0.0000
   16BTD    C80  328   0.185  -2.012  -1.965  0.0000  0.0000  0.0000
   16BTD    C81  329   0.221  -2.128  -2.063  0.0000  0.0000  0.0000
   16BTD    C82  330   0.334  -2.208  -1.994  0.0000  0.0000  0.0000
   17TTP     S1  331   0.088  -1.024  -2.177  0.0000  0.0000  0.0000
   17TTP     S5  332   0.158  -1.317  -2.470  0.0000  0.0000  0.0000
   17TTP     C1  333   0.137  -1.164  -2.547  0.0000  0.0000  0.0000
   17TTP     C2  334   0.118  -1.056  -2.458  0.0000  0.0000  0.0000
   17TTP     C3  335   0.113  -1.102  -2.323  0.0000  0.0000  0.0000
   17TTP     C4  336   0.112  -1.180  -2.093  0.0000  0.0000  0.0000
   17TTP    C17  337   0.132  -1.274  -2.186  0.0000  0.0000  0.0000
   17TTP    C18  338   0.137  -1.240  -2.322  0.0000  0.0000  0.0000
   17TTP    C32  339   0.096  -0.904  -2.494  0.0000  0.0000  0.0000
   17TTP    C33  340   0.019  -0.821  -2.392  0.0000  0.0000  0.0000
   17TTP    C34  341  -0.001  -0.679  -2.446  0.0000  0.0000  0.0000
   17TTP    C35  342  -0.055  -0.586  -2.338  0.0000  0.0000  0.0000
   17TTP    C36  343  -0.099  -0.447  -2.388  0.0000  0.0000  0.0000
   17TTP    C37  344  -0.154  -0.352  -2.286  0.0000  0.0000  0.0000
   17TTP    C38  345  -0.075  -0.218  -2.272  0.0000  0.0000  0.0000
   17TTP    C39  346  -0.076  -0.128  -2.396  0.0000  0.0000  0.0000
   17TTP    C40  347   0.000   0.002  -2.381  0.0000  0.0000  0.0000
   17TTP    C41  348  -0.050   0.091  -2.271  0.0000  0.0000  0.0000
   17TTP    C42  349  -0.044   0.028  -2.128  0.0000  0.0000  0.0000
   18TTP     S1  350   0.107  -1.472  -1.454  0.0000  0.0000  0.0000
   18TTP     S5  351   0.145  -1.870  -1.587  0.0000  0.0000  0.0000
   18TTP     C1  352   0.136  -1.869  -1.413  0.0000  0.0000  0.0000
   18TTP     C2  353   0.127  -1.741  -1.359  0.0000  0.0000  0.0000
   18TTP     C3  354   0.119  -1.645  -1.459  0.0000  0.0000  0.0000
   18TTP     C4  355   0.117  -1.464  -1.629  0.0000  0.0000  0.0000
   18TTP    C17  356   0.125  -1.590  -1.681  0.0000  0.0000  0.0000
   18TTP    C18  357   0.129  -1.703  -1.586  0.0000  0.0000  0.0000
   18TTP    C32  358   0.123  -1.704  -1.211  0.0000  0.0000  0.0000
   18TTP    C33  359  -0.024  -1.698  -1.157  0.0000  0.0000  0.0000
   18TTP    C34  360  -0.038  -1.621  -1.024  0.0000  0.0000  0.0000
   18TTP    C35  361  -0.186  -1.584  -0.985  0.0000  0.0000  0.0000
   18TTP    C36  362  -0.216  -1.585  -0.837  0.0000  0.0000  0.0000
   18TTP    C37  363  -0.259  -1.451  -0.783  0.0000  0.0000  0.0000
   18TTP    C38  364  -0.274  -1.344  -0.888  0.0000  0.0000  0.0000
   18TTP    C39  365  -0.214  -1.379  -1.022  0.0000  0.0000  0.0000
   18TTP    C40  366  -0.227  -1.274  -1.127  0.0000  0.0000  0.0000
   18TTP    C41  367  -0.167  -1.309  -1.260  0.0000  0.0000  0.0000
   18TTP    C42  368  -0.180  -1.205  -1.366  0.0000  0.0000  0.0000
   19FIC     F1  369   0.260  -1.665  -3.183  0.0000  0.0000  0.0000
   19FIC     F2  370   0.277  -1.450  -3.344  0.0000  0.0000  0.0000
   19FIC     O1  371   0.171  -1.438  -2.712  0.0000  0.0000  0.0000
   19FIC     N5  372   0.223  -0.973  -3.232  0.0000  0.0000  0.0000
   19FIC     N6  373   0.168  -0.830  -2.838  0.0000  0.0000  0.0000
   19FIC    C19  374   0.149  -1.141  -2.687  0.0000  0.0000  0.0000
   19FIC    C20  375   0.175  -1.208  -2.801  0.0000  0.0000  0.0000
   19FIC    C21  376   0.180  -1.351  -2.797  0.0000  0.0000  0.0000
   19FIC    C22  377   0.203  -1.405  -2.938  0.0000  0.0000  0.0000
   19FIC    C23  378   0.221  -1.533  -2.990  0.0000  0.0000  0.0000
   19FIC    C24  379   0.247  -1.550  -3.125  0.0000  0.0000  0.0000
   19FIC    C25  380   0.255  -1.439  -3.209  0.0000  0.0000  0.0000
   19FIC    C26  381   0.237  -1.312  -3.157  0.0000  0.0000  0.0000
   19FIC    C27  382   0.211  -1.295  -3.021  0.0000  0.0000  0.0000
   19FIC    C28  383   0.195  -1.168  -2.943  0.0000  0.0000  0.0000
   19FIC    C29  384   0.195  -1.044  -2.974  0.0000  0.0000  0.0000
   19FIC    C30  385   0.211  -1.016  -3.133  0.0000  0.0000  0.0000
   19FIC    C31  386   0.182  -0.926  -2.897  0.0000  0.0000  0.0000
   20FIC     F1  387   0.254  -2.658  -1.590  0.0000  0.0000  0.0000
   20FIC     F2  388   0.270  -2.707  -1.320  0.0000  0.0000  0.0000
   20FIC     O1  389   0.155  -2.138  -1.592  0.0000  0.0000  0.0000
   20FIC     N5  390   0.209  -2.393  -0.941  0.0000  0.0000  0.0000
   20FIC     N6  391   0.145  -1.985  -0.983  0.0000  0.0000  0.0000
   20FIC    C19  392   0.152  -1.986  -1.329  0.0000  0.0000  0.0000
   20FIC    C20  393   0.165  -2.125  -1.348  0.0000  0.0000  0.0000
   20FIC    C21  394   0.168  -2.177  -1.480  0.0000  0.0000  0.0000
   20FIC    C22  395   0.198  -2.328  -1.452  0.0000  0.0000  0.0000
   20FIC    C23  396   0.214  -2.432  -1.543  0.0000  0.0000  0.0000
   20FIC    C24  397   0.238  -2.561  -1.497  0.0000  0.0000  0.0000
   20FIC    C25  398   0.246  -2.586  -1.360  0.0000  0.0000  0.0000
   20FIC    C26  399   0.229  -2.482  -1.269  0.0000  0.0000  0.0000
   20FIC    C27  400   0.205  -2.353  -1.315  0.0000  0.0000  0.0000
   20FIC    C28  401   0.182  -2.225  -1.241  0.0000  0.0000  0.0000
   20FIC    C29  402   0.179  -2.202  -1.119  0.0000  0.0000  0.0000
   20FIC    C30  403   0.200  -2.331  -1.036  0.0000  0.0000  0.0000
   20FIC    C31  404   0.159  -2.084  -1.042  0.0000  0.0000  0.0000
   21BTD     S2  405  -0.006   3.428   1.649  0.0000  0.0000  0.0000
   21BTD     N1  406  -0.009   3.414   1.810  0.0000  0.0000  0.0000
   21BTD     N2  407   0.011   3.275   1.603  0.0000  0.0000  0.0000
   21BTD     N3  408   0.060   2.862   1.829  0.0000  0.0000  0.0000
   21BTD     N4  409   0.034   3.047   2.112  0.0000  0.0000  0.0000
   21BTD     C5  410   0.016   3.220   1.959  0.0000  0.0000  0.0000
   21BTD     C6  411   0.010   3.279   1.834  0.0000  0.0000  0.0000
   21BTD     C7  412   0.020   3.201   1.719  0.0000  0.0000  0.0000
   21BTD     C8  413   0.036   3.063   1.731  0.0000  0.0000  0.0000
   21BTD    C15  414   0.042   3.004   1.856  0.0000  0.0000  0.0000
   21BTD    C16  415   0.032   3.083   1.971  0.0000  0.0000  0.0000
   21BTD    C43  416   0.061   2.924   2.193  0.0000  0.0000  0.0000
   21BTD    C44  417   0.196   2.907   2.262  0.0000  0.0000  0.0000
   21BTD    C45  418   0.217   2.771   2.331  0.0000  0.0000  0.0000
   21BTD    C46  419   0.114   2.770   2.448  0.0000  0.0000  0.0000
   21BTD    C47  420   0.304   2.938   2.160  0.0000  0.0000  0.0000
   21BTD    C48  421   0.438   2.940   2.239  0.0000  0.0000  0.0000
   21BTD    C49  422   0.546   2.969   2.136  0.0000  0.0000  0.0000
   21BTD    C50  423   0.682   2.946   2.205  0.0000  0.0000  0.0000
   21BTD    C75  424   0.078   2.749   1.914  0.0000  0.0000  0.0000
   21BTD    C76  425  -0.038   2.656   1.948  0.0000  0.0000  0.0000
   21BTD    C77  426  -0.174   2.710   1.984  0.0000  0.0000  0.0000
   21BTD    C78  427  -0.294   2.621   1.943  0.0000  0.0000  0.0000
   21BTD    C79  428   0.000   2.535   2.037  0.0000  0.0000  0.0000
   21BTD    C80  429   0.095   2.425   1.988  0.0000  0.0000  0.0000
   21BTD    C81  430   0.155   2.300   2.060  0.0000  0.0000  0.0000
   21BTD    C82  431   0.137   2.192   1.974  0.0000  0.0000  0.0000
   22TTP     S1  432  -0.017   3.427   2.164  0.0000  0.0000  0.0000
   22TTP     S5  433  -0.002   3.137   2.470  0.0000  0.0000  0.0000
   22TTP     C1  434  -0.027   3.301   2.535  0.0000  0.0000  0.0000
   22TTP     C2  435  -0.031   3.406   2.438  0.0000  0.0000  0.0000
   22TTP     C3  436  -0.017   3.343   2.324  0.0000  0.0000  0.0000
   22TTP     C4  437   0.005   3.272   2.094  0.0000  0.0000  0.0000
   22TTP    C17  438   0.018   3.170   2.179  0.0000  0.0000  0.0000
   22TTP    C18  439   0.003   3.215   2.312  0.0000  0.0000  0.0000
   22TTP    C32  440  -0.033   3.553   2.481  0.0000  0.0000  0.0000
   22TTP    C33  441  -0.179   3.600   2.473  0.0000  0.0000  0.0000
   22TTP    C34  442  -0.183   3.752   2.486  0.0000  0.0000  0.0000
   22TTP    C35  443  -0.321   3.806   2.518  0.0000  0.0000  0.0000
   22TTP    C36  444  -0.382   3.889   2.408  0.0000  0.0000  0.0000
   22TTP    C37  445  -0.522   3.945   2.438  0.0000  0.0000  0.0000
   22TTP    C38  446  -0.606   3.860   2.531  0.0000  0.0000  0.0000
   22TTP    C39  447  -0.528   3.750   2.601  0.0000  0.0000  0.0000
   22TTP    C40  448  -0.611   3.629   2.635  0.0000  0.0000  0.0000
   22TTP    C41  449  -0.562   3.500   2.574  0.0000  0.0000  0.0000
   22TTP    C42  450  -0.439   3.512   2.486  0.0000  0.0000  0.0000
   23TTP     S1  451   0.048   2.955   1.458  0.0000  0.0000  0.0000
   23TTP     S5  452   0.102   2.567   1.613  0.0000  0.0000  0.0000
   23TTP     C1  453   0.111   2.555   1.440  0.0000  0.0000  0.0000
   23TTP     C2  454   0.092   2.681   1.375  0.0000  0.0000  0.0000
   23TTP     C3  455   0.073   2.779   1.473  0.0000  0.0000  0.0000
   23TTP     C4  456   0.044   2.966   1.626  0.0000  0.0000  0.0000
   23TTP    C17  457   0.057   2.842   1.693  0.0000  0.0000  0.0000
   23TTP    C18  458   0.075   2.736   1.603  0.0000  0.0000  0.0000
   23TTP    C32  459   0.112   2.709   1.224  0.0000  0.0000  0.0000
   23TTP    C33  460  -0.010   2.733   1.137  0.0000  0.0000  0.0000
   23TTP    C34  461   0.003   2.768   0.986  0.0000  0.0000  0.0000
   23TTP    C35  462  -0.013   2.915   0.953  0.0000  0.0000  0.0000
   23TTP    C36  463  -0.019   2.965   0.808  0.0000  0.0000  0.0000
   23TTP    C37  464  -0.034   3.115   0.793  0.0000  0.0000  0.0000
   23TTP    C38  465  -0.159   3.159   0.720  0.0000  0.0000  0.0000
   23TTP    C39  466  -0.254   3.246   0.798  0.0000  0.0000  0.0000
   23TTP    C40  467  -0.374   3.285   0.716  0.0000  0.0000  0.0000
   23TTP    C41  468  -0.474   3.372   0.787  0.0000  0.0000  0.0000
   23TTP    C42  469  -0.596   3.412   0.706  0.0000  0.0000  0.0000
   24FIC     F1  470  -0.092   2.787   3.178  0.0000  0.0000  0.0000
   24FIC     F2  471  -0.121   2.996   3.339  0.0000  0.0000  0.0000
   24FIC     O1  472  -0.029   3.018   2.701  0.0000  0.0000  0.0000
   24FIC     N5  473  -0.150   3.465   3.218  0.0000  0.0000  0.0000
   24FIC     N6  474  -0.071   3.629   2.830  0.0000  0.0000  0.0000
   24FIC    C19  475  -0.045   3.323   2.678  0.0000  0.0000  0.0000
   24FIC    C20  476  -0.052   3.241   2.787  0.0000  0.0000  0.0000
   24FIC    C21  477  -0.050   3.101   2.794  0.0000  0.0000  0.0000
   24FIC    C22  478  -0.069   3.049   2.934  0.0000  0.0000  0.0000
   24FIC    C23  479  -0.069   2.923   2.993  0.0000  0.0000  0.0000
   24FIC    C24  480  -0.088   2.911   3.130  0.0000  0.0000  0.0000
   24FIC    C25  481  -0.108   3.024   3.208  0.0000  0.0000  0.0000
   24FIC    C26  482  -0.109   3.150   3.149  0.0000  0.0000  0.0000
   24FIC    C27  483  -0.090   3.162   3.012  0.0000  0.0000  0.0000
   24FIC    C28  484  -0.079   3.286   2.937  0.0000  0.0000  0.0000
   24FIC    C29  485  -0.097   3.413   2.970  0.0000  0.0000  0.0000
   24FIC    C30  486  -0.128   3.442   3.105  0.0000  0.0000  0.0000
   24FIC    C31  487  -0.085   3.531   2.895  0.0000  0.0000  0.0000
   25FIC     F1  488   0.244   1.785   1.669  0.0000  0.0000  0.0000
   25FIC     F2  489   0.269   1.723   1.419  0.0000  0.0000  0.0000
   25FIC     O1  490   0.142   2.308   1.634  0.0000  0.0000  0.0000
   25FIC     N5  491   0.220   1.996   1.017  0.0000  0.0000  0.0000
   25FIC     N6  492   0.151   2.413   1.028  0.0000  0.0000  0.0000
   25FIC    C19  493   0.133   2.438   1.366  0.0000  0.0000  0.0000
   25FIC    C20  494   0.151   2.304   1.393  0.0000  0.0000  0.0000
   25FIC    C21  495   0.158   2.255   1.521  0.0000  0.0000  0.0000
   25FIC    C22  496   0.182   2.106   1.521  0.0000  0.0000  0.0000
   25FIC    C23  497   0.202   2.010   1.618  0.0000  0.0000  0.0000
   25FIC    C24  498   0.227   1.882   1.575  0.0000  0.0000  0.0000
   25FIC    C25  499   0.244   1.851   1.442  0.0000  0.0000  0.0000
   25FIC    C26  500   0.225   1.937   1.346  0.0000  0.0000  0.0000
   25FIC    C27  501   0.197   2.068   1.386  0.0000  0.0000  0.0000
   25FIC    C28  502   0.177   2.193   1.306  0.0000  0.0000  0.0000
   25FIC    C29  503   0.180   2.202   1.168  0.0000  0.0000  0.0000
   25FIC    C30  504   0.202   2.094   1.087  0.0000  0.0000  0.0000
   25FIC    C31  505   0.166   2.317   1.096  0.0000  0.0000  0.0000
   26BTD     S2  506  -0.288   2.961   1.659  0.0000  0.0000  0.0000
   26BTD     N1  507  -0.296   2.980   1.827  0.0000  0.0000  0.0000
   26BTD     N2  508  -0.311   3.114   1.613  0.0000  0.0000  0.0000
   26BTD     N3  509  -0.362   3.535   1.820  0.0000  0.0000  0.0000
   26BTD     N4  510  -0.375   3.347   2.112  0.0000  0.0000  0.0000
   26BTD     C5  511  -0.333   3.181   1.966  0.0000  0.0000  0.0000
   26BTD     C6  512  -0.312   3.121   1.845  0.0000  0.0000  0.0000
   26BTD     C7  513  -0.329   3.183   1.725  0.0000  0.0000  0.0000
   26BTD     C8  514  -0.346   3.324   1.733  0.0000  0.0000  0.0000
   26BTD    C15  515  -0.355   3.401   1.851  0.0000  0.0000  0.0000
   26BTD    C16  516  -0.356   3.316   1.976  0.0000  0.0000  0.0000
   26BTD    C43  517  -0.422   3.473   2.172  0.0000  0.0000  0.0000
   26BTD    C44  518  -0.574   3.500   2.160  0.0000  0.0000  0.0000
   26BTD    C45  519  -0.594   3.634   2.239  0.0000  0.0000  0.0000
   26BTD    C46  520  -0.700   3.723   2.171  0.0000  0.0000  0.0000
   26BTD    C47  521  -0.650   3.384   2.221  0.0000  0.0000  0.0000
   26BTD    C48  522  -0.803   3.392   2.215  0.0000  0.0000  0.0000
   26BTD    C49  523  -0.901   3.288   2.269  0.0000  0.0000  0.0000
   26BTD    C50  524  -0.813   3.163   2.236  0.0000  0.0000  0.0000
   26BTD    C75  525  -0.396   3.652   1.904  0.0000  0.0000  0.0000
   26BTD    C76  526  -0.284   3.754   1.931  0.0000  0.0000  0.0000
   26BTD    C77  527  -0.163   3.688   1.989  0.0000  0.0000  0.0000
   26BTD    C78  528  -0.037   3.779   1.999  0.0000  0.0000  0.0000
   26BTD    C79  529  -0.327   3.858   2.037  0.0000  0.0000  0.0000
   26BTD    C80  530  -0.410   3.965   1.965  0.0000  0.0000  0.0000
   26BTD    C81  531  -0.446   4.081   2.063  0.0000  0.0000  0.0000
   26BTD    C82  532  -0.559   4.161   1.994  0.0000  0.0000  0.0000
   27TTP     S1  533  -0.313   2.977   2.177  0.0000  0.0000  0.0000
   27TTP     S5  534  -0.383   3.270   2.470  0.0000  0.0000  0.0000
   27TTP     C1  535  -0.362   3.117   2.547  0.0000  0.0000  0.0000
   27TTP     C2  536  -0.343   3.009   2.458  0.0000  0.0000  0.0000
   27TTP     C3  537  -0.338   3.055   2.323  0.0000  0.0000  0.0000
   27TTP     C4  538  -0.337   3.133   2.093  0.0000  0.0000  0.0000
   27TTP    C17  539  -0.357   3.227   2.186  0.0000  0.0000  0.0000
   27TTP    C18  540  -0.362   3.193   2.322  0.0000  0.0000  0.0000
   27TTP    C32  541  -0.321   2.857   2.494  0.0000  0.0000  0.0000
   27TTP    C33  542  -0.244   2.774   2.392  0.0000  0.0000  0.0000
   27TTP    C34  543  -0.224   2.632   2.446  0.0000  0.0000  0.0000
   27TTP    C35  544  -0.170   2.539   2.338  0.0000  0.0000  0.0000
   27TTP    C36  545  -0.126   2.400   2.388  0.0000  0.0000  0.0000
   27TTP    C37  546  -0.071   2.305   2.286  0.0000  0.0000  0.0000
   27TTP    C38  547  -0.150   2.171   2.272  0.0000  0.0000  0.0000
   27TTP    C39  548  -0.148   2.081   2.396  0.0000  0.0000  0.0000
   27TTP    C40  549  -0.225   1.951   2.381  0.0000  0.0000  0.0000
   27TTP    C41  550  -0.175   1.862   2.271  0.0000  0.0000  0.0000
   27TTP    C42  551  -0.181   1.925   2.128  0.0000  0.0000  0.0000
   28TTP     S1  552  -0.332   3.425   1.454  0.0000  0.0000  0.0000
   28TTP     S5  553  -0.370   3.823   1.587  0.0000  0.0000  0.0000
   28TTP     C1  554  -0.361   3.822   1.413  0.0000  0.0000  0.0000
   28TTP     C2  555  -0.352   3.694   1.359  0.0000  0.0000  0.0000
   28TTP     C3  556  -0.344   3.598   1.459  0.0000  0.0000  0.0000
   28TTP     C4  557  -0.342   3.417   1.629  0.0000  0.0000  0.0000
   28TTP    C17  558  -0.350   3.543   1.681  0.0000  0.0000  0.0000
   28TTP    C18  559  -0.354   3.656   1.586  0.0000  0.0000  0.0000
   28TTP    C32  560  -0.348   3.657   1.211  0.0000  0.0000  0.0000
   28TTP    C33  561  -0.201   3.651   1.157  0.0000  0.0000  0.0000
   28TTP    C34  562  -0.187   3.574   1.024  0.0000  0.0000  0.0000
   28TTP    C35  563  -0.039   3.537   0.985  0.0000  0.0000  0.0000
   28TTP    C36  564  -0.009   3.538   0.837  0.0000  0.0000  0.0000
   28TTP    C37  565   0.034   3.404   0.783  0.0000  0.0000  0.0000
   28TTP    C38  566   0.049   3.297   0.888  0.0000  0.0000  0.0000
   28TTP    C39  567  -0.011   3.332   1.022  0.0000  0.0000  0.0000
   28TTP    C40  568   0.002   3.227   1.127  0.0000  0.0000  0.0000
   28TTP    C41  569  -0.058   3.262   1.260  0.0000  0.0000  0.0000
   28TTP    C42  570  -0.045   3.158   1.366  0.0000  0.0000  0.0000
   29FIC     F1  571  -0.485   3.618   3.183  0.0000  0.0000  0.0000
   29FIC     F2  572  -0.502   3.403   3.344  0.0000  0.0000  0.0000
   29FIC     O1  573  -0.396   3.391   2.712  0.0000  0.0000  0.0000
   29FIC     N5  574  -0.448   2.926   3.232  0.0000  0.0000  0.0000
   29FIC     N6  575  -0.393   2.783   2.838  0.0000  0.0000  0.0000
   29FIC    C19  576  -0.374   3.094   2.687  0.0000  0.0000  0.0000
   29FIC    C20  577  -0.400   3.161   2.801  0.0000  0.0000  0.0000
   29FIC    C21  578  -0.405   3.304   2.797  0.0000  0.0000  0.0000
   29FIC    C22  579  -0.428   3.358   2.938  0.0000  0.0000  0.0000
   29FIC    C23  580  -0.446   3.486   2.990  0.0000  0.0000  0.0000
   29FIC    C24  581  -0.472   3.503   3.125  0.0000  0.0000  0.0000
   29FIC    C25  582  -0.480   3.392   3.209  0.0000  0.0000  0.0000
   29FIC    C26  583  -0.462   3.265   3.157  0.0000  0.0000  0.0000
   29FIC    C27  584  -0.436   3.248   3.021  0.0000  0.0000  0.0000
   29FIC    C28  585  -0.420   3.121   2.943  0.0000  0.0000  0.0000
   29FIC    C29  586  -0.420   2.997   2.974  0.0000  0.0000  0.0000
   29FIC    C30  587  -0.436   2.969   3.133  0.0000  0.0000  0.0000
   29FIC    C31  588  -0.407   2.879   2.897  0.0000  0.0000  0.0000
   30FIC     F1  589  -0.479   4.611   1.590  0.0000  0.0000  0.0000
   30FIC     F2  590  -0.495   4.660   1.320  0.0000  0.0000  0.0000
   30FIC     O1  591  -0.380   4.091   1.592  0.0000  0.0000  0.0000
   30FIC     N5  592  -0.434   4.346   0.941  0.0000  0.0000  0.0000
   30FIC     N6  593  -0.370   3.938   0.983  0.0000  0.0000  0.0000
   30FIC    C19  594  -0.377   3.939   1.329  0.0000  0.0000  0.0000
   30FIC    C20  595  -0.390   4.078   1.348  0.0000  0.0000  0.0000
   30FIC    C21  596  -0.393   4.130   1.480  0.0000  0.0000  0.0000
   30FIC    C22  597  -0.423   4.281   1.452  0.0000  0.0000  0.0000
   30FIC    C23  598  -0.439   4.385   1.543  0.0000  0.0000  0.0000
   30FIC    C24  599  -0.463   4.514   1.497  0.0000  0.0000  0.0000
   30FIC    C25  600  -0.471   4.539   1.360  0.0000  0.0000  0.0000
   30FIC    C26  601  -0.454   4.435   1.269  0.0000  0.0000  0.0000
   30FIC    C27  602  -0.430   4.306   1.315  0.0000  0.0000  0.0000
   30FIC    C28  603  -0.407   4.178   1.241  0.0000  0.0000  0.0000
   30FIC    C29  604  -0.404   4.155   1.119  0.0000  0.0000  0.0000
   30FIC    C30  605  -0.425   4.284   1.036  0.0000  0.0000  0.0000
   30FIC    C31  606  -0.384   4.037   1.042  0.0000  0.0000  0.0000
   31BTD     S2  607  -0.444   0.478  -1.649  0.0000  0.0000  0.0000
   31BTD     N1  608  -0.441   0.492  -1.810  0.0000  0.0000  0.0000
   31BTD     N2  609  -0.461   0.631  -1.603  0.0000  0.0000  0.0000
   31BTD     N3  610  -0.510   1.044  -1.829  0.0000  0.0000  0.0000
   31BTD     N4  611  -0.484   0.859  -2.112  0.0000  0.0000  0.0000
   31BTD     C5  612  -0.466   0.686  -1.959  0.0000  0.0000  0.0000
   31BTD     C6  613  -0.460   0.627  -1.834  0.0000  0.0000  0.0000
   31BTD     C7  614  -0.470   0.705  -1.719  0.0000  0.0000  0.0000
   31BTD     C8  615  -0.486   0.843  -1.731  0.0000  0.0000  0.0000
   31BTD    C15  616  -0.492   0.902  -1.856  0.0000  0.0000  0.0000
   31BTD    C16  617  -0.482   0.823  -1.971  0.0000  0.0000  0.0000
   31BTD    C43  618  -0.511   0.982  -2.193  0.0000  0.0000  0.0000
   31BTD    C44  619  -0.646   0.999  -2.262  0.0000  0.0000  0.0000
   31BTD    C45  620  -0.667   1.135  -2.331  0.0000  0.0000  0.0000
   31BTD    C46  621  -0.564   1.136  -2.448  0.0000  0.0000  0.0000
   31BTD    C47  622  -0.754   0.968  -2.160  0.0000  0.0000  0.0000
   31BTD    C48  623  -0.888   0.966  -2.239  0.0000  0.0000  0.0000
   31BTD    C49  624  -0.996   0.937  -2.136  0.0000  0.0000  0.0000
   31BTD    C50  625  -1.132   0.960  -2.205  0.0000  0.0000  0.0000
   31BTD    C75  626  -0.528   1.157  -1.914  0.0000  0.0000  0.0000
   31BTD    C76  627  -0.412   1.250  -1.948  0.0000  0.0000  0.0000
   31BTD    C77  628  -0.276   1.196  -1.984  0.0000  0.0000  0.0000
   31BTD    C78  629  -0.156   1.285  -1.943  0.0000  0.0000  0.0000
   31BTD    C79  630  -0.450   1.371  -2.037  0.0000  0.0000  0.0000
   31BTD    C80  631  -0.545   1.481  -1.988  0.0000  0.0000  0.0000
   31BTD    C81  632  -0.605   1.606  -2.060  0.0000  0.0000  0.0000
   31BTD    C82  633  -0.587   1.714  -1.974  0.0000  0.0000  0.0000
   32TTP     S1  634  -0.433   0.479  -2.164  0.0000  0.0000  0.0000
   32TTP     S5  635  -0.448   0.769  -2.470  0.0000  0.0000  0.0000
   32TTP     C1  636  -0.423   0.605  -2.535  0.0000  0.0000  0.0000
   32TTP     C2  637  -0.419   0.500  -2.438  0.0000  0.0000  0.0000
   32TTP     C3  638  -0.433   0.563  -2.324  0.0000  0.0000  0.0000
   32TTP     C4  639  -0.455   0.634  -2.094  0.0000  0.0000  0.0000
   32TTP    C17  640  -0.468   0.736  -2.179  0.0000  0.0000  0.0000
   32TTP    C18  641  -0.453   0.691  -2.312  0.0000  0.0000  0.0000
   32TTP    C32  642  -0.417   0.353  -2.481  0.0000  0.0000  0.0000
   32TTP    C33  643  -0.271   0.306  -2.473  0.0000  0.0000  0.0000
   32TTP    C34  644  -0.267   0.154  -2.486  0.0000  0.0000  0.0000
   32TTP    C35  645  -0.129   0.100  -2.518  0.0000  0.0000  0.0000
   32TTP    C36  646  -0.068   0.017  -2.408  0.0000  0.0000  0.0000
   32TTP    C37  647   0.072  -0.039  -2.438  0.0000  0.0000  0.0000
   32TTP    C38  648   0.156   0.046  -2.531  0.0000  0.0000  0.0000
   32TTP    C39  649   0.078   0.156  -2.601  0.0000  0.0000  0.0000
   32TTP    C40  650   0.161   0.277  -2.635  0.0000  0.0000  0.0000
   32TTP    C41  651   0.112   0.406  -2.574  0.0000  0.0000  0.0000
   32TTP    C42  652  -0.011   0.394  -2.486  0.0000  0.0000  0.0000
   33TTP     S1  653  -0.498   0.951  -1.458  0.0000  0.0000  0.0000
   33TTP     S5  654  -0.552   1.339  -1.613  0.0000  0.0000  0.0000
   33TTP     C1  655  -0.561   1.351  -1.440  0.0000  0.0000  0.0000
   33TTP     C2  656  -0.542   1.225  -1.375  0.0000  0.0000  0.0000
   33TTP     C3  657  -0.523   1.127  -1.473  0.0000  0.0000  0.0000
   33TTP     C4  658  -0.494   0.940  -1.626  0.0000  0.0000  0.0000
   33TTP    C17  659  -0.507   1.064  -1.693  0.0000  0.0000  0.0000
   33TTP    C18  660  -0.525   1.170  -1.603  0.0000  0.0000  0.0000
   33TTP    C32  661  -0.562   1.197  -1.224  0.0000  0.0000  0.0000
   33TTP    C33  662  -0.440   1.173  -1.137  0.0000  0.0000  0.0000
   33TTP    C34  663  -0.453   1.138  -0.986  0.0000  0.0000  0.0000
   33TTP    C35  664  -0.437   0.991  -0.953  0.0000  0.0000  0.0000
   33TTP    C36  665  -0.431   0.941  -0.808  0.0000  0.0000  0.0000
   33TTP    C37  666  -0.416   0.791  -0.793  0.0000  0.0000  0.0000
   33TTP    C38  667  -0.291   0.747  -0.720  0.0000  0.0000  0.0000
   33TTP    C39  668  -0.196   0.660  -0.798  0.0000  0.0000  0.0000
   33TTP    C40  669  -0.076   0.621  -0.716  0.0000  0.0000  0.0000
   33TTP    C41  670   0.024   0.534  -0.787  0.0000  0.0000  0.0000
   33TTP    C42  671   0.146   0.494  -0.706  0.0000  0.0000  0.0000
   34FIC     F1  672  -0.358   1.119  -3.178  0.0000  0.0000  0.0000
   34FIC     F2  673  -0.329   0.910  -3.339  0.0000  0.0000  0.0000
   34FIC     O1  674  -0.421   0.888  -2.701  0.0000  0.0000  0.0000
   34FIC     N5  675  -0.299   0.441  -3.218  0.0000  0.0000  0.0000
   34FIC     N6  676  -0.379   0.277  -2.830  0.0000  0.0000  0.0000
   34FIC    C19  677  -0.405   0.583  -2.678  0.0000  0.0000  0.0000
   34FIC    C20  678  -0.398   0.665  -2.787  0.0000  0.0000  0.0000
   34FIC    C21  679  -0.400   0.805  -2.794  0.0000  0.0000  0.0000
   34FIC    C22  680  -0.380   0.857  -2.934  0.0000  0.0000  0.0000
   34FIC    C23  681  -0.381   0.983  -2.993  0.0000  0.0000  0.0000
   34FIC    C24  682  -0.362   0.995  -3.130  0.0000  0.0000  0.0000
   34FIC    C25  683  -0.342   0.882  -3.208  0.0000  0.0000  0.0000
   34FIC    C26  684  -0.341   0.756  -3.149  0.0000  0.0000  0.0000
   34FIC    C27  685  -0.360   0.744  -3.012  0.0000  0.0000  0.0000
   34FIC    C28  686  -0.371   0.620  -2.937  0.0000  0.0000  0.0000
   34FIC    C29  687  -0.353   0.493  -2.970  0.0000  0.0000  0.0000
   34FIC    C30  688  -0.322   0.464  -3.105  0.0000  0.0000  0.0000
   34FIC    C31  689  -0.365   0.375  -2.895  0.0000  0.0000  0.0000
   35FIC     F1  690  -0.693   2.121  -1.669  0.0000  0.0000  0.0000
   35FIC     F2  691  -0.719   2.183  -1.419  0.0000  0.0000  0.0000
   35FIC     O1  692  -0.592   1.598  -1.634  0.0000  0.0000  0.0000
   35FIC     N5  693  -0.670   1.910  -1.017  0.0000  0.0000  0.0000
   35FIC     N6  694  -0.600   1.493  -1.028  0.0000  0.0000  0.0000
   35FIC    C19  695  -0.583   1.468  -1.366  0.0000  0.0000  0.0000
   35FIC    C20  696  -0.601   1.602  -1.393  0.0000  0.0000  0.0000
   35FIC    C21  697  -0.608   1.651  -1.521  0.0000  0.0000  0.0000
   35FIC    C22  698  -0.632   1.800  -1.521  0.0000  0.0000  0.0000
   35FIC    C23  699  -0.652   1.896  -1.618  0.0000  0.0000  0.0000
   35FIC    C24  700  -0.677   2.023  -1.575  0.0000  0.0000  0.0000
   35FIC    C25  701  -0.694   2.055  -1.442  0.0000  0.0000  0.0000
   35FIC    C26  702  -0.675   1.969  -1.346  0.0000  0.0000  0.0000
   35FIC    C27  703  -0.647   1.838  -1.386  0.0000  0.0000  0.0000
   35FIC    C28  704  -0.627   1.713  -1.306  0.0000  0.0000  0.0000
   35FIC    C29  705  -0.630   1.704  -1.168  0.0000  0.0000  0.0000
   35FIC    C30  706  -0.652   1.812  -1.087  0.0000  0.0000  0.0000
   35FIC    C31  707  -0.616   1.589  -1.096  0.0000  0.0000  0.0000
   36BTD     S2  708  -0.162   0.945  -1.659  0.0000  0.0000  0.0000
   36BTD     N1  709  -0.154   0.926  -1.827  0.0000  0.0000  0.0000
   36BTD     N2  710  -0.139   0.792  -1.613  0.0000  0.0000  0.0000
   36BTD     N3  711  -0.088   0.371  -1.820  0.0000  0.0000  0.0000
   36BTD     N4  712  -0.075   0.559  -2.112  0.0000  0.0000  0.0000
   36BTD     C5  713  -0.117   0.725  -1.966  0.0000  0.0000  0.0000
   36BTD     C6  714  -0.138   0.785  -1.845  0.0000  0.0000  0.0000
   36BTD     C7  715  -0.121   0.723  -1.725  0.0000  0.0000  0.0000
   36BTD     C8  716  -0.104   0.582  -1.733  0.0000  0.0000  0.0000
   36BTD    C15  717  -0.095   0.505  -1.851  0.0000  0.0000  0.0000
   36BTD    C16  718  -0.094   0.590  -1.976  0.0000  0.0000  0.0000
   36BTD    C43  719  -0.028   0.433  -2.172  0.0000  0.0000  0.0000
   36BTD    C44  720   0.124   0.406  -2.160  0.0000  0.0000  0.0000
   36BTD    C45  721   0.144   0.272  -2.239  0.0000  0.0000  0.0000
   36BTD    C46  722   0.250   0.183  -2.171  0.0000  0.0000  0.0000
   36BTD    C47  723   0.200   0.522  -2.221  0.0000  0.0000  0.0000
   36BTD    C48  724   0.353   0.514  -2.215  0.0000  0.0000  0.0000
   36BTD    C49  725   0.451   0.618  -2.269  0.0000  0.0000  0.0000
   36BTD    C50  726   0.363   0.743  -2.236  0.0000  0.0000  0.0000
   36BTD    C75  727  -0.054   0.254  -1.904  0.0000  0.0000  0.0000
   36BTD    C76  728  -0.165   0.152  -1.931  0.0000  0.0000  0.0000
   36BTD    C77  729  -0.287   0.218  -1.989  0.0000  0.0000  0.0000
   36BTD    C78  730  -0.413   0.127  -1.999  0.0000  0.0000  0.0000
   36BTD    C79  731  -0.123   0.048  -2.037  0.0000  0.0000  0.0000
   36BTD    C80  732  -0.040  -0.059  -1.965  0.0000  0.0000  0.0000
   36BTD    C81  733  -0.004  -0.175  -2.063  0.0000  0.0000  0.0000
   36BTD    C82  734   0.109  -0.255  -1.994  0.0000  0.0000  0.0000
   37TTP     S1  735  -0.137   0.929  -2.177  0.0000  0.0000  0.0000
   37TTP     S5  736  -0.067   0.636  -2.470  0.0000  0.0000  0.0000
   37TTP     C1  737  -0.088   0.789  -2.547  0.0000  0.0000  0.0000
   37TTP     C2  738  -0.107   0.897  -2.458  0.0000  0.0000  0.0000
   37TTP     C3  739  -0.112   0.851  -2.323  0.0000  0.0000  0.0000
   37TTP     C4  740  -0.113   0.773  -2.093  0.0000  0.0000  0.0000
   37TTP    C17  741  -0.093   0.679  -2.186  0.0000  0.0000  0.0000
   37TTP    C18  742  -0.088   0.713  -2.322  0.0000  0.0000  0.0000
   37TTP    C32  743  -0.129   1.049  -2.494  0.0000  0.0000  0.0000
   37TTP    C33  744  -0.206   1.132  -2.392  0.0000  0.0000  0.0000
   37TTP    C34  745  -0.226   1.274  -2.446  0.0000  0.0000  0.0000
   37TTP    C35  746  -0.280   1.367  -2.338  0.0000  0.0000  0.0000
   37TTP    C36  747  -0.324   1.506  -2.388  0.0000  0.0000  0.0000
   37TTP    C37  748  -0.379   1.601  -2.286  0.0000  0.0000  0.0000
   37TTP    C38  749  -0.300   1.735  -2.272  0.0000  0.0000  0.0000
   37TTP    C39  750  -0.301   1.825  -2.396  0.0000  0.0000  0.0000
   37TTP    C40  751  -0.225   1.955  -2.381  0.0000  0.0000  0.0000
   37TTP    C41  752  -0.275   2.044  -2.271  0.0000  0.0000  0.0000
   37TTP    C42  753  -0.269   1.981  -2.128  0.0000  0.0000  0.0000
   38TTP     S1  754  -0.118   0.481  -1.454  0.0000  0.0000  0.0000
   38TTP     S5  755  -0.080   0.083  -1.587  0.0000  0.0000  0.0000
   38TTP     C1  756  -0.089   0.084  -1.413  0.0000  0.0000  0.0000
   38TTP     C2  757  -0.098   0.212  -1.359  0.0000  0.0000  0.0000
   38TTP     C3  758  -0.106   0.308  -1.459  0.0000  0.0000  0.0000
   38TTP     C4  759  -0.108   0.489  -1.629  0.0000  0.0000  0.0000
   38TTP    C17  760  -0.100   0.363  -1.681  0.0000  0.0000  0.0000
   38TTP    C18  761  -0.096   0.250  -1.586  0.0000  0.0000  0.0000
   38TTP    C32  762  -0.102   0.249  -1.211  0.0000  0.0000  0.0000
   38TTP    C33  763  -0.249   0.255  -1.157  0.0000  0.0000  0.0000
   38TTP    C34  764  -0.263   0.332  -1.024  0.0000  0.0000  0.0000
   38TTP    C35  765  -0.411   0.369  -0.985  0.0000  0.0000  0.0000
   38TTP    C36  766  -0.441   0.368  -0.837  0.0000  0.0000  0.0000
   38TTP    C37  767  -0.484   0.502  -0.783  0.0000  0.0000  0.0000
   38TTP    C38  768  -0.499   0.609  -0.888  0.0000  0.0000  0.0000
   38TTP    C39  769  -0.439   0.574  -1.022  0.0000  0.0000  0.0000
   38TTP    C40  770  -0.452   0.679  -1.127  0.0000  0.0000  0.0000
   38TTP    C41  771  -0.392   0.644  -1.260  0.0000  0.0000  0.0000
   38TTP    C42  772  -0.405   0.748  -1.366  0.0000  0.0000  0.0000
   39FIC     F1  773   0.035   0.288  -3.183  0.0000  0.0000  0.0000
   39FIC     F2  774   0.052   0.503  -3.344  0.0000  0.0000  0.0000
   39FIC     O1  775  -0.054   0.515  -2.712  0.0000  0.0000  0.0000
   39FIC     N5  776  -0.002   0.980  -3.232  0.0000  0.0000  0.0000
   39FIC     N6  777  -0.057   1.123  -2.838  0.0000  0.0000  0.0000
   39FIC    C19  778  -0.076   0.812  -2.687  0.0000  0.0000  0.0000
   39FIC    C20  779  -0.050   0.745  -2.801  0.0000  0.0000  0.0000
   39FIC    C21  780  -0.045   0.602  -2.797  0.0000  0.0000  0.0000
   39FIC    C22  781  -0.022   0.548  -2.938  0.0000  0.0000  0.0000
   39FIC    C23  782  -0.004   0.420  -2.990  0.0000  0.0000  0.0000
   39FIC    C24  783   0.022   0.403  -3.125  0.0000  0.0000  0.0000
   39FIC    C25  784   0.030   0.514  -3.209  0.0000  0.0000  0.0000
   39FIC    C26  785   0.012   0.641  -3.157  0.0000  0.0000  0.0000
   39FIC    C27  786  -0.014   0.658  -3.021  0.0000  0.0000  0.0000
   39FIC    C28  787  -0.030   0.785  -2.943  0.0000  0.0000  0.0000
   39FIC    C29  788  -0.030   0.909  -2.974  0.0000  0.0000  0.0000
   39FIC    C30  789  -0.014   0.937  -3.133  0.0000  0.0000  0.0000
   39FIC    C31  790  -0.043   1.027  -2.897  0.0000  0.0000  0.0000
   40FIC     F1  791   0.029  -0.705  -1.590  0.0000  0.0000  0.0000
   40FIC     F2  792   0.045  -0.754  -1.320  0.0000  0.0000  0.0000
   40FIC     O1  793  -0.070  -0.185  -1.592  0.0000  0.0000  0.0000
   40FIC     N5  794  -0.016  -0.440  -0.941  0.0000  0.0000  0.0000
   40FIC     N6  795  -0.080  -0.032  -0.983  0.0000  0.0000  0.0000
   40FIC    C19  796  -0.073  -0.033  -1.329  0.0000  0.0000  0.0000
   40FIC    C20  797  -0.060  -0.172  -1.348  0.0000  0.0000  0.0000
   40FIC    C21  798  -0.057  -0.224  -1.480  0.0000  0.0000  0.0000
   40FIC    C22  799  -0.027  -0.375  -1.452  0.0000  0.0000  0.0000
   40FIC    C23  800  -0.011  -0.479  -1.543  0.0000  0.0000  0.0000
   40FIC    C24  801   0.013  -0.608  -1.497  0.0000  0.0000  0.0000
   40FIC    C25  802   0.021  -0.633  -1.360  0.0000  0.0000  0.0000
   40FIC    C26  803   0.004  -0.529  -1.269  0.0000  0.0000  0.0000
   40FIC    C27  804  -0.020  -0.400  -1.315  0.0000  0.0000  0.0000
   40FIC    C28  805  -0.043  -0.272  -1.241  0.0000  0.0000  0.0000
   40FIC    C29  806  -0.046  -0.249  -1.119  0.0000  0.0000  0.0000
   40FIC    C30  807  -0.025  -0.378  -1.036  0.0000  0.0000  0.0000
   40FIC    C31  808  -0.066  -0.131  -1.042  0.0000  0.0000  0.0000
   41BTD     S2  809  -0.231   5.380   1.649  0.0000  0.0000  0.0000
   41BTD     N1  810  -0.234   5.366   1.810  0.0000  0.0000  0.0000
   41BTD     N2  811  -0.214   5.227   1.603  0.0000  0.0000  0.0000
   41BTD     N3  812  -0.165   4.814   1.829  0.0000  0.0000  0.0000
   41BTD     N4  813  -0.191   4.999   2.112  0.0000  0.0000  0.0000
   41BTD     C5  814  -0.209   5.172   1.959  0.0000  0.0000  0.0000
   41BTD     C6  815  -0.215   5.231   1.834  0.0000  0.0000  0.0000
   41BTD     C7  816  -0.205   5.153   1.719  0.0000  0.0000  0.0000
   41BTD     C8  817  -0.189   5.015   1.731  0.0000  0.0000  0.0000
   41BTD    C15  818  -0.183   4.956   1.856  0.0000  0.0000  0.0000
   41BTD    C16  819  -0.193   5.035   1.971  0.0000  0.0000  0.0000
   41BTD    C43  820  -0.164   4.876   2.193  0.0000  0.0000  0.0000
   41BTD    C44  821  -0.029   4.859   2.262  0.0000  0.0000  0.0000
   41BTD    C45  822  -0.008   4.723   2.331  0.0000  0.0000  0.0000
   41BTD    C46  823  -0.111   4.722   2.448  0.0000  0.0000  0.0000
   41BTD    C47  824   0.079   4.890   2.160  0.0000  0.0000  0.0000
   41BTD    C48  825   0.213   4.892   2.239  0.0000  0.0000  0.0000
   41BTD    C49  826   0.321   4.921   2.136  0.0000  0.0000  0.0000
   41BTD    C50  827   0.457   4.898   2.205  0.0000  0.0000  0.0000
   41BTD    C75  828  -0.147   4.701   1.914  0.0000  0.0000  0.0000
   41BTD    C76  829  -0.263   4.608   1.948  0.0000  0.0000  0.0000
   41BTD    C77  830  -0.399   4.662   1.984  0.0000  0.0000  0.0000
   41BTD    C78  831  -0.519   4.573   1.943  0.0000  0.0000  0.0000
   41BTD    C79  832  -0.225   4.487   2.037  0.0000  0.0000  0.0000
   41BTD    C80  833  -0.130   4.377   1.988  0.0000  0.0000  0.0000
   41BTD    C81  834  -0.070   4.252   2.060  0.0000  0.0000  0.0000
   41BTD    C82  835  -0.088   4.144   1.974  0.0000  0.0000  0.0000
   42TTP     S1  836  -0.242   5.379   2.164  0.0000  0.0000  0.0000
   42TTP     S5  837  -0.227   5.089   2.470  0.0000  0.0000  0.0000
   42TTP     C1  838  -0.252   5.253   2.535  0.0000  0.0000  0.0000
   42TTP     C2  839  -0.256   5.358   2.438  0.0000  0.0000  0.0000
   42TTP     C3  840  -0.242   5.295   2.324  0.0000  0.0000  0.0000
   42TTP     C4  841  -0.220   5.224   2.094  0.0000  0.0000  0.0000
   42TTP    C17  842  -0.207   5.122   2.179  0.0000  0.0000  0.0000
   42TTP    C18  843  -0.222   5.167   2.312  0.0000  0.0000  0.0000
   42TTP    C32  844  -0.258   5.505   2.481  0.0000  0.0000  0.0000
   42TTP    C33  845  -0.404   5.552   2.473  0.0000  0.0000  0.0000
   42TTP    C34  846  -0.408   5.704   2.486  0.0000  0.0000  0.0000
   42TTP    C35  847  -0.546   5.758   2.518  0.0000  0.0000  0.0000
   42TTP    C36  848  -0.607   5.841   2.408  0.0000  0.0000  0.0000
   42TTP    C37  849  -0.747   5.897   2.438  0.0000  0.0000  0.0000
   42TTP    C38  850  -0.831   5.812   2.531  0.0000  0.0000  0.0000
   42TTP    C39  851  -0.753   5.702   2.601  0.0000  0.0000  0.0000
   42TTP    C40  852  -0.836   5.581   2.635  0.0000  0.0000  0.0000
   42TTP    C41  853  -0.787   5.452   2.574  0.0000  0.0000  0.0000
   42TTP    C42  854  -0.664   5.464   2.486  0.0000  0.0000  0.0000
   43TTP     S1  855  -0.177   4.907   1.458  0.0000  0.0000  0.0000
   43TTP     S5  856  -0.123   4.519   1.613  0.0000  0.0000  0.0000
   43TTP     C1  857  -0.114   4.507   1.440  0.0000  0.0000  0.0000
   43TTP     C2  858  -0.133   4.633   1.375  0.0000  0.0000  0.0000
   43TTP     C3  859  -0.152   4.731   1.473  0.0000  0.0000  0.0000
   43TTP     C4  860  -0.181   4.918   1.626  0.0000  0.0000  0.0000
   43TTP    C17  861  -0.168   4.794   1.693  0.0000  0.0000  0.0000
   43TTP    C18  862  -0.150   4.688   1.603  0.0000  0.0000  0.0000
   43TTP    C32  863  -0.113   4.661   1.224  0.0000  0.0000  0.0000
   43TTP    C33  864  -0.235   4.685   1.137  0.0000  0.0000  0.0000
   43TTP    C34  865  -0.222   4.720   0.986  0.0000  0.0000  0.0000
   43TTP    C35  866  -0.238   4.867   0.953  0.0000  0.0000  0.0000
   43TTP    C36  867  -0.244   4.917   0.808  0.0000  0.0000  0.0000
   43TTP    C37  868  -0.259   5.067   0.793  0.0000  0.0000  0.0000
   43TTP    C38  869  -0.384   5.111   0.720  0.0000  0.0000  0.0000
   43TTP    C39  870  -0.479   5.198   0.798  0.0000  0.0000  0.0000
   43TTP    C40  871  -0.599   5.237   0.716  0.0000  0.0000  0.0000
   43TTP    C41  872  -0.699   5.324   0.787  0.0000  0.0000  0.0000
   43TTP    C42  873  -0.821   5.364   0.706  0.0000  0.0000  0.0000
   44FIC     F1  874  -0.317   4.739   3.178  0.0000  0.0000  0.0000
   44FIC     F2  875  -0.346   4.948   3.339  0.0000  0.0000  0.0000
   44FIC     O1  876  -0.254   4.970   2.701  0.0000  0.0000  0.0000
   44FIC     N5  877  -0.375   5.417   3.218  0.0000  0.0000  0.0000
   44FIC     N6  878  -0.296   5.581   2.830  0.0000  0.0000  0.0000
   44FIC    C19  879  -0.270   5.275   2.678  0.0000  0.0000  0.0000
   44FIC    C20  880  -0.277   5.193   2.787  0.0000  0.0000  0.0000
   44FIC    C21  881  -0.275   5.053   2.794  0.0000  0.0000  0.0000
   44FIC    C22  882  -0.294   5.001   2.934  0.0000  0.0000  0.0000
   44FIC    C23  883  -0.294   4.875   2.993  0.0000  0.0000  0.0000
   44FIC    C24  884  -0.313   4.863   3.130  0.0000  0.0000  0.0000
   44FIC    C25  885  -0.333   4.976   3.208  0.0000  0.0000  0.0000
   44FIC    C26  886  -0.334   5.102   3.149  0.0000  0.0000  0.0000
   44FIC    C27  887  -0.315   5.114   3.012  0.0000  0.0000  0.0000
   44FIC    C28  888  -0.304   5.238   2.937  0.0000  0.0000  0.0000
   44FIC    C29  889  -0.322   5.365   2.970  0.0000  0.0000  0.0000
   44FIC    C30  890  -0.353   5.394   3.105  0.0000  0.0000  0.0000
   44FIC    C31  891  -0.310   5.483   2.895  0.0000  0.0000  0.0000
   45FIC     F1  892   0.019   3.737   1.669  0.0000  0.0000  0.0000
   45FIC     F2  893   0.044   3.675   1.419  0.0000  0.0000  0.0000
   45FIC     O1  894  -0.083   4.260   1.634  0.0000  0.0000  0.0000
   45FIC     N5  895  -0.005   3.948   1.017  0.0000  0.0000  0.0000
   45FIC     N6  896  -0.074   4.365   1.028  0.0000  0.0000  0.0000
   45FIC    C19  897  -0.092   4.390   1.366  0.0000  0.0000  0.0000
   45FIC    C20  898  -0.074   4.256   1.393  0.0000  0.0000  0.0000
   45FIC    C21  899  -0.067   4.207   1.521  0.0000  0.0000  0.0000
   45FIC    C22  900  -0.043   4.058   1.521  0.0000  0.0000  0.0000
   45FIC    C23  901  -0.023   3.962   1.618  0.0000  0.0000  0.0000
   45FIC    C24  902   0.002   3.834   1.575  0.0000  0.0000  0.0000
   45FIC    C25  903   0.019   3.803   1.442  0.0000  0.0000  0.0000
   45FIC    C26  904   0.000   3.889   1.346  0.0000  0.0000  0.0000
   45FIC    C27  905  -0.028   4.020   1.386  0.0000  0.0000  0.0000
   45FIC    C28  906  -0.048   4.145   1.306  0.0000  0.0000  0.0000
   45FIC    C29  907  -0.045   4.154   1.168  0.0000  0.0000  0.0000
   45FIC    C30  908  -0.023   4.046   1.087  0.0000  0.0000  0.0000
   45FIC    C31  909  -0.059   4.269   1.096  0.0000  0.0000  0.0000
   46BTD     S2  910  -0.513   4.913   1.659  0.0000  0.0000  0.0000
   46BTD     N1  911  -0.521   4.932   1.827  0.0000  0.0000  0.0000
   46BTD     N2  912  -0.536   5.066   1.613  0.0000  0.0000  0.0000
   46BTD     N3  913  -0.587   5.487   1.820  0.0000  0.0000  0.0000
   46BTD     N4  914  -0.600   5.299   2.112  0.0000  0.0000  0.0000
   46BTD     C5  915  -0.558   5.133   1.966  0.0000  0.0000  0.0000
   46BTD     C6  916  -0.537   5.073   1.845  0.0000  0.0000  0.0000
   46BTD     C7  917  -0.554   5.135   1.725  0.0000  0.0000  0.0000
   46BTD     C8  918  -0.571   5.276   1.733  0.0000  0.0000  0.0000
   46BTD    C15  919  -0.580   5.353   1.851  0.0000  0.0000  0.0000
   46BTD    C16  920  -0.581   5.268   1.976  0.0000  0.0000  0.0000
   46BTD    C43  921  -0.647   5.425   2.172  0.0000  0.0000  0.0000
   46BTD    C44  922  -0.799   5.452   2.160  0.0000  0.0000  0.0000
   46BTD    C45  923  -0.819   5.586   2.239  0.0000  0.0000  0.0000
   46BTD    C46  924  -0.925   5.675   2.171  0.0000  0.0000  0.0000
   46BTD    C47  925  -0.875   5.336   2.221  0.0000  0.0000  0.0000
   46BTD    C48  926  -1.028   5.344   2.215  0.0000  0.0000  0.0000
   46BTD    C49  927  -1.126   5.240   2.269  0.0000  0.0000  0.0000
   46BTD    C50  928  -1.038   5.115   2.236  0.0000  0.0000  0.0000
   46BTD    C75  929  -0.621   5.604   1.904  0.0000  0.0000  0.0000
   46BTD    C76  930  -0.509   5.706   1.931  0.0000  0.0000  0.0000
   46BTD    C77  931  -0.388   5.640   1.989  0.0000  0.0000  0.0000
   46BTD    C78  932  -0.262   5.731   1.999  0.0000  0.0000  0.0000
   46BTD    C79  933  -0.552   5.810   2.037  0.0000  0.0000  0.0000
   46BTD    C80  934  -0.635   5.917   1.965  0.0000  0.0000  0.0000
   46BTD    C81  935  -0.671   6.033   2.063  0.0000  0.0000  0.0000
   46BTD    C82  936  -0.784   6.113   1.994  0.0000  0.0000  0.0000
   47TTP     S1  937  -0.538   4.929   2.177  0.0000  0.0000  0.0000
   47TTP     S5  938  -0.608   5.222   2.470  0.0000  0.0000  0.0000
   47TTP     C1  939  -0.587   5.069   2.547  0.0000  0.0000  0.0000
   47TTP     C2  940  -0.568   4.961   2.458  0.0000  0.0000  0.0000
   47TTP     C3  941  -0.563   5.007   2.323  0.0000  0.0000  0.0000
   47TTP     C4  942  -0.562   5.085   2.093  0.0000  0.0000  0.0000
   47TTP    C17  943  -0.582   5.179   2.186  0.0000  0.0000  0.0000
   47TTP    C18  944  -0.587   5.145   2.322  0.0000  0.0000  0.0000
   47TTP    C32  945  -0.546   4.809   2.494  0.0000  0.0000  0.0000
   47TTP    C33  946  -0.469   4.726   2.392  0.0000  0.0000  0.0000
   47TTP    C34  947  -0.449   4.584   2.446  0.0000  0.0000  0.0000
   47TTP    C35  948  -0.395   4.491   2.338  0.0000  0.0000  0.0000
   47TTP    C36  949  -0.351   4.352   2.388  0.0000  0.0000  0.0000
   47TTP    C37  950  -0.296   4.257   2.286  0.0000  0.0000  0.0000
   47TTP    C38  951  -0.375   4.123   2.272  0.0000  0.0000  0.0000
   47TTP    C39  952  -0.373   4.033   2.396  0.0000  0.0000  0.0000
   47TTP    C40  953  -0.450   3.903   2.381  0.0000  0.0000  0.0000
   47TTP    C41  954  -0.400   3.814   2.271  0.0000  0.0000  0.0000
   47TTP    C42  955  -0.406   3.877   2.128  0.0000  0.0000  0.0000
   48TTP     S1  956  -0.557   5.377   1.454  0.0000  0.0000  0.0000
   48TTP     S5  957  -0.595   5.775   1.587  0.0000  0.0000  0.0000
   48TTP     C1  958  -0.586   5.774   1.413  0.0000  0.0000  0.0000
   48TTP     C2  959  -0.577   5.646   1.359  0.0000  0.0000  0.0000
   48TTP     C3  960  -0.569   5.550   1.459  0.0000  0.0000  0.0000
   48TTP     C4  961  -0.567   5.369   1.629  0.0000  0.0000  0.0000
   48TTP    C17  962  -0.575   5.495   1.681  0.0000  0.0000  0.0000
   48TTP    C18  963  -0.579   5.608   1.586  0.0000  0.0000  0.0000
   48TTP    C32  964  -0.573   5.609   1.211  0.0000  0.0000  0.0000
   48TTP    C33  965  -0.426   5.603   1.157  0.0000  0.0000  0.0000
   48TTP    C34  966  -0.412   5.526   1.024  0.0000  0.0000  0.0000
   48TTP    C35  967  -0.264   5.489   0.985  0.0000  0.0000  0.0000
   48TTP    C36  968  -0.234   5.490   0.837  0.0000  0.0000  0.0000
   48TTP    C37  969  -0.191   5.356   0.783  0.0000  0.0000  0.0000
   48TTP    C38  970  -0.176   5.249   0.888  0.0000  0.0000  0.0000
   48TTP    C39  971  -0.236   5.284   1.022  0.0000  0.0000  0.0000
   48TTP    C40  972  -0.223   5.179   1.127  0.0000  0.0000  0.0000
   48TTP    C41  973  -0.283   5.214   1.260  0.0000  0.0000  0.0000
   48TTP    C42  974  -0.270   5.110   1.366  0.0000  0.0000  0.0000
   49FIC     F1  975  -0.710   5.570   3.183  0.0000  0.0000  0.0000
   49FIC     F2  976  -0.727   5.355   3.344  0.0000  0.0000  0.0000
   49FIC     O1  977  -0.621   5.343   2.712  0.0000  0.0000  0.0000
   49FIC     N5  978  -0.673   4.878   3.232  0.0000  0.0000  0.0000
   49FIC     N6  979  -0.618   4.735   2.838  0.0000  0.0000  0.0000
   49FIC    C19  980  -0.599   5.046   2.687  0.0000  0.0000  0.0000
   49FIC    C20  981  -0.625   5.113   2.801  0.0000  0.0000  0.0000
   49FIC    C21  982  -0.630   5.256   2.797  0.0000  0.0000  0.0000
   49FIC    C22  983  -0.653   5.310   2.938  0.0000  0.0000  0.0000
   49FIC    C23  984  -0.671   5.438   2.990  0.0000  0.0000  0.0000
   49FIC    C24  985  -0.697   5.455   3.125  0.0000  0.0000  0.0000
   49FIC    C25  986  -0.705   5.344   3.209  0.0000  0.0000  0.0000
   49FIC    C26  987  -0.687   5.217   3.157  0.0000  0.0000  0.0000
   49FIC    C27  988  -0.661   5.200   3.021  0.0000  0.0000  0.0000
   49FIC    C28  989  -0.645   5.073   2.943  0.0000  0.0000  0.0000
   49FIC    C29  990  -0.645   4.949   2.974  0.0000  0.0000  0.0000
   49FIC    C30  991  -0.661   4.921   3.133  0.0000  0.0000  0.0000
   49FIC    C31  992  -0.632   4.831   2.897  0.0000  0.0000  0.0000
   50FIC     F1  993  -0.704   6.563   1.590  0.0000  0.0000  0.0000
   50FIC     F2  994  -0.720   6.612   1.320  0.0000  0.0000  0.0000
   50FIC     O1  995  -0.605   6.043   1.592  0.0000  0.0000  0.0000
   50FIC     N5  996  -0.659   6.298   0.941  0.0000  0.0000  0.0000
   50FIC     N6  997  -0.595   5.890   0.983  0.0000  0.0000  0.0000
   50FIC    C19  998  -0.602   5.891   1.329  0.0000  0.0000  0.0000
   50FIC    C20  999  -0.615   6.030   1.348  0.0000  0.0000  0.0000
   50FIC    C21 1000  -0.618   6.082   1.480  0.0000  0.0000  0.0000
   50FIC    C22 1001  -0.648   6.233   1.452  0.0000  0.0000  0.0000
   50FIC    C23 1002  -0.664   6.337   1.543  0.0000  0.0000  0.0000
   50FIC    C24 1003  -0.688   6.466   1.497  0.0000  0.0000  0.0000
   50FIC    C25 1004  -0.696   6.491   1.360  0.0000  0.0000  0.0000
   50FIC    C26 1005  -0.679   6.387   1.269  0.0000  0.0000  0.0000
   50FIC    C27 1006  -0.655   6.258   1.315  0.0000  0.0000  0.0000
   50FIC    C28 1007  -0.632   6.130   1.241  0.0000  0.0000  0.0000
   50FIC    C29 1008  -0.629   6.107   1.119  0.0000  0.0000  0.0000
   50FIC    C30 1009  -0.650   6.236   1.036  0.0000  0.0000  0.0000
   50FIC    C31 1010  -0.609   5.989   1.042  0.0000  0.0000  0.0000
   51BTD     S2 1011  -0.669   2.430  -1.649  0.0000  0.0000  0.0000
   51BTD     N1 1012  -0.666   2.444  -1.810  0.0000  0.0000  0.0000
   51BTD     N2 1013  -0.686   2.583  -1.603  0.0000  0.0000  0.0000
   51BTD     N3 1014  -0.735   2.996  -1.829  0.0000  0.0000  0.0000
   51BTD     N4 1015  -0.709   2.811  -2.112  0.0000  0.0000  0.0000
   51BTD     C5 1016  -0.691   2.638  -1.959  0.0000  0.0000  0.0000
   51BTD     C6 1017  -0.685   2.579  -1.834  0.0000  0.0000  0.0000
   51BTD     C7 1018  -0.695   2.657  -1.719  0.0000  0.0000  0.0000
   51BTD     C8 1019  -0.711   2.795  -1.731  0.0000  0.0000  0.0000
   51BTD    C15 1020  -0.717   2.854  -1.856  0.0000  0.0000  0.0000
   51BTD    C16 1021  -0.707   2.775  -1.971  0.0000  0.0000  0.0000
   51BTD    C43 1022  -0.736   2.934  -2.193  0.0000  0.0000  0.0000
   51BTD    C44 1023  -0.871   2.951  -2.262  0.0000  0.0000  0.0000
   51BTD    C45 1024  -0.892   3.087  -2.331  0.0000  0.0000  0.0000
   51BTD    C46 1025  -0.789   3.088  -2.448  0.0000  0.0000  0.0000
   51BTD    C47 1026  -0.979   2.920  -2.160  0.0000  0.0000  0.0000
   51BTD    C48 1027  -1.113   2.918  -2.239  0.0000  0.0000  0.0000
   51BTD    C49 1028  -1.221   2.889  -2.136  0.0000  0.0000  0.0000
   51BTD    C50 1029  -1.357   2.912  -2.205  0.0000  0.0000  0.0000
   51BTD    C75 1030  -0.753   3.109  -1.914  0.0000  0.0000  0.0000
   51BTD    C76 1031  -0.637   3.202  -1.948  0.0000  0.0000  0.0000
   51BTD    C77 1032  -0.501   3.148  -1.984  0.0000  0.0000  0.0000
   51BTD    C78 1033  -0.381   3.237  -1.943  0.0000  0.0000  0.0000
   51BTD    C79 1034  -0.675   3.323  -2.037  0.0000  0.0000  0.0000
   51BTD    C80 1035  -0.770   3.433  -1.988  0.0000  0.0000  0.0000
   51BTD    C81 1036  -0.830   3.558  -2.060  0.0000  0.0000  0.0000
   51BTD    C82 1037  -0.812   3.666  -1.974  0.0000  0.0000  0.0000
   52TTP     S1 1038  -0.658   2.431  -2.164  0.0000  0.0000  0.0000
   52TTP     S5 1039  -0.673   2.721  -2.470  0.0000  0.0000  0.0000
   52TTP     C1 1040  -0.648   2.557  -2.535  0.0000  0.0000  0.0000
   52TTP     C2 1041  -0.644   2.452  -2.438  0.0000  0.0000  0.0000
   52TTP     C3 1042  -0.658   2.515  -2.324  0.0000  0.0000  0.0000
   52TTP     C4 1043  -0.680   2.586  -2.094  0.0000  0.0000  0.0000
   52TTP    C17 1044  -0.693   2.688  -2.179  0.0000  0.0000  0.0000
   52TTP    C18 1045  -0.678   2.643  -2.312  0.0000  0.0000  0.0000
   52TTP    C32 1046  -0.642   2.305  -2.481  0.0000  0.0000  0.0000
   52TTP    C33 1047  -0.496   2.258  -2.473  0.0000  0.0000  0.0000
   52TTP    C34 1048  -0.492   2.106  -2.486  0.0000  0.0000  0.0000
   52TTP    C35 1049  -0.354   2.052  -2.518  0.0000  0.0000  0.0000
   52TTP    C36 1050  -0.293   1.969  -2.408  0.0000  0.0000  0.0000
   52TTP    C37 1051  -0.153   1.913  -2.438  0.0000  0.0000  0.0000
   52TTP    C38 1052  -0.069   1.998  -2.531  0.0000  0.0000  0.0000
   52TTP    C39 1053  -0.147   2.108  -2.601  0.0000  0.0000  0.0000
   52TTP    C40 1054  -0.064   2.229  -2.635  0.0000  0.0000  0.0000
   52TTP    C41 1055  -0.113   2.358  -2.574  0.0000  0.0000  0.0000
   52TTP    C42 1056  -0.236   2.346  -2.486  0.0000  0.0000  0.0000
   53TTP     S1 1057  -0.723   2.903  -1.458  0.0000  0.0000  0.0000
   53TTP     S5 1058  -0.777   3.291  -1.613  0.0000  0.0000  0.0000
   53TTP     C1 1059  -0.786   3.303  -1.440  0.0000  0.0000  0.0000
   53TTP     C2 1060  -0.767   3.177  -1.375  0.0000  0.0000  0.0000
   53TTP     C3 1061  -0.748   3.079  -1.473  0.0000  0.0000  0.0000
   53TTP     C4 1062  -0.719   2.892  -1.626  0.0000  0.0000  0.0000
   53TTP    C17 1063  -0.732   3.016  -1.693  0.0000  0.0000  0.0000
   53TTP    C18 1064  -0.750   3.122  -1.603  0.0000  0.0000  0.0000
   53TTP    C32 1065  -0.787   3.149  -1.224  0.0000  0.0000  0.0000
   53TTP    C33 1066  -0.665   3.125  -1.137  0.0000  0.0000  0.0000
   53TTP    C34 1067  -0.678   3.090  -0.986  0.0000  0.0000  0.0000
   53TTP    C35 1068  -0.662   2.943  -0.953  0.0000  0.0000  0.0000
   53TTP    C36 1069  -0.656   2.893  -0.808  0.0000  0.0000  0.0000
   53TTP    C37 1070  -0.641   2.743  -0.793  0.0000  0.0000  0.0000
   53TTP    C38 1071  -0.516   2.699  -0.720  0.0000  0.0000  0.0000
   53TTP    C39 1072  -0.421   2.612  -0.798  0.0000  0.0000  0.0000
   53TTP    C40 1073  -0.301   2.573  -0.716  0.0000  0.0000  0.0000
   53TTP    C41 1074  -0.201   2.486  -0.787  0.0000  0.0000  0.0000
   53TTP    C42 1075  -0.079   2.446  -0.706  0.0000  0.0000  0.0000
   54FIC     F1 1076  -0.583   3.071  -3.178  0.0000  0.0000  0.0000
   54FIC     F2 1077  -0.554   2.862  -3.339  0.0000  0.0000  0.0000
   54FIC     O1 1078  -0.646   2.840  -2.701  0.0000  0.0000  0.0000
   54FIC     N5 1079  -0.524   2.393  -3.218  0.0000  0.0000  0.0000
   54FIC     N6 1080  -0.604   2.229  -2.830  0.0000  0.0000  0.0000
   54FIC    C19 1081  -0.630   2.535  -2.678  0.0000  0.0000  0.0000
   54FIC    C20 1082  -0.623   2.617  -2.787  0.0000  0.0000  0.0000
   54FIC    C21 1083  -0.625   2.757  -2.794  0.0000  0.0000  0.0000
   54FIC    C22 1084  -0.605   2.809  -2.934  0.0000  0.0000  0.0000
   54FIC    C23 1085  -0.606   2.935  -2.993  0.0000  0.0000  0.0000
   54FIC    C24 1086  -0.587   2.947  -3.130  0.0000  0.0000  0.0000
   54FIC    C25 1087  -0.567   2.834  -3.208  0.0000  0.0000  0.0000
   54FIC    C26 1088  -0.566   2.708  -3.149  0.0000  0.0000  0.0000
   54FIC    C27 1089  -0.585   2.696  -3.012  0.0000  0.0000  0.0000
   54FIC    C28 1090  -0.596   2.572  -2.937  0.0000  0.0000  0.0000
   54FIC    C29 1091  -0.578   2.445  -2.970  0.0000  0.0000  0.0000
   54FIC    C30 1092  -0.547   2.416  -3.105  0.0000  0.0000  0.0000
   54FIC    C31 1093  -0.590   2.327  -2.895  0.0000  0.0000  0.0000
   55FIC     F1 1094  -0.918   4.073  -1.669  0.0000  0.0000  0.0000
   55FIC     F2 1095  -0.944   4.135  -1.419  0.0000  0.0000  0.0000
   55FIC     O1 1096  -0.817   3.550  -1.634  0.0000  0.0000  0.0000
   55FIC     N5 1097  -0.895   3.862  -1.017  0.0000  0.0000  0.0000
   55FIC     N6 1098  -0.825   3.445  -1.028  0.0000  0.0000  0.0000
   55FIC    C19 1099  -0.808   3.420  -1.366  0.0000  0.0000  0.0000
   55FIC    C20 1100  -0.826   3.554  -1.393  0.0000  0.0000  0.0000
   55FIC    C21 1101  -0.833   3.603  -1.521  0.0000  0.0000  0.0000
   55FIC    C22 1102  -0.857   3.752  -1.521  0.0000  0.0000  0.0000
   55FIC    C23 1103  -0.877   3.848  -1.618  0.0000  0.0000  0.0000
   55FIC    C24 1104  -0.902   3.975  -1.575  0.0000  0.0000  0.0000
   55FIC    C25 1105  -0.919   4.007  -1.442  0.0000  0.0000  0.0000
   55FIC    C26 1106  -0.900   3.921  -1.346  0.0000  0.0000  0.0000
   55FIC    C27 1107  -0.872   3.790  -1.386  0.0000  0.0000  0.0000
   55FIC    C28 1108  -0.852   3.665  -1.306  0.0000  0.0000  0.0000
   55FIC    C29 1109  -0.855   3.656  -1.168  0.0000  0.0000  0.0000
   55FIC    C30 1110  -0.877   3.764  -1.087  0.0000  0.0000  0.0000
   55FIC    C31 1111  -0.841   3.541  -1.096  0.0000  0.0000  0.0000
   56BTD     S2 1112  -0.387   2.897  -1.659  0.0000  0.0000  0.0000
   56BTD     N1 1113  -0.379   2.878  -1.827  0.0000  0.0000  0.0000
   56BTD     N2 1114  -0.364   2.744  -1.613  0.0000  0.0000  0.0000
   56BTD     N3 1115  -0.313   2.323  -1.820  0.0000  0.0000  0.0000
   56BTD     N4 1116  -0.300   2.511  -2.112  0.0000  0.0000  0.0000
   56BTD     C5 1117  -0.342   2.677  -1.966  0.0000  0.0000  0.0000
   56BTD     C6 1118  -0.363   2.737  -1.845  0.0000  0.0000  0.0000
   56BTD     C7 1119  -0.346   2.675  -1.725  0.0000  0.0000  0.0000
   56BTD     C8 1120  -0.329   2.534  -1.733  0.0000  0.0000  0.0000
   56BTD    C15 1121  -0.320   2.457  -1.851  0.0000  0.0000  0.0000
   56BTD    C16 1122  -0.319   2.542  -1.976  0.0000  0.0000  0.0000
   56BTD    C43 1123  -0.253   2.385  -2.172  0.0000  0.0000  0.0000
   56BTD    C44 1124  -0.101   2.358  -2.160  0.0000  0.0000  0.0000
   56BTD    C45 1125  -0.081   2.224  -2.239  0.0000  0.0000  0.0000
   56BTD    C46 1126   0.025   2.135  -2.171  0.0000  0.0000  0.0000
   56BTD    C47 1127  -0.025   2.474  -2.221  0.0000  0.0000  0.0000
   56BTD    C48 1128   0.128   2.466  -2.215  0.0000  0.0000  0.0000
   56BTD    C49 1129   0.226   2.570  -2.269  0.0000  0.0000  0.0000
   56BTD    C50 1130   0.138   2.695  -2.236  0.0000  0.0000  0.0000
   56BTD    C75 1131  -0.279   2.206  -1.904  0.0000  0.0000  0.0000
   56BTD    C76 1132  -0.390   2.104  -1.931  0.0000  0.0000  0.0000
   56BTD    C77 1133  -0.512   2.170  -1.989  0.0000  0.0000  0.0000
   56BTD    C78 1134  -0.638   2.079  -1.999  0.0000  0.0000  0.0000
   56BTD    C79 1135  -0.348   2.000  -2.037  0.0000  0.0000  0.0000
   56BTD    C80 1136  -0.265   1.893  -1.965  0.0000  0.0000  0.0000
   56BTD    C81 1137  -0.229   1.777  -2.063  0.0000  0.0000  0.0000
   56BTD    C82 1138  -0.116   1.697  -1.994  0.0000  0.0000  0.0000
   57TTP     S1 1139  -0.362   2.881  -2.177  0.0000  0.0000  0.0000
   57TTP     S5 1140  -0.292   2.588  -2.470  0.0000  0.0000  0.0000
   57TTP     C1 1141  -0.313   2.741  -2.547  0.0000  0.0000  0.0000
   57TTP     C2 1142  -0.332   2.849  -2.458  0.0000  0.0000  0.0000
   57TTP     C3 1143  -0.337   2.803  -2.323  0.0000  0.0000  0.0000
   57TTP     C4 1144  -0.338   2.725  -2.093  0.0000  0.0000  0.0000
   57TTP    C17 1145  -0.318   2.631  -2.186  0.0000  0.0000  0.0000
   57TTP    C18 1146  -0.313   2.665  -2.322  0.0000  0.0000  0.0000
   57TTP    C32 1147  -0.354   3.001  -2.494  0.0000  0.0000  0.0000
   57TTP    C33 1148  -0.431   3.084  -2.392  0.0000  0.0000  0.0000
   57TTP    C34 1149  -0.451   3.226  -2.446  0.0000  0.0000  0.0000
   57TTP    C35 1150  -0.505   3.319  -2.338  0.0000  0.0000  0.0000
   57TTP    C36 1151  -0.549   3.458  -2.388  0.0000  0.0000  0.0000
   57TTP    C37 1152  -0.604   3.553  -2.286  0.0000  0.0000  0.0000
   57TTP    C38 1153  -0.525   3.687  -2.272  0.0000  0.0000  0.0000
   57TTP    C39 1154  -0.526   3.777  -2.396  0.0000  0.0000  0.0000
   57TTP    C40 1155  -0.450   3.907  -2.381  0.0000  0.0000  0.0000
   57TTP    C41 1156  -0.500   3.996  -2.271  0.0000  0.0000  0.0000
   57TTP    C42 1157  -0.494   3.933  -2.128  0.0000  0.0000  0.0000
   58TTP     S1 1158  -0.343   2.433  -1.454  0.0000  0.0000  0.0000
   58TTP     S5 1159  -0.305   2.035  -1.587  0.0000  0.0000  0.0000
   58TTP     C1 1160  -0.314   2.036  -1.413  0.0000  0.0000  0.0000
   58TTP     C2 1161  -0.323   2.164  -1.359  0.0000  0.0000  0.0000
   58TTP     C3 1162  -0.331   2.260  -1.459  0.0000  0.0000  0.0000
   58TTP     C4 1163  -0.333   2.441  -1.629  0.0000  0.0000  0.0000
   58TTP    C17 1164  -0.325   2.315  -1.681  0.0000  0.0000  0.0000
   58TTP    C18 1165  -0.321   2.202  -1.586  0.0000  0.0000  0.0000
   58TTP    C32 1166  -0.327   2.201  -1.211  0.0000  0.0000  0.0000
   58TTP    C33 1167  -0.474   2.207  -1.157  0.0000  0.0000  0.0000
   58TTP    C34 1168  -0.488   2.284  -1.024  0.0000  0.0000  0.0000
   58TTP    C35 1169  -0.636   2.321  -0.985  0.0000  0.0000  0.0000
   58TTP    C36 1170  -0.666   2.320  -0.837  0.0000  0.0000  0.0000
   58TTP    C37 1171  -0.709   2.454  -0.783  0.0000  0.0000  0.0000
   58TTP    C38 1172  -0.724   2.561  -0.888  0.0000  0.0000  0.0000
   58TTP    C39 1173  -0.664   2.526  -1.022  0.0000  0.0000  0.0000
   58TTP    C40 1174  -0.677   2.631  -1.127  0.0000  0.0000  0.0000
   58TTP    C41 1175  -0.617   2.596  -1.260  0.0000  0.0000  0.0000
   58TTP    C42 1176  -0.630   2.700  -1.366  0.0000  0.0000  0.0000
   59FIC     F1 1177  -0.190   2.240  -3.183  0.0000  0.0000  0.0000
   59FIC     F2 1178  -0.173   2.455  -3.344  0.0000  0.0000  0.0000
   59FIC     O1 1179  -0.279   2.467  -2.712  0.0000  0.0000  0.0000
   59FIC     N5 1180  -0.227   2.932  -3.232  0.0000  0.0000  0.0000
   59FIC     N6 1181  -0.282   3.075  -2.838  0.0000  0.0000  0.0000
   59FIC    C19 1182  -0.301   2.764  -2.687  0.0000  0.0000  0.0000
   59FIC    C20 1183  -0.275   2.697  -2.801  0.0000  0.0000  0.0000
   59FIC    C21 1184  -0.270   2.554  -2.797  0.0000  0.0000  0.0000
   59FIC    C22 1185  -0.247   2.500  -2.938  0.0000  0.0000  0.0000
   59FIC    C23 1186  -0.229   2.372  -2.990  0.0000  0.0000  0.0000
   59FIC    C24 1187  -0.203   2.355  -3.125  0.0000  0.0000  0.0000
   59FIC    C25 1188  -0.195   2.466  -3.209  0.0000  0.0000  0.0000
   59FIC    C26 1189  -0.213   2.593  -3.157  0.0000  0.0000  0.0000
   59FIC    C27 1190  -0.239   2.610  -3.021  0.0000  0.0000  0.0000
   59FIC    C28 1191  -0.255   2.737  -2.943  0.0000  0.0000  0.0000
   59FIC    C29 1192  -0.255   2.861  -2.974  0.0000  0.0000  0.0000
   59FIC    C30 1193  -0.239   2.889  -3.133  0.0000  0.0000  0.0000
   59FIC    C31 1194  -0.268   2.979  -2.897  0.0000  0.0000  0.0000
   60FIC     F1 1195  -0.196   1.247  -1.590  0.0000  0.0000  0.0000
   60FIC     F2 1196  -0.180   1.198  -1.320  0.0000  0.0000  0.0000
   60FIC     O1 1197  -0.295   1.767  -1.592  0.0000  0.0000  0.0000
   60FIC     N5 1198  -0.241   1.512  -0.941  0.0000  0.0000  0.0000
   60FIC     N6 1199  -0.305   1.920  -0.983  0.0000  0.0000  0.0000
   60FIC    C19 1200  -0.298   1.919  -1.329  0.0000  0.0000  0.0000
   60FIC    C20 1201  -0.285   1.780  -1.348  0.0000  0.0000  0.0000
   60FIC    C21 1202  -0.282   1.728  -1.480  0.0000  0.0000  0.0000
   60FIC    C22 1203  -0.252   1.577  -1.452  0.0000  0.0000  0.0000
   60FIC    C23 1204  -0.236   1.473  -1.543  0.0000  0.0000  0.0000
   60FIC    C24 1205  -0.212   1.344  -1.497  0.0000  0.0000  0.0000
   60FIC    C25 1206  -0.204   1.319  -1.360  0.0000  0.0000  0.0000
   60FIC    C26 1207  -0.221   1.423  -1.269  0.0000  0.0000  0.0000
   60FIC    C27 1208  -0.245   1.552  -1.315  0.0000  0.0000  0.0000
   60FIC    C28 1209  -0.268   1.680  -1.241  0.0000  0.0000  0.0000
   60FIC    C29 1210  -0.271   1.703  -1.119  0.0000  0.0000  0.0000
   60FIC    C30 1211  -0.250   1.574  -1.036  0.0000  0.0000  0.0000
   60FIC    C31 1212  -0.291   1.821  -1.042  0.0000  0.0000  0.0000
   61BTD     S2 1213  -0.456   7.333   1.649  0.0000  0.0000  0.0000
   61BTD     N1 1214  -0.459   7.319   1.810  0.0000  0.0000  0.0000
   61BTD     N2 1215  -0.439   7.180   1.603  0.0000  0.0000  0.0000
   61BTD     N3 1216  -0.390   6.767   1.829  0.0000  0.0000  0.0000
   61BTD     N4 1217  -0.416   6.952   2.112  0.0000  0.0000  0.0000
   61BTD     C5 1218  -0.434   7.125   1.959  0.0000  0.0000  0.0000
   61BTD     C6 1219  -0.440   7.184   1.834  0.0000  0.0000  0.0000
   61BTD     C7 1220  -0.430   7.106   1.719  0.0000  0.0000  0.0000
   61BTD     C8 1221  -0.414   6.968   1.731  0.0000  0.0000  0.0000
   61BTD    C15 1222  -0.408   6.909   1.856  0.0000  0.0000  0.0000
   61BTD    C16 1223  -0.418   6.988   1.971  0.0000  0.0000  0.0000
   61BTD    C43 1224  -0.389   6.829   2.193  0.0000  0.0000  0.0000
   61BTD    C44 1225  -0.254   6.812   2.262  0.0000  0.0000  0.0000
   61BTD    C45 1226  -0.233   6.676   2.331  0.0000  0.0000  0.0000
   61BTD    C46 1227  -0.336   6.675   2.448  0.0000  0.0000  0.0000
   61BTD    C47 1228  -0.146   6.843   2.160  0.0000  0.0000  0.0000
   61BTD    C48 1229  -0.012   6.845   2.239  0.0000  0.0000  0.0000
   61BTD    C49 1230   0.096   6.874   2.136  0.0000  0.0000  0.0000
   61BTD    C50 1231   0.232   6.851   2.205  0.0000  0.0000  0.0000
   61BTD    C75 1232  -0.372   6.654   1.914  0.0000  0.0000  0.0000
   61BTD    C76 1233  -0.488   6.561   1.948  0.0000  0.0000  0.0000
   61BTD    C77 1234  -0.624   6.615   1.984  0.0000  0.0000  0.0000
   61BTD    C78 1235  -0.744   6.526   1.943  0.0000  0.0000  0.0000
   61BTD    C79 1236  -0.450   6.440   2.037  0.0000  0.0000  0.0000
   61BTD    C80 1237  -0.355   6.330   1.988  0.0000  0.0000  0.0000
   61BTD    C81 1238  -0.295   6.205   2.060  0.0000  0.0000  0.0000
   61BTD    C82 1239  -0.313   6.097   1.974  0.0000  0.0000  0.0000
   62TTP     S1 1240  -0.467   7.332   2.164  0.0000  0.0000  0.0000
   62TTP     S5 1241  -0.452   7.042   2.470  0.0000  0.0000  0.0000
   62TTP     C1 1242  -0.477   7.206   2.535  0.0000  0.0000  0.0000
   62TTP     C2 1243  -0.481   7.311   2.438  0.0000  0.0000  0.0000
   62TTP     C3 1244  -0.467   7.248   2.324  0.0000  0.0000  0.0000
   62TTP     C4 1245  -0.445   7.177   2.094  0.0000  0.0000  0.0000
   62TTP    C17 1246  -0.432   7.075   2.179  0.0000  0.0000  0.0000
   62TTP    C18 1247  -0.447   7.120   2.312  0.0000  0.0000  0.0000
   62TTP    C32 1248  -0.483   7.458   2.481  0.0000  0.0000  0.0000
   62TTP    C33 1249  -0.629   7.505   2.473  0.0000  0.0000  0.0000
   62TTP    C34 1250  -0.633   7.657   2.486  0.0000  0.0000  0.0000
   62TTP    C35 1251  -0.771   7.711   2.518  0.0000  0.0000  0.0000
   62TTP    C36 1252  -0.832   7.794   2.408  0.0000  0.0000  0.0000
   62TTP    C37 1253  -0.972   7.850   2.438  0.0000  0.0000  0.0000
   62TTP    C38 1254  -1.056   7.765   2.531  0.0000  0.0000  0.0000
   62TTP    C39 1255  -0.978   7.655   2.601  0.0000  0.0000  0.0000
   62TTP    C40 1256  -1.061   7.534   2.635  0.0000  0.0000  0.0000
   62TTP    C41 1257  -1.012   7.405   2.574  0.0000  0.0000  0.0000
   62TTP    C42 1258  -0.889   7.417   2.486  0.0000  0.0000  0.0000
   63TTP     S1 1259  -0.402   6.860   1.458  0.0000  0.0000  0.0000
   63TTP     S5 1260  -0.348   6.472   1.613  0.0000  0.0000  0.0000
   63TTP     C1 1261  -0.339   6.460   1.440  0.0000  0.0000  0.0000
   63TTP     C2 1262  -0.358   6.586   1.375  0.0000  0.0000  0.0000
   63TTP     C3 1263  -0.377   6.684   1.473  0.0000  0.0000  0.0000
   63TTP     C4 1264  -0.406   6.871   1.626  0.0000  0.0000  0.0000
   63TTP    C17 1265  -0.393   6.747   1.693  0.0000  0.0000  0.0000
   63TTP    C18 1266  -0.375   6.641   1.603  0.0000  0.0000  0.0000
   63TTP    C32 1267  -0.338   6.614   1.224  0.0000  0.0000  0.0000
   63TTP    C33 1268  -0.460   6.638   1.137  0.0000  0.0000  0.0000
   63TTP    C34 1269  -0.447   6.673   0.986  0.0000  0.0000  0.0000
   63TTP    C35 1270  -0.463   6.820   0.953  0.0000  0.0000  0.0000
   63TTP    C36 1271  -0.469   6.870   0.808  0.0000  0.0000  0.0000
   63TTP    C37 1272  -0.484   7.020   0.793  0.0000  0.0000  0.0000
   63TTP    C38 1273  -0.609   7.064   0.720  0.0000  0.0000  0.0000
   63TTP    C39 1274  -0.704   7.151   0.798  0.0000  0.0000  0.0000
   63TTP    C40 1275  -0.824   7.190   0.716  0.0000  0.0000  0.0000
   63TTP    C41 1276  -0.924   7.277   0.787  0.0000  0.0000  0.0000
   63TTP    C42 1277  -1.046   7.317   0.706  0.0000  0.0000  0.0000
   64FIC     F1 1278  -0.542   6.692   3.178  0.0000  0.0000  0.0000
   64FIC     F2 1279  -0.571   6.901   3.339  0.0000  0.0000  0.0000
   64FIC     O1 1280  -0.479   6.923   2.701  0.0000  0.0000  0.0000
   64FIC     N5 1281  -0.600   7.370   3.218  0.0000  0.0000  0.0000
   64FIC     N6 1282  -0.521   7.534   2.830  0.0000  0.0000  0.0000
   64FIC    C19 1283  -0.495   7.228   2.678  0.0000  0.0000  0.0000
   64FIC    C20 1284  -0.502   7.146   2.787  0.0000  0.0000  0.0000
   64FIC    C21 1285  -0.500   7.006   2.794  0.0000  0.0000  0.0000
   64FIC    C22 1286  -0.519   6.954   2.934  0.0000  0.0000  0.0000
   64FIC    C23 1287  -0.519   6.828   2.993  0.0000  0.0000  0.0000
   64FIC    C24 1288  -0.538   6.816   3.130  0.0000  0.0000  0.0000
   64FIC    C25 1289  -0.558   6.929   3.208  0.0000  0.0000  0.0000
   64FIC    C26 1290  -0.559   7.055   3.149  0.0000  0.0000  0.0000
   64FIC    C27 1291  -0.540   7.067   3.012  0.0000  0.0000  0.0000
   64FIC    C28 1292  -0.529   7.191   2.937  0.0000  0.0000  0.0000
   64FIC    C29 1293  -0.547   7.318   2.970  0.0000  0.0000  0.0000
   64FIC    C30 1294  -0.578   7.347   3.105  0.0000  0.0000  0.0000
   64FIC    C31 1295  -0.535   7.436   2.895  0.0000  0.0000  0.0000
   65FIC     F1 1296  -0.206   5.690   1.669  0.0000  0.0000  0.0000
   65FIC     F2 1297  -0.181   5.628   1.419  0.0000  0.0000  0.0000
   65FIC     O1 1298  -0.308   6.213   1.634  0.0000  0.0000  0.0000
   65FIC     N5 1299  -0.230   5.901   1.017  0.0000  0.0000  0.0000
   65FIC     N6 1300  -0.299   6.318   1.028  0.0000  0.0000  0.0000
   65FIC    C19 1301  -0.317   6.343   1.366  0.0000  0.0000  0.0000
   65FIC    C20 1302  -0.299   6.209   1.393  0.0000  0.0000  0.0000
   65FIC    C21 1303  -0.292   6.160   1.521  0.0000  0.0000  0.0000
   65FIC    C22 1304  -0.268   6.011   1.521  0.0000  0.0000  0.0000
   65FIC    C23 1305  -0.248   5.915   1.618  0.0000  0.0000  0.0000
   65FIC    C24 1306  -0.223   5.787   1.575  0.0000  0.0000  0.0000
   65FIC    C25 1307  -0.206   5.756   1.442  0.0000  0.0000  0.0000
   65FIC    C26 1308  -0.225   5.842   1.346  0.0000  0.0000  0.0000
   65FIC    C27 1309  -0.253   5.973   1.386  0.0000  0.0000  0.0000
   65FIC    C28 1310  -0.273   6.098   1.306  0.0000  0.0000  0.0000
   65FIC    C29 1311  -0.270   6.107   1.168  0.0000  0.0000  0.0000
   65FIC    C30 1312  -0.248   5.999   1.087  0.0000  0.0000  0.0000
   65FIC    C31 1313  -0.284   6.222   1.096  0.0000  0.0000  0.0000
   66BTD     S2 1314  -0.738   6.866   1.659  0.0000  0.0000  0.0000
   66BTD     N1 1315  -0.746   6.885   1.827  0.0000  0.0000  0.0000
   66BTD     N2 1316  -0.761   7.019   1.613  0.0000  0.0000  0.0000
   66BTD     N3 1317  -0.812   7.440   1.820  0.0000  0.0000  0.0000
   66BTD     N4 1318  -0.825   7.252   2.112  0.0000  0.0000  0.0000
   66BTD     C5 1319  -0.783   7.086   1.966  0.0000  0.0000  0.0000
   66BTD     C6 1320  -0.762   7.026   1.845  0.0000  0.0000  0.0000
   66BTD     C7 1321  -0.779   7.088   1.725  0.0000  0.0000  0.0000
   66BTD     C8 1322  -0.796   7.229   1.733  0.0000  0.0000  0.0000
   66BTD    C15 1323  -0.805   7.306   1.851  0.0000  0.0000  0.0000
   66BTD    C16 1324  -0.806   7.221   1.976  0.0000  0.0000  0.0000
   66BTD    C43 1325  -0.872   7.378   2.172  0.0000  0.0000  0.0000
   66BTD    C44 1326  -1.024   7.405   2.160  0.0000  0.0000  0.0000
   66BTD    C45 1327  -1.044   7.539   2.239  0.0000  0.0000  0.0000
   66BTD    C46 1328  -1.150   7.628   2.171  0.0000  0.0000  0.0000
   66BTD    C47 1329  -1.100   7.289   2.221  0.0000  0.0000  0.0000
   66BTD    C48 1330  -1.253   7.297   2.215  0.0000  0.0000  0.0000
   66BTD    C49 1331  -1.351   7.193   2.269  0.0000  0.0000  0.0000
   66BTD    C50 1332  -1.263   7.068   2.236  0.0000  0.0000  0.0000
   66BTD    C75 1333  -0.846   7.557   1.904  0.0000  0.0000  0.0000
   66BTD    C76 1334  -0.734   7.659   1.931  0.0000  0.0000  0.0000
   66BTD    C77 1335  -0.613   7.593   1.989  0.0000  0.0000  0.0000
   66BTD    C78 1336  -0.487   7.684   1.999  0.0000  0.0000  0.0000
   66BTD    C79 1337  -0.777   7.763   2.037  0.0000  0.0000  0.0000
   66BTD    C80 1338  -0.860   7.870   1.965  0.0000  0.0000  0.0000
   66BTD    C81 1339  -0.896   7.986   2.063  0.0000  0.0000  0.0000
   66BTD    C82 1340  -1.009   8.066   1.994  0.0000  0.0000  0.0000
   67TTP     S1 1341  -0.763   6.882   2.177  0.0000  0.0000  0.0000
   67TTP     S5 1342  -0.833   7.175   2.470  0.0000  0.0000  0.0000
   67TTP     C1 1343  -0.812   7.022   2.547  0.0000  0.0000  0.0000
   67TTP     C2 1344  -0.793   6.914   2.458  0.0000  0.0000  0.0000
   67TTP     C3 1345  -0.788   6.960   2.323  0.0000  0.0000  0.0000
   67TTP     C4 1346  -0.787   7.038   2.093  0.0000  0.0000  0.0000
   67TTP    C17 1347  -0.807   7.132   2.186  0.0000  0.0000  0.0000
   67TTP    C18 1348  -0.812   7.098   2.322  0.0000  0.0000  0.0000
   67TTP    C32 1349  -0.771   6.762   2.494  0.0000  0.0000  0.0000
   67TTP    C33 1350  -0.694   6.679   2.392  0.0000  0.0000  0.0000
   67TTP    C34 1351  -0.674   6.537   2.446  0.0000  0.0000  0.0000
   67TTP    C35 1352  -0.620   6.444   2.338  0.0000  0.0000  0.0000
   67TTP    C36 1353  -0.576   6.305   2.388  0.0000  0.0000  0.0000
   67TTP    C37 1354  -0.521   6.210   2.286  0.0000  0.0000  0.0000
   67TTP    C38 1355  -0.600   6.076   2.272  0.0000  0.0000  0.0000
   67TTP    C39 1356  -0.598   5.986   2.396  0.0000  0.0000  0.0000
   67TTP    C40 1357  -0.675   5.856   2.381  0.0000  0.0000  0.0000
   67TTP    C41 1358  -0.625   5.767   2.271  0.0000  0.0000  0.0000
   67TTP    C42 1359  -0.631   5.830   2.128  0.0000  0.0000  0.0000
   68TTP     S1 1360  -0.782   7.330   1.454  0.0000  0.0000  0.0000
   68TTP     S5 1361  -0.820   7.728   1.587  0.0000  0.0000  0.0000
   68TTP     C1 1362  -0.811   7.727   1.413  0.0000  0.0000  0.0000
   68TTP     C2 1363  -0.802   7.599   1.359  0.0000  0.0000  0.0000
   68TTP     C3 1364  -0.794   7.503   1.459  0.0000  0.0000  0.0000
   68TTP     C4 1365  -0.792   7.322   1.629  0.0000  0.0000  0.0000
   68TTP    C17 1366  -0.800   7.448   1.681  0.0000  0.0000  0.0000
   68TTP    C18 1367  -0.804   7.561   1.586  0.0000  0.0000  0.0000
   68TTP    C32 1368  -0.798   7.562   1.211  0.0000  0.0000  0.0000
   68TTP    C33 1369  -0.651   7.556   1.157  0.0000  0.0000  0.0000
   68TTP    C34 1370  -0.637   7.479   1.024  0.0000  0.0000  0.0000
   68TTP    C35 1371  -0.489   7.442   0.985  0.0000  0.0000  0.0000
   68TTP    C36 1372  -0.459   7.443   0.837  0.0000  0.0000  0.0000
   68TTP    C37 1373  -0.416   7.309   0.783  0.0000  0.0000  0.0000
   68TTP    C38 1374  -0.401   7.202   0.888  0.0000  0.0000  0.0000
   68TTP    C39 1375  -0.461   7.237   1.022  0.0000  0.0000  0.0000
   68TTP    C40 1376  -0.448   7.132   1.127  0.0000  0.0000  0.0000
   68TTP    C41 1377  -0.508   7.167   1.260  0.0000  0.0000  0.0000
   68TTP    C42 1378  -0.495   7.063   1.366  0.0000  0.0000  0.0000
   69FIC     F1 1379  -0.935   7.523   3.183  0.0000  0.0000  0.0000
   69FIC     F2 1380  -0.952   7.308   3.344  0.0000  0.0000  0.0000
   69FIC     O1 1381  -0.846   7.296   2.712  0.0000  0.0000  0.0000
   69FIC     N5 1382  -0.898   6.831   3.232  0.0000  0.0000  0.0000
   69FIC     N6 1383  -0.843   6.688   2.838  0.0000  0.0000  0.0000
   69FIC    C19 1384  -0.824   6.999   2.687  0.0000  0.0000  0.0000
   69FIC    C20 1385  -0.850   7.066   2.801  0.0000  0.0000  0.0000
   69FIC    C21 1386  -0.855   7.209   2.797  0.0000  0.0000  0.0000
   69FIC    C22 1387  -0.878   7.263   2.938  0.0000  0.0000  0.0000
   69FIC    C23 1388  -0.896   7.391   2.990  0.0000  0.0000  0.0000
   69FIC    C24 1389  -0.922   7.408   3.125  0.0000  0.0000  0.0000
   69FIC    C25 1390  -0.930   7.297   3.209  0.0000  0.0000  0.0000
   69FIC    C26 1391  -0.912   7.170   3.157  0.0000  0.0000  0.0000
   69FIC    C27 1392  -0.886   7.153   3.021  0.0000  0.0000  0.0000
   69FIC    C28 1393  -0.870   7.026   2.943  0.0000  0.0000  0.0000
   69FIC    C29 1394  -0.870   6.902   2.974  0.0000  0.0000  0.0000
   69FIC    C30 1395  -0.886   6.874   3.133  0.0000  0.0000  0.0000
   69FIC    C31 1396  -0.857   6.784   2.897  0.0000  0.0000  0.0000
   70FIC     F1 1397  -0.929   8.516   1.590  0.0000  0.0000  0.0000
   70FIC     F2 1398  -0.945   8.565   1.320  0.0000  0.0000  0.0000
   70FIC     O1 1399  -0.830   7.996   1.592  0.0000  0.0000  0.0000
   70FIC     N5 1400  -0.884   8.251   0.941  0.0000  0.0000  0.0000
   70FIC     N6 1401  -0.820   7.843   0.983  0.0000  0.0000  0.0000
   70FIC    C19 1402  -0.827   7.844   1.329  0.0000  0.0000  0.0000
   70FIC    C20 1403  -0.840   7.983   1.348  0.0000  0.0000  0.0000
   70FIC    C21 1404  -0.843   8.035   1.480  0.0000  0.0000  0.0000
   70FIC    C22 1405  -0.873   8.186   1.452  0.0000  0.0000  0.0000
   70FIC    C23 1406  -0.889   8.290   1.543  0.0000  0.0000  0.0000
   70FIC    C24 1407  -0.913   8.419   1.497  0.0000  0.0000  0.0000
   70FIC    C25 1408  -0.921   8.444   1.360  0.0000  0.0000  0.0000
   70FIC    C26 1409  -0.904   8.340   1.269  0.0000  0.0000  0.0000
   70FIC    C27 1410  -0.880   8.211   1.315  0.0000  0.0000  0.0000
   70FIC    C28 1411  -0.857   8.083   1.241  0.0000  0.0000  0.0000
   70FIC    C29 1412  -0.854   8.060   1.119  0.0000  0.0000  0.0000
   70FIC    C30 1413  -0.875   8.189   1.036  0.0000  0.0000  0.0000
   70FIC    C31 1414  -0.834   7.942   1.042  0.0000  0.0000  0.0000
   71BTD     S2 1415  -0.894   4.383  -1.649  0.0000  0.0000  0.0000
   71BTD     N1 1416  -0.891   4.397  -1.810  0.0000  0.0000  0.0000
   71BTD     N2 1417  -0.911   4.536  -1.603  0.0000  0.0000  0.0000
   71BTD     N3 1418  -0.960   4.949  -1.829  0.0000  0.0000  0.0000
   71BTD     N4 1419  -0.934   4.764  -2.112  0.0000  0.0000  0.0000
   71BTD     C5 1420  -0.916   4.591  -1.959  0.0000  0.0000  0.0000
   71BTD     C6 1421  -0.910   4.532  -1.834  0.0000  0.0000  0.0000
   71BTD     C7 1422  -0.920   4.610  -1.719  0.0000  0.0000  0.0000
   71BTD     C8 1423  -0.936   4.748  -1.731  0.0000  0.0000  0.0000
   71BTD    C15 1424  -0.942   4.807  -1.856  0.0000  0.0000  0.0000
   71BTD    C16 1425  -0.932   4.728  -1.971  0.0000  0.0000  0.0000
   71BTD    C43 1426  -0.961   4.887  -2.193  0.0000  0.0000  0.0000
   71BTD    C44 1427  -1.096   4.904  -2.262  0.0000  0.0000  0.0000
   71BTD    C45 1428  -1.117   5.040  -2.331  0.0000  0.0000  0.0000
   71BTD    C46 1429  -1.014   5.041  -2.448  0.0000  0.0000  0.0000
   71BTD    C47 1430  -1.204   4.873  -2.160  0.0000  0.0000  0.0000
   71BTD    C48 1431  -1.338   4.871  -2.239  0.0000  0.0000  0.0000
   71BTD    C49 1432  -1.446   4.842  -2.136  0.0000  0.0000  0.0000
   71BTD    C50 1433  -1.582   4.865  -2.205  0.0000  0.0000  0.0000
   71BTD    C75 1434  -0.978   5.062  -1.914  0.0000  0.0000  0.0000
   71BTD    C76 1435  -0.862   5.155  -1.948  0.0000  0.0000  0.0000
   71BTD    C77 1436  -0.726   5.101  -1.984  0.0000  0.0000  0.0000
   71BTD    C78 1437  -0.606   5.190  -1.943  0.0000  0.0000  0.0000
   71BTD    C79 1438  -0.900   5.276  -2.037  0.0000  0.0000  0.0000
   71BTD    C80 1439  -0.995   5.386  -1.988  0.0000  0.0000  0.0000
   71BTD    C81 1440  -1.055   5.511  -2.060  0.0000  0.0000  0.0000
   71BTD    C82 1441  -1.037   5.619  -1.974  0.0000  0.0000  0.0000
   72TTP     S1 1442  -0.883   4.384  -2.164  0.0000  0.0000  0.0000
   72TTP     S5 1443  -0.898   4.674  -2.470  0.0000  0.0000  0.0000
   72TTP     C1 1444  -0.873   4.510  -2.535  0.0000  0.0000  0.0000
   72TTP     C2 1445  -0.869   4.405  -2.438  0.0000  0.0000  0.0000
   72TTP     C3 1446  -0.883   4.468  -2.324  0.0000  0.0000  0.0000
   72TTP     C4 1447  -0.905   4.539  -2.094  0.0000  0.0000  0.0000
   72TTP    C17 1448  -0.918   4.641  -2.179  0.0000  0.0000  0.0000
   72TTP    C18 1449  -0.903   4.596  -2.312  0.0000  0.0000  0.0000
   72TTP    C32 1450  -0.867   4.258  -2.481  0.0000  0.0000  0.0000
   72TTP    C33 1451  -0.721   4.211  -2.473  0.0000  0.0000  0.0000
   72TTP    C34 1452  -0.717   4.059  -2.486  0.0000  0.0000  0.0000
   72TTP    C35 1453  -0.579   4.005  -2.518  0.0000  0.0000  0.0000
   72TTP    C36 1454  -0.518   3.922  -2.408  0.0000  0.0000  0.0000
   72TTP    C37 1455  -0.378   3.866  -2.438  0.0000  0.0000  0.0000
   72TTP    C38 1456  -0.294   3.951  -2.531  0.0000  0.0000  0.0000
   72TTP    C39 1457  -0.372   4.061  -2.601  0.0000  0.0000  0.0000
   72TTP    C40 1458  -0.289   4.182  -2.635  0.0000  0.0000  0.0000
   72TTP    C41 1459  -0.338   4.311  -2.574  0.0000  0.0000  0.0000
   72TTP    C42 1460  -0.461   4.299  -2.486  0.0000  0.0000  0.0000
   73TTP     S1 1461  -0.948   4.856  -1.458  0.0000  0.0000  0.0000
   73TTP     S5 1462  -1.002   5.244  -1.613  0.0000  0.0000  0.0000
   73TTP     C1 1463  -1.011   5.256  -1.440  0.0000  0.0000  0.0000
   73TTP     C2 1464  -0.992   5.130  -1.375  0.0000  0.0000  0.0000
   73TTP     C3 1465  -0.973   5.032  -1.473  0.0000  0.0000  0.0000
   73TTP     C4 1466  -0.944   4.845  -1.626  0.0000  0.0000  0.0000
   73TTP    C17 1467  -0.957   4.969  -1.693  0.0000  0.0000  0.0000
   73TTP    C18 1468  -0.975   5.075  -1.603  0.0000  0.0000  0.0000
   73TTP    C32 1469  -1.012   5.102  -1.224  0.0000  0.0000  0.0000
   73TTP    C33 1470  -0.890   5.078  -1.137  0.0000  0.0000  0.0000
   73TTP    C34 1471  -0.903   5.043  -0.986  0.0000  0.0000  0.0000
   73TTP    C35 1472  -0.887   4.896  -0.953  0.0000  0.0000  0.0000
   73TTP    C36 1473  -0.881   4.846  -0.808  0.0000  0.0000  0.0000
   73TTP    C37 1474  -0.866   4.696  -0.793  0.0000  0.0000  0.0000
   73TTP    C38 1475  -0.741   4.652  -0.720  0.0000  0.0000  0.0000
   73TTP    C39 1476  -0.646   4.565  -0.798  0.0000  0.0000  0.0000
   73TTP    C40 1477  -0.526   4.526  -0.716  0.0000  0.0000  0.0000
   73TTP    C41 1478  -0.426   4.439  -0.787  0.0000  0.0000  0.0000
   73TTP    C42 1479  -0.304   4.399  -0.706  0.0000  0.0000  0.0000
   74FIC     F1 1480  -0.808   5.024  -3.178  0.0000  0.0000  0.0000
   74FIC     F2 1481  -0.779   4.815  -3.339  0.0000  0.0000  0.0000
   74FIC     O1 1482  -0.871   4.793  -2.701  0.0000  0.0000  0.0000
   74FIC     N5 1483  -0.749   4.346  -3.218  0.0000  0.0000  0.0000
   74FIC     N6 1484  -0.829   4.182  -2.830  0.0000  0.0000  0.0000
   74FIC    C19 1485  -0.855   4.488  -2.678  0.0000  0.0000  0.0000
   74FIC    C20 1486  -0.848   4.570  -2.787  0.0000  0.0000  0.0000
   74FIC    C21 1487  -0.850   4.710  -2.794  0.0000  0.0000  0.0000
   74FIC    C22 1488  -0.830   4.762  -2.934  0.0000  0.0000  0.0000
   74FIC    C23 1489  -0.831   4.888  -2.993  0.0000  0.0000  0.0000
   74FIC    C24 1490  -0.812   4.900  -3.130  0.0000  0.0000  0.0000
   74FIC    C25 1491  -0.792   4.787  -3.208  0.0000  0.0000  0.0000
   74FIC    C26 1492  -0.791   4.661  -3.149  0.0000  0.0000  0.0000
   74FIC    C27 1493  -0.810   4.649  -3.012  0.0000  0.0000  0.0000
   74FIC    C28 1494  -0.821   4.525  -2.937  0.0000  0.0000  0.0000
   74FIC    C29 1495  -0.803   4.398  -2.970  0.0000  0.0000  0.0000
   74FIC    C30 1496  -0.772   4.369  -3.105  0.0000  0.0000  0.0000
   74FIC    C31 1497  -0.815   4.280  -2.895  0.0000  0.0000  0.0000
   75FIC     F1 1498  -1.143   6.026  -1.669  0.0000  0.0000  0.0000
   75FIC     F2 1499  -1.169   6.088  -1.419  0.0000  0.0000  0.0000
   75FIC     O1 1500  -1.042   5.503  -1.634  0.0000  0.0000  0.0000
   75FIC     N5 1501  -1.120   5.815  -1.017  0.0000  0.0000  0.0000
   75FIC     N6 1502  -1.050   5.398  -1.028  0.0000  0.0000  0.0000
   75FIC    C19 1503  -1.033   5.373  -1.366  0.0000  0.0000  0.0000
   75FIC    C20 1504  -1.051   5.507  -1.393  0.0000  0.0000  0.0000
   75FIC    C21 1505  -1.058   5.556  -1.521  0.0000  0.0000  0.0000
   75FIC    C22 1506  -1.082   5.705  -1.521  0.0000  0.0000  0.0000
   75FIC    C23 1507  -1.102   5.801  -1.618  0.0000  0.0000  0.0000
   75FIC    C24 1508  -1.127   5.928  -1.575  0.0000  0.0000  0.0000
   75FIC    C25 1509  -1.144   5.960  -1.442  0.0000  0.0000  0.0000
   75FIC    C26 1510  -1.125   5.874  -1.346  0.0000  0.0000  0.0000
   75FIC    C27 1511  -1.097   5.743  -1.386  0.0000  0.0000  0.0000
   75FIC    C28 1512  -1.077   5.618  -1.306  0.0000  0.0000  0.0000
   75FIC    C29 1513  -1.080   5.609  -1.168  0.0000  0.0000  0.0000
   75FIC    C30 1514  -1.102   5.717  -1.087  0.0000  0.0000  0.0000
   75FIC    C31 1515  -1.066   5.494  -1.096  0.0000  0.0000  0.0000
   76BTD     S2 1516  -0.612   4.850  -1.659  0.0000  0.0000  0.0000
   76BTD     N1 1517  -0.604   4.831  -1.827  0.0000  0.0000  0.0000
   76BTD     N2 1518  -0.589   4.697  -1.613  0.0000  0.0000  0.0000
   76BTD     N3 1519  -0.538   4.276  -1.820  0.0000  0.0000  0.0000
   76BTD     N4 1520  -0.525   4.464  -2.112  0.0000  0.0000  0.0000
   76BTD     C5 1521  -0.567   4.630  -1.966  0.0000  0.0000  0.0000
   76BTD     C6 1522  -0.588   4.690  -1.845  0.0000  0.0000  0.0000
   76BTD     C7 1523  -0.571   4.628  -1.725  0.0000  0.0000  0.0000
   76BTD     C8 1524  -0.554   4.487  -1.733  0.0000  0.0000  0.0000
   76BTD    C15 1525  -0.545   4.410  -1.851  0.0000  0.0000  0.0000
   76BTD    C16 1526  -0.544   4.495  -1.976  0.0000  0.0000  0.0000
   76BTD    C43 1527  -0.478   4.338  -2.172  0.0000  0.0000  0.0000
   76BTD    C44 1528  -0.326   4.311  -2.160  0.0000  0.0000  0.0000
   76BTD    C45 1529  -0.306   4.177  -2.239  0.0000  0.0000  0.0000
   76BTD    C46 1530  -0.200   4.088  -2.171  0.0000  0.0000  0.0000
   76BTD    C47 1531  -0.250   4.427  -2.221  0.0000  0.0000  0.0000
   76BTD    C48 1532  -0.097   4.419  -2.215  0.0000  0.0000  0.0000
   76BTD    C49 1533   0.001   4.523  -2.269  0.0000  0.0000  0.0000
   76BTD    C50 1534  -0.087   4.648  -2.236  0.0000  0.0000  0.0000
   76BTD    C75 1535  -0.504   4.159  -1.904  0.0000  0.0000  0.0000
   76BTD    C76 1536  -0.615   4.057  -1.931  0.0000  0.0000  0.0000
   76BTD    C77 1537  -0.737   4.123  -1.989  0.0000  0.0000  0.0000
   76BTD    C78 1538  -0.863   4.032  -1.999  0.0000  0.0000  0.0000
   76BTD    C79 1539  -0.573   3.953  -2.037  0.0000  0.0000  0.0000
   76BTD    C80 1540  -0.490   3.846  -1.965  0.0000  0.0000  0.0000
   76BTD    C81 1541  -0.454   3.730  -2.063  0.0000  0.0000  0.0000
   76BTD    C82 1542  -0.341   3.650  -1.994  0.0000  0.0000  0.0000
   77TTP     S1 1543  -0.587   4.834  -2.177  0.0000  0.0000  0.0000
   77TTP     S5 1544  -0.517   4.541  -2.470  0.0000  0.0000  0.0000
   77TTP     C1 1545  -0.538   4.694  -2.547  0.0000  0.0000  0.0000
   77TTP     C2 1546  -0.557   4.802  -2.458  0.0000  0.0000  0.0000
   77TTP     C3 1547  -0.562   4.756  -2.323  0.0000  0.0000  0.0000
   77TTP     C4 1548  -0.563   4.678  -2.093  0.0000  0.0000  0.0000
   77TTP    C17 1549  -0.543   4.584  -2.186  0.0000  0.0000  0.0000
   77TTP    C18 1550  -0.538   4.618  -2.322  0.0000  0.0000  0.0000
   77TTP    C32 1551  -0.579   4.954  -2.494  0.0000  0.0000  0.0000
   77TTP    C33 1552  -0.656   5.037  -2.392  0.0000  0.0000  0.0000
   77TTP    C34 1553  -0.676   5.179  -2.446  0.0000  0.0000  0.0000
   77TTP    C35 1554  -0.730   5.272  -2.338  0.0000  0.0000  0.0000
   77TTP    C36 1555  -0.774   5.411  -2.388  0.0000  0.0000  0.0000
   77TTP    C37 1556  -0.829   5.506  -2.286  0.0000  0.0000  0.0000
   77TTP    C38 1557  -0.750   5.640  -2.272  0.0000  0.0000  0.0000
   77TTP    C39 1558  -0.751   5.730  -2.396  0.0000  0.0000  0.0000
   77TTP    C40 1559  -0.675   5.860  -2.381  0.0000  0.0000  0.0000
   77TTP    C41 1560  -0.725   5.949  -2.271  0.0000  0.0000  0.0000
   77TTP    C42 1561  -0.719   5.886  -2.128  0.0000  0.0000  0.0000
   78TTP     S1 1562  -0.568   4.386  -1.454  0.0000  0.0000  0.0000
   78TTP     S5 1563  -0.530   3.988  -1.587  0.0000  0.0000  0.0000
   78TTP     C1 1564  -0.539   3.989  -1.413  0.0000  0.0000  0.0000
   78TTP     C2 1565  -0.548   4.117  -1.359  0.0000  0.0000  0.0000
   78TTP     C3 1566  -0.556   4.213  -1.459  0.0000  0.0000  0.0000
   78TTP     C4 1567  -0.558   4.394  -1.629  0.0000  0.0000  0.0000
   78TTP    C17 1568  -0.550   4.268  -1.681  0.0000  0.0000  0.0000
   78TTP    C18 1569  -0.546   4.155  -1.586  0.0000  0.0000  0.0000
   78TTP    C32 1570  -0.552   4.154  -1.211  0.0000  0.0000  0.0000
   78TTP    C33 1571  -0.699   4.160  -1.157  0.0000  0.0000  0.0000
   78TTP    C34 1572  -0.713   4.237  -1.024  0.0000  0.0000  0.0000
   78TTP    C35 1573  -0.861   4.274  -0.985  0.0000  0.0000  0.0000
   78TTP    C36 1574  -0.891   4.273  -0.837  0.0000  0.0000  0.0000
   78TTP    C37 1575  -0.934   4.407  -0.783  0.0000  0.0000  0.0000
   78TTP    C38 1576  -0.949   4.514  -0.888  0.0000  0.0000  0.0000
   78TTP    C39 1577  -0.889   4.479  -1.022  0.0000  0.0000  0.0000
   78TTP    C40 1578  -0.902   4.584  -1.127  0.0000  0.0000  0.0000
   78TTP    C41 1579  -0.842   4.549  -1.260  0.0000  0.0000  0.0000
   78TTP    C42 1580  -0.855   4.653  -1.366  0.0000  0.0000  0.0000
   79FIC     F1 1581  -0.415   4.193  -3.183  0.0000  0.0000  0.0000
   79FIC     F2 1582  -0.398   4.408  -3.344  0.0000  0.0000  0.0000
   79FIC     O1 1583  -0.504   4.420  -2.712  0.0000  0.0000  0.0000
   79FIC     N5 1584  -0.452   4.885  -3.232  0.0000  0.0000  0.0000
   79FIC     N6 1585  -0.507   5.028  -2.838  0.0000  0.0000  0.0000
   79FIC    C19 1586  -0.526   4.717  -2.687  0.0000  0.0000  0.0000
   79FIC    C20 1587  -0.500   4.650  -2.801  0.0000  0.0000  0.0000
   79FIC    C21 1588  -0.495   4.507  -2.797  0.0000  0.0000  0.0000
   79FIC    C22 1589  -0.472   4.453  -2.938  0.0000  0.0000  0.0000
   79FIC    C23 1590  -0.454   4.325  -2.990  0.0000  0.0000  0.0000
   79FIC    C24 1591  -0.428   4.308  -3.125  0.0000  0.0000  0.0000
   79FIC    C25 1592  -0.420   4.419  -3.209  0.0000  0.0000  0.0000
   79FIC    C26 1593  -0.438   4.546  -3.157  0.0000  0.0000  0.0000
   79FIC    C27 1594  -0.464   4.563  -3.021  0.0000  0.0000  0.0000
   79FIC    C28 1595  -0.480   4.690  -2.943  0.0000  0.0000  0.0000
   79FIC    C29 1596  -0.480   4.814  -2.974  0.0000  0.0000  0.0000
   79FIC    C30 1597  -0.464   4.842  -3.133  0.0000  0.0000  0.0000
   79FIC    C31 1598  -0.493   4.932  -2.897  0.0000  0.0000  0.0000
   80FIC     F1 1599  -0.421   3.200  -1.590  0.0000  0.0000  0.0000
   80FIC     F2 1600  -0.405   3.151  -1.320  0.0000  0.0000  0.0000
   80FIC     O1 1601  -0.520   3.720  -1.592  0.0000  0.0000  0.0000
   80FIC     N5 1602  -0.466   3.465  -0.941  0.0000  0.0000  0.0000
   80FIC     N6 1603  -0.530   3.873  -0.983  0.0000  0.0000  0.0000
   80FIC    C19 1604  -0.523   3.872  -1.329  0.0000  0.0000  0.0000
   80FIC    C20 1605  -0.510   3.733  -1.348  0.0000  0.0000  0.0000
   80FIC    C21 1606  -0.507   3.681  -1.480  0.0000  0.0000  0.0000
   80FIC    C22 1607  -0.477   3.530  -1.452  0.0000  0.0000  0.0000
   80FIC    C23 1608  -0.461   3.426  -1.543  0.0000  0.0000  0.0000
   80FIC    C24 1609  -0.437   3.297  -1.497  0.0000  0.0000  0.0000
   80FIC    C25 1610  -0.429   3.272  -1.360  0.0000  0.0000  0.0000
   80FIC    C26 1611  -0.446   3.376  -1.269  0.0000  0.0000  0.0000
   80FIC    C27 1612  -0.470   3.505  -1.315  0.0000  0.0000  0.0000
   80FIC    C28 1613  -0.493   3.633  -1.241  0.0000  0.0000  0.0000
   80FIC    C29 1614  -0.496   3.656  -1.119  0.0000  0.0000  0.0000
   80FIC    C30 1615  -0.475   3.527  -1.036  0.0000  0.0000  0.0000
   80FIC    C31 1616  -0.516   3.774  -1.042  0.0000  0.0000  0.0000
   81BTD     S2 1617   1.592   1.475   1.649  0.0000  0.0000  0.0000
   81BTD     N1 1618   1.589   1.461   1.810  0.0000  0.0000  0.0000
   81BTD     N2 1619   1.609   1.322   1.603  0.0000  0.0000  0.0000
   81BTD     N3 1620   1.658   0.909   1.829  0.0000  0.0000  0.0000
   81BTD     N4 1621   1.632   1.094   2.112  0.0000  0.0000  0.0000
   81BTD     C5 1622   1.614   1.267   1.959  0.0000  0.0000  0.0000
   81BTD     C6 1623   1.608   1.326   1.834  0.0000  0.0000  0.0000
   81BTD     C7 1624   1.618   1.248   1.719  0.0000  0.0000  0.0000
   81BTD     C8 1625   1.634   1.110   1.731  0.0000  0.0000  0.0000
   81BTD    C15 1626   1.640   1.051   1.856  0.0000  0.0000  0.0000
   81BTD    C16 1627   1.630   1.130   1.971  0.0000  0.0000  0.0000
   81BTD    C43 1628   1.659   0.971   2.193  0.0000  0.0000  0.0000
   81BTD    C44 1629   1.794   0.954   2.262  0.0000  0.0000  0.0000
   81BTD    C45 1630   1.815   0.818   2.331  0.0000  0.0000  0.0000
   81BTD    C46 1631   1.712   0.817   2.448  0.0000  0.0000  0.0000
   81BTD    C47 1632   1.902   0.985   2.160  0.0000  0.0000  0.0000
   81BTD    C48 1633   2.036   0.987   2.239  0.0000  0.0000  0.0000
   81BTD    C49 1634   2.144   1.016   2.136  0.0000  0.0000  0.0000
   81BTD    C50 1635   2.280   0.993   2.205  0.0000  0.0000  0.0000
   81BTD    C75 1636   1.676   0.796   1.914  0.0000  0.0000  0.0000
   81BTD    C76 1637   1.560   0.703   1.948  0.0000  0.0000  0.0000
   81BTD    C77 1638   1.424   0.757   1.984  0.0000  0.0000  0.0000
   81BTD    C78 1639   1.304   0.668   1.943  0.0000  0.0000  0.0000
   81BTD    C79 1640   1.598   0.582   2.037  0.0000  0.0000  0.0000
   81BTD    C80 1641   1.693   0.472   1.988  0.0000  0.0000  0.0000
   81BTD    C81 1642   1.753   0.347   2.060  0.0000  0.0000  0.0000
   81BTD    C82 1643   1.735   0.239   1.974  0.0000  0.0000  0.0000
   82TTP     S1 1644   1.581   1.474   2.164  0.0000  0.0000  0.0000
   82TTP     S5 1645   1.596   1.184   2.470  0.0000  0.0000  0.0000
   82TTP     C1 1646   1.571   1.348   2.535  0.0000  0.0000  0.0000
   82TTP     C2 1647   1.567   1.453   2.438  0.0000  0.0000  0.0000
   82TTP     C3 1648   1.581   1.390   2.324  0.0000  0.0000  0.0000
   82TTP     C4 1649   1.603   1.319   2.094  0.0000  0.0000  0.0000
   82TTP    C17 1650   1.616   1.217   2.179  0.0000  0.0000  0.0000
   82TTP    C18 1651   1.601   1.262   2.312  0.0000  0.0000  0.0000
   82TTP    C32 1652   1.565   1.600   2.481  0.0000  0.0000  0.0000
   82TTP    C33 1653   1.419   1.647   2.473  0.0000  0.0000  0.0000
   82TTP    C34 1654   1.415   1.799   2.486  0.0000  0.0000  0.0000
   82TTP    C35 1655   1.277   1.853   2.518  0.0000  0.0000  0.0000
   82TTP    C36 1656   1.216   1.936   2.408  0.0000  0.0000  0.0000
   82TTP    C37 1657   1.076   1.992   2.438  0.0000  0.0000  0.0000
   82TTP    C38 1658   0.992   1.907   2.531  0.0000  0.0000  0.0000
   82TTP    C39 1659   1.070   1.797   2.601  0.0000  0.0000  0.0000
   82TTP    C40 1660   0.987   1.676   2.635  0.0000  0.0000  0.0000
   82TTP    C41 1661   1.036   1.547   2.574  0.0000  0.0000  0.0000
   82TTP    C42 1662   1.159   1.559   2.486  0.0000  0.0000  0.0000
   83TTP     S1 1663   1.646   1.002   1.458  0.0000  0.0000  0.0000
   83TTP     S5 1664   1.700   0.614   1.613  0.0000  0.0000  0.0000
   83TTP     C1 1665   1.709   0.602   1.440  0.0000  0.0000  0.0000
   83TTP     C2 1666   1.690   0.728   1.375  0.0000  0.0000  0.0000
   83TTP     C3 1667   1.671   0.826   1.473  0.0000  0.0000  0.0000
   83TTP     C4 1668   1.642   1.013   1.626  0.0000  0.0000  0.0000
   83TTP    C17 1669   1.655   0.889   1.693  0.0000  0.0000  0.0000
   83TTP    C18 1670   1.673   0.783   1.603  0.0000  0.0000  0.0000
   83TTP    C32 1671   1.710   0.756   1.224  0.0000  0.0000  0.0000
   83TTP    C33 1672   1.588   0.780   1.137  0.0000  0.0000  0.0000
   83TTP    C34 1673   1.601   0.815   0.986  0.0000  0.0000  0.0000
   83TTP    C35 1674   1.585   0.962   0.953  0.0000  0.0000  0.0000
   83TTP    C36 1675   1.579   1.012   0.808  0.0000  0.0000  0.0000
   83TTP    C37 1676   1.564   1.162   0.793  0.0000  0.0000  0.0000
   83TTP    C38 1677   1.439   1.206   0.720  0.0000  0.0000  0.0000
   83TTP    C39 1678   1.344   1.293   0.798  0.0000  0.0000  0.0000
   83TTP    C40 1679   1.224   1.332   0.716  0.0000  0.0000  0.0000
   83TTP    C41 1680   1.124   1.419   0.787  0.0000  0.0000  0.0000
   83TTP    C42 1681   1.002   1.459   0.706  0.0000  0.0000  0.0000
   84FIC     F1 1682   1.506   0.834   3.178  0.0000  0.0000  0.0000
   84FIC     F2 1683   1.477   1.043   3.339  0.0000  0.0000  0.0000
   84FIC     O1 1684   1.569   1.065   2.701  0.0000  0.0000  0.0000
   84FIC     N5 1685   1.448   1.512   3.218  0.0000  0.0000  0.0000
   84FIC     N6 1686   1.527   1.676   2.830  0.0000  0.0000  0.0000
   84FIC    C19 1687   1.553   1.370   2.678  0.0000  0.0000  0.0000
   84FIC    C20 1688   1.546   1.288   2.787  0.0000  0.0000  0.0000
   84FIC    C21 1689   1.548   1.148   2.794  0.0000  0.0000  0.0000
   84FIC    C22 1690   1.529   1.096   2.934  0.0000  0.0000  0.0000
   84FIC    C23 1691   1.529   0.970   2.993  0.0000  0.0000  0.0000
   84FIC    C24 1692   1.510   0.958   3.130  0.0000  0.0000  0.0000
   84FIC    C25 1693   1.490   1.071   3.208  0.0000  0.0000  0.0000
   84FIC    C26 1694   1.489   1.197   3.149  0.0000  0.0000  0.0000
   84FIC    C27 1695   1.508   1.209   3.012  0.0000  0.0000  0.0000
   84FIC    C28 1696   1.519   1.333   2.937  0.0000  0.0000  0.0000
   84FIC    C29 1697   1.501   1.460   2.970  0.0000  0.0000  0.0000
   84FIC    C30 1698   1.470   1.489   3.105  0.0000  0.0000  0.0000
   84FIC    C31 1699   1.513   1.578   2.895  0.0000  0.0000  0.0000
   85FIC     F1 1700   1.842  -0.168   1.669  0.0000  0.0000  0.0000
   85FIC     F2 1701   1.867  -0.230   1.419  0.0000  0.0000  0.0000
   85FIC     O1 1702   1.740   0.355   1.634  0.0000  0.0000  0.0000
   85FIC     N5 1703   1.818   0.043   1.017  0.0000  0.0000  0.0000
   85FIC     N6 1704   1.749   0.460   1.028  0.0000  0.0000  0.0000
   85FIC    C19 1705   1.731   0.485   1.366  0.0000  0.0000  0.0000
   85FIC    C20 1706   1.749   0.351   1.393  0.0000  0.0000  0.0000
   85FIC    C21 1707   1.756   0.302   1.521  0.0000  0.0000  0.0000
   85FIC    C22 1708   1.780   0.153   1.521  0.0000  0.0000  0.0000
   85FIC    C23 1709   1.800   0.057   1.618  0.0000  0.0000  0.0000
   85FIC    C24 1710   1.825  -0.071   1.575  0.0000  0.0000  0.0000
   85FIC    C25 1711   1.842  -0.102   1.442  0.0000  0.0000  0.0000
   85FIC    C26 1712   1.823  -0.016   1.346  0.0000  0.0000  0.0000
   85FIC    C27 1713   1.795   0.115   1.386  0.0000  0.0000  0.0000
   85FIC    C28 1714   1.775   0.240   1.306  0.0000  0.0000  0.0000
   85FIC    C29 1715   1.778   0.249   1.168  0.0000  0.0000  0.0000
   85FIC    C30 1716   1.800   0.141   1.087  0.0000  0.0000  0.0000
   85FIC    C31 1717   1.764   0.364   1.096  0.0000  0.0000  0.0000
   86BTD     S2 1718   1.310   1.008   1.659  0.0000  0.0000  0.0000
   86BTD     N1 1719   1.302   1.027   1.827  0.0000  0.0000  0.0000
   86BTD     N2 1720   1.287   1.161   1.613  0.0000  0.0000  0.0000
   86BTD     N3 1721   1.236   1.582   1.820  0.0000  0.0000  0.0000
   86BTD     N4 1722   1.223   1.394   2.112  0.0000  0.0000  0.0000
   86BTD     C5 1723   1.265   1.228   1.966  0.0000  0.0000  0.0000
   86BTD     C6 1724   1.286   1.168   1.845  0.0000  0.0000  0.0000
   86BTD     C7 1725   1.269   1.230   1.725  0.0000  0.0000  0.0000
   86BTD     C8 1726   1.252   1.371   1.733  0.0000  0.0000  0.0000
   86BTD    C15 1727   1.243   1.448   1.851  0.0000  0.0000  0.0000
   86BTD    C16 1728   1.242   1.363   1.976  0.0000  0.0000  0.0000
   86BTD    C43 1729   1.176   1.520   2.172  0.0000  0.0000  0.0000
   86BTD    C44 1730   1.024   1.547   2.160  0.0000  0.0000  0.0000
   86BTD    C45 1731   1.004   1.681   2.239  0.0000  0.0000  0.0000
   86BTD    C46 1732   0.898   1.770   2.171  0.0000  0.0000  0.0000
   86BTD    C47 1733   0.948   1.431   2.221  0.0000  0.0000  0.0000
   86BTD    C48 1734   0.795   1.439   2.215  0.0000  0.0000  0.0000
   86BTD    C49 1735   0.697   1.335   2.269  0.0000  0.0000  0.0000
   86BTD    C50 1736   0.785   1.210   2.236  0.0000  0.0000  0.0000
   86BTD    C75 1737   1.202   1.699   1.904  0.0000  0.0000  0.0000
   86BTD    C76 1738   1.314   1.801   1.931  0.0000  0.0000  0.0000
   86BTD    C77 1739   1.435   1.735   1.989  0.0000  0.0000  0.0000
   86BTD    C78 1740   1.561   1.826   1.999  0.0000  0.0000  0.0000
   86BTD    C79 1741   1.271   1.905   2.037  0.0000  0.0000  0.0000
   86BTD    C80 1742   1.188   2.012   1.965  0.0000  0.0000  0.0000
   86BTD    C81 1743   1.152   2.128   2.063  0.0000  0.0000  0.0000
   86BTD    C82 1744   1.039   2.208   1.994  0.0000  0.0000  0.0000
   87TTP     S1 1745   1.285   1.024   2.177  0.0000  0.0000  0.0000
   87TTP     S5 1746   1.215   1.317   2.470  0.0000  0.0000  0.0000
   87TTP     C1 1747   1.236   1.164   2.547  0.0000  0.0000  0.0000
   87TTP     C2 1748   1.255   1.056   2.458  0.0000  0.0000  0.0000
   87TTP     C3 1749   1.260   1.102   2.323  0.0000  0.0000  0.0000
   87TTP     C4 1750   1.261   1.180   2.093  0.0000  0.0000  0.0000
   87TTP    C17 1751   1.241   1.274   2.186  0.0000  0.0000  0.0000
   87TTP    C18 1752   1.236   1.240   2.322  0.0000  0.0000  0.0000
   87TTP    C32 1753   1.277   0.904   2.494  0.0000  0.0000  0.0000
   87TTP    C33 1754   1.354   0.821   2.392  0.0000  0.0000  0.0000
   87TTP    C34 1755   1.374   0.679   2.446  0.0000  0.0000  0.0000
   87TTP    C35 1756   1.428   0.586   2.338  0.0000  0.0000  0.0000
   87TTP    C36 1757   1.472   0.447   2.388  0.0000  0.0000  0.0000
   87TTP    C37 1758   1.527   0.352   2.286  0.0000  0.0000  0.0000
   87TTP    C38 1759   1.448   0.218   2.272  0.0000  0.0000  0.0000
   87TTP    C39 1760   1.450   0.128   2.396  0.0000  0.0000  0.0000
   87TTP    C40 1761   1.373  -0.002   2.381  0.0000  0.0000  0.0000
   87TTP    C41 1762   1.423  -0.091   2.271  0.0000  0.0000  0.0000
   87TTP    C42 1763   1.417  -0.028   2.128  0.0000  0.0000  0.0000
   88TTP     S1 1764   1.266   1.472   1.454  0.0000  0.0000  0.0000
   88TTP     S5 1765   1.228   1.870   1.587  0.0000  0.0000  0.0000
   88TTP     C1 1766   1.237   1.869   1.413  0.0000  0.0000  0.0000
   88TTP     C2 1767   1.246   1.741   1.359  0.0000  0.0000  0.0000
   88TTP     C3 1768   1.254   1.645   1.459  0.0000  0.0000  0.0000
   88TTP     C4 1769   1.256   1.464   1.629  0.0000  0.0000  0.0000
   88TTP    C17 1770   1.248   1.590   1.681  0.0000  0.0000  0.0000
   88TTP    C18 1771   1.244   1.703   1.586  0.0000  0.0000  0.0000
   88TTP    C32 1772   1.250   1.704   1.211  0.0000  0.0000  0.0000
   88TTP    C33 1773   1.397   1.698   1.157  0.0000  0.0000  0.0000
   88TTP    C34 1774   1.411   1.621   1.024  0.0000  0.0000  0.0000
   88TTP    C35 1775   1.559   1.584   0.985  0.0000  0.0000  0.0000
   88TTP    C36 1776   1.589   1.585   0.837  0.0000  0.0000  0.0000
   88TTP    C37 1777   1.632   1.451   0.783  0.0000  0.0000  0.0000
   88TTP    C38 1778   1.647   1.344   0.888  0.0000  0.0000  0.0000
   88TTP    C39 1779   1.587   1.379   1.022  0.0000  0.0000  0.0000
   88TTP    C40 1780   1.600   1.274   1.127  0.0000  0.0000  0.0000
   88TTP    C41 1781   1.540   1.309   1.260  0.0000  0.0000  0.0000
   88TTP    C42 1782   1.553   1.205   1.366  0.0000  0.0000  0.0000
   89FIC     F1 1783   1.113   1.665   3.183  0.0000  0.0000  0.0000
   89FIC     F2 1784   1.096   1.450   3.344  0.0000  0.0000  0.0000
   89FIC     O1 1785   1.202   1.438   2.712  0.0000  0.0000  0.0000
   89FIC     N5 1786   1.150   0.973   3.232  0.0000  0.0000  0.0000
   89FIC     N6 1787   1.205   0.830   2.838  0.0000  0.0000  0.0000
   89FIC    C19 1788   1.224   1.141   2.687  0.0000  0.0000  0.0000
   89FIC    C20 1789   1.198   1.208   2.801  0.0000  0.0000  0.0000
   89FIC    C21 1790   1.193   1.351   2.797  0.0000  0.0000  0.0000
   89FIC    C22 1791   1.170   1.405   2.938  0.0000  0.0000  0.0000
   89FIC    C23 1792   1.152   1.533   2.990  0.0000  0.0000  0.0000
   89FIC    C24 1793   1.126   1.550   3.125  0.0000  0.0000  0.0000
   89FIC    C25 1794   1.118   1.439   3.209  0.0000  0.0000  0.0000
   89FIC    C26 1795   1.136   1.312   3.157  0.0000  0.0000  0.0000
   89FIC    C27 1796   1.162   1.295   3.021  0.0000  0.0000  0.0000
   89FIC    C28 1797   1.178   1.168   2.943  0.0000  0.0000  0.0000
   89FIC    C29 1798   1.178   1.044   2.974  0.0000  0.0000  0.0000
   89FIC    C30 1799   1.162   1.016   3.133  0.0000  0.0000  0.0000
   89FIC    C31 1800   1.191   0.926   2.897  0.0000  0.0000  0.0000
   90FIC     F1 1801   1.119   2.658   1.590  0.0000  0.0000  0.0000
   90FIC     F2 1802   1.103   2.707   1.320  0.0000  0.0000  0.0000
   90FIC     O1 1803   1.218   2.138   1.592  0.0000  0.0000  0.0000
   90FIC     N5 1804   1.164   2.393   0.941  0.0000  0.0000  0.0000
   90FIC     N6 1805   1.228   1.985   0.983  0.0000  0.0000  0.0000
   90FIC    C19 1806   1.221   1.986   1.329  0.0000  0.0000  0.0000
   90FIC    C20 1807   1.208   2.125   1.348  0.0000  0.0000  0.0000
   90FIC    C21 1808   1.205   2.177   1.480  0.0000  0.0000  0.0000
   90FIC    C22 1809   1.175   2.328   1.452  0.0000  0.0000  0.0000
   90FIC    C23 1810   1.159   2.432   1.543  0.0000  0.0000  0.0000
   90FIC    C24 1811   1.135   2.561   1.497  0.0000  0.0000  0.0000
   90FIC    C25 1812   1.127   2.586   1.360  0.0000  0.0000  0.0000
   90FIC    C26 1813   1.144   2.482   1.269  0.0000  0.0000  0.0000
   90FIC    C27 1814   1.168   2.353   1.315  0.0000  0.0000  0.0000
   90FIC    C28 1815   1.191   2.225   1.241  0.0000  0.0000  0.0000
   90FIC    C29 1816   1.194   2.202   1.119  0.0000  0.0000  0.0000
   90FIC    C30 1817   1.173   2.331   1.036  0.0000  0.0000  0.0000
   90FIC    C31 1818   1.214   2.084   1.042  0.0000  0.0000  0.0000
   91BTD     S2 1819   1.154  -1.475  -1.649  0.0000  0.0000  0.0000
   91BTD     N1 1820   1.157  -1.461  -1.810  0.0000  0.0000  0.0000
   91BTD     N2 1821   1.137  -1.322  -1.603  0.0000  0.0000  0.0000
   91BTD     N3 1822   1.088  -0.909  -1.829  0.0000  0.0000  0.0000
   91BTD     N4 1823   1.114  -1.094  -2.112  0.0000  0.0000  0.0000
   91BTD     C5 1824   1.132  -1.267  -1.959  0.0000  0.0000  0.0000
   91BTD     C6 1825   1.138  -1.326  -1.834  0.0000  0.0000  0.0000
   91BTD     C7 1826   1.128  -1.248  -1.719  0.0000  0.0000  0.0000
   91BTD     C8 1827   1.112  -1.110  -1.731  0.0000  0.0000  0.0000
   91BTD    C15 1828   1.106  -1.051  -1.856  0.0000  0.0000  0.0000
   91BTD    C16 1829   1.116  -1.130  -1.971  0.0000  0.0000  0.0000
   91BTD    C43 1830   1.087  -0.971  -2.193  0.0000  0.0000  0.0000
   91BTD    C44 1831   0.952  -0.954  -2.262  0.0000  0.0000  0.0000
   91BTD    C45 1832   0.931  -0.818  -2.331  0.0000  0.0000  0.0000
   91BTD    C46 1833   1.034  -0.817  -2.448  0.0000  0.0000  0.0000
   91BTD    C47 1834   0.844  -0.985  -2.160  0.0000  0.0000  0.0000
   91BTD    C48 1835   0.710  -0.987  -2.239  0.0000  0.0000  0.0000
   91BTD    C49 1836   0.602  -1.016  -2.136  0.0000  0.0000  0.0000
   91BTD    C50 1837   0.466  -0.993  -2.205  0.0000  0.0000  0.0000
   91BTD    C75 1838   1.070  -0.796  -1.914  0.0000  0.0000  0.0000
   91BTD    C76 1839   1.186  -0.703  -1.948  0.0000  0.0000  0.0000
   91BTD    C77 1840   1.322  -0.757  -1.984  0.0000  0.0000  0.0000
   91BTD    C78 1841   1.442  -0.668  -1.943  0.0000  0.0000  0.0000
   91BTD    C79 1842   1.148  -0.582  -2.037  0.0000  0.0000  0.0000
   91BTD    C80 1843   1.053  -0.472  -1.988  0.0000  0.0000  0.0000
   91BTD    C81 1844   0.993  -0.347  -2.060  0.0000  0.0000  0.0000
   91BTD    C82 1845   1.011  -0.239  -1.974  0.0000  0.0000  0.0000
   92TTP     S1 1846   1.165  -1.474  -2.164  0.0000  0.0000  0.0000
   92TTP     S5 1847   1.150  -1.184  -2.470  0.0000  0.0000  0.0000
   92TTP     C1 1848   1.175  -1.348  -2.535  0.0000  0.0000  0.0000
   92TTP     C2 1849   1.179  -1.453  -2.438  0.0000  0.0000  0.0000
   92TTP     C3 1850   1.165  -1.390  -2.324  0.0000  0.0000  0.0000
   92TTP     C4 1851   1.143  -1.319  -2.094  0.0000  0.0000  0.0000
   92TTP    C17 1852   1.130  -1.217  -2.179  0.0000  0.0000  0.0000
   92TTP    C18 1853   1.145  -1.262  -2.312  0.0000  0.0000  0.0000
   92TTP    C32 1854   1.181  -1.600  -2.481  0.0000  0.0000  0.0000
   92TTP    C33 1855   1.327  -1.647  -2.473  0.0000  0.0000  0.0000
   92TTP    C34 1856   1.331  -1.799  -2.486  0.0000  0.0000  0.0000
   92TTP    C35 1857   1.469  -1.853  -2.518  0.0000  0.0000  0.0000
   92TTP    C36 1858   1.530  -1.936  -2.408  0.0000  0.0000  0.0000
   92TTP    C37 1859   1.670  -1.992  -2.438  0.0000  0.0000  0.0000
   92TTP    C38 1860   1.754  -1.907  -2.531  0.0000  0.0000  0.0000
   92TTP    C39 1861   1.676  -1.797  -2.601  0.0000  0.0000  0.0000
   92TTP    C40 1862   1.759  -1.676  -2.635  0.0000  0.0000  0.0000
   92TTP    C41 1863   1.710  -1.547  -2.574  0.0000  0.0000  0.0000
   92TTP    C42 1864   1.587  -1.559  -2.486  0.0000  0.0000  0.0000
   93TTP     S1 1865   1.100  -1.002  -1.458  0.0000  0.0000  0.0000
   93TTP     S5 1866   1.046  -0.614  -1.613  0.0000  0.0000  0.0000
   93TTP     C1 1867   1.037  -0.602  -1.440  0.0000  0.0000  0.0000
   93TTP     C2 1868   1.056  -0.728  -1.375  0.0000  0.0000  0.0000
   93TTP     C3 1869   1.075  -0.826  -1.473  0.0000  0.0000  0.0000
   93TTP     C4 1870   1.104  -1.013  -1.626  0.0000  0.0000  0.0000
   93TTP    C17 1871   1.091  -0.889  -1.693  0.0000  0.0000  0.0000
   93TTP    C18 1872   1.073  -0.783  -1.603  0.0000  0.0000  0.0000
   93TTP    C32 1873   1.036  -0.756  -1.224  0.0000  0.0000  0.0000
   93TTP    C33 1874   1.158  -0.780  -1.137  0.0000  0.0000  0.0000
   93TTP    C34 1875   1.145  -0.815  -0.986  0.0000  0.0000  0.0000
   93TTP    C35 1876   1.161  -0.962  -0.953  0.0000  0.0000  0.0000
   93TTP    C36 1877   1.167  -1.012  -0.808  0.0000  0.0000  0.0000
   93TTP    C37 1878   1.182  -1.162  -0.793  0.0000  0.0000  0.0000
   93TTP    C38 1879   1.307  -1.206  -0.720  0.0000  0.0000  0.0000
   93TTP    C39 1880   1.402  -1.293  -0.798  0.0000  0.0000  0.0000
   93TTP    C40 1881   1.522  -1.332  -0.716  0.0000  0.0000  0.0000
   93TTP    C41 1882   1.622  -1.419  -0.787  0.0000  0.0000  0.0000
   93TTP    C42 1883   1.744  -1.459  -0.706  0.0000  0.0000  0.0000
   94FIC     F1 1884   1.240  -0.834  -3.178  0.0000  0.0000  0.0000
   94FIC     F2 1885   1.269  -1.043  -3.339  0.0000  0.0000  0.0000
   94FIC     O1 1886   1.177  -1.065  -2.701  0.0000  0.0000  0.0000
   94FIC     N5 1887   1.299  -1.512  -3.218  0.0000  0.0000  0.0000
   94FIC     N6 1888   1.219  -1.676  -2.830  0.0000  0.0000  0.0000
   94FIC    C19 1889   1.193  -1.370  -2.678  0.0000  0.0000  0.0000
   94FIC    C20 1890   1.200  -1.288  -2.787  0.0000  0.0000  0.0000
   94FIC    C21 1891   1.198  -1.148  -2.794  0.0000  0.0000  0.0000
   94FIC    C22 1892   1.218  -1.096  -2.934  0.0000  0.0000  0.0000
   94FIC    C23 1893   1.217  -0.970  -2.993  0.0000  0.0000  0.0000
   94FIC    C24 1894   1.236  -0.958  -3.130  0.0000  0.0000  0.0000
   94FIC    C25 1895   1.256  -1.071  -3.208  0.0000  0.0000  0.0000
   94FIC    C26 1896   1.257  -1.197  -3.149  0.0000  0.0000  0.0000
   94FIC    C27 1897   1.238  -1.209  -3.012  0.0000  0.0000  0.0000
   94FIC    C28 1898   1.227  -1.333  -2.937  0.0000  0.0000  0.0000
   94FIC    C29 1899   1.245  -1.460  -2.970  0.0000  0.0000  0.0000
   94FIC    C30 1900   1.276  -1.489  -3.105  0.0000  0.0000  0.0000
   94FIC    C31 1901   1.233  -1.578  -2.895  0.0000  0.0000  0.0000
   95FIC     F1 1902   0.905   0.168  -1.669  0.0000  0.0000  0.0000
   95FIC     F2 1903   0.879   0.230  -1.419  0.0000  0.0000  0.0000
   95FIC     O1 1904   1.006  -0.355  -1.634  0.0000  0.0000  0.0000
   95FIC     N5 1905   0.928  -0.043  -1.017  0.0000  0.0000  0.0000
   95FIC     N6 1906   0.998  -0.460  -1.028  0.0000  0.0000  0.0000
   95FIC    C19 1907   1.015  -0.485  -1.366  0.0000  0.0000  0.0000
   95FIC    C20 1908   0.997  -0.351  -1.393  0.0000  0.0000  0.0000
   95FIC    C21 1909   0.990  -0.302  -1.521  0.0000  0.0000  0.0000
   95FIC    C22 1910   0.966  -0.153  -1.521  0.0000  0.0000  0.0000
   95FIC    C23 1911   0.946  -0.057  -1.618  0.0000  0.0000  0.0000
   95FIC    C24 1912   0.921   0.070  -1.575  0.0000  0.0000  0.0000
   95FIC    C25 1913   0.904   0.102  -1.442  0.0000  0.0000  0.0000
   95FIC    C26 1914   0.923   0.016  -1.346  0.0000  0.0000  0.0000
   95FIC    C27 1915   0.951  -0.115  -1.386  0.0000  0.0000  0.0000
   95FIC    C28 1916   0.971  -0.240  -1.306  0.0000  0.0000  0.0000
   95FIC    C29 1917   0.968  -0.249  -1.168  0.0000  0.0000  0.0000
   95FIC    C30 1918   0.946  -0.141  -1.087  0.0000  0.0000  0.0000
   95FIC    C31 1919   0.982  -0.364  -1.096  0.0000  0.0000  0.0000
   96BTD     S2 1920   1.436  -1.008  -1.659  0.0000  0.0000  0.0000
   96BTD     N1 1921   1.444  -1.027  -1.827  0.0000  0.0000  0.0000
   96BTD     N2 1922   1.459  -1.161  -1.613  0.0000  0.0000  0.0000
   96BTD     N3 1923   1.510  -1.582  -1.820  0.0000  0.0000  0.0000
   96BTD     N4 1924   1.523  -1.394  -2.112  0.0000  0.0000  0.0000
   96BTD     C5 1925   1.481  -1.228  -1.966  0.0000  0.0000  0.0000
   96BTD     C6 1926   1.460  -1.168  -1.845  0.0000  0.0000  0.0000
   96BTD     C7 1927   1.477  -1.230  -1.725  0.0000  0.0000  0.0000
   96BTD     C8 1928   1.494  -1.371  -1.733  0.0000  0.0000  0.0000
   96BTD    C15 1929   1.503  -1.448  -1.851  0.0000  0.0000  0.0000
   96BTD    C16 1930   1.504  -1.363  -1.976  0.0000  0.0000  0.0000
   96BTD    C43 1931   1.570  -1.520  -2.172  0.0000  0.0000  0.0000
   96BTD    C44 1932   1.722  -1.547  -2.160  0.0000  0.0000  0.0000
   96BTD    C45 1933   1.742  -1.681  -2.239  0.0000  0.0000  0.0000
   96BTD    C46 1934   1.848  -1.770  -2.171  0.0000  0.0000  0.0000
   96BTD    C47 1935   1.798  -1.431  -2.221  0.0000  0.0000  0.0000
   96BTD    C48 1936   1.951  -1.439  -2.215  0.0000  0.0000  0.0000
   96BTD    C49 1937   2.049  -1.335  -2.269  0.0000  0.0000  0.0000
   96BTD    C50 1938   1.961  -1.210  -2.236  0.0000  0.0000  0.0000
   96BTD    C75 1939   1.544  -1.699  -1.904  0.0000  0.0000  0.0000
   96BTD    C76 1940   1.433  -1.801  -1.931  0.0000  0.0000  0.0000
   96BTD    C77 1941   1.311  -1.735  -1.989  0.0000  0.0000  0.0000
   96BTD    C78 1942   1.185  -1.826  -1.999  0.0000  0.0000  0.0000
   96BTD    C79 1943   1.475  -1.905  -2.037  0.0000  0.0000  0.0000
   96BTD    C80 1944   1.558  -2.012  -1.965  0.0000  0.0000  0.0000
   96BTD    C81 1945   1.594  -2.128  -2.063  0.0000  0.0000  0.0000
   96BTD    C82 1946   1.707  -2.208  -1.994  0.0000  0.0000  0.0000
   97TTP     S1 1947   1.461  -1.024  -2.177  0.0000  0.0000  0.0000
   97TTP     S5 1948   1.531  -1.317  -2.470  0.0000  0.0000  0.0000
   97TTP     C1 1949   1.510  -1.164  -2.547  0.0000  0.0000  0.0000
   97TTP     C2 1950   1.491  -1.056  -2.458  0.0000  0.0000  0.0000
   97TTP     C3 1951   1.486  -1.102  -2.323  0.0000  0.0000  0.0000
   97TTP     C4 1952   1.485  -1.180  -2.093  0.0000  0.0000  0.0000
   97TTP    C17 1953   1.505  -1.274  -2.186  0.0000  0.0000  0.0000
   97TTP    C18 1954   1.510  -1.240  -2.322  0.0000  0.0000  0.0000
   97TTP    C32 1955   1.469  -0.904  -2.494  0.0000  0.0000  0.0000
   97TTP    C33 1956   1.392  -0.821  -2.392  0.0000  0.0000  0.0000
   97TTP    C34 1957   1.372  -0.679  -2.446  0.0000  0.0000  0.0000
   97TTP    C35 1958   1.318  -0.586  -2.338  0.0000  0.0000  0.0000
   97TTP    C36 1959   1.274  -0.447  -2.388  0.0000  0.0000  0.0000
   97TTP    C37 1960   1.219  -0.352  -2.286  0.0000  0.0000  0.0000
   97TTP    C38 1961   1.298  -0.218  -2.272  0.0000  0.0000  0.0000
   97TTP    C39 1962   1.297  -0.128  -2.396  0.0000  0.0000  0.0000
   97TTP    C40 1963   1.373   0.002  -2.381  0.0000  0.0000  0.0000
   97TTP    C41 1964   1.323   0.091  -2.271  0.0000  0.0000  0.0000
   97TTP    C42 1965   1.329   0.028  -2.128  0.0000  0.0000  0.0000
   98TTP     S1 1966   1.480  -1.472  -1.454  0.0000  0.0000  0.0000
   98TTP     S5 1967   1.518  -1.870  -1.587  0.0000  0.0000  0.0000
   98TTP     C1 1968   1.509  -1.869  -1.413  0.0000  0.0000  0.0000
   98TTP     C2 1969   1.500  -1.741  -1.359  0.0000  0.0000  0.0000
   98TTP     C3 1970   1.492  -1.645  -1.459  0.0000  0.0000  0.0000
   98TTP     C4 1971   1.490  -1.464  -1.629  0.0000  0.0000  0.0000
   98TTP    C17 1972   1.498  -1.590  -1.681  0.0000  0.0000  0.0000
   98TTP    C18 1973   1.502  -1.703  -1.586  0.0000  0.0000  0.0000
   98TTP    C32 1974   1.496  -1.704  -1.211  0.0000  0.0000  0.0000
   98TTP    C33 1975   1.349  -1.698  -1.157  0.0000  0.0000  0.0000
   98TTP    C34 1976   1.335  -1.621  -1.024  0.0000  0.0000  0.0000
   98TTP    C35 1977   1.187  -1.584  -0.985  0.0000  0.0000  0.0000
   98TTP    C36 1978   1.157  -1.585  -0.837  0.0000  0.0000  0.0000
   98TTP    C37 1979   1.114  -1.451  -0.783  0.0000  0.0000  0.0000
   98TTP    C38 1980   1.099  -1.344  -0.888  0.0000  0.0000  0.0000
   98TTP    C39 1981   1.159  -1.379  -1.022  0.0000  0.0000  0.0000
   98TTP    C40 1982   1.146  -1.274  -1.127  0.0000  0.0000  0.0000
   98TTP    C41 1983   1.206  -1.309  -1.260  0.0000  0.0000  0.0000
   98TTP    C42 1984   1.193  -1.205  -1.366  0.0000  0.0000  0.0000
   99FIC     F1 1985   1.633  -1.665  -3.183  0.0000  0.0000  0.0000
   99FIC     F2 1986   1.650  -1.450  -3.344  0.0000  0.0000  0.0000
   99FIC     O1 1987   1.544  -1.438  -2.712  0.0000  0.0000  0.0000
   99FIC     N5 1988   1.596  -0.973  -3.232  0.0000  0.0000  0.0000
   99FIC     N6 1989   1.541  -0.830  -2.838  0.0000  0.0000  0.0000
   99FIC    C19 1990   1.522  -1.141  -2.687  0.0000  0.0000  0.0000
   99FIC    C20 1991   1.548  -1.208  -2.801  0.0000  0.0000  0.0000
   99FIC    C21 1992   1.553  -1.351  -2.797  0.0000  0.0000  0.0000
   99FIC    C22 1993   1.576  -1.405  -2.938  0.0000  0.0000  0.0000
   99FIC    C23 1994   1.594  -1.533  -2.990  0.0000  0.0000  0.0000
   99FIC    C24 1995   1.620  -1.550  -3.125  0.0000  0.0000  0.0000
   99FIC    C25 1996   1.628  -1.439  -3.209  0.0000  0.0000  0.0000
   99FIC    C26 1997   1.610  -1.312  -3.157  0.0000  0.0000  0.0000
   99FIC    C27 1998   1.584  -1.295  -3.021  0.0000  0.0000  0.0000
   99FIC    C28 1999   1.568  -1.168  -2.943  0.0000  0.0000  0.0000
   99FIC    C29 2000   1.568  -1.044  -2.974  0.0000  0.0000  0.0000
   99FIC    C30 2001   1.584  -1.016  -3.133  0.0000  0.0000  0.0000
   99FIC    C31 2002   1.555  -0.926  -2.897  0.0000  0.0000  0.0000
  100FIC     F1 2003   1.627  -2.658  -1.590  0.0000  0.0000  0.0000
  100FIC     F2 2004   1.643  -2.707  -1.320  0.0000  0.0000  0.0000
  100FIC     O1 2005   1.528  -2.138  -1.592  0.0000  0.0000  0.0000
  100FIC     N5 2006   1.582  -2.393  -0.941  0.0000  0.0000  0.0000
  100FIC     N6 2007   1.518  -1.985  -0.983  0.0000  0.0000  0.0000
  100FIC    C19 2008   1.525  -1.986  -1.329  0.0000  0.0000  0.0000
  100FIC    C20 2009   1.538  -2.125  -1.348  0.0000  0.0000  0.0000
  100FIC    C21 2010   1.541  -2.177  -1.480  0.0000  0.0000  0.0000
  100FIC    C22 2011   1.571  -2.328  -1.452  0.0000  0.0000  0.0000
  100FIC    C23 2012   1.587  -2.432  -1.543  0.0000  0.0000  0.0000
  100FIC    C24 2013   1.611  -2.561  -1.497  0.0000  0.0000  0.0000
  100FIC    C25 2014   1.619  -2.586  -1.360  0.0000  0.0000  0.0000
  100FIC    C26 2015   1.602  -2.482  -1.269  0.0000  0.0000  0.0000
  100FIC    C27 2016   1.578  -2.353  -1.315  0.0000  0.0000  0.0000
  100FIC    C28 2017   1.555  -2.225  -1.241  0.0000  0.0000  0.0000
  100FIC    C29 2018   1.552  -2.202  -1.119  0.0000  0.0000  0.0000
  100FIC    C30 2019   1.573  -2.331  -1.036  0.0000  0.0000  0.0000
  100FIC    C31 2020   1.532  -2.084  -1.042  0.0000  0.0000  0.0000
  101BTD     S2 2021   1.367   3.428   1.649  0.0000  0.0000  0.0000
  101BTD     N1 2022   1.364   3.414   1.810  0.0000  0.0000  0.0000
  101BTD     N2 2023   1.384   3.275   1.603  0.0000  0.0000  0.0000
  101BTD     N3 2024   1.433   2.862   1.829  0.0000  0.0000  0.0000
  101BTD     N4 2025   1.407   3.047   2.112  0.0000  0.0000  0.0000
  101BTD     C5 2026   1.389   3.220   1.959  0.0000  0.0000  0.0000
  101BTD     C6 2027   1.383   3.279   1.834  0.0000  0.0000  0.0000
  101BTD     C7 2028   1.393   3.201   1.719  0.0000  0.0000  0.0000
  101BTD     C8 2029   1.409   3.063   1.731  0.0000  0.0000  0.0000
  101BTD    C15 2030   1.415   3.004   1.856  0.0000  0.0000  0.0000
  101BTD    C16 2031   1.405   3.083   1.971  0.0000  0.0000  0.0000
  101BTD    C43 2032   1.434   2.924   2.193  0.0000  0.0000  0.0000
  101BTD    C44 2033   1.569   2.907   2.262  0.0000  0.0000  0.0000
  101BTD    C45 2034   1.590   2.771   2.331  0.0000  0.0000  0.0000
  101BTD    C46 2035   1.487   2.770   2.448  0.0000  0.0000  0.0000
  101BTD    C47 2036   1.677   2.938   2.160  0.0000  0.0000  0.0000
  101BTD    C48 2037   1.811   2.940   2.239  0.0000  0.0000  0.0000
  101BTD    C49 2038   1.919   2.969   2.136  0.0000  0.0000  0.0000
  101BTD    C50 2039   2.055   2.946   2.205  0.0000  0.0000  0.0000
  101BTD    C75 2040   1.451   2.749   1.914  0.0000  0.0000  0.0000
  101BTD    C76 2041   1.335   2.656   1.948  0.0000  0.0000  0.0000
  101BTD    C77 2042   1.199   2.710   1.984  0.0000  0.0000  0.0000
  101BTD    C78 2043   1.079   2.621   1.943  0.0000  0.0000  0.0000
  101BTD    C79 2044   1.373   2.535   2.037  0.0000  0.0000  0.0000
  101BTD    C80 2045   1.468   2.425   1.988  0.0000  0.0000  0.0000
  101BTD    C81 2046   1.528   2.300   2.060  0.0000  0.0000  0.0000
  101BTD    C82 2047   1.510   2.192   1.974  0.0000  0.0000  0.0000
  102TTP     S1 2048   1.356   3.427   2.164  0.0000  0.0000  0.0000
  102TTP     S5 2049   1.371   3.137   2.470  0.0000  0.0000  0.0000
  102TTP     C1 2050   1.346   3.301   2.535  0.0000  0.0000  0.0000
  102TTP     C2 2051   1.342   3.406   2.438  0.0000  0.0000  0.0000
  102TTP     C3 2052   1.356   3.343   2.324  0.0000  0.0000  0.0000
  102TTP     C4 2053   1.378   3.272   2.094  0.0000  0.0000  0.0000
  102TTP    C17 2054   1.391   3.170   2.179  0.0000  0.0000  0.0000
  102TTP    C18 2055   1.376   3.215   2.312  0.0000  0.0000  0.0000
  102TTP    C32 2056   1.340   3.553   2.481  0.0000  0.0000  0.0000
  102TTP    C33 2057   1.194   3.600   2.473  0.0000  0.0000  0.0000
  102TTP    C34 2058   1.190   3.752   2.486  0.0000  0.0000  0.0000
  102TTP    C35 2059   1.052   3.806   2.518  0.0000  0.0000  0.0000
  102TTP    C36 2060   0.991   3.889   2.408  0.0000  0.0000  0.0000
  102TTP    C37 2061   0.851   3.945   2.438  0.0000  0.0000  0.0000
  102TTP    C38 2062   0.767   3.860   2.531  0.0000  0.0000  0.0000
  102TTP    C39 2063   0.845   3.750   2.601  0.0000  0.0000  0.0000
  102TTP    C40 2064   0.762   3.629   2.635  0.0000  0.0000  0.0000
  102TTP    C41 2065   0.811   3.500   2.574  0.0000  0.0000  0.0000
  102TTP    C42 2066   0.934   3.512   2.486  0.0000  0.0000  0.0000
  103TTP     S1 2067   1.421   2.955   1.458  0.0000  0.0000  0.0000
  103TTP     S5 2068   1.475   2.567   1.613  0.0000  0.0000  0.0000
  103TTP     C1 2069   1.484   2.555   1.440  0.0000  0.0000  0.0000
  103TTP     C2 2070   1.465   2.681   1.375  0.0000  0.0000  0.0000
  103TTP     C3 2071   1.446   2.779   1.473  0.0000  0.0000  0.0000
  103TTP     C4 2072   1.417   2.966   1.626  0.0000  0.0000  0.0000
  103TTP    C17 2073   1.430   2.842   1.693  0.0000  0.0000  0.0000
  103TTP    C18 2074   1.448   2.736   1.603  0.0000  0.0000  0.0000
  103TTP    C32 2075   1.485   2.709   1.224  0.0000  0.0000  0.0000
  103TTP    C33 2076   1.363   2.733   1.137  0.0000  0.0000  0.0000
  103TTP    C34 2077   1.376   2.768   0.986  0.0000  0.0000  0.0000
  103TTP    C35 2078   1.360   2.915   0.953  0.0000  0.0000  0.0000
  103TTP    C36 2079   1.354   2.965   0.808  0.0000  0.0000  0.0000
  103TTP    C37 2080   1.339   3.115   0.793  0.0000  0.0000  0.0000
  103TTP    C38 2081   1.214   3.159   0.720  0.0000  0.0000  0.0000
  103TTP    C39 2082   1.119   3.246   0.798  0.0000  0.0000  0.0000
  103TTP    C40 2083   0.999   3.285   0.716  0.0000  0.0000  0.0000
  103TTP    C41 2084   0.899   3.372   0.787  0.0000  0.0000  0.0000
  103TTP    C42 2085   0.777   3.412   0.706  0.0000  0.0000  0.0000
  104FIC     F1 2086   1.281   2.787   3.178  0.0000  0.0000  0.0000
  104FIC     F2 2087   1.252   2.996   3.339  0.0000  0.0000  0.0000
  104FIC     O1 2088   1.344   3.018   2.701  0.0000  0.0000  0.0000
  104FIC     N5 2089   1.223   3.465   3.218  0.0000  0.0000  0.0000
  104FIC     N6 2090   1.302   3.629   2.830  0.0000  0.0000  0.0000
  104FIC    C19 2091   1.328   3.323   2.678  0.0000  0.0000  0.0000
  104FIC    C20 2092   1.321   3.241   2.787  0.0000  0.0000  0.0000
  104FIC    C21 2093   1.323   3.101   2.794  0.0000  0.0000  0.0000
  104FIC    C22 2094   1.304   3.049   2.934  0.0000  0.0000  0.0000
  104FIC    C23 2095   1.304   2.923   2.993  0.0000  0.0000  0.0000
  104FIC    C24 2096   1.285   2.911   3.130  0.0000  0.0000  0.0000
  104FIC    C25 2097   1.265   3.024   3.208  0.0000  0.0000  0.0000
  104FIC    C26 2098   1.264   3.150   3.149  0.0000  0.0000  0.0000
  104FIC    C27 2099   1.283   3.162   3.012  0.0000  0.0000  0.0000
  104FIC    C28 2100   1.294   3.286   2.937  0.0000  0.0000  0.0000
  104FIC    C29 2101   1.276   3.413   2.970  0.0000  0.0000  0.0000
  104FIC    C30 2102   1.245   3.442   3.105  0.0000  0.0000  0.0000
  104FIC    C31 2103   1.288   3.531   2.895  0.0000  0.0000  0.0000
  105FIC     F1 2104   1.617   1.785   1.669  0.0000  0.0000  0.0000
  105FIC     F2 2105   1.642   1.723   1.419  0.0000  0.0000  0.0000
  105FIC     O1 2106   1.515   2.308   1.634  0.0000  0.0000  0.0000
  105FIC     N5 2107   1.593   1.996   1.017  0.0000  0.0000  0.0000
  105FIC     N6 2108   1.524   2.413   1.028  0.0000  0.0000  0.0000
  105FIC    C19 2109   1.506   2.438   1.366  0.0000  0.0000  0.0000
  105FIC    C20 2110   1.524   2.304   1.393  0.0000  0.0000  0.0000
  105FIC    C21 2111   1.531   2.255   1.521  0.0000  0.0000  0.0000
  105FIC    C22 2112   1.555   2.106   1.521  0.0000  0.0000  0.0000
  105FIC    C23 2113   1.575   2.010   1.618  0.0000  0.0000  0.0000
  105FIC    C24 2114   1.600   1.882   1.575  0.0000  0.0000  0.0000
  105FIC    C25 2115   1.617   1.851   1.442  0.0000  0.0000  0.0000
  105FIC    C26 2116   1.598   1.937   1.346  0.0000  0.0000  0.0000
  105FIC    C27 2117   1.570   2.068   1.386  0.0000  0.0000  0.0000
  105FIC    C28 2118   1.550   2.193   1.306  0.0000  0.0000  0.0000
  105FIC    C29 2119   1.553   2.202   1.168  0.0000  0.0000  0.0000
  105FIC    C30 2120   1.575   2.094   1.087  0.0000  0.0000  0.0000
  105FIC    C31 2121   1.539   2.317   1.096  0.0000  0.0000  0.0000
  106BTD     S2 2122   1.085   2.961   1.659  0.0000  0.0000  0.0000
  106BTD     N1 2123   1.077   2.980   1.827  0.0000  0.0000  0.0000
  106BTD     N2 2124   1.062   3.114   1.613  0.0000  0.0000  0.0000
  106BTD     N3 2125   1.011   3.535   1.820  0.0000  0.0000  0.0000
  106BTD     N4 2126   0.998   3.347   2.112  0.0000  0.0000  0.0000
  106BTD     C5 2127   1.040   3.181   1.966  0.0000  0.0000  0.0000
  106BTD     C6 2128   1.061   3.121   1.845  0.0000  0.0000  0.0000
  106BTD     C7 2129   1.044   3.183   1.725  0.0000  0.0000  0.0000
  106BTD     C8 2130   1.027   3.324   1.733  0.0000  0.0000  0.0000
  106BTD    C15 2131   1.018   3.401   1.851  0.0000  0.0000  0.0000
  106BTD    C16 2132   1.017   3.316   1.976  0.0000  0.0000  0.0000
  106BTD    C43 2133   0.951   3.473   2.172  0.0000  0.0000  0.0000
  106BTD    C44 2134   0.799   3.500   2.160  0.0000  0.0000  0.0000
  106BTD    C45 2135   0.779   3.634   2.239  0.0000  0.0000  0.0000
  106BTD    C46 2136   0.673   3.723   2.171  0.0000  0.0000  0.0000
  106BTD    C47 2137   0.723   3.384   2.221  0.0000  0.0000  0.0000
  106BTD    C48 2138   0.570   3.392   2.215  0.0000  0.0000  0.0000
  106BTD    C49 2139   0.472   3.288   2.269  0.0000  0.0000  0.0000
  106BTD    C50 2140   0.560   3.163   2.236  0.0000  0.0000  0.0000
  106BTD    C75 2141   0.977   3.652   1.904  0.0000  0.0000  0.0000
  106BTD    C76 2142   1.089   3.754   1.931  0.0000  0.0000  0.0000
  106BTD    C77 2143   1.210   3.688   1.989  0.0000  0.0000  0.0000
  106BTD    C78 2144   1.336   3.779   1.999  0.0000  0.0000  0.0000
  106BTD    C79 2145   1.046   3.858   2.037  0.0000  0.0000  0.0000
  106BTD    C80 2146   0.963   3.965   1.965  0.0000  0.0000  0.0000
  106BTD    C81 2147   0.927   4.081   2.063  0.0000  0.0000  0.0000
  106BTD    C82 2148   0.814   4.161   1.994  0.0000  0.0000  0.0000
  107TTP     S1 2149   1.060   2.977   2.177  0.0000  0.0000  0.0000
  107TTP     S5 2150   0.990   3.270   2.470  0.0000  0.0000  0.0000
  107TTP     C1 2151   1.011   3.117   2.547  0.0000  0.0000  0.0000
  107TTP     C2 2152   1.030   3.009   2.458  0.0000  0.0000  0.0000
  107TTP     C3 2153   1.035   3.055   2.323  0.0000  0.0000  0.0000
  107TTP     C4 2154   1.036   3.133   2.093  0.0000  0.0000  0.0000
  107TTP    C17 2155   1.016   3.227   2.186  0.0000  0.0000  0.0000
  107TTP    C18 2156   1.011   3.193   2.322  0.0000  0.0000  0.0000
  107TTP    C32 2157   1.052   2.857   2.494  0.0000  0.0000  0.0000
  107TTP    C33 2158   1.129   2.774   2.392  0.0000  0.0000  0.0000
  107TTP    C34 2159   1.149   2.632   2.446  0.0000  0.0000  0.0000
  107TTP    C35 2160   1.203   2.539   2.338  0.0000  0.0000  0.0000
  107TTP    C36 2161   1.247   2.400   2.388  0.0000  0.0000  0.0000
  107TTP    C37 2162   1.302   2.305   2.286  0.0000  0.0000  0.0000
  107TTP    C38 2163   1.223   2.171   2.272  0.0000  0.0000  0.0000
  107TTP    C39 2164   1.225   2.081   2.396  0.0000  0.0000  0.0000
  107TTP    C40 2165   1.148   1.951   2.381  0.0000  0.0000  0.0000
  107TTP    C41 2166   1.198   1.862   2.271  0.0000  0.0000  0.0000
  107TTP    C42 2167   1.192   1.925   2.128  0.0000  0.0000  0.0000
  108TTP     S1 2168   1.041   3.425   1.454  0.0000  0.0000  0.0000
  108TTP     S5 2169   1.003   3.823   1.587  0.0000  0.0000  0.0000
  108TTP     C1 2170   1.012   3.822   1.413  0.0000  0.0000  0.0000
  108TTP     C2 2171   1.021   3.694   1.359  0.0000  0.0000  0.0000
  108TTP     C3 2172   1.029   3.598   1.459  0.0000  0.0000  0.0000
  108TTP     C4 2173   1.031   3.417   1.629  0.0000  0.0000  0.0000
  108TTP    C17 2174   1.023   3.543   1.681  0.0000  0.0000  0.0000
  108TTP    C18 2175   1.019   3.656   1.586  0.0000  0.0000  0.0000
  108TTP    C32 2176   1.025   3.657   1.211  0.0000  0.0000  0.0000
  108TTP    C33 2177   1.172   3.651   1.157  0.0000  0.0000  0.0000
  108TTP    C34 2178   1.186   3.574   1.024  0.0000  0.0000  0.0000
  108TTP    C35 2179   1.334   3.537   0.985  0.0000  0.0000  0.0000
  108TTP    C36 2180   1.364   3.538   0.837  0.0000  0.0000  0.0000
  108TTP    C37 2181   1.407   3.404   0.783  0.0000  0.0000  0.0000
  108TTP    C38 2182   1.422   3.297   0.888  0.0000  0.0000  0.0000
  108TTP    C39 2183   1.362   3.332   1.022  0.0000  0.0000  0.0000
  108TTP    C40 2184   1.375   3.227   1.127  0.0000  0.0000  0.0000
  108TTP    C41 2185   1.315   3.262   1.260  0.0000  0.0000  0.0000
  108TTP    C42 2186   1.328   3.158   1.366  0.0000  0.0000  0.0000
  109FIC     F1 2187   0.888   3.618   3.183  0.0000  0.0000  0.0000
  109FIC     F2 2188   0.871   3.403   3.344  0.0000  0.0000  0.0000
  109FIC     O1 2189   0.977   3.391   2.712  0.0000  0.0000  0.0000
  109FIC     N5 2190   0.925   2.926   3.232  0.0000  0.0000  0.0000
  109FIC     N6 2191   0.980   2.783   2.838  0.0000  0.0000  0.0000
  109FIC    C19 2192   0.999   3.094   2.687  0.0000  0.0000  0.0000
  109FIC    C20 2193   0.973   3.161   2.801  0.0000  0.0000  0.0000
  109FIC    C21 2194   0.968   3.304   2.797  0.0000  0.0000  0.0000
  109FIC    C22 2195   0.945   3.358   2.938  0.0000  0.0000  0.0000
  109FIC    C23 2196   0.927   3.486   2.990  0.0000  0.0000  0.0000
  109FIC    C24 2197   0.901   3.503   3.125  0.0000  0.0000  0.0000
  109FIC    C25 2198   0.893   3.392   3.209  0.0000  0.0000  0.0000
  109FIC    C26 2199   0.911   3.265   3.157  0.0000  0.0000  0.0000
  109FIC    C27 2200   0.937   3.248   3.021  0.0000  0.0000  0.0000
  109FIC    C28 2201   0.953   3.121   2.943  0.0000  0.0000  0.0000
  109FIC    C29 2202   0.953   2.997   2.974  0.0000  0.0000  0.0000
  109FIC    C30 2203   0.937   2.969   3.133  0.0000  0.0000  0.0000
  109FIC    C31 2204   0.966   2.879   2.897  0.0000  0.0000  0.0000
  110FIC     F1 2205   0.894   4.611   1.590  0.0000  0.0000  0.0000
  110FIC     F2 2206   0.878   4.660   1.320  0.0000  0.0000  0.0000
  110FIC     O1 2207   0.993   4.091   1.592  0.0000  0.0000  0.0000
  110FIC     N5 2208   0.939   4.346   0.941  0.0000  0.0000  0.0000
  110FIC     N6 2209   1.003   3.938   0.983  0.0000  0.0000  0.0000
  110FIC    C19 2210   0.996   3.939   1.329  0.0000  0.0000  0.0000
  110FIC    C20 2211   0.983   4.078   1.348  0.0000  0.0000  0.0000
  110FIC    C21 2212   0.980   4.130   1.480  0.0000  0.0000  0.0000
  110FIC    C22 2213   0.950   4.281   1.452  0.0000  0.0000  0.0000
  110FIC    C23 2214   0.934   4.385   1.543  0.0000  0.0000  0.0000
  110FIC    C24 2215   0.910   4.514   1.497  0.0000  0.0000  0.0000
  110FIC    C25 2216   0.902   4.539   1.360  0.0000  0.0000  0.0000
  110FIC    C26 2217   0.919   4.435   1.269  0.0000  0.0000  0.0000
  110FIC    C27 2218   0.943   4.306   1.315  0.0000  0.0000  0.0000
  110FIC    C28 2219   0.966   4.178   1.241  0.0000  0.0000  0.0000
  110FIC    C29 2220   0.969   4.155   1.119  0.0000  0.0000  0.0000
  110FIC    C30 2221   0.948   4.284   1.036  0.0000  0.0000  0.0000
  110FIC    C31 2222   0.989   4.037   1.042  0.0000  0.0000  0.0000
  111BTD     S2 2223   0.929   0.478  -1.649  0.0000  0.0000  0.0000
  111BTD     N1 2224   0.932   0.492  -1.810  0.0000  0.0000  0.0000
  111BTD     N2 2225   0.912   0.631  -1.603  0.0000  0.0000  0.0000
  111BTD     N3 2226   0.863   1.044  -1.829  0.0000  0.0000  0.0000
  111BTD     N4 2227   0.889   0.859  -2.112  0.0000  0.0000  0.0000
  111BTD     C5 2228   0.907   0.686  -1.959  0.0000  0.0000  0.0000
  111BTD     C6 2229   0.913   0.627  -1.834  0.0000  0.0000  0.0000
  111BTD     C7 2230   0.903   0.705  -1.719  0.0000  0.0000  0.0000
  111BTD     C8 2231   0.887   0.843  -1.731  0.0000  0.0000  0.0000
  111BTD    C15 2232   0.881   0.902  -1.856  0.0000  0.0000  0.0000
  111BTD    C16 2233   0.891   0.823  -1.971  0.0000  0.0000  0.0000
  111BTD    C43 2234   0.862   0.982  -2.193  0.0000  0.0000  0.0000
  111BTD    C44 2235   0.727   0.999  -2.262  0.0000  0.0000  0.0000
  111BTD    C45 2236   0.706   1.135  -2.331  0.0000  0.0000  0.0000
  111BTD    C46 2237   0.809   1.136  -2.448  0.0000  0.0000  0.0000
  111BTD    C47 2238   0.619   0.968  -2.160  0.0000  0.0000  0.0000
  111BTD    C48 2239   0.485   0.966  -2.239  0.0000  0.0000  0.0000
  111BTD    C49 2240   0.377   0.937  -2.136  0.0000  0.0000  0.0000
  111BTD    C50 2241   0.241   0.960  -2.205  0.0000  0.0000  0.0000
  111BTD    C75 2242   0.845   1.157  -1.914  0.0000  0.0000  0.0000
  111BTD    C76 2243   0.961   1.250  -1.948  0.0000  0.0000  0.0000
  111BTD    C77 2244   1.097   1.196  -1.984  0.0000  0.0000  0.0000
  111BTD    C78 2245   1.217   1.285  -1.943  0.0000  0.0000  0.0000
  111BTD    C79 2246   0.923   1.371  -2.037  0.0000  0.0000  0.0000
  111BTD    C80 2247   0.828   1.481  -1.988  0.0000  0.0000  0.0000
  111BTD    C81 2248   0.768   1.606  -2.060  0.0000  0.0000  0.0000
  111BTD    C82 2249   0.786   1.714  -1.974  0.0000  0.0000  0.0000
  112TTP     S1 2250   0.940   0.479  -2.164  0.0000  0.0000  0.0000
  112TTP     S5 2251   0.925   0.769  -2.470  0.0000  0.0000  0.0000
  112TTP     C1 2252   0.950   0.605  -2.535  0.0000  0.0000  0.0000
  112TTP     C2 2253   0.954   0.500  -2.438  0.0000  0.0000  0.0000
  112TTP     C3 2254   0.940   0.563  -2.324  0.0000  0.0000  0.0000
  112TTP     C4 2255   0.918   0.634  -2.094  0.0000  0.0000  0.0000
  112TTP    C17 2256   0.905   0.736  -2.179  0.0000  0.0000  0.0000
  112TTP    C18 2257   0.920   0.691  -2.312  0.0000  0.0000  0.0000
  112TTP    C32 2258   0.956   0.353  -2.481  0.0000  0.0000  0.0000
  112TTP    C33 2259   1.102   0.306  -2.473  0.0000  0.0000  0.0000
  112TTP    C34 2260   1.106   0.154  -2.486  0.0000  0.0000  0.0000
  112TTP    C35 2261   1.244   0.100  -2.518  0.0000  0.0000  0.0000
  112TTP    C36 2262   1.305   0.017  -2.408  0.0000  0.0000  0.0000
  112TTP    C37 2263   1.445  -0.039  -2.438  0.0000  0.0000  0.0000
  112TTP    C38 2264   1.529   0.046  -2.531  0.0000  0.0000  0.0000
  112TTP    C39 2265   1.451   0.156  -2.601  0.0000  0.0000  0.0000
  112TTP    C40 2266   1.534   0.277  -2.635  0.0000  0.0000  0.0000
  112TTP    C41 2267   1.485   0.406  -2.574  0.0000  0.0000  0.0000
  112TTP    C42 2268   1.362   0.394  -2.486  0.0000  0.0000  0.0000
  113TTP     S1 2269   0.875   0.951  -1.458  0.0000  0.0000  0.0000
  113TTP     S5 2270   0.821   1.339  -1.613  0.0000  0.0000  0.0000
  113TTP     C1 2271   0.812   1.351  -1.440  0.0000  0.0000  0.0000
  113TTP     C2 2272   0.831   1.225  -1.375  0.0000  0.0000  0.0000
  113TTP     C3 2273   0.850   1.127  -1.473  0.0000  0.0000  0.0000
  113TTP     C4 2274   0.879   0.940  -1.626  0.0000  0.0000  0.0000
  113TTP    C17 2275   0.866   1.064  -1.693  0.0000  0.0000  0.0000
  113TTP    C18 2276   0.848   1.170  -1.603  0.0000  0.0000  0.0000
  113TTP    C32 2277   0.811   1.197  -1.224  0.0000  0.0000  0.0000
  113TTP    C33 2278   0.933   1.173  -1.137  0.0000  0.0000  0.0000
  113TTP    C34 2279   0.920   1.138  -0.986  0.0000  0.0000  0.0000
  113TTP    C35 2280   0.936   0.991  -0.953  0.0000  0.0000  0.0000
  113TTP    C36 2281   0.942   0.941  -0.808  0.0000  0.0000  0.0000
  113TTP    C37 2282   0.957   0.791  -0.793  0.0000  0.0000  0.0000
  113TTP    C38 2283   1.082   0.747  -0.720  0.0000  0.0000  0.0000
  113TTP    C39 2284   1.177   0.660  -0.798  0.0000  0.0000  0.0000
  113TTP    C40 2285   1.297   0.621  -0.716  0.0000  0.0000  0.0000
  113TTP    C41 2286   1.397   0.534  -0.787  0.0000  0.0000  0.0000
  113TTP    C42 2287   1.519   0.494  -0.706  0.0000  0.0000  0.0000
  114FIC     F1 2288   1.015   1.119  -3.178  0.0000  0.0000  0.0000
  114FIC     F2 2289   1.044   0.910  -3.339  0.0000  0.0000  0.0000
  114FIC     O1 2290   0.952   0.888  -2.701  0.0000  0.0000  0.0000
  114FIC     N5 2291   1.074   0.441  -3.218  0.0000  0.0000  0.0000
  114FIC     N6 2292   0.994   0.277  -2.830  0.0000  0.0000  0.0000
  114FIC    C19 2293   0.968   0.583  -2.678  0.0000  0.0000  0.0000
  114FIC    C20 2294   0.975   0.665  -2.787  0.0000  0.0000  0.0000
  114FIC    C21 2295   0.973   0.805  -2.794  0.0000  0.0000  0.0000
  114FIC    C22 2296   0.993   0.857  -2.934  0.0000  0.0000  0.0000
  114FIC    C23 2297   0.992   0.983  -2.993  0.0000  0.0000  0.0000
  114FIC    C24 2298   1.011   0.995  -3.130  0.0000  0.0000  0.0000
  114FIC    C25 2299   1.031   0.882  -3.208  0.0000  0.0000  0.0000
  114FIC    C26 2300   1.032   0.756  -3.149  0.0000  0.0000  0.0000
  114FIC    C27 2301   1.013   0.744  -3.012  0.0000  0.0000  0.0000
  114FIC    C28 2302   1.002   0.620  -2.937  0.0000  0.0000  0.0000
  114FIC    C29 2303   1.020   0.493  -2.970  0.0000  0.0000  0.0000
  114FIC    C30 2304   1.051   0.464  -3.105  0.0000  0.0000  0.0000
  114FIC    C31 2305   1.008   0.375  -2.895  0.0000  0.0000  0.0000
  115FIC     F1 2306   0.680   2.121  -1.669  0.0000  0.0000  0.0000
  115FIC     F2 2307   0.654   2.183  -1.419  0.0000  0.0000  0.0000
  115FIC     O1 2308   0.781   1.598  -1.634  0.0000  0.0000  0.0000
  115FIC     N5 2309   0.703   1.910  -1.017  0.0000  0.0000  0.0000
  115FIC     N6 2310   0.773   1.493  -1.028  0.0000  0.0000  0.0000
  115FIC    C19 2311   0.790   1.468  -1.366  0.0000  0.0000  0.0000
  115FIC    C20 2312   0.772   1.602  -1.393  0.0000  0.0000  0.0000
  115FIC    C21 2313   0.765   1.651  -1.521  0.0000  0.0000  0.0000
  115FIC    C22 2314   0.741   1.800  -1.521  0.0000  0.0000  0.0000
  115FIC    C23 2315   0.721   1.896  -1.618  0.0000  0.0000  0.0000
  115FIC    C24 2316   0.696   2.023  -1.575  0.0000  0.0000  0.0000
  115FIC    C25 2317   0.679   2.055  -1.442  0.0000  0.0000  0.0000
  115FIC    C26 2318   0.698   1.969  -1.346  0.0000  0.0000  0.0000
  115FIC    C27 2319   0.726   1.838  -1.386  0.0000  0.0000  0.0000
  115FIC    C28 2320   0.746   1.713  -1.306  0.0000  0.0000  0.0000
  115FIC    C29 2321   0.743   1.704  -1.168  0.0000  0.0000  0.0000
  115FIC    C30 2322   0.721   1.812  -1.087  0.0000  0.0000  0.0000
  115FIC    C31 2323   0.757   1.589  -1.096  0.0000  0.0000  0.0000
  116BTD     S2 2324   1.211   0.945  -1.659  0.0000  0.0000  0.0000
  116BTD     N1 2325   1.219   0.926  -1.827  0.0000  0.0000  0.0000
  116BTD     N2 2326   1.234   0.792  -1.613  0.0000  0.0000  0.0000
  116BTD     N3 2327   1.285   0.371  -1.820  0.0000  0.0000  0.0000
  116BTD     N4 2328   1.298   0.559  -2.112  0.0000  0.0000  0.0000
  116BTD     C5 2329   1.256   0.725  -1.966  0.0000  0.0000  0.0000
  116BTD     C6 2330   1.235   0.785  -1.845  0.0000  0.0000  0.0000
  116BTD     C7 2331   1.252   0.723  -1.725  0.0000  0.0000  0.0000
  116BTD     C8 2332   1.269   0.582  -1.733  0.0000  0.0000  0.0000
  116BTD    C15 2333   1.278   0.505  -1.851  0.0000  0.0000  0.0000
  116BTD    C16 2334   1.279   0.590  -1.976  0.0000  0.0000  0.0000
  116BTD    C43 2335   1.345   0.433  -2.172  0.0000  0.0000  0.0000
  116BTD    C44 2336   1.497   0.406  -2.160  0.0000  0.0000  0.0000
  116BTD    C45 2337   1.517   0.272  -2.239  0.0000  0.0000  0.0000
  116BTD    C46 2338   1.623   0.183  -2.171  0.0000  0.0000  0.0000
  116BTD    C47 2339   1.573   0.522  -2.221  0.0000  0.0000  0.0000
  116BTD    C48 2340   1.726   0.514  -2.215  0.0000  0.0000  0.0000
  116BTD    C49 2341   1.824   0.618  -2.269  0.0000  0.0000  0.0000
  116BTD    C50 2342   1.736   0.743  -2.236  0.0000  0.0000  0.0000
  116BTD    C75 2343   1.319   0.254  -1.904  0.0000  0.0000  0.0000
  116BTD    C76 2344   1.208   0.152  -1.931  0.0000  0.0000  0.0000
  116BTD    C77 2345   1.086   0.218  -1.989  0.0000  0.0000  0.0000
  116BTD    C78 2346   0.960   0.127  -1.999  0.0000  0.0000  0.0000
  116BTD    C79 2347   1.250   0.048  -2.037  0.0000  0.0000  0.0000
  116BTD    C80 2348   1.333  -0.059  -1.965  0.0000  0.0000  0.0000
  116BTD    C81 2349   1.369  -0.175  -2.063  0.0000  0.0000  0.0000
  116BTD    C82 2350   1.482  -0.255  -1.994  0.0000  0.0000  0.0000
  117TTP     S1 2351   1.236   0.929  -2.177  0.0000  0.0000  0.0000
  117TTP     S5 2352   1.306   0.636  -2.470  0.0000  0.0000  0.0000
  117TTP     C1 2353   1.285   0.789  -2.547  0.0000  0.0000  0.0000
  117TTP     C2 2354   1.266   0.897  -2.458  0.0000  0.0000  0.0000
  117TTP     C3 2355   1.261   0.851  -2.323  0.0000  0.0000  0.0000
  117TTP     C4 2356   1.260   0.773  -2.093  0.0000  0.0000  0.0000
  117TTP    C17 2357   1.280   0.679  -2.186  0.0000  0.0000  0.0000
  117TTP    C18 2358   1.285   0.713  -2.322  0.0000  0.0000  0.0000
  117TTP    C32 2359   1.244   1.049  -2.494  0.0000  0.0000  0.0000
  117TTP    C33 2360   1.167   1.132  -2.392  0.0000  0.0000  0.0000
  117TTP    C34 2361   1.147   1.274  -2.446  0.0000  0.0000  0.0000
  117TTP    C35 2362   1.093   1.367  -2.338  0.0000  0.0000  0.0000
  117TTP    C36 2363   1.049   1.506  -2.388  0.0000  0.0000  0.0000
  117TTP    C37 2364   0.994   1.601  -2.286  0.0000  0.0000  0.0000
  117TTP    C38 2365   1.073   1.735  -2.272  0.0000  0.0000  0.0000
  117TTP    C39 2366   1.072   1.825  -2.396  0.0000  0.0000  0.0000
  117TTP    C40 2367   1.148   1.955  -2.381  0.0000  0.0000  0.0000
  117TTP    C41 2368   1.098   2.044  -2.271  0.0000  0.0000  0.0000
  117TTP    C42 2369   1.104   1.981  -2.128  0.0000  0.0000  0.0000
  118TTP     S1 2370   1.255   0.481  -1.454  0.0000  0.0000  0.0000
  118TTP     S5 2371   1.293   0.083  -1.587  0.0000  0.0000  0.0000
  118TTP     C1 2372   1.284   0.084  -1.413  0.0000  0.0000  0.0000
  118TTP     C2 2373   1.275   0.212  -1.359  0.0000  0.0000  0.0000
  118TTP     C3 2374   1.267   0.308  -1.459  0.0000  0.0000  0.0000
  118TTP     C4 2375   1.265   0.489  -1.629  0.0000  0.0000  0.0000
  118TTP    C17 2376   1.273   0.363  -1.681  0.0000  0.0000  0.0000
  118TTP    C18 2377   1.277   0.250  -1.586  0.0000  0.0000  0.0000
  118TTP    C32 2378   1.271   0.249  -1.211  0.0000  0.0000  0.0000
  118TTP    C33 2379   1.124   0.255  -1.157  0.0000  0.0000  0.0000
  118TTP    C34 2380   1.110   0.332  -1.024  0.0000  0.0000  0.0000
  118TTP    C35 2381   0.962   0.369  -0.985  0.0000  0.0000  0.0000
  118TTP    C36 2382   0.932   0.368  -0.837  0.0000  0.0000  0.0000
  118TTP    C37 2383   0.889   0.502  -0.783  0.0000  0.0000  0.0000
  118TTP    C38 2384   0.874   0.609  -0.888  0.0000  0.0000  0.0000
  118TTP    C39 2385   0.934   0.574  -1.022  0.0000  0.0000  0.0000
  118TTP    C40 2386   0.921   0.679  -1.127  0.0000  0.0000  0.0000
  118TTP    C41 2387   0.981   0.644  -1.260  0.0000  0.0000  0.0000
  118TTP    C42 2388   0.968   0.748  -1.366  0.0000  0.0000  0.0000
  119FIC     F1 2389   1.408   0.288  -3.183  0.0000  0.0000  0.0000
  119FIC     F2 2390   1.425   0.503  -3.344  0.0000  0.0000  0.0000
  119FIC     O1 2391   1.319   0.515  -2.712  0.0000  0.0000  0.0000
  119FIC     N5 2392   1.371   0.980  -3.232  0.0000  0.0000  0.0000
  119FIC     N6 2393   1.316   1.123  -2.838  0.0000  0.0000  0.0000
  119FIC    C19 2394   1.297   0.812  -2.687  0.0000  0.0000  0.0000
  119FIC    C20 2395   1.323   0.745  -2.801  0.0000  0.0000  0.0000
  119FIC    C21 2396   1.328   0.602  -2.797  0.0000  0.0000  0.0000
  119FIC    C22 2397   1.351   0.548  -2.938  0.0000  0.0000  0.0000
  119FIC    C23 2398   1.369   0.420  -2.990  0.0000  0.0000  0.0000
  119FIC    C24 2399   1.395   0.403  -3.125  0.0000  0.0000  0.0000
  119FIC    C25 2400   1.403   0.514  -3.209  0.0000  0.0000  0.0000
  119FIC    C26 2401   1.385   0.641  -3.157  0.0000  0.0000  0.0000
  119FIC    C27 2402   1.359   0.658  -3.021  0.0000  0.0000  0.0000
  119FIC    C28 2403   1.343   0.785  -2.943  0.0000  0.0000  0.0000
  119FIC    C29 2404   1.343   0.909  -2.974  0.0000  0.0000  0.0000
  119FIC    C30 2405   1.359   0.937  -3.133  0.0000  0.0000  0.0000
  119FIC    C31 2406   1.330   1.027  -2.897  0.0000  0.0000  0.0000
  120FIC     F1 2407   1.402  -0.705  -1.590  0.0000  0.0000  0.0000
  120FIC     F2 2408   1.418  -0.754  -1.320  0.0000  0.0000  0.0000
  120FIC     O1 2409   1.303  -0.185  -1.592  0.0000  0.0000  0.0000
  120FIC     N5 2410   1.357  -0.440  -0.941  0.0000  0.0000  0.0000
  120FIC     N6 2411   1.293  -0.032  -0.983  0.0000  0.0000  0.0000
  120FIC    C19 2412   1.300  -0.033  -1.329  0.0000  0.0000  0.0000
  120FIC    C20 2413   1.313  -0.172  -1.348  0.0000  0.0000  0.0000
  120FIC    C21 2414   1.316  -0.224  -1.480  0.0000  0.0000  0.0000
  120FIC    C22 2415   1.346  -0.375  -1.452  0.0000  0.0000  0.0000
  120FIC    C23 2416   1.362  -0.479  -1.543  0.0000  0.0000  0.0000
  120FIC    C24 2417   1.386  -0.608  -1.497  0.0000  0.0000  0.0000
  120FIC    C25 2418   1.394  -0.633  -1.360  0.0000  0.0000  0.0000
  120FIC    C26 2419   1.377  -0.529  -1.269  0.0000  0.0000  0.0000
  120FIC    C27 2420   1.353  -0.400  -1.315  0.0000  0.0000  0.0000
  120FIC    C28 2421   1.330  -0.272  -1.241  0.0000  0.0000  0.0000
  120FIC    C29 2422   1.327  -0.249  -1.119  0.0000  0.0000  0.0000
  120FIC    C30 2423   1.348  -0.378  -1.036  0.0000  0.0000  0.0000
  120FIC    C31 2424   1.307  -0.131  -1.042  0.0000  0.0000  0.0000
  121BTD     S2 2425   1.142   5.380   1.649  0.0000  0.0000  0.0000
  121BTD     N1 2426   1.139   5.366   1.810  0.0000  0.0000  0.0000
  121BTD     N2 2427   1.159   5.227   1.603  0.0000  0.0000  0.0000
  121BTD     N3 2428   1.208   4.814   1.829  0.0000  0.0000  0.0000
  121BTD     N4 2429   1.182   4.999   2.112  0.0000  0.0000  0.0000
  121BTD     C5 2430   1.164   5.172   1.959  0.0000  0.0000  0.0000
  121BTD     C6 2431   1.158   5.231   1.834  0.0000  0.0000  0.0000
  121BTD     C7 2432   1.168   5.153   1.719  0.0000  0.0000  0.0000
  121BTD     C8 2433   1.184   5.015   1.731  0.0000  0.0000  0.0000
  121BTD    C15 2434   1.190   4.956   1.856  0.0000  0.0000  0.0000
  121BTD    C16 2435   1.180   5.035   1.971  0.0000  0.0000  0.0000
  121BTD    C43 2436   1.209   4.876   2.193  0.0000  0.0000  0.0000
  121BTD    C44 2437   1.344   4.859   2.262  0.0000  0.0000  0.0000
  121BTD    C45 2438   1.365   4.723   2.331  0.0000  0.0000  0.0000
  121BTD    C46 2439   1.262   4.722   2.448  0.0000  0.0000  0.0000
  121BTD    C47 2440   1.452   4.890   2.160  0.0000  0.0000  0.0000
  121BTD    C48 2441   1.586   4.892   2.239  0.0000  0.0000  0.0000
  121BTD    C49 2442   1.694   4.921   2.136  0.0000  0.0000  0.0000
  121BTD    C50 2443   1.830   4.898   2.205  0.0000  0.0000  0.0000
  121BTD    C75 2444   1.226   4.701   1.914  0.0000  0.0000  0.0000
  121BTD    C76 2445   1.110   4.608   1.948  0.0000  0.0000  0.0000
  121BTD    C77 2446   0.974   4.662   1.984  0.0000  0.0000  0.0000
  121BTD    C78 2447   0.854   4.573   1.943  0.0000  0.0000  0.0000
  121BTD    C79 2448   1.148   4.487   2.037  0.0000  0.0000  0.0000
  121BTD    C80 2449   1.243   4.377   1.988  0.0000  0.0000  0.0000
  121BTD    C81 2450   1.303   4.252   2.060  0.0000  0.0000  0.0000
  121BTD    C82 2451   1.285   4.144   1.974  0.0000  0.0000  0.0000
  122TTP     S1 2452   1.131   5.379   2.164  0.0000  0.0000  0.0000
  122TTP     S5 2453   1.146   5.089   2.470  0.0000  0.0000  0.0000
  122TTP     C1 2454   1.121   5.253   2.535  0.0000  0.0000  0.0000
  122TTP     C2 2455   1.117   5.358   2.438  0.0000  0.0000  0.0000
  122TTP     C3 2456   1.131   5.295   2.324  0.0000  0.0000  0.0000
  122TTP     C4 2457   1.153   5.224   2.094  0.0000  0.0000  0.0000
  122TTP    C17 2458   1.166   5.122   2.179  0.0000  0.0000  0.0000
  122TTP    C18 2459   1.151   5.167   2.312  0.0000  0.0000  0.0000
  122TTP    C32 2460   1.115   5.505   2.481  0.0000  0.0000  0.0000
  122TTP    C33 2461   0.969   5.552   2.473  0.0000  0.0000  0.0000
  122TTP    C34 2462   0.965   5.704   2.486  0.0000  0.0000  0.0000
  122TTP    C35 2463   0.827   5.758   2.518  0.0000  0.0000  0.0000
  122TTP    C36 2464   0.766   5.841   2.408  0.0000  0.0000  0.0000
  122TTP    C37 2465   0.626   5.897   2.438  0.0000  0.0000  0.0000
  122TTP    C38 2466   0.542   5.812   2.531  0.0000  0.0000  0.0000
  122TTP    C39 2467   0.620   5.702   2.601  0.0000  0.0000  0.0000
  122TTP    C40 2468   0.537   5.581   2.635  0.0000  0.0000  0.0000
  122TTP    C41 2469   0.586   5.452   2.574  0.0000  0.0000  0.0000
  122TTP    C42 2470   0.709   5.464   2.486  0.0000  0.0000  0.0000
  123TTP     S1 2471   1.196   4.907   1.458  0.0000  0.0000  0.0000
  123TTP     S5 2472   1.250   4.519   1.613  0.0000  0.0000  0.0000
  123TTP     C1 2473   1.259   4.507   1.440  0.0000  0.0000  0.0000
  123TTP     C2 2474   1.240   4.633   1.375  0.0000  0.0000  0.0000
  123TTP     C3 2475   1.221   4.731   1.473  0.0000  0.0000  0.0000
  123TTP     C4 2476   1.192   4.918   1.626  0.0000  0.0000  0.0000
  123TTP    C17 2477   1.205   4.794   1.693  0.0000  0.0000  0.0000
  123TTP    C18 2478   1.223   4.688   1.603  0.0000  0.0000  0.0000
  123TTP    C32 2479   1.260   4.661   1.224  0.0000  0.0000  0.0000
  123TTP    C33 2480   1.138   4.685   1.137  0.0000  0.0000  0.0000
  123TTP    C34 2481   1.151   4.720   0.986  0.0000  0.0000  0.0000
  123TTP    C35 2482   1.135   4.867   0.953  0.0000  0.0000  0.0000
  123TTP    C36 2483   1.129   4.917   0.808  0.0000  0.0000  0.0000
  123TTP    C37 2484   1.114   5.067   0.793  0.0000  0.0000  0.0000
  123TTP    C38 2485   0.989   5.111   0.720  0.0000  0.0000  0.0000
  123TTP    C39 2486   0.894   5.198   0.798  0.0000  0.0000  0.0000
  123TTP    C40 2487   0.774   5.237   0.716  0.0000  0.0000  0.0000
  123TTP    C41 2488   0.674   5.324   0.787  0.0000  0.0000  0.0000
  123TTP    C42 2489   0.552   5.364   0.706  0.0000  0.0000  0.0000
  124FIC     F1 2490   1.056   4.739   3.178  0.0000  0.0000  0.0000
  124FIC     F2 2491   1.027   4.948   3.339  0.0000  0.0000  0.0000
  124FIC     O1 2492   1.119   4.970   2.701  0.0000  0.0000  0.0000
  124FIC     N5 2493   0.998   5.417   3.218  0.0000  0.0000  0.0000
  124FIC     N6 2494   1.077   5.581   2.830  0.0000  0.0000  0.0000
  124FIC    C19 2495   1.103   5.275   2.678  0.0000  0.0000  0.0000
  124FIC    C20 2496   1.096   5.193   2.787  0.0000  0.0000  0.0000
  124FIC    C21 2497   1.098   5.053   2.794  0.0000  0.0000  0.0000
  124FIC    C22 2498   1.079   5.001   2.934  0.0000  0.0000  0.0000
  124FIC    C23 2499   1.079   4.875   2.993  0.0000  0.0000  0.0000
  124FIC    C24 2500   1.060   4.863   3.130  0.0000  0.0000  0.0000
  124FIC    C25 2501   1.040   4.976   3.208  0.0000  0.0000  0.0000
  124FIC    C26 2502   1.039   5.102   3.149  0.0000  0.0000  0.0000
  124FIC    C27 2503   1.058   5.114   3.012  0.0000  0.0000  0.0000
  124FIC    C28 2504   1.069   5.238   2.937  0.0000  0.0000  0.0000
  124FIC    C29 2505   1.051   5.365   2.970  0.0000  0.0000  0.0000
  124FIC    C30 2506   1.020   5.394   3.105  0.0000  0.0000  0.0000
  124FIC    C31 2507   1.063   5.483   2.895  0.0000  0.0000  0.0000
  125FIC     F1 2508   1.392   3.737   1.669  0.0000  0.0000  0.0000
  125FIC     F2 2509   1.417   3.675   1.419  0.0000  0.0000  0.0000
  125FIC     O1 2510   1.290   4.260   1.634  0.0000  0.0000  0.0000
  125FIC     N5 2511   1.368   3.948   1.017  0.0000  0.0000  0.0000
  125FIC     N6 2512   1.299   4.365   1.028  0.0000  0.0000  0.0000
  125FIC    C19 2513   1.281   4.390   1.366  0.0000  0.0000  0.0000
  125FIC    C20 2514   1.299   4.256   1.393  0.0000  0.0000  0.0000
  125FIC    C21 2515   1.306   4.207   1.521  0.0000  0.0000  0.0000
  125FIC    C22 2516   1.330   4.058   1.521  0.0000  0.0000  0.0000
  125FIC    C23 2517   1.350   3.962   1.618  0.0000  0.0000  0.0000
  125FIC    C24 2518   1.375   3.834   1.575  0.0000  0.0000  0.0000
  125FIC    C25 2519   1.392   3.803   1.442  0.0000  0.0000  0.0000
  125FIC    C26 2520   1.373   3.889   1.346  0.0000  0.0000  0.0000
  125FIC    C27 2521   1.345   4.020   1.386  0.0000  0.0000  0.0000
  125FIC    C28 2522   1.325   4.145   1.306  0.0000  0.0000  0.0000
  125FIC    C29 2523   1.328   4.154   1.168  0.0000  0.0000  0.0000
  125FIC    C30 2524   1.350   4.046   1.087  0.0000  0.0000  0.0000
  125FIC    C31 2525   1.314   4.269   1.096  0.0000  0.0000  0.0000
  126BTD     S2 2526   0.860   4.913   1.659  0.0000  0.0000  0.0000
  126BTD     N1 2527   0.852   4.932   1.827  0.0000  0.0000  0.0000
  126BTD     N2 2528   0.837   5.066   1.613  0.0000  0.0000  0.0000
  126BTD     N3 2529   0.786   5.487   1.820  0.0000  0.0000  0.0000
  126BTD     N4 2530   0.773   5.299   2.112  0.0000  0.0000  0.0000
  126BTD     C5 2531   0.815   5.133   1.966  0.0000  0.0000  0.0000
  126BTD     C6 2532   0.836   5.073   1.845  0.0000  0.0000  0.0000
  126BTD     C7 2533   0.819   5.135   1.725  0.0000  0.0000  0.0000
  126BTD     C8 2534   0.802   5.276   1.733  0.0000  0.0000  0.0000
  126BTD    C15 2535   0.793   5.353   1.851  0.0000  0.0000  0.0000
  126BTD    C16 2536   0.792   5.268   1.976  0.0000  0.0000  0.0000
  126BTD    C43 2537   0.726   5.425   2.172  0.0000  0.0000  0.0000
  126BTD    C44 2538   0.574   5.452   2.160  0.0000  0.0000  0.0000
  126BTD    C45 2539   0.554   5.586   2.239  0.0000  0.0000  0.0000
  126BTD    C46 2540   0.448   5.675   2.171  0.0000  0.0000  0.0000
  126BTD    C47 2541   0.498   5.336   2.221  0.0000  0.0000  0.0000
  126BTD    C48 2542   0.345   5.344   2.215  0.0000  0.0000  0.0000
  126BTD    C49 2543   0.247   5.240   2.269  0.0000  0.0000  0.0000
  126BTD    C50 2544   0.335   5.115   2.236  0.0000  0.0000  0.0000
  126BTD    C75 2545   0.752   5.604   1.904  0.0000  0.0000  0.0000
  126BTD    C76 2546   0.864   5.706   1.931  0.0000  0.0000  0.0000
  126BTD    C77 2547   0.985   5.640   1.989  0.0000  0.0000  0.0000
  126BTD    C78 2548   1.111   5.731   1.999  0.0000  0.0000  0.0000
  126BTD    C79 2549   0.821   5.810   2.037  0.0000  0.0000  0.0000
  126BTD    C80 2550   0.738   5.917   1.965  0.0000  0.0000  0.0000
  126BTD    C81 2551   0.702   6.033   2.063  0.0000  0.0000  0.0000
  126BTD    C82 2552   0.589   6.113   1.994  0.0000  0.0000  0.0000
  127TTP     S1 2553   0.835   4.929   2.177  0.0000  0.0000  0.0000
  127TTP     S5 2554   0.765   5.222   2.470  0.0000  0.0000  0.0000
  127TTP     C1 2555   0.786   5.069   2.547  0.0000  0.0000  0.0000
  127TTP     C2 2556   0.805   4.961   2.458  0.0000  0.0000  0.0000
  127TTP     C3 2557   0.810   5.007   2.323  0.0000  0.0000  0.0000
  127TTP     C4 2558   0.811   5.085   2.093  0.0000  0.0000  0.0000
  127TTP    C17 2559   0.791   5.179   2.186  0.0000  0.0000  0.0000
  127TTP    C18 2560   0.786   5.145   2.322  0.0000  0.0000  0.0000
  127TTP    C32 2561   0.827   4.809   2.494  0.0000  0.0000  0.0000
  127TTP    C33 2562   0.904   4.726   2.392  0.0000  0.0000  0.0000
  127TTP    C34 2563   0.924   4.584   2.446  0.0000  0.0000  0.0000
  127TTP    C35 2564   0.978   4.491   2.338  0.0000  0.0000  0.0000
  127TTP    C36 2565   1.022   4.352   2.388  0.0000  0.0000  0.0000
  127TTP    C37 2566   1.077   4.257   2.286  0.0000  0.0000  0.0000
  127TTP    C38 2567   0.998   4.123   2.272  0.0000  0.0000  0.0000
  127TTP    C39 2568   1.000   4.033   2.396  0.0000  0.0000  0.0000
  127TTP    C40 2569   0.923   3.903   2.381  0.0000  0.0000  0.0000
  127TTP    C41 2570   0.973   3.814   2.271  0.0000  0.0000  0.0000
  127TTP    C42 2571   0.967   3.877   2.128  0.0000  0.0000  0.0000
  128TTP     S1 2572   0.816   5.377   1.454  0.0000  0.0000  0.0000
  128TTP     S5 2573   0.778   5.775   1.587  0.0000  0.0000  0.0000
  128TTP     C1 2574   0.787   5.774   1.413  0.0000  0.0000  0.0000
  128TTP     C2 2575   0.796   5.646   1.359  0.0000  0.0000  0.0000
  128TTP     C3 2576   0.804   5.550   1.459  0.0000  0.0000  0.0000
  128TTP     C4 2577   0.806   5.369   1.629  0.0000  0.0000  0.0000
  128TTP    C17 2578   0.798   5.495   1.681  0.0000  0.0000  0.0000
  128TTP    C18 2579   0.794   5.608   1.586  0.0000  0.0000  0.0000
  128TTP    C32 2580   0.800   5.609   1.211  0.0000  0.0000  0.0000
  128TTP    C33 2581   0.947   5.603   1.157  0.0000  0.0000  0.0000
  128TTP    C34 2582   0.961   5.526   1.024  0.0000  0.0000  0.0000
  128TTP    C35 2583   1.109   5.489   0.985  0.0000  0.0000  0.0000
  128TTP    C36 2584   1.139   5.490   0.837  0.0000  0.0000  0.0000
  128TTP    C37 2585   1.182   5.356   0.783  0.0000  0.0000  0.0000
  128TTP    C38 2586   1.197   5.249   0.888  0.0000  0.0000  0.0000
  128TTP    C39 2587   1.137   5.284   1.022  0.0000  0.0000  0.0000
  128TTP    C40 2588   1.150   5.179   1.127  0.0000  0.0000  0.0000
  128TTP    C41 2589   1.090   5.214   1.260  0.0000  0.0000  0.0000
  128TTP    C42 2590   1.103   5.110   1.366  0.0000  0.0000  0.0000
  129FIC     F1 2591   0.663   5.570   3.183  0.0000  0.0000  0.0000
  129FIC     F2 2592   0.646   5.355   3.344  0.0000  0.0000  0.0000
  129FIC     O1 2593   0.752   5.343   2.712  0.0000  0.0000  0.0000
  129FIC     N5 2594   0.700   4.878   3.232  0.0000  0.0000  0.0000
  129FIC     N6 2595   0.755   4.735   2.838  0.0000  0.0000  0.0000
  129FIC    C19 2596   0.774   5.046   2.687  0.0000  0.0000  0.0000
  129FIC    C20 2597   0.748   5.113   2.801  0.0000  0.0000  0.0000
  129FIC    C21 2598   0.743   5.256   2.797  0.0000  0.0000  0.0000
  129FIC    C22 2599   0.720   5.310   2.938  0.0000  0.0000  0.0000
  129FIC    C23 2600   0.702   5.438   2.990  0.0000  0.0000  0.0000
  129FIC    C24 2601   0.676   5.455   3.125  0.0000  0.0000  0.0000
  129FIC    C25 2602   0.668   5.344   3.209  0.0000  0.0000  0.0000
  129FIC    C26 2603   0.686   5.217   3.157  0.0000  0.0000  0.0000
  129FIC    C27 2604   0.712   5.200   3.021  0.0000  0.0000  0.0000
  129FIC    C28 2605   0.728   5.073   2.943  0.0000  0.0000  0.0000
  129FIC    C29 2606   0.728   4.949   2.974  0.0000  0.0000  0.0000
  129FIC    C30 2607   0.712   4.921   3.133  0.0000  0.0000  0.0000
  129FIC    C31 2608   0.741   4.831   2.897  0.0000  0.0000  0.0000
  130FIC     F1 2609   0.669   6.563   1.590  0.0000  0.0000  0.0000
  130FIC     F2 2610   0.653   6.612   1.320  0.0000  0.0000  0.0000
  130FIC     O1 2611   0.768   6.043   1.592  0.0000  0.0000  0.0000
  130FIC     N5 2612   0.714   6.298   0.941  0.0000  0.0000  0.0000
  130FIC     N6 2613   0.778   5.890   0.983  0.0000  0.0000  0.0000
  130FIC    C19 2614   0.771   5.891   1.329  0.0000  0.0000  0.0000
  130FIC    C20 2615   0.758   6.030   1.348  0.0000  0.0000  0.0000
  130FIC    C21 2616   0.755   6.082   1.480  0.0000  0.0000  0.0000
  130FIC    C22 2617   0.725   6.233   1.452  0.0000  0.0000  0.0000
  130FIC    C23 2618   0.709   6.337   1.543  0.0000  0.0000  0.0000
  130FIC    C24 2619   0.685   6.466   1.497  0.0000  0.0000  0.0000
  130FIC    C25 2620   0.677   6.491   1.360  0.0000  0.0000  0.0000
  130FIC    C26 2621   0.694   6.387   1.269  0.0000  0.0000  0.0000
  130FIC    C27 2622   0.718   6.258   1.315  0.0000  0.0000  0.0000
  130FIC    C28 2623   0.741   6.130   1.241  0.0000  0.0000  0.0000
  130FIC    C29 2624   0.744   6.107   1.119  0.0000  0.0000  0.0000
  130FIC    C30 2625   0.723   6.236   1.036  0.0000  0.0000  0.0000
  130FIC    C31 2626   0.764   5.989   1.042  0.0000  0.0000  0.0000
  131BTD     S2 2627   0.704   2.430  -1.649  0.0000  0.0000  0.0000
  131BTD     N1 2628   0.707   2.444  -1.810  0.0000  0.0000  0.0000
  131BTD     N2 2629   0.687   2.583  -1.603  0.0000  0.0000  0.0000
  131BTD     N3 2630   0.638   2.996  -1.829  0.0000  0.0000  0.0000
  131BTD     N4 2631   0.664   2.811  -2.112  0.0000  0.0000  0.0000
  131BTD     C5 2632   0.682   2.638  -1.959  0.0000  0.0000  0.0000
  131BTD     C6 2633   0.688   2.579  -1.834  0.0000  0.0000  0.0000
  131BTD     C7 2634   0.678   2.657  -1.719  0.0000  0.0000  0.0000
  131BTD     C8 2635   0.662   2.795  -1.731  0.0000  0.0000  0.0000
  131BTD    C15 2636   0.656   2.854  -1.856  0.0000  0.0000  0.0000
  131BTD    C16 2637   0.666   2.775  -1.971  0.0000  0.0000  0.0000
  131BTD    C43 2638   0.637   2.934  -2.193  0.0000  0.0000  0.0000
  131BTD    C44 2639   0.502   2.951  -2.262  0.0000  0.0000  0.0000
  131BTD    C45 2640   0.481   3.087  -2.331  0.0000  0.0000  0.0000
  131BTD    C46 2641   0.584   3.088  -2.448  0.0000  0.0000  0.0000
  131BTD    C47 2642   0.394   2.920  -2.160  0.0000  0.0000  0.0000
  131BTD    C48 2643   0.260   2.918  -2.239  0.0000  0.0000  0.0000
  131BTD    C49 2644   0.152   2.889  -2.136  0.0000  0.0000  0.0000
  131BTD    C50 2645   0.016   2.912  -2.205  0.0000  0.0000  0.0000
  131BTD    C75 2646   0.620   3.109  -1.914  0.0000  0.0000  0.0000
  131BTD    C76 2647   0.736   3.202  -1.948  0.0000  0.0000  0.0000
  131BTD    C77 2648   0.872   3.148  -1.984  0.0000  0.0000  0.0000
  131BTD    C78 2649   0.992   3.237  -1.943  0.0000  0.0000  0.0000
  131BTD    C79 2650   0.698   3.323  -2.037  0.0000  0.0000  0.0000
  131BTD    C80 2651   0.603   3.433  -1.988  0.0000  0.0000  0.0000
  131BTD    C81 2652   0.543   3.558  -2.060  0.0000  0.0000  0.0000
  131BTD    C82 2653   0.561   3.666  -1.974  0.0000  0.0000  0.0000
  132TTP     S1 2654   0.715   2.431  -2.164  0.0000  0.0000  0.0000
  132TTP     S5 2655   0.700   2.721  -2.470  0.0000  0.0000  0.0000
  132TTP     C1 2656   0.725   2.557  -2.535  0.0000  0.0000  0.0000
  132TTP     C2 2657   0.729   2.452  -2.438  0.0000  0.0000  0.0000
  132TTP     C3 2658   0.715   2.515  -2.324  0.0000  0.0000  0.0000
  132TTP     C4 2659   0.693   2.586  -2.094  0.0000  0.0000  0.0000
  132TTP    C17 2660   0.680   2.688  -2.179  0.0000  0.0000  0.0000
  132TTP    C18 2661   0.695   2.643  -2.312  0.0000  0.0000  0.0000
  132TTP    C32 2662   0.731   2.305  -2.481  0.0000  0.0000  0.0000
  132TTP    C33 2663   0.877   2.258  -2.473  0.0000  0.0000  0.0000
  132TTP    C34 2664   0.881   2.106  -2.486  0.0000  0.0000  0.0000
  132TTP    C35 2665   1.019   2.052  -2.518  0.0000  0.0000  0.0000
  132TTP    C36 2666   1.080   1.969  -2.408  0.0000  0.0000  0.0000
  132TTP    C37 2667   1.220   1.913  -2.438  0.0000  0.0000  0.0000
  132TTP    C38 2668   1.304   1.998  -2.531  0.0000  0.0000  0.0000
  132TTP    C39 2669   1.226   2.108  -2.601  0.0000  0.0000  0.0000
  132TTP    C40 2670   1.309   2.229  -2.635  0.0000  0.0000  0.0000
  132TTP    C41 2671   1.260   2.358  -2.574  0.0000  0.0000  0.0000
  132TTP    C42 2672   1.137   2.346  -2.486  0.0000  0.0000  0.0000
  133TTP     S1 2673   0.650   2.903  -1.458  0.0000  0.0000  0.0000
  133TTP     S5 2674   0.596   3.291  -1.613  0.0000  0.0000  0.0000
  133TTP     C1 2675   0.587   3.303  -1.440  0.0000  0.0000  0.0000
  133TTP     C2 2676   0.606   3.177  -1.375  0.0000  0.0000  0.0000
  133TTP     C3 2677   0.625   3.079  -1.473  0.0000  0.0000  0.0000
  133TTP     C4 2678   0.654   2.892  -1.626  0.0000  0.0000  0.0000
  133TTP    C17 2679   0.641   3.016  -1.693  0.0000  0.0000  0.0000
  133TTP    C18 2680   0.623   3.122  -1.603  0.0000  0.0000  0.0000
  133TTP    C32 2681   0.586   3.149  -1.224  0.0000  0.0000  0.0000
  133TTP    C33 2682   0.708   3.125  -1.137  0.0000  0.0000  0.0000
  133TTP    C34 2683   0.695   3.090  -0.986  0.0000  0.0000  0.0000
  133TTP    C35 2684   0.711   2.943  -0.953  0.0000  0.0000  0.0000
  133TTP    C36 2685   0.717   2.893  -0.808  0.0000  0.0000  0.0000
  133TTP    C37 2686   0.732   2.743  -0.793  0.0000  0.0000  0.0000
  133TTP    C38 2687   0.857   2.699  -0.720  0.0000  0.0000  0.0000
  133TTP    C39 2688   0.952   2.612  -0.798  0.0000  0.0000  0.0000
  133TTP    C40 2689   1.072   2.573  -0.716  0.0000  0.0000  0.0000
  133TTP    C41 2690   1.172   2.486  -0.787  0.0000  0.0000  0.0000
  133TTP    C42 2691   1.294   2.446  -0.706  0.0000  0.0000  0.0000
  134FIC     F1 2692   0.790   3.071  -3.178  0.0000  0.0000  0.0000
  134FIC     F2 2693   0.819   2.862  -3.339  0.0000  0.0000  0.0000
  134FIC     O1 2694   0.727   2.840  -2.701  0.0000  0.0000  0.0000
  134FIC     N5 2695   0.849   2.393  -3.218  0.0000  0.0000  0.0000
  134FIC     N6 2696   0.769   2.229  -2.830  0.0000  0.0000  0.0000
  134FIC    C19 2697   0.743   2.535  -2.678  0.0000  0.0000  0.0000
  134FIC    C20 2698   0.750   2.617  -2.787  0.0000  0.0000  0.0000
  134FIC    C21 2699   0.748   2.757  -2.794  0.0000  0.0000  0.0000
  134FIC    C22 2700   0.768   2.809  -2.934  0.0000  0.0000  0.0000
  134FIC    C23 2701   0.767   2.935  -2.993  0.0000  0.0000  0.0000
  134FIC    C24 2702   0.786   2.947  -3.130  0.0000  0.0000  0.0000
  134FIC    C25 2703   0.806   2.834  -3.208  0.0000  0.0000  0.0000
  134FIC    C26 2704   0.807   2.708  -3.149  0.0000  0.0000  0.0000
  134FIC    C27 2705   0.788   2.696  -3.012  0.0000  0.0000  0.0000
  134FIC    C28 2706   0.777   2.572  -2.937  0.0000  0.0000  0.0000
  134FIC    C29 2707   0.795   2.445  -2.970  0.0000  0.0000  0.0000
  134FIC    C30 2708   0.826   2.416  -3.105  0.0000  0.0000  0.0000
  134FIC    C31 2709   0.783   2.327  -2.895  0.0000  0.0000  0.0000
  135FIC     F1 2710   0.455   4.073  -1.669  0.0000  0.0000  0.0000
  135FIC     F2 2711   0.429   4.135  -1.419  0.0000  0.0000  0.0000
  135FIC     O1 2712   0.556   3.550  -1.634  0.0000  0.0000  0.0000
  135FIC     N5 2713   0.478   3.862  -1.017  0.0000  0.0000  0.0000
  135FIC     N6 2714   0.548   3.445  -1.028  0.0000  0.0000  0.0000
  135FIC    C19 2715   0.565   3.420  -1.366  0.0000  0.0000  0.0000
  135FIC    C20 2716   0.547   3.554  -1.393  0.0000  0.0000  0.0000
  135FIC    C21 2717   0.540   3.603  -1.521  0.0000  0.0000  0.0000
  135FIC    C22 2718   0.516   3.752  -1.521  0.0000  0.0000  0.0000
  135FIC    C23 2719   0.496   3.848  -1.618  0.0000  0.0000  0.0000
  135FIC    C24 2720   0.471   3.975  -1.575  0.0000  0.0000  0.0000
  135FIC    C25 2721   0.454   4.007  -1.442  0.0000  0.0000  0.0000
  135FIC    C26 2722   0.473   3.921  -1.346  0.0000  0.0000  0.0000
  135FIC    C27 2723   0.501   3.790  -1.386  0.0000  0.0000  0.0000
  135FIC    C28 2724   0.521   3.665  -1.306  0.0000  0.0000  0.0000
  135FIC    C29 2725   0.518   3.656  -1.168  0.0000  0.0000  0.0000
  135FIC    C30 2726   0.496   3.764  -1.087  0.0000  0.0000  0.0000
  135FIC    C31 2727   0.532   3.541  -1.096  0.0000  0.0000  0.0000
  136BTD     S2 2728   0.986   2.897  -1.659  0.0000  0.0000  0.0000
  136BTD     N1 2729   0.994   2.878  -1.827  0.0000  0.0000  0.0000
  136BTD     N2 2730   1.009   2.744  -1.613  0.0000  0.0000  0.0000
  136BTD     N3 2731   1.060   2.323  -1.820  0.0000  0.0000  0.0000
  136BTD     N4 2732   1.073   2.511  -2.112  0.0000  0.0000  0.0000
  136BTD     C5 2733   1.031   2.677  -1.966  0.0000  0.0000  0.0000
  136BTD     C6 2734   1.010   2.737  -1.845  0.0000  0.0000  0.0000
  136BTD     C7 2735   1.027   2.675  -1.725  0.0000  0.0000  0.0000
  136BTD     C8 2736   1.044   2.534  -1.733  0.0000  0.0000  0.0000
  136BTD    C15 2737   1.053   2.457  -1.851  0.0000  0.0000  0.0000
  136BTD    C16 2738   1.054   2.542  -1.976  0.0000  0.0000  0.0000
  136BTD    C43 2739   1.120   2.385  -2.172  0.0000  0.0000  0.0000
  136BTD    C44 2740   1.272   2.358  -2.160  0.0000  0.0000  0.0000
  136BTD    C45 2741   1.292   2.224  -2.239  0.0000  0.0000  0.0000
  136BTD    C46 2742   1.398   2.135  -2.171  0.0000  0.0000  0.0000
  136BTD    C47 2743   1.348   2.474  -2.221  0.0000  0.0000  0.0000
  136BTD    C48 2744   1.501   2.466  -2.215  0.0000  0.0000  0.0000
  136BTD    C49 2745   1.599   2.570  -2.269  0.0000  0.0000  0.0000
  136BTD    C50 2746   1.511   2.695  -2.236  0.0000  0.0000  0.0000
  136BTD    C75 2747   1.094   2.206  -1.904  0.0000  0.0000  0.0000
  136BTD    C76 2748   0.983   2.104  -1.931  0.0000  0.0000  0.0000
  136BTD    C77 2749   0.861   2.170  -1.989  0.0000  0.0000  0.0000
  136BTD    C78 2750   0.735   2.079  -1.999  0.0000  0.0000  0.0000
  136BTD    C79 2751   1.025   2.000  -2.037  0.0000  0.0000  0.0000
  136BTD    C80 2752   1.108   1.893  -1.965  0.0000  0.0000  0.0000
  136BTD    C81 2753   1.144   1.777  -2.063  0.0000  0.0000  0.0000
  136BTD    C82 2754   1.257   1.697  -1.994  0.0000  0.0000  0.0000
  137TTP     S1 2755   1.011   2.881  -2.177  0.0000  0.0000  0.0000
  137TTP     S5 2756   1.081   2.588  -2.470  0.0000  0.0000  0.0000
  137TTP     C1 2757   1.060   2.741  -2.547  0.0000  0.0000  0.0000
  137TTP     C2 2758   1.041   2.849  -2.458  0.0000  0.0000  0.0000
  137TTP     C3 2759   1.036   2.803  -2.323  0.0000  0.0000  0.0000
  137TTP     C4 2760   1.035   2.725  -2.093  0.0000  0.0000  0.0000
  137TTP    C17 2761   1.055   2.631  -2.186  0.0000  0.0000  0.0000
  137TTP    C18 2762   1.060   2.665  -2.322  0.0000  0.0000  0.0000
  137TTP    C32 2763   1.019   3.001  -2.494  0.0000  0.0000  0.0000
  137TTP    C33 2764   0.942   3.084  -2.392  0.0000  0.0000  0.0000
  137TTP    C34 2765   0.922   3.226  -2.446  0.0000  0.0000  0.0000
  137TTP    C35 2766   0.868   3.319  -2.338  0.0000  0.0000  0.0000
  137TTP    C36 2767   0.824   3.458  -2.388  0.0000  0.0000  0.0000
  137TTP    C37 2768   0.769   3.553  -2.286  0.0000  0.0000  0.0000
  137TTP    C38 2769   0.848   3.687  -2.272  0.0000  0.0000  0.0000
  137TTP    C39 2770   0.847   3.777  -2.396  0.0000  0.0000  0.0000
  137TTP    C40 2771   0.923   3.907  -2.381  0.0000  0.0000  0.0000
  137TTP    C41 2772   0.873   3.996  -2.271  0.0000  0.0000  0.0000
  137TTP    C42 2773   0.879   3.933  -2.128  0.0000  0.0000  0.0000
  138TTP     S1 2774   1.030   2.433  -1.454  0.0000  0.0000  0.0000
  138TTP     S5 2775   1.068   2.035  -1.587  0.0000  0.0000  0.0000
  138TTP     C1 2776   1.059   2.036  -1.413  0.0000  0.0000  0.0000
  138TTP     C2 2777   1.050   2.164  -1.359  0.0000  0.0000  0.0000
  138TTP     C3 2778   1.042   2.260  -1.459  0.0000  0.0000  0.0000
  138TTP     C4 2779   1.040   2.441  -1.629  0.0000  0.0000  0.0000
  138TTP    C17 2780   1.048   2.315  -1.681  0.0000  0.0000  0.0000
  138TTP    C18 2781   1.052   2.202  -1.586  0.0000  0.0000  0.0000
  138TTP    C32 2782   1.046   2.201  -1.211  0.0000  0.0000  0.0000
  138TTP    C33 2783   0.899   2.207  -1.157  0.0000  0.0000  0.0000
  138TTP    C34 2784   0.885   2.284  -1.024  0.0000  0.0000  0.0000
  138TTP    C35 2785   0.737   2.321  -0.985  0.0000  0.0000  0.0000
  138TTP    C36 2786   0.707   2.320  -0.837  0.0000  0.0000  0.0000
  138TTP    C37 2787   0.664   2.454  -0.783  0.0000  0.0000  0.0000
  138TTP    C38 2788   0.649   2.561  -0.888  0.0000  0.0000  0.0000
  138TTP    C39 2789   0.709   2.526  -1.022  0.0000  0.0000  0.0000
  138TTP    C40 2790   0.696   2.631  -1.127  0.0000  0.0000  0.0000
  138TTP    C41 2791   0.756   2.596  -1.260  0.0000  0.0000  0.0000
  138TTP    C42 2792   0.743   2.700  -1.366  0.0000  0.0000  0.0000
  139FIC     F1 2793   1.183   2.240  -3.183  0.0000  0.0000  0.0000
  139FIC     F2 2794   1.200   2.455  -3.344  0.0000  0.0000  0.0000
  139FIC     O1 2795   1.094   2.467  -2.712  0.0000  0.0000  0.0000
  139FIC     N5 2796   1.146   2.932  -3.232  0.0000  0.0000  0.0000
  139FIC     N6 2797   1.091   3.075  -2.838  0.0000  0.0000  0.0000
  139FIC    C19 2798   1.072   2.764  -2.687  0.0000  0.0000  0.0000
  139FIC    C20 2799   1.098   2.697  -2.801  0.0000  0.0000  0.0000
  139FIC    C21 2800   1.103   2.554  -2.797  0.0000  0.0000  0.0000
  139FIC    C22 2801   1.126   2.500  -2.938  0.0000  0.0000  0.0000
  139FIC    C23 2802   1.144   2.372  -2.990  0.0000  0.0000  0.0000
  139FIC    C24 2803   1.170   2.355  -3.125  0.0000  0.0000  0.0000
  139FIC    C25 2804   1.178   2.466  -3.209  0.0000  0.0000  0.0000
  139FIC    C26 2805   1.160   2.593  -3.157  0.0000  0.0000  0.0000
  139FIC    C27 2806   1.134   2.610  -3.021  0.0000  0.0000  0.0000
  139FIC    C28 2807   1.118   2.737  -2.943  0.0000  0.0000  0.0000
  139FIC    C29 2808   1.118   2.861  -2.974  0.0000  0.0000  0.0000
  139FIC    C30 2809   1.134   2.889  -3.133  0.0000  0.0000  0.0000
  139FIC    C31 2810   1.105   2.979  -2.897  0.0000  0.0000  0.0000
  140FIC     F1 2811   1.177   1.247  -1.590  0.0000  0.0000  0.0000
  140FIC     F2 2812   1.193   1.198  -1.320  0.0000  0.0000  0.0000
  140FIC     O1 2813   1.078   1.767  -1.592  0.0000  0.0000  0.0000
  140FIC     N5 2814   1.132   1.512  -0.941  0.0000  0.0000  0.0000
  140FIC     N6 2815   1.068   1.920  -0.983  0.0000  0.0000  0.0000
  140FIC    C19 2816   1.075   1.919  -1.329  0.0000  0.0000  0.0000
  140FIC    C20 2817   1.088   1.780  -1.348  0.0000  0.0000  0.0000
  140FIC    C21 2818   1.091   1.728  -1.480  0.0000  0.0000  0.0000
  140FIC    C22 2819   1.121   1.577  -1.452  0.0000  0.0000  0.0000
  140FIC    C23 2820   1.137   1.473  -1.543  0.0000  0.0000  0.0000
  140FIC    C24 2821   1.161   1.344  -1.497  0.0000  0.0000  0.0000
  140FIC    C25 2822   1.169   1.319  -1.360  0.0000  0.0000  0.0000
  140FIC    C26 2823   1.152   1.423  -1.269  0.0000  0.0000  0.0000
  140FIC    C27 2824   1.128   1.552  -1.315  0.0000  0.0000  0.0000
  140FIC    C28 2825   1.105   1.680  -1.241  0.0000  0.0000  0.0000
  140FIC    C29 2826   1.102   1.703  -1.119  0.0000  0.0000  0.0000
  140FIC    C30 2827   1.123   1.574  -1.036  0.0000  0.0000  0.0000
  140FIC    C31 2828   1.082   1.821  -1.042  0.0000  0.0000  0.0000
  141BTD     S2 2829   0.917   7.333   1.649  0.0000  0.0000  0.0000
  141BTD     N1 2830   0.914   7.319   1.810  0.0000  0.0000  0.0000
  141BTD     N2 2831   0.934   7.180   1.603  0.0000  0.0000  0.0000
  141BTD     N3 2832   0.983   6.767   1.829  0.0000  0.0000  0.0000
  141BTD     N4 2833   0.957   6.952   2.112  0.0000  0.0000  0.0000
  141BTD     C5 2834   0.939   7.125   1.959  0.0000  0.0000  0.0000
  141BTD     C6 2835   0.933   7.184   1.834  0.0000  0.0000  0.0000
  141BTD     C7 2836   0.943   7.106   1.719  0.0000  0.0000  0.0000
  141BTD     C8 2837   0.959   6.968   1.731  0.0000  0.0000  0.0000
  141BTD    C15 2838   0.965   6.909   1.856  0.0000  0.0000  0.0000
  141BTD    C16 2839   0.955   6.988   1.971  0.0000  0.0000  0.0000
  141BTD    C43 2840   0.984   6.829   2.193  0.0000  0.0000  0.0000
  141BTD    C44 2841   1.119   6.812   2.262  0.0000  0.0000  0.0000
  141BTD    C45 2842   1.140   6.676   2.331  0.0000  0.0000  0.0000
  141BTD    C46 2843   1.037   6.675   2.448  0.0000  0.0000  0.0000
  141BTD    C47 2844   1.227   6.843   2.160  0.0000  0.0000  0.0000
  141BTD    C48 2845   1.361   6.845   2.239  0.0000  0.0000  0.0000
  141BTD    C49 2846   1.469   6.874   2.136  0.0000  0.0000  0.0000
  141BTD    C50 2847   1.605   6.851   2.205  0.0000  0.0000  0.0000
  141BTD    C75 2848   1.001   6.654   1.914  0.0000  0.0000  0.0000
  141BTD    C76 2849   0.885   6.561   1.948  0.0000  0.0000  0.0000
  141BTD    C77 2850   0.749   6.615   1.984  0.0000  0.0000  0.0000
  141BTD    C78 2851   0.629   6.526   1.943  0.0000  0.0000  0.0000
  141BTD    C79 2852   0.923   6.440   2.037  0.0000  0.0000  0.0000
  141BTD    C80 2853   1.018   6.330   1.988  0.0000  0.0000  0.0000
  141BTD    C81 2854   1.078   6.205   2.060  0.0000  0.0000  0.0000
  141BTD    C82 2855   1.060   6.097   1.974  0.0000  0.0000  0.0000
  142TTP     S1 2856   0.906   7.332   2.164  0.0000  0.0000  0.0000
  142TTP     S5 2857   0.921   7.042   2.470  0.0000  0.0000  0.0000
  142TTP     C1 2858   0.896   7.206   2.535  0.0000  0.0000  0.0000
  142TTP     C2 2859   0.892   7.311   2.438  0.0000  0.0000  0.0000
  142TTP     C3 2860   0.906   7.248   2.324  0.0000  0.0000  0.0000
  142TTP     C4 2861   0.928   7.177   2.094  0.0000  0.0000  0.0000
  142TTP    C17 2862   0.941   7.075   2.179  0.0000  0.0000  0.0000
  142TTP    C18 2863   0.926   7.120   2.312  0.0000  0.0000  0.0000
  142TTP    C32 2864   0.890   7.458   2.481  0.0000  0.0000  0.0000
  142TTP    C33 2865   0.744   7.505   2.473  0.0000  0.0000  0.0000
  142TTP    C34 2866   0.740   7.657   2.486  0.0000  0.0000  0.0000
  142TTP    C35 2867   0.602   7.711   2.518  0.0000  0.0000  0.0000
  142TTP    C36 2868   0.541   7.794   2.408  0.0000  0.0000  0.0000
  142TTP    C37 2869   0.401   7.850   2.438  0.0000  0.0000  0.0000
  142TTP    C38 2870   0.317   7.765   2.531  0.0000  0.0000  0.0000
  142TTP    C39 2871   0.395   7.655   2.601  0.0000  0.0000  0.0000
  142TTP    C40 2872   0.312   7.534   2.635  0.0000  0.0000  0.0000
  142TTP    C41 2873   0.361   7.405   2.574  0.0000  0.0000  0.0000
  142TTP    C42 2874   0.484   7.417   2.486  0.0000  0.0000  0.0000
  143TTP     S1 2875   0.971   6.860   1.458  0.0000  0.0000  0.0000
  143TTP     S5 2876   1.025   6.472   1.613  0.0000  0.0000  0.0000
  143TTP     C1 2877   1.034   6.460   1.440  0.0000  0.0000  0.0000
  143TTP     C2 2878   1.015   6.586   1.375  0.0000  0.0000  0.0000
  143TTP     C3 2879   0.996   6.684   1.473  0.0000  0.0000  0.0000
  143TTP     C4 2880   0.967   6.871   1.626  0.0000  0.0000  0.0000
  143TTP    C17 2881   0.980   6.747   1.693  0.0000  0.0000  0.0000
  143TTP    C18 2882   0.998   6.641   1.603  0.0000  0.0000  0.0000
  143TTP    C32 2883   1.035   6.614   1.224  0.0000  0.0000  0.0000
  143TTP    C33 2884   0.913   6.638   1.137  0.0000  0.0000  0.0000
  143TTP    C34 2885   0.926   6.673   0.986  0.0000  0.0000  0.0000
  143TTP    C35 2886   0.910   6.820   0.953  0.0000  0.0000  0.0000
  143TTP    C36 2887   0.904   6.870   0.808  0.0000  0.0000  0.0000
  143TTP    C37 2888   0.889   7.020   0.793  0.0000  0.0000  0.0000
  143TTP    C38 2889   0.764   7.064   0.720  0.0000  0.0000  0.0000
  143TTP    C39 2890   0.669   7.151   0.798  0.0000  0.0000  0.0000
  143TTP    C40 2891   0.549   7.190   0.716  0.0000  0.0000  0.0000
  143TTP    C41 2892   0.449   7.277   0.787  0.0000  0.0000  0.0000
  143TTP    C42 2893   0.327   7.317   0.706  0.0000  0.0000  0.0000
  144FIC     F1 2894   0.831   6.692   3.178  0.0000  0.0000  0.0000
  144FIC     F2 2895   0.802   6.901   3.339  0.0000  0.0000  0.0000
  144FIC     O1 2896   0.894   6.923   2.701  0.0000  0.0000  0.0000
  144FIC     N5 2897   0.773   7.370   3.218  0.0000  0.0000  0.0000
  144FIC     N6 2898   0.852   7.534   2.830  0.0000  0.0000  0.0000
  144FIC    C19 2899   0.878   7.228   2.678  0.0000  0.0000  0.0000
  144FIC    C20 2900   0.871   7.146   2.787  0.0000  0.0000  0.0000
  144FIC    C21 2901   0.873   7.006   2.794  0.0000  0.0000  0.0000
  144FIC    C22 2902   0.854   6.954   2.934  0.0000  0.0000  0.0000
  144FIC    C23 2903   0.854   6.828   2.993  0.0000  0.0000  0.0000
  144FIC    C24 2904   0.835   6.816   3.130  0.0000  0.0000  0.0000
  144FIC    C25 2905   0.815   6.929   3.208  0.0000  0.0000  0.0000
  144FIC    C26 2906   0.814   7.055   3.149  0.0000  0.0000  0.0000
  144FIC    C27 2907   0.833   7.067   3.012  0.0000  0.0000  0.0000
  144FIC    C28 2908   0.844   7.191   2.937  0.0000  0.0000  0.0000
  144FIC    C29 2909   0.826   7.318   2.970  0.0000  0.0000  0.0000
  144FIC    C30 2910   0.795   7.347   3.105  0.0000  0.0000  0.0000
  144FIC    C31 2911   0.838   7.436   2.895  0.0000  0.0000  0.0000
  145FIC     F1 2912   1.167   5.690   1.669  0.0000  0.0000  0.0000
  145FIC     F2 2913   1.192   5.628   1.419  0.0000  0.0000  0.0000
  145FIC     O1 2914   1.065   6.213   1.634  0.0000  0.0000  0.0000
  145FIC     N5 2915   1.143   5.901   1.017  0.0000  0.0000  0.0000
  145FIC     N6 2916   1.074   6.318   1.028  0.0000  0.0000  0.0000
  145FIC    C19 2917   1.056   6.343   1.366  0.0000  0.0000  0.0000
  145FIC    C20 2918   1.074   6.209   1.393  0.0000  0.0000  0.0000
  145FIC    C21 2919   1.081   6.160   1.521  0.0000  0.0000  0.0000
  145FIC    C22 2920   1.105   6.011   1.521  0.0000  0.0000  0.0000
  145FIC    C23 2921   1.125   5.915   1.618  0.0000  0.0000  0.0000
  145FIC    C24 2922   1.150   5.787   1.575  0.0000  0.0000  0.0000
  145FIC    C25 2923   1.167   5.756   1.442  0.0000  0.0000  0.0000
  145FIC    C26 2924   1.148   5.842   1.346  0.0000  0.0000  0.0000
  145FIC    C27 2925   1.120   5.973   1.386  0.0000  0.0000  0.0000
  145FIC    C28 2926   1.100   6.098   1.306  0.0000  0.0000  0.0000
  145FIC    C29 2927   1.103   6.107   1.168  0.0000  0.0000  0.0000
  145FIC    C30 2928   1.125   5.999   1.087  0.0000  0.0000  0.0000
  145FIC    C31 2929   1.089   6.222   1.096  0.0000  0.0000  0.0000
  146BTD     S2 2930   0.635   6.866   1.659  0.0000  0.0000  0.0000
  146BTD     N1 2931   0.627   6.885   1.827  0.0000  0.0000  0.0000
  146BTD     N2 2932   0.612   7.019   1.613  0.0000  0.0000  0.0000
  146BTD     N3 2933   0.561   7.440   1.820  0.0000  0.0000  0.0000
  146BTD     N4 2934   0.548   7.252   2.112  0.0000  0.0000  0.0000
  146BTD     C5 2935   0.590   7.086   1.966  0.0000  0.0000  0.0000
  146BTD     C6 2936   0.611   7.026   1.845  0.0000  0.0000  0.0000
  146BTD     C7 2937   0.594   7.088   1.725  0.0000  0.0000  0.0000
  146BTD     C8 2938   0.577   7.229   1.733  0.0000  0.0000  0.0000
  146BTD    C15 2939   0.568   7.306   1.851  0.0000  0.0000  0.0000
  146BTD    C16 2940   0.567   7.221   1.976  0.0000  0.0000  0.0000
  146BTD    C43 2941   0.501   7.378   2.172  0.0000  0.0000  0.0000
  146BTD    C44 2942   0.349   7.405   2.160  0.0000  0.0000  0.0000
  146BTD    C45 2943   0.329   7.539   2.239  0.0000  0.0000  0.0000
  146BTD    C46 2944   0.223   7.628   2.171  0.0000  0.0000  0.0000
  146BTD    C47 2945   0.273   7.289   2.221  0.0000  0.0000  0.0000
  146BTD    C48 2946   0.120   7.297   2.215  0.0000  0.0000  0.0000
  146BTD    C49 2947   0.022   7.193   2.269  0.0000  0.0000  0.0000
  146BTD    C50 2948   0.110   7.068   2.236  0.0000  0.0000  0.0000
  146BTD    C75 2949   0.527   7.557   1.904  0.0000  0.0000  0.0000
  146BTD    C76 2950   0.639   7.659   1.931  0.0000  0.0000  0.0000
  146BTD    C77 2951   0.760   7.593   1.989  0.0000  0.0000  0.0000
  146BTD    C78 2952   0.886   7.684   1.999  0.0000  0.0000  0.0000
  146BTD    C79 2953   0.596   7.763   2.037  0.0000  0.0000  0.0000
  146BTD    C80 2954   0.513   7.870   1.965  0.0000  0.0000  0.0000
  146BTD    C81 2955   0.477   7.986   2.063  0.0000  0.0000  0.0000
  146BTD    C82 2956   0.364   8.066   1.994  0.0000  0.0000  0.0000
  147TTP     S1 2957   0.610   6.882   2.177  0.0000  0.0000  0.0000
  147TTP     S5 2958   0.540   7.175   2.470  0.0000  0.0000  0.0000
  147TTP     C1 2959   0.561   7.022   2.547  0.0000  0.0000  0.0000
  147TTP     C2 2960   0.580   6.914   2.458  0.0000  0.0000  0.0000
  147TTP     C3 2961   0.585   6.960   2.323  0.0000  0.0000  0.0000
  147TTP     C4 2962   0.586   7.038   2.093  0.0000  0.0000  0.0000
  147TTP    C17 2963   0.566   7.132   2.186  0.0000  0.0000  0.0000
  147TTP    C18 2964   0.561   7.098   2.322  0.0000  0.0000  0.0000
  147TTP    C32 2965   0.602   6.762   2.494  0.0000  0.0000  0.0000
  147TTP    C33 2966   0.679   6.679   2.392  0.0000  0.0000  0.0000
  147TTP    C34 2967   0.699   6.537   2.446  0.0000  0.0000  0.0000
  147TTP    C35 2968   0.753   6.444   2.338  0.0000  0.0000  0.0000
  147TTP    C36 2969   0.797   6.305   2.388  0.0000  0.0000  0.0000
  147TTP    C37 2970   0.852   6.210   2.286  0.0000  0.0000  0.0000
  147TTP    C38 2971   0.773   6.076   2.272  0.0000  0.0000  0.0000
  147TTP    C39 2972   0.775   5.986   2.396  0.0000  0.0000  0.0000
  147TTP    C40 2973   0.698   5.856   2.381  0.0000  0.0000  0.0000
  147TTP    C41 2974   0.748   5.767   2.271  0.0000  0.0000  0.0000
  147TTP    C42 2975   0.742   5.830   2.128  0.0000  0.0000  0.0000
  148TTP     S1 2976   0.591   7.330   1.454  0.0000  0.0000  0.0000
  148TTP     S5 2977   0.553   7.728   1.587  0.0000  0.0000  0.0000
  148TTP     C1 2978   0.562   7.727   1.413  0.0000  0.0000  0.0000
  148TTP     C2 2979   0.571   7.599   1.359  0.0000  0.0000  0.0000
  148TTP     C3 2980   0.579   7.503   1.459  0.0000  0.0000  0.0000
  148TTP     C4 2981   0.581   7.322   1.629  0.0000  0.0000  0.0000
  148TTP    C17 2982   0.573   7.448   1.681  0.0000  0.0000  0.0000
  148TTP    C18 2983   0.569   7.561   1.586  0.0000  0.0000  0.0000
  148TTP    C32 2984   0.575   7.562   1.211  0.0000  0.0000  0.0000
  148TTP    C33 2985   0.722   7.556   1.157  0.0000  0.0000  0.0000
  148TTP    C34 2986   0.736   7.479   1.024  0.0000  0.0000  0.0000
  148TTP    C35 2987   0.884   7.442   0.985  0.0000  0.0000  0.0000
  148TTP    C36 2988   0.914   7.443   0.837  0.0000  0.0000  0.0000
  148TTP    C37 2989   0.957   7.309   0.783  0.0000  0.0000  0.0000
  148TTP    C38 2990   0.972   7.202   0.888  0.0000  0.0000  0.0000
  148TTP    C39 2991   0.912   7.237   1.022  0.0000  0.0000  0.0000
  148TTP    C40 2992   0.925   7.132   1.127  0.0000  0.0000  0.0000
  148TTP    C41 2993   0.865   7.167   1.260  0.0000  0.0000  0.0000
  148TTP    C42 2994   0.878   7.063   1.366  0.0000  0.0000  0.0000
  149FIC     F1 2995   0.438   7.523   3.183  0.0000  0.0000  0.0000
  149FIC     F2 2996   0.421   7.308   3.344  0.0000  0.0000  0.0000
  149FIC     O1 2997   0.527   7.296   2.712  0.0000  0.0000  0.0000
  149FIC     N5 2998   0.475   6.831   3.232  0.0000  0.0000  0.0000
  149FIC     N6 2999   0.530   6.688   2.838  0.0000  0.0000  0.0000
  149FIC    C19 3000   0.549   6.999   2.687  0.0000  0.0000  0.0000
  149FIC    C20 3001   0.523   7.066   2.801  0.0000  0.0000  0.0000
  149FIC    C21 3002   0.518   7.209   2.797  0.0000  0.0000  0.0000
  149FIC    C22 3003   0.495   7.263   2.938  0.0000  0.0000  0.0000
  149FIC    C23 3004   0.477   7.391   2.990  0.0000  0.0000  0.0000
  149FIC    C24 3005   0.451   7.408   3.125  0.0000  0.0000  0.0000
  149FIC    C25 3006   0.443   7.297   3.209  0.0000  0.0000  0.0000
  149FIC    C26 3007   0.461   7.170   3.157  0.0000  0.0000  0.0000
  149FIC    C27 3008   0.487   7.153   3.021  0.0000  0.0000  0.0000
  149FIC    C28 3009   0.503   7.026   2.943  0.0000  0.0000  0.0000
  149FIC    C29 3010   0.503   6.902   2.974  0.0000  0.0000  0.0000
  149FIC    C30 3011   0.487   6.874   3.133  0.0000  0.0000  0.0000
  149FIC    C31 3012   0.516   6.784   2.897  0.0000  0.0000  0.0000
  150FIC     F1 3013   0.444   8.516   1.590  0.0000  0.0000  0.0000
  150FIC     F2 3014   0.428   8.565   1.320  0.0000  0.0000  0.0000
  150FIC     O1 3015   0.543   7.996   1.592  0.0000  0.0000  0.0000
  150FIC     N5 3016   0.489   8.251   0.941  0.0000  0.0000  0.0000
  150FIC     N6 3017   0.553   7.843   0.983  0.0000  0.0000  0.0000
  150FIC    C19 3018   0.546   7.844   1.329  0.0000  0.0000  0.0000
  150FIC    C20 3019   0.533   7.983   1.348  0.0000  0.0000  0.0000
  150FIC    C21 3020   0.530   8.035   1.480  0.0000  0.0000  0.0000
  150FIC    C22 3021   0.500   8.186   1.452  0.0000  0.0000  0.0000
  150FIC    C23 3022   0.484   8.290   1.543  0.0000  0.0000  0.0000
  150FIC    C24 3023   0.460   8.419   1.497  0.0000  0.0000  0.0000
  150FIC    C25 3024   0.452   8.444   1.360  0.0000  0.0000  0.0000
  150FIC    C26 3025   0.469   8.340   1.269  0.0000  0.0000  0.0000
  150FIC    C27 3026   0.493   8.211   1.315  0.0000  0.0000  0.0000
  150FIC    C28 3027   0.516   8.083   1.241  0.0000  0.0000  0.0000
  150FIC    C29 3028   0.519   8.060   1.119  0.0000  0.0000  0.0000
  150FIC    C30 3029   0.498   8.189   1.036  0.0000  0.0000  0.0000
  150FIC    C31 3030   0.539   7.942   1.042  0.0000  0.0000  0.0000
  151BTD     S2 3031   0.479   4.383  -1.649  0.0000  0.0000  0.0000
  151BTD     N1 3032   0.482   4.397  -1.810  0.0000  0.0000  0.0000
  151BTD     N2 3033   0.462   4.536  -1.603  0.0000  0.0000  0.0000
  151BTD     N3 3034   0.413   4.949  -1.829  0.0000  0.0000  0.0000
  151BTD     N4 3035   0.439   4.764  -2.112  0.0000  0.0000  0.0000
  151BTD     C5 3036   0.457   4.591  -1.959  0.0000  0.0000  0.0000
  151BTD     C6 3037   0.463   4.532  -1.834  0.0000  0.0000  0.0000
  151BTD     C7 3038   0.453   4.610  -1.719  0.0000  0.0000  0.0000
  151BTD     C8 3039   0.437   4.748  -1.731  0.0000  0.0000  0.0000
  151BTD    C15 3040   0.431   4.807  -1.856  0.0000  0.0000  0.0000
  151BTD    C16 3041   0.441   4.728  -1.971  0.0000  0.0000  0.0000
  151BTD    C43 3042   0.412   4.887  -2.193  0.0000  0.0000  0.0000
  151BTD    C44 3043   0.277   4.904  -2.262  0.0000  0.0000  0.0000
  151BTD    C45 3044   0.256   5.040  -2.331  0.0000  0.0000  0.0000
  151BTD    C46 3045   0.359   5.041  -2.448  0.0000  0.0000  0.0000
  151BTD    C47 3046   0.169   4.873  -2.160  0.0000  0.0000  0.0000
  151BTD    C48 3047   0.035   4.871  -2.239  0.0000  0.0000  0.0000
  151BTD    C49 3048  -0.073   4.842  -2.136  0.0000  0.0000  0.0000
  151BTD    C50 3049  -0.209   4.865  -2.205  0.0000  0.0000  0.0000
  151BTD    C75 3050   0.395   5.062  -1.914  0.0000  0.0000  0.0000
  151BTD    C76 3051   0.511   5.155  -1.948  0.0000  0.0000  0.0000
  151BTD    C77 3052   0.647   5.101  -1.984  0.0000  0.0000  0.0000
  151BTD    C78 3053   0.767   5.190  -1.943  0.0000  0.0000  0.0000
  151BTD    C79 3054   0.473   5.276  -2.037  0.0000  0.0000  0.0000
  151BTD    C80 3055   0.378   5.386  -1.988  0.0000  0.0000  0.0000
  151BTD    C81 3056   0.318   5.511  -2.060  0.0000  0.0000  0.0000
  151BTD    C82 3057   0.336   5.619  -1.974  0.0000  0.0000  0.0000
  152TTP     S1 3058   0.490   4.384  -2.164  0.0000  0.0000  0.0000
  152TTP     S5 3059   0.475   4.674  -2.470  0.0000  0.0000  0.0000
  152TTP     C1 3060   0.500   4.510  -2.535  0.0000  0.0000  0.0000
  152TTP     C2 3061   0.504   4.405  -2.438  0.0000  0.0000  0.0000
  152TTP     C3 3062   0.490   4.468  -2.324  0.0000  0.0000  0.0000
  152TTP     C4 3063   0.468   4.539  -2.094  0.0000  0.0000  0.0000
  152TTP    C17 3064   0.455   4.641  -2.179  0.0000  0.0000  0.0000
  152TTP    C18 3065   0.470   4.596  -2.312  0.0000  0.0000  0.0000
  152TTP    C32 3066   0.506   4.258  -2.481  0.0000  0.0000  0.0000
  152TTP    C33 3067   0.652   4.211  -2.473  0.0000  0.0000  0.0000
  152TTP    C34 3068   0.656   4.059  -2.486  0.0000  0.0000  0.0000
  152TTP    C35 3069   0.794   4.005  -2.518  0.0000  0.0000  0.0000
  152TTP    C36 3070   0.855   3.922  -2.408  0.0000  0.0000  0.0000
  152TTP    C37 3071   0.995   3.866  -2.438  0.0000  0.0000  0.0000
  152TTP    C38 3072   1.079   3.951  -2.531  0.0000  0.0000  0.0000
  152TTP    C39 3073   1.001   4.061  -2.601  0.0000  0.0000  0.0000
  152TTP    C40 3074   1.084   4.182  -2.635  0.0000  0.0000  0.0000
  152TTP    C41 3075   1.035   4.311  -2.574  0.0000  0.0000  0.0000
  152TTP    C42 3076   0.912   4.299  -2.486  0.0000  0.0000  0.0000
  153TTP     S1 3077   0.425   4.856  -1.458  0.0000  0.0000  0.0000
  153TTP     S5 3078   0.371   5.244  -1.613  0.0000  0.0000  0.0000
  153TTP     C1 3079   0.362   5.256  -1.440  0.0000  0.0000  0.0000
  153TTP     C2 3080   0.381   5.130  -1.375  0.0000  0.0000  0.0000
  153TTP     C3 3081   0.400   5.032  -1.473  0.0000  0.0000  0.0000
  153TTP     C4 3082   0.429   4.845  -1.626  0.0000  0.0000  0.0000
  153TTP    C17 3083   0.416   4.969  -1.693  0.0000  0.0000  0.0000
  153TTP    C18 3084   0.398   5.075  -1.603  0.0000  0.0000  0.0000
  153TTP    C32 3085   0.361   5.102  -1.224  0.0000  0.0000  0.0000
  153TTP    C33 3086   0.483   5.078  -1.137  0.0000  0.0000  0.0000
  153TTP    C34 3087   0.470   5.043  -0.986  0.0000  0.0000  0.0000
  153TTP    C35 3088   0.486   4.896  -0.953  0.0000  0.0000  0.0000
  153TTP    C36 3089   0.492   4.846  -0.808  0.0000  0.0000  0.0000
  153TTP    C37 3090   0.507   4.696  -0.793  0.0000  0.0000  0.0000
  153TTP    C38 3091   0.632   4.652  -0.720  0.0000  0.0000  0.0000
  153TTP    C39 3092   0.727   4.565  -0.798  0.0000  0.0000  0.0000
  153TTP    C40 3093   0.847   4.526  -0.716  0.0000  0.0000  0.0000
  153TTP    C41 3094   0.947   4.439  -0.787  0.0000  0.0000  0.0000
  153TTP    C42 3095   1.069   4.399  -0.706  0.0000  0.0000  0.0000
  154FIC     F1 3096   0.565   5.024  -3.178  0.0000  0.0000  0.0000
  154FIC     F2 3097   0.594   4.815  -3.339  0.0000  0.0000  0.0000
  154FIC     O1 3098   0.502   4.793  -2.701  0.0000  0.0000  0.0000
  154FIC     N5 3099   0.624   4.346  -3.218  0.0000  0.0000  0.0000
  154FIC     N6 3100   0.544   4.182  -2.830  0.0000  0.0000  0.0000
  154FIC    C19 3101   0.518   4.488  -2.678  0.0000  0.0000  0.0000
  154FIC    C20 3102   0.525   4.570  -2.787  0.0000  0.0000  0.0000
  154FIC    C21 3103   0.523   4.710  -2.794  0.0000  0.0000  0.0000
  154FIC    C22 3104   0.543   4.762  -2.934  0.0000  0.0000  0.0000
  154FIC    C23 3105   0.542   4.888  -2.993  0.0000  0.0000  0.0000
  154FIC    C24 3106   0.561   4.900  -3.130  0.0000  0.0000  0.0000
  154FIC    C25 3107   0.581   4.787  -3.208  0.0000  0.0000  0.0000
  154FIC    C26 3108   0.582   4.661  -3.149  0.0000  0.0000  0.0000
  154FIC    C27 3109   0.563   4.649  -3.012  0.0000  0.0000  0.0000
  154FIC    C28 3110   0.552   4.525  -2.937  0.0000  0.0000  0.0000
  154FIC    C29 3111   0.570   4.398  -2.970  0.0000  0.0000  0.0000
  154FIC    C30 3112   0.601   4.369  -3.105  0.0000  0.0000  0.0000
  154FIC    C31 3113   0.558   4.280  -2.895  0.0000  0.0000  0.0000
  155FIC     F1 3114   0.230   6.026  -1.669  0.0000  0.0000  0.0000
  155FIC     F2 3115   0.204   6.088  -1.419  0.0000  0.0000  0.0000
  155FIC     O1 3116   0.331   5.503  -1.634  0.0000  0.0000  0.0000
  155FIC     N5 3117   0.253   5.815  -1.017  0.0000  0.0000  0.0000
  155FIC     N6 3118   0.323   5.398  -1.028  0.0000  0.0000  0.0000
  155FIC    C19 3119   0.340   5.373  -1.366  0.0000  0.0000  0.0000
  155FIC    C20 3120   0.322   5.507  -1.393  0.0000  0.0000  0.0000
  155FIC    C21 3121   0.315   5.556  -1.521  0.0000  0.0000  0.0000
  155FIC    C22 3122   0.291   5.705  -1.521  0.0000  0.0000  0.0000
  155FIC    C23 3123   0.271   5.801  -1.618  0.0000  0.0000  0.0000
  155FIC    C24 3124   0.246   5.928  -1.575  0.0000  0.0000  0.0000
  155FIC    C25 3125   0.229   5.960  -1.442  0.0000  0.0000  0.0000
  155FIC    C26 3126   0.248   5.874  -1.346  0.0000  0.0000  0.0000
  155FIC    C27 3127   0.276   5.743  -1.386  0.0000  0.0000  0.0000
  155FIC    C28 3128   0.296   5.618  -1.306  0.0000  0.0000  0.0000
  155FIC    C29 3129   0.293   5.609  -1.168  0.0000  0.0000  0.0000
  155FIC    C30 3130   0.271   5.717  -1.087  0.0000  0.0000  0.0000
  155FIC    C31 3131   0.307   5.494  -1.096  0.0000  0.0000  0.0000
  156BTD     S2 3132   0.761   4.850  -1.659  0.0000  0.0000  0.0000
  156BTD     N1 3133   0.769   4.831  -1.827  0.0000  0.0000  0.0000
  156BTD     N2 3134   0.784   4.697  -1.613  0.0000  0.0000  0.0000
  156BTD     N3 3135   0.835   4.276  -1.820  0.0000  0.0000  0.0000
  156BTD     N4 3136   0.848   4.464  -2.112  0.0000  0.0000  0.0000
  156BTD     C5 3137   0.806   4.630  -1.966  0.0000  0.0000  0.0000
  156BTD     C6 3138   0.785   4.690  -1.845  0.0000  0.0000  0.0000
  156BTD     C7 3139   0.802   4.628  -1.725  0.0000  0.0000  0.0000
  156BTD     C8 3140   0.819   4.487  -1.733  0.0000  0.0000  0.0000
  156BTD    C15 3141   0.828   4.410  -1.851  0.0000  0.0000  0.0000
  156BTD    C16 3142   0.829   4.495  -1.976  0.0000  0.0000  0.0000
  156BTD    C43 3143   0.895   4.338  -2.172  0.0000  0.0000  0.0000
  156BTD    C44 3144   1.047   4.311  -2.160  0.0000  0.0000  0.0000
  156BTD    C45 3145   1.067   4.177  -2.239  0.0000  0.0000  0.0000
  156BTD    C46 3146   1.173   4.088  -2.171  0.0000  0.0000  0.0000
  156BTD    C47 3147   1.123   4.427  -2.221  0.0000  0.0000  0.0000
  156BTD    C48 3148   1.276   4.419  -2.215  0.0000  0.0000  0.0000
  156BTD    C49 3149   1.374   4.523  -2.269  0.0000  0.0000  0.0000
  156BTD    C50 3150   1.286   4.648  -2.236  0.0000  0.0000  0.0000
  156BTD    C75 3151   0.869   4.159  -1.904  0.0000  0.0000  0.0000
  156BTD    C76 3152   0.758   4.057  -1.931  0.0000  0.0000  0.0000
  156BTD    C77 3153   0.636   4.123  -1.989  0.0000  0.0000  0.0000
  156BTD    C78 3154   0.510   4.032  -1.999  0.0000  0.0000  0.0000
  156BTD    C79 3155   0.800   3.953  -2.037  0.0000  0.0000  0.0000
  156BTD    C80 3156   0.883   3.846  -1.965  0.0000  0.0000  0.0000
  156BTD    C81 3157   0.919   3.730  -2.063  0.0000  0.0000  0.0000
  156BTD    C82 3158   1.032   3.650  -1.994  0.0000  0.0000  0.0000
  157TTP     S1 3159   0.786   4.834  -2.177  0.0000  0.0000  0.0000
  157TTP     S5 3160   0.856   4.541  -2.470  0.0000  0.0000  0.0000
  157TTP     C1 3161   0.835   4.694  -2.547  0.0000  0.0000  0.0000
  157TTP     C2 3162   0.816   4.802  -2.458  0.0000  0.0000  0.0000
  157TTP     C3 3163   0.811   4.756  -2.323  0.0000  0.0000  0.0000
  157TTP     C4 3164   0.810   4.678  -2.093  0.0000  0.0000  0.0000
  157TTP    C17 3165   0.830   4.584  -2.186  0.0000  0.0000  0.0000
  157TTP    C18 3166   0.835   4.618  -2.322  0.0000  0.0000  0.0000
  157TTP    C32 3167   0.794   4.954  -2.494  0.0000  0.0000  0.0000
  157TTP    C33 3168   0.717   5.037  -2.392  0.0000  0.0000  0.0000
  157TTP    C34 3169   0.697   5.179  -2.446  0.0000  0.0000  0.0000
  157TTP    C35 3170   0.643   5.272  -2.338  0.0000  0.0000  0.0000
  157TTP    C36 3171   0.599   5.411  -2.388  0.0000  0.0000  0.0000
  157TTP    C37 3172   0.544   5.506  -2.286  0.0000  0.0000  0.0000
  157TTP    C38 3173   0.623   5.640  -2.272  0.0000  0.0000  0.0000
  157TTP    C39 3174   0.622   5.730  -2.396  0.0000  0.0000  0.0000
  157TTP    C40 3175   0.698   5.860  -2.381  0.0000  0.0000  0.0000
  157TTP    C41 3176   0.648   5.949  -2.271  0.0000  0.0000  0.0000
  157TTP    C42 3177   0.654   5.886  -2.128  0.0000  0.0000  0.0000
  158TTP     S1 3178   0.805   4.386  -1.454  0.0000  0.0000  0.0000
  158TTP     S5 3179   0.843   3.988  -1.587  0.0000  0.0000  0.0000
  158TTP     C1 3180   0.834   3.989  -1.413  0.0000  0.0000  0.0000
  158TTP     C2 3181   0.825   4.117  -1.359  0.0000  0.0000  0.0000
  158TTP     C3 3182   0.817   4.213  -1.459  0.0000  0.0000  0.0000
  158TTP     C4 3183   0.815   4.394  -1.629  0.0000  0.0000  0.0000
  158TTP    C17 3184   0.823   4.268  -1.681  0.0000  0.0000  0.0000
  158TTP    C18 3185   0.827   4.155  -1.586  0.0000  0.0000  0.0000
  158TTP    C32 3186   0.821   4.154  -1.211  0.0000  0.0000  0.0000
  158TTP    C33 3187   0.674   4.160  -1.157  0.0000  0.0000  0.0000
  158TTP    C34 3188   0.660   4.237  -1.024  0.0000  0.0000  0.0000
  158TTP    C35 3189   0.512   4.274  -0.985  0.0000  0.0000  0.0000
  158TTP    C36 3190   0.482   4.273  -0.837  0.0000  0.0000  0.0000
  158TTP    C37 3191   0.439   4.407  -0.783  0.0000  0.0000  0.0000
  158TTP    C38 3192   0.424   4.514  -0.888  0.0000  0.0000  0.0000
  158TTP    C39 3193   0.484   4.479  -1.022  0.0000  0.0000  0.0000
  158TTP    C40 3194   0.471   4.584  -1.127  0.0000  0.0000  0.0000
  158TTP    C41 3195   0.531   4.549  -1.260  0.0000  0.0000  0.0000
  158TTP    C42 3196   0.518   4.653  -1.366  0.0000  0.0000  0.0000
  159FIC     F1 3197   0.958   4.193  -3.183  0.0000  0.0000  0.0000
  159FIC     F2 3198   0.975   4.408  -3.344  0.0000  0.0000  0.0000
  159FIC     O1 3199   0.869   4.420  -2.712  0.0000  0.0000  0.0000
  159FIC     N5 3200   0.921   4.885  -3.232  0.0000  0.0000  0.0000
  159FIC     N6 3201   0.866   5.028  -2.838  0.0000  0.0000  0.0000
  159FIC    C19 3202   0.847   4.717  -2.687  0.0000  0.0000  0.0000
  159FIC    C20 3203   0.873   4.650  -2.801  0.0000  0.0000  0.0000
  159FIC    C21 3204   0.878   4.507  -2.797  0.0000  0.0000  0.0000
  159FIC    C22 3205   0.901   4.453  -2.938  0.0000  0.0000  0.0000
  159FIC    C23 3206   0.919   4.325  -2.990  0.0000  0.0000  0.0000
  159FIC    C24 3207   0.945   4.308  -3.125  0.0000  0.0000  0.0000
  159FIC    C25 3208   0.953   4.419  -3.209  0.0000  0.0000  0.0000
  159FIC    C26 3209   0.935   4.546  -3.157  0.0000  0.0000  0.0000
  159FIC    C27 3210   0.909   4.563  -3.021  0.0000  0.0000  0.0000
  159FIC    C28 3211   0.893   4.690  -2.943  0.0000  0.0000  0.0000
  159FIC    C29 3212   0.893   4.814  -2.974  0.0000  0.0000  0.0000
  159FIC    C30 3213   0.909   4.842  -3.133  0.0000  0.0000  0.0000
  159FIC    C31 3214   0.880   4.932  -2.897  0.0000  0.0000  0.0000
  160FIC     F1 3215   0.952   3.200  -1.590  0.0000  0.0000  0.0000
  160FIC     F2 3216   0.968   3.151  -1.320  0.0000  0.0000  0.0000
  160FIC     O1 3217   0.853   3.720  -1.592  0.0000  0.0000  0.0000
  160FIC     N5 3218   0.907   3.465  -0.941  0.0000  0.0000  0.0000
  160FIC     N6 3219   0.843   3.873  -0.983  0.0000  0.0000  0.0000
  160FIC    C19 3220   0.850   3.872  -1.329  0.0000  0.0000  0.0000
  160FIC    C20 3221   0.863   3.733  -1.348  0.0000  0.0000  0.0000
  160FIC    C21 3222   0.866   3.681  -1.480  0.0000  0.0000  0.0000
  160FIC    C22 3223   0.896   3.530  -1.452  0.0000  0.0000  0.0000
  160FIC    C23 3224   0.912   3.426  -1.543  0.0000  0.0000  0.0000
  160FIC    C24 3225   0.936   3.297  -1.497  0.0000  0.0000  0.0000
  160FIC    C25 3226   0.944   3.272  -1.360  0.0000  0.0000  0.0000
  160FIC    C26 3227   0.927   3.376  -1.269  0.0000  0.0000  0.0000
  160FIC    C27 3228   0.903   3.505  -1.315  0.0000  0.0000  0.0000
  160FIC    C28 3229   0.880   3.633  -1.241  0.0000  0.0000  0.0000
  160FIC    C29 3230   0.877   3.656  -1.119  0.0000  0.0000  0.0000
  160FIC    C30 3231   0.898   3.527  -1.036  0.0000  0.0000  0.0000
  160FIC    C31 3232   0.857   3.774  -1.042  0.0000  0.0000  0.0000
  161BTD     S2 3233   2.964   1.475   1.649  0.0000  0.0000  0.0000
  161BTD     N1 3234   2.961   1.461   1.810  0.0000  0.0000  0.0000
  161BTD     N2 3235   2.981   1.322   1.603  0.0000  0.0000  0.0000
  161BTD     N3 3236   3.030   0.909   1.829  0.0000  0.0000  0.0000
  161BTD     N4 3237   3.004   1.094   2.112  0.0000  0.0000  0.0000
  161BTD     C5 3238   2.986   1.267   1.959  0.0000  0.0000  0.0000
  161BTD     C6 3239   2.980   1.326   1.834  0.0000  0.0000  0.0000
  161BTD     C7 3240   2.990   1.248   1.719  0.0000  0.0000  0.0000
  161BTD     C8 3241   3.006   1.110   1.731  0.0000  0.0000  0.0000
  161BTD    C15 3242   3.012   1.051   1.856  0.0000  0.0000  0.0000
  161BTD    C16 3243   3.002   1.130   1.971  0.0000  0.0000  0.0000
  161BTD    C43 3244   3.031   0.971   2.193  0.0000  0.0000  0.0000
  161BTD    C44 3245   3.166   0.954   2.262  0.0000  0.0000  0.0000
  161BTD    C45 3246   3.187   0.818   2.331  0.0000  0.0000  0.0000
  161BTD    C46 3247   3.084   0.817   2.448  0.0000  0.0000  0.0000
  161BTD    C47 3248   3.274   0.985   2.160  0.0000  0.0000  0.0000
  161BTD    C48 3249   3.408   0.987   2.239  0.0000  0.0000  0.0000
  161BTD    C49 3250   3.516   1.016   2.136  0.0000  0.0000  0.0000
  161BTD    C50 3251   3.652   0.993   2.205  0.0000  0.0000  0.0000
  161BTD    C75 3252   3.048   0.796   1.914  0.0000  0.0000  0.0000
  161BTD    C76 3253   2.932   0.703   1.948  0.0000  0.0000  0.0000
  161BTD    C77 3254   2.796   0.757   1.984  0.0000  0.0000  0.0000
  161BTD    C78 3255   2.676   0.668   1.943  0.0000  0.0000  0.0000
  161BTD    C79 3256   2.970   0.582   2.037  0.0000  0.0000  0.0000
  161BTD    C80 3257   3.065   0.472   1.988  0.0000  0.0000  0.0000
  161BTD    C81 3258   3.125   0.347   2.060  0.0000  0.0000  0.0000
  161BTD    C82 3259   3.107   0.239   1.974  0.0000  0.0000  0.0000
  162TTP     S1 3260   2.953   1.474   2.164  0.0000  0.0000  0.0000
  162TTP     S5 3261   2.968   1.184   2.470  0.0000  0.0000  0.0000
  162TTP     C1 3262   2.943   1.348   2.535  0.0000  0.0000  0.0000
  162TTP     C2 3263   2.939   1.453   2.438  0.0000  0.0000  0.0000
  162TTP     C3 3264   2.953   1.390   2.324  0.0000  0.0000  0.0000
  162TTP     C4 3265   2.975   1.319   2.094  0.0000  0.0000  0.0000
  162TTP    C17 3266   2.988   1.217   2.179  0.0000  0.0000  0.0000
  162TTP    C18 3267   2.973   1.262   2.312  0.0000  0.0000  0.0000
  162TTP    C32 3268   2.937   1.600   2.481  0.0000  0.0000  0.0000
  162TTP    C33 3269   2.791   1.647   2.473  0.0000  0.0000  0.0000
  162TTP    C34 3270   2.787   1.799   2.486  0.0000  0.0000  0.0000
  162TTP    C35 3271   2.649   1.853   2.518  0.0000  0.0000  0.0000
  162TTP    C36 3272   2.588   1.936   2.408  0.0000  0.0000  0.0000
  162TTP    C37 3273   2.448   1.992   2.438  0.0000  0.0000  0.0000
  162TTP    C38 3274   2.364   1.907   2.531  0.0000  0.0000  0.0000
  162TTP    C39 3275   2.442   1.797   2.601  0.0000  0.0000  0.0000
  162TTP    C40 3276   2.359   1.676   2.635  0.0000  0.0000  0.0000
  162TTP    C41 3277   2.408   1.547   2.574  0.0000  0.0000  0.0000
  162TTP    C42 3278   2.531   1.559   2.486  0.0000  0.0000  0.0000
  163TTP     S1 3279   3.018   1.002   1.458  0.0000  0.0000  0.0000
  163TTP     S5 3280   3.072   0.614   1.613  0.0000  0.0000  0.0000
  163TTP     C1 3281   3.081   0.602   1.440  0.0000  0.0000  0.0000
  163TTP     C2 3282   3.062   0.728   1.375  0.0000  0.0000  0.0000
  163TTP     C3 3283   3.043   0.826   1.473  0.0000  0.0000  0.0000
  163TTP     C4 3284   3.014   1.013   1.626  0.0000  0.0000  0.0000
  163TTP    C17 3285   3.027   0.889   1.693  0.0000  0.0000  0.0000
  163TTP    C18 3286   3.045   0.783   1.603  0.0000  0.0000  0.0000
  163TTP    C32 3287   3.082   0.756   1.224  0.0000  0.0000  0.0000
  163TTP    C33 3288   2.960   0.780   1.137  0.0000  0.0000  0.0000
  163TTP    C34 3289   2.973   0.815   0.986  0.0000  0.0000  0.0000
  163TTP    C35 3290   2.957   0.962   0.953  0.0000  0.0000  0.0000
  163TTP    C36 3291   2.951   1.012   0.808  0.0000  0.0000  0.0000
  163TTP    C37 3292   2.936   1.162   0.793  0.0000  0.0000  0.0000
  163TTP    C38 3293   2.811   1.206   0.720  0.0000  0.0000  0.0000
  163TTP    C39 3294   2.716   1.293   0.798  0.0000  0.0000  0.0000
  163TTP    C40 3295   2.596   1.332   0.716  0.0000  0.0000  0.0000
  163TTP    C41 3296   2.496   1.419   0.787  0.0000  0.0000  0.0000
  163TTP    C42 3297   2.374   1.459   0.706  0.0000  0.0000  0.0000
  164FIC     F1 3298   2.878   0.834   3.178  0.0000  0.0000  0.0000
  164FIC     F2 3299   2.849   1.043   3.339  0.0000  0.0000  0.0000
  164FIC     O1 3300   2.941   1.065   2.701  0.0000  0.0000  0.0000
  164FIC     N5 3301   2.820   1.512   3.218  0.0000  0.0000  0.0000
  164FIC     N6 3302   2.899   1.676   2.830  0.0000  0.0000  0.0000
  164FIC    C19 3303   2.925   1.370   2.678  0.0000  0.0000  0.0000
  164FIC    C20 3304   2.918   1.288   2.787  0.0000  0.0000  0.0000
  164FIC    C21 3305   2.920   1.148   2.794  0.0000  0.0000  0.0000
  164FIC    C22 3306   2.901   1.096   2.934  0.0000  0.0000  0.0000
  164FIC    C23 3307   2.901   0.970   2.993  0.0000  0.0000  0.0000
  164FIC    C24 3308   2.882   0.958   3.130  0.0000  0.0000  0.0000
  164FIC    C25 3309   2.862   1.071   3.208  0.0000  0.0000  0.0000
  164FIC    C26 3310   2.861   1.197   3.149  0.0000  0.0000  0.0000
  164FIC    C27 3311   2.880   1.209   3.012  0.0000  0.0000  0.0000
  164FIC    C28 3312   2.891   1.333   2.937  0.0000  0.0000  0.0000
  164FIC    C29 3313   2.873   1.460   2.970  0.0000  0.0000  0.0000
  164FIC    C30 3314   2.842   1.489   3.105  0.0000  0.0000  0.0000
  164FIC    C31 3315   2.885   1.578   2.895  0.0000  0.0000  0.0000
  165FIC     F1 3316   3.214  -0.168   1.669  0.0000  0.0000  0.0000
  165FIC     F2 3317   3.239  -0.230   1.419  0.0000  0.0000  0.0000
  165FIC     O1 3318   3.112   0.355   1.634  0.0000  0.0000  0.0000
  165FIC     N5 3319   3.190   0.043   1.017  0.0000  0.0000  0.0000
  165FIC     N6 3320   3.121   0.460   1.028  0.0000  0.0000  0.0000
  165FIC    C19 3321   3.103   0.485   1.366  0.0000  0.0000  0.0000
  165FIC    C20 3322   3.121   0.351   1.393  0.0000  0.0000  0.0000
  165FIC    C21 3323   3.128   0.302   1.521  0.0000  0.0000  0.0000
  165FIC    C22 3324   3.152   0.153   1.521  0.0000  0.0000  0.0000
  165FIC    C23 3325   3.172   0.057   1.618  0.0000  0.0000  0.0000
  165FIC    C24 3326   3.197  -0.071   1.575  0.0000  0.0000  0.0000
  165FIC    C25 3327   3.214  -0.102   1.442  0.0000  0.0000  0.0000
  165FIC    C26 3328   3.195  -0.016   1.346  0.0000  0.0000  0.0000
  165FIC    C27 3329   3.167   0.115   1.386  0.0000  0.0000  0.0000
  165FIC    C28 3330   3.147   0.240   1.306  0.0000  0.0000  0.0000
  165FIC    C29 3331   3.150   0.249   1.168  0.0000  0.0000  0.0000
  165FIC    C30 3332   3.172   0.141   1.087  0.0000  0.0000  0.0000
  165FIC    C31 3333   3.136   0.364   1.096  0.0000  0.0000  0.0000
  166BTD     S2 3334   2.682   1.008   1.659  0.0000  0.0000  0.0000
  166BTD     N1 3335   2.674   1.027   1.827  0.0000  0.0000  0.0000
  166BTD     N2 3336   2.659   1.161   1.613  0.0000  0.0000  0.0000
  166BTD     N3 3337   2.608   1.582   1.820  0.0000  0.0000  0.0000
  166BTD     N4 3338   2.595   1.394   2.112  0.0000  0.0000  0.0000
  166BTD     C5 3339   2.637   1.228   1.966  0.0000  0.0000  0.0000
  166BTD     C6 3340   2.658   1.168   1.845  0.0000  0.0000  0.0000
  166BTD     C7 3341   2.641   1.230   1.725  0.0000  0.0000  0.0000
  166BTD     C8 3342   2.624   1.371   1.733  0.0000  0.0000  0.0000
  166BTD    C15 3343   2.615   1.448   1.851  0.0000  0.0000  0.0000
  166BTD    C16 3344   2.614   1.363   1.976  0.0000  0.0000  0.0000
  166BTD    C43 3345   2.548   1.520   2.172  0.0000  0.0000  0.0000
  166BTD    C44 3346   2.396   1.547   2.160  0.0000  0.0000  0.0000
  166BTD    C45 3347   2.376   1.681   2.239  0.0000  0.0000  0.0000
  166BTD    C46 3348   2.270   1.770   2.171  0.0000  0.0000  0.0000
  166BTD    C47 3349   2.320   1.431   2.221  0.0000  0.0000  0.0000
  166BTD    C48 3350   2.167   1.439   2.215  0.0000  0.0000  0.0000
  166BTD    C49 3351   2.069   1.335   2.269  0.0000  0.0000  0.0000
  166BTD    C50 3352   2.157   1.210   2.236  0.0000  0.0000  0.0000
  166BTD    C75 3353   2.574   1.699   1.904  0.0000  0.0000  0.0000
  166BTD    C76 3354   2.686   1.801   1.931  0.0000  0.0000  0.0000
  166BTD    C77 3355   2.807   1.735   1.989  0.0000  0.0000  0.0000
  166BTD    C78 3356   2.933   1.826   1.999  0.0000  0.0000  0.0000
  166BTD    C79 3357   2.643   1.905   2.037  0.0000  0.0000  0.0000
  166BTD    C80 3358   2.560   2.012   1.965  0.0000  0.0000  0.0000
  166BTD    C81 3359   2.524   2.128   2.063  0.0000  0.0000  0.0000
  166BTD    C82 3360   2.411   2.208   1.994  0.0000  0.0000  0.0000
  167TTP     S1 3361   2.657   1.024   2.177  0.0000  0.0000  0.0000
  167TTP     S5 3362   2.587   1.317   2.470  0.0000  0.0000  0.0000
  167TTP     C1 3363   2.608   1.164   2.547  0.0000  0.0000  0.0000
  167TTP     C2 3364   2.627   1.056   2.458  0.0000  0.0000  0.0000
  167TTP     C3 3365   2.632   1.102   2.323  0.0000  0.0000  0.0000
  167TTP     C4 3366   2.633   1.180   2.093  0.0000  0.0000  0.0000
  167TTP    C17 3367   2.613   1.274   2.186  0.0000  0.0000  0.0000
  167TTP    C18 3368   2.608   1.240   2.322  0.0000  0.0000  0.0000
  167TTP    C32 3369   2.649   0.904   2.494  0.0000  0.0000  0.0000
  167TTP    C33 3370   2.726   0.821   2.392  0.0000  0.0000  0.0000
  167TTP    C34 3371   2.746   0.679   2.446  0.0000  0.0000  0.0000
  167TTP    C35 3372   2.800   0.586   2.338  0.0000  0.0000  0.0000
  167TTP    C36 3373   2.844   0.447   2.388  0.0000  0.0000  0.0000
  167TTP    C37 3374   2.899   0.352   2.286  0.0000  0.0000  0.0000
  167TTP    C38 3375   2.820   0.218   2.272  0.0000  0.0000  0.0000
  167TTP    C39 3376   2.822   0.128   2.396  0.0000  0.0000  0.0000
  167TTP    C40 3377   2.745  -0.002   2.381  0.0000  0.0000  0.0000
  167TTP    C41 3378   2.795  -0.091   2.271  0.0000  0.0000  0.0000
  167TTP    C42 3379   2.789  -0.028   2.128  0.0000  0.0000  0.0000
  168TTP     S1 3380   2.638   1.472   1.454  0.0000  0.0000  0.0000
  168TTP     S5 3381   2.600   1.870   1.587  0.0000  0.0000  0.0000
  168TTP     C1 3382   2.609   1.869   1.413  0.0000  0.0000  0.0000
  168TTP     C2 3383   2.618   1.741   1.359  0.0000  0.0000  0.0000
  168TTP     C3 3384   2.626   1.645   1.459  0.0000  0.0000  0.0000
  168TTP     C4 3385   2.628   1.464   1.629  0.0000  0.0000  0.0000
  168TTP    C17 3386   2.620   1.590   1.681  0.0000  0.0000  0.0000
  168TTP    C18 3387   2.616   1.703   1.586  0.0000  0.0000  0.0000
  168TTP    C32 3388   2.622   1.704   1.211  0.0000  0.0000  0.0000
  168TTP    C33 3389   2.769   1.698   1.157  0.0000  0.0000  0.0000
  168TTP    C34 3390   2.783   1.621   1.024  0.0000  0.0000  0.0000
  168TTP    C35 3391   2.931   1.584   0.985  0.0000  0.0000  0.0000
  168TTP    C36 3392   2.961   1.585   0.837  0.0000  0.0000  0.0000
  168TTP    C37 3393   3.004   1.451   0.783  0.0000  0.0000  0.0000
  168TTP    C38 3394   3.019   1.344   0.888  0.0000  0.0000  0.0000
  168TTP    C39 3395   2.959   1.379   1.022  0.0000  0.0000  0.0000
  168TTP    C40 3396   2.972   1.274   1.127  0.0000  0.0000  0.0000
  168TTP    C41 3397   2.912   1.309   1.260  0.0000  0.0000  0.0000
  168TTP    C42 3398   2.925   1.205   1.366  0.0000  0.0000  0.0000
  169FIC     F1 3399   2.485   1.665   3.183  0.0000  0.0000  0.0000
  169FIC     F2 3400   2.468   1.450   3.344  0.0000  0.0000  0.0000
  169FIC     O1 3401   2.574   1.438   2.712  0.0000  0.0000  0.0000
  169FIC     N5 3402   2.522   0.973   3.232  0.0000  0.0000  0.0000
  169FIC     N6 3403   2.577   0.830   2.838  0.0000  0.0000  0.0000
  169FIC    C19 3404   2.596   1.141   2.687  0.0000  0.0000  0.0000
  169FIC    C20 3405   2.570   1.208   2.801  0.0000  0.0000  0.0000
  169FIC    C21 3406   2.565   1.351   2.797  0.0000  0.0000  0.0000
  169FIC    C22 3407   2.542   1.405   2.938  0.0000  0.0000  0.0000
  169FIC    C23 3408   2.524   1.533   2.990  0.0000  0.0000  0.0000
  169FIC    C24 3409   2.498   1.550   3.125  0.0000  0.0000  0.0000
  169FIC    C25 3410   2.490   1.439   3.209  0.0000  0.0000  0.0000
  169FIC    C26 3411   2.508   1.312   3.157  0.0000  0.0000  0.0000
  169FIC    C27 3412   2.534   1.295   3.021  0.0000  0.0000  0.0000
  169FIC    C28 3413   2.550   1.168   2.943  0.0000  0.0000  0.0000
  169FIC    C29 3414   2.550   1.044   2.974  0.0000  0.0000  0.0000
  169FIC    C30 3415   2.534   1.016   3.133  0.0000  0.0000  0.0000
  169FIC    C31 3416   2.563   0.926   2.897  0.0000  0.0000  0.0000
  170FIC     F1 3417   2.491   2.658   1.590  0.0000  0.0000  0.0000
  170FIC     F2 3418   2.475   2.707   1.320  0.0000  0.0000  0.0000
  170FIC     O1 3419   2.590   2.138   1.592  0.0000  0.0000  0.0000
  170FIC     N5 3420   2.536   2.393   0.941  0.0000  0.0000  0.0000
  170FIC     N6 3421   2.600   1.985   0.983  0.0000  0.0000  0.0000
  170FIC    C19 3422   2.593   1.986   1.329  0.0000  0.0000  0.0000
  170FIC    C20 3423   2.580   2.125   1.348  0.0000  0.0000  0.0000
  170FIC    C21 3424   2.577   2.177   1.480  0.0000  0.0000  0.0000
  170FIC    C22 3425   2.547   2.328   1.452  0.0000  0.0000  0.0000
  170FIC    C23 3426   2.531   2.432   1.543  0.0000  0.0000  0.0000
  170FIC    C24 3427   2.507   2.561   1.497  0.0000  0.0000  0.0000
  170FIC    C25 3428   2.499   2.586   1.360  0.0000  0.0000  0.0000
  170FIC    C26 3429   2.516   2.482   1.269  0.0000  0.0000  0.0000
  170FIC    C27 3430   2.540   2.353   1.315  0.0000  0.0000  0.0000
  170FIC    C28 3431   2.563   2.225   1.241  0.0000  0.0000  0.0000
  170FIC    C29 3432   2.566   2.202   1.119  0.0000  0.0000  0.0000
  170FIC    C30 3433   2.545   2.331   1.036  0.0000  0.0000  0.0000
  170FIC    C31 3434   2.586   2.084   1.042  0.0000  0.0000  0.0000
  171BTD     S2 3435   2.526  -1.475  -1.649  0.0000  0.0000  0.0000
  171BTD     N1 3436   2.529  -1.461  -1.810  0.0000  0.0000  0.0000
  171BTD     N2 3437   2.509  -1.322  -1.603  0.0000  0.0000  0.0000
  171BTD     N3 3438   2.460  -0.909  -1.829  0.0000  0.0000  0.0000
  171BTD     N4 3439   2.486  -1.094  -2.112  0.0000  0.0000  0.0000
  171BTD     C5 3440   2.504  -1.267  -1.959  0.0000  0.0000  0.0000
  171BTD     C6 3441   2.510  -1.326  -1.834  0.0000  0.0000  0.0000
  171BTD     C7 3442   2.500  -1.248  -1.719  0.0000  0.0000  0.0000
  171BTD     C8 3443   2.484  -1.110  -1.731  0.0000  0.0000  0.0000
  171BTD    C15 3444   2.478  -1.051  -1.856  0.0000  0.0000  0.0000
  171BTD    C16 3445   2.488  -1.130  -1.971  0.0000  0.0000  0.0000
  171BTD    C43 3446   2.459  -0.971  -2.193  0.0000  0.0000  0.0000
  171BTD    C44 3447   2.324  -0.954  -2.262  0.0000  0.0000  0.0000
  171BTD    C45 3448   2.303  -0.818  -2.331  0.0000  0.0000  0.0000
  171BTD    C46 3449   2.406  -0.817  -2.448  0.0000  0.0000  0.0000
  171BTD    C47 3450   2.216  -0.985  -2.160  0.0000  0.0000  0.0000
  171BTD    C48 3451   2.082  -0.987  -2.239  0.0000  0.0000  0.0000
  171BTD    C49 3452   1.974  -1.016  -2.136  0.0000  0.0000  0.0000
  171BTD    C50 3453   1.838  -0.993  -2.205  0.0000  0.0000  0.0000
  171BTD    C75 3454   2.442  -0.796  -1.914  0.0000  0.0000  0.0000
  171BTD    C76 3455   2.558  -0.703  -1.948  0.0000  0.0000  0.0000
  171BTD    C77 3456   2.694  -0.757  -1.984  0.0000  0.0000  0.0000
  171BTD    C78 3457   2.814  -0.668  -1.943  0.0000  0.0000  0.0000
  171BTD    C79 3458   2.520  -0.582  -2.037  0.0000  0.0000  0.0000
  171BTD    C80 3459   2.425  -0.472  -1.988  0.0000  0.0000  0.0000
  171BTD    C81 3460   2.365  -0.347  -2.060  0.0000  0.0000  0.0000
  171BTD    C82 3461   2.383  -0.239  -1.974  0.0000  0.0000  0.0000
  172TTP     S1 3462   2.537  -1.474  -2.164  0.0000  0.0000  0.0000
  172TTP     S5 3463   2.522  -1.184  -2.470  0.0000  0.0000  0.0000
  172TTP     C1 3464   2.547  -1.348  -2.535  0.0000  0.0000  0.0000
  172TTP     C2 3465   2.551  -1.453  -2.438  0.0000  0.0000  0.0000
  172TTP     C3 3466   2.537  -1.390  -2.324  0.0000  0.0000  0.0000
  172TTP     C4 3467   2.515  -1.319  -2.094  0.0000  0.0000  0.0000
  172TTP    C17 3468   2.502  -1.217  -2.179  0.0000  0.0000  0.0000
  172TTP    C18 3469   2.517  -1.262  -2.312  0.0000  0.0000  0.0000
  172TTP    C32 3470   2.553  -1.600  -2.481  0.0000  0.0000  0.0000
  172TTP    C33 3471   2.699  -1.647  -2.473  0.0000  0.0000  0.0000
  172TTP    C34 3472   2.703  -1.799  -2.486  0.0000  0.0000  0.0000
  172TTP    C35 3473   2.841  -1.853  -2.518  0.0000  0.0000  0.0000
  172TTP    C36 3474   2.902  -1.936  -2.408  0.0000  0.0000  0.0000
  172TTP    C37 3475   3.042  -1.992  -2.438  0.0000  0.0000  0.0000
  172TTP    C38 3476   3.126  -1.907  -2.531  0.0000  0.0000  0.0000
  172TTP    C39 3477   3.048  -1.797  -2.601  0.0000  0.0000  0.0000
  172TTP    C40 3478   3.131  -1.676  -2.635  0.0000  0.0000  0.0000
  172TTP    C41 3479   3.082  -1.547  -2.574  0.0000  0.0000  0.0000
  172TTP    C42 3480   2.959  -1.559  -2.486  0.0000  0.0000  0.0000
  173TTP     S1 3481   2.472  -1.002  -1.458  0.0000  0.0000  0.0000
  173TTP     S5 3482   2.418  -0.614  -1.613  0.0000  0.0000  0.0000
  173TTP     C1 3483   2.409  -0.602  -1.440  0.0000  0.0000  0.0000
  173TTP     C2 3484   2.428  -0.728  -1.375  0.0000  0.0000  0.0000
  173TTP     C3 3485   2.447  -0.826  -1.473  0.0000  0.0000  0.0000
  173TTP     C4 3486   2.476  -1.013  -1.626  0.0000  0.0000  0.0000
  173TTP    C17 3487   2.463  -0.889  -1.693  0.0000  0.0000  0.0000
  173TTP    C18 3488   2.445  -0.783  -1.603  0.0000  0.0000  0.0000
  173TTP    C32 3489   2.408  -0.756  -1.224  0.0000  0.0000  0.0000
  173TTP    C33 3490   2.530  -0.780  -1.137  0.0000  0.0000  0.0000
  173TTP    C34 3491   2.517  -0.815  -0.986  0.0000  0.0000  0.0000
  173TTP    C35 3492   2.533  -0.962  -0.953  0.0000  0.0000  0.0000
  173TTP    C36 3493   2.539  -1.012  -0.808  0.0000  0.0000  0.0000
  173TTP    C37 3494   2.554  -1.162  -0.793  0.0000  0.0000  0.0000
  173TTP    C38 3495   2.679  -1.206  -0.720  0.0000  0.0000  0.0000
  173TTP    C39 3496   2.774  -1.293  -0.798  0.0000  0.0000  0.0000
  173TTP    C40 3497   2.894  -1.332  -0.716  0.0000  0.0000  0.0000
  173TTP    C41 3498   2.994  -1.419  -0.787  0.0000  0.0000  0.0000
  173TTP    C42 3499   3.116  -1.459  -0.706  0.0000  0.0000  0.0000
  174FIC     F1 3500   2.612  -0.834  -3.178  0.0000  0.0000  0.0000
  174FIC     F2 3501   2.641  -1.043  -3.339  0.0000  0.0000  0.0000
  174FIC     O1 3502   2.549  -1.065  -2.701  0.0000  0.0000  0.0000
  174FIC     N5 3503   2.671  -1.512  -3.218  0.0000  0.0000  0.0000
  174FIC     N6 3504   2.591  -1.676  -2.830  0.0000  0.0000  0.0000
  174FIC    C19 3505   2.565  -1.370  -2.678  0.0000  0.0000  0.0000
  174FIC    C20 3506   2.572  -1.288  -2.787  0.0000  0.0000  0.0000
  174FIC    C21 3507   2.570  -1.148  -2.794  0.0000  0.0000  0.0000
  174FIC    C22 3508   2.590  -1.096  -2.934  0.0000  0.0000  0.0000
  174FIC    C23 3509   2.589  -0.970  -2.993  0.0000  0.0000  0.0000
  174FIC    C24 3510   2.608  -0.958  -3.130  0.0000  0.0000  0.0000
  174FIC    C25 3511   2.628  -1.071  -3.208  0.0000  0.0000  0.0000
  174FIC    C26 3512   2.629  -1.197  -3.149  0.0000  0.0000  0.0000
  174FIC    C27 3513   2.610  -1.209  -3.012  0.0000  0.0000  0.0000
  174FIC    C28 3514   2.599  -1.333  -2.937  0.0000  0.0000  0.0000
  174FIC    C29 3515   2.617  -1.460  -2.970  0.0000  0.0000  0.0000
  174FIC    C30 3516   2.648  -1.489  -3.105  0.0000  0.0000  0.0000
  174FIC    C31 3517   2.605  -1.578  -2.895  0.0000  0.0000  0.0000
  175FIC     F1 3518   2.277   0.168  -1.669  0.0000  0.0000  0.0000
  175FIC     F2 3519   2.251   0.230  -1.419  0.0000  0.0000  0.0000
  175FIC     O1 3520   2.378  -0.355  -1.634  0.0000  0.0000  0.0000
  175FIC     N5 3521   2.300  -0.043  -1.017  0.0000  0.0000  0.0000
  175FIC     N6 3522   2.370  -0.460  -1.028  0.0000  0.0000  0.0000
  175FIC    C19 3523   2.387  -0.485  -1.366  0.0000  0.0000  0.0000
  175FIC    C20 3524   2.369  -0.351  -1.393  0.0000  0.0000  0.0000
  175FIC    C21 3525   2.362  -0.302  -1.521  0.0000  0.0000  0.0000
  175FIC    C22 3526   2.338  -0.153  -1.521  0.0000  0.0000  0.0000
  175FIC    C23 3527   2.318  -0.057  -1.618  0.0000  0.0000  0.0000
  175FIC    C24 3528   2.293   0.070  -1.575  0.0000  0.0000  0.0000
  175FIC    C25 3529   2.276   0.102  -1.442  0.0000  0.0000  0.0000
  175FIC    C26 3530   2.295   0.016  -1.346  0.0000  0.0000  0.0000
  175FIC    C27 3531   2.323  -0.115  -1.386  0.0000  0.0000  0.0000
  175FIC    C28 3532   2.343  -0.240  -1.306  0.0000  0.0000  0.0000
  175FIC    C29 3533   2.340  -0.249  -1.168  0.0000  0.0000  0.0000
  175FIC    C30 3534   2.318  -0.141  -1.087  0.0000  0.0000  0.0000
  175FIC    C31 3535   2.354  -0.364  -1.096  0.0000  0.0000  0.0000
  176BTD     S2 3536   2.808  -1.008  -1.659  0.0000  0.0000  0.0000
  176BTD     N1 3537   2.816  -1.027  -1.827  0.0000  0.0000  0.0000
  176BTD     N2 3538   2.831  -1.161  -1.613  0.0000  0.0000  0.0000
  176BTD     N3 3539   2.882  -1.582  -1.820  0.0000  0.0000  0.0000
  176BTD     N4 3540   2.895  -1.394  -2.112  0.0000  0.0000  0.0000
  176BTD     C5 3541   2.853  -1.228  -1.966  0.0000  0.0000  0.0000
  176BTD     C6 3542   2.832  -1.168  -1.845  0.0000  0.0000  0.0000
  176BTD     C7 3543   2.849  -1.230  -1.725  0.0000  0.0000  0.0000
  176BTD     C8 3544   2.866  -1.371  -1.733  0.0000  0.0000  0.0000
  176BTD    C15 3545   2.875  -1.448  -1.851  0.0000  0.0000  0.0000
  176BTD    C16 3546   2.876  -1.363  -1.976  0.0000  0.0000  0.0000
  176BTD    C43 3547   2.942  -1.520  -2.172  0.0000  0.0000  0.0000
  176BTD    C44 3548   3.094  -1.547  -2.160  0.0000  0.0000  0.0000
  176BTD    C45 3549   3.114  -1.681  -2.239  0.0000  0.0000  0.0000
  176BTD    C46 3550   3.220  -1.770  -2.171  0.0000  0.0000  0.0000
  176BTD    C47 3551   3.170  -1.431  -2.221  0.0000  0.0000  0.0000
  176BTD    C48 3552   3.323  -1.439  -2.215  0.0000  0.0000  0.0000
  176BTD    C49 3553   3.421  -1.335  -2.269  0.0000  0.0000  0.0000
  176BTD    C50 3554   3.333  -1.210  -2.236  0.0000  0.0000  0.0000
  176BTD    C75 3555   2.916  -1.699  -1.904  0.0000  0.0000  0.0000
  176BTD    C76 3556   2.805  -1.801  -1.931  0.0000  0.0000  0.0000
  176BTD    C77 3557   2.683  -1.735  -1.989  0.0000  0.0000  0.0000
  176BTD    C78 3558   2.557  -1.826  -1.999  0.0000  0.0000  0.0000
  176BTD    C79 3559   2.847  -1.905  -2.037  0.0000  0.0000  0.0000
  176BTD    C80 3560   2.930  -2.012  -1.965  0.0000  0.0000  0.0000
  176BTD    C81 3561   2.966  -2.128  -2.063  0.0000  0.0000  0.0000
  176BTD    C82 3562   3.079  -2.208  -1.994  0.0000  0.0000  0.0000
  177TTP     S1 3563   2.833  -1.024  -2.177  0.0000  0.0000  0.0000
  177TTP     S5 3564   2.903  -1.317  -2.470  0.0000  0.0000  0.0000
  177TTP     C1 3565   2.882  -1.164  -2.547  0.0000  0.0000  0.0000
  177TTP     C2 3566   2.863  -1.056  -2.458  0.0000  0.0000  0.0000
  177TTP     C3 3567   2.858  -1.102  -2.323  0.0000  0.0000  0.0000
  177TTP     C4 3568   2.857  -1.180  -2.093  0.0000  0.0000  0.0000
  177TTP    C17 3569   2.877  -1.274  -2.186  0.0000  0.0000  0.0000
  177TTP    C18 3570   2.882  -1.240  -2.322  0.0000  0.0000  0.0000
  177TTP    C32 3571   2.841  -0.904  -2.494  0.0000  0.0000  0.0000
  177TTP    C33 3572   2.764  -0.821  -2.392  0.0000  0.0000  0.0000
  177TTP    C34 3573   2.744  -0.679  -2.446  0.0000  0.0000  0.0000
  177TTP    C35 3574   2.690  -0.586  -2.338  0.0000  0.0000  0.0000
  177TTP    C36 3575   2.646  -0.447  -2.388  0.0000  0.0000  0.0000
  177TTP    C37 3576   2.591  -0.352  -2.286  0.0000  0.0000  0.0000
  177TTP    C38 3577   2.670  -0.218  -2.272  0.0000  0.0000  0.0000
  177TTP    C39 3578   2.669  -0.128  -2.396  0.0000  0.0000  0.0000
  177TTP    C40 3579   2.745   0.002  -2.381  0.0000  0.0000  0.0000
  177TTP    C41 3580   2.695   0.091  -2.271  0.0000  0.0000  0.0000
  177TTP    C42 3581   2.701   0.028  -2.128  0.0000  0.0000  0.0000
  178TTP     S1 3582   2.852  -1.472  -1.454  0.0000  0.0000  0.0000
  178TTP     S5 3583   2.890  -1.870  -1.587  0.0000  0.0000  0.0000
  178TTP     C1 3584   2.881  -1.869  -1.413  0.0000  0.0000  0.0000
  178TTP     C2 3585   2.872  -1.741  -1.359  0.0000  0.0000  0.0000
  178TTP     C3 3586   2.864  -1.645  -1.459  0.0000  0.0000  0.0000
  178TTP     C4 3587   2.862  -1.464  -1.629  0.0000  0.0000  0.0000
  178TTP    C17 3588   2.870  -1.590  -1.681  0.0000  0.0000  0.0000
  178TTP    C18 3589   2.874  -1.703  -1.586  0.0000  0.0000  0.0000
  178TTP    C32 3590   2.868  -1.704  -1.211  0.0000  0.0000  0.0000
  178TTP    C33 3591   2.721  -1.698  -1.157  0.0000  0.0000  0.0000
  178TTP    C34 3592   2.707  -1.621  -1.024  0.0000  0.0000  0.0000
  178TTP    C35 3593   2.559  -1.584  -0.985  0.0000  0.0000  0.0000
  178TTP    C36 3594   2.529  -1.585  -0.837  0.0000  0.0000  0.0000
  178TTP    C37 3595   2.486  -1.451  -0.783  0.0000  0.0000  0.0000
  178TTP    C38 3596   2.471  -1.344  -0.888  0.0000  0.0000  0.0000
  178TTP    C39 3597   2.531  -1.379  -1.022  0.0000  0.0000  0.0000
  178TTP    C40 3598   2.518  -1.274  -1.127  0.0000  0.0000  0.0000
  178TTP    C41 3599   2.578  -1.309  -1.260  0.0000  0.0000  0.0000
  178TTP    C42 3600   2.565  -1.205  -1.366  0.0000  0.0000  0.0000
  179FIC     F1 3601   3.005  -1.665  -3.183  0.0000  0.0000  0.0000
  179FIC     F2 3602   3.022  -1.450  -3.344  0.0000  0.0000  0.0000
  179FIC     O1 3603   2.916  -1.438  -2.712  0.0000  0.0000  0.0000
  179FIC     N5 3604   2.968  -0.973  -3.232  0.0000  0.0000  0.0000
  179FIC     N6 3605   2.913  -0.830  -2.838  0.0000  0.0000  0.0000
  179FIC    C19 3606   2.894  -1.141  -2.687  0.0000  0.0000  0.0000
  179FIC    C20 3607   2.920  -1.208  -2.801  0.0000  0.0000  0.0000
  179FIC    C21 3608   2.925  -1.351  -2.797  0.0000  0.0000  0.0000
  179FIC    C22 3609   2.948  -1.405  -2.938  0.0000  0.0000  0.0000
  179FIC    C23 3610   2.966  -1.533  -2.990  0.0000  0.0000  0.0000
  179FIC    C24 3611   2.992  -1.550  -3.125  0.0000  0.0000  0.0000
  179FIC    C25 3612   3.000  -1.439  -3.209  0.0000  0.0000  0.0000
  179FIC    C26 3613   2.982  -1.312  -3.157  0.0000  0.0000  0.0000
  179FIC    C27 3614   2.956  -1.295  -3.021  0.0000  0.0000  0.0000
  179FIC    C28 3615   2.940  -1.168  -2.943  0.0000  0.0000  0.0000
  179FIC    C29 3616   2.940  -1.044  -2.974  0.0000  0.0000  0.0000
  179FIC    C30 3617   2.956  -1.016  -3.133  0.0000  0.0000  0.0000
  179FIC    C31 3618   2.927  -0.926  -2.897  0.0000  0.0000  0.0000
  180FIC     F1 3619   2.999  -2.658  -1.590  0.0000  0.0000  0.0000
  180FIC     F2 3620   3.015  -2.707  -1.320  0.0000  0.0000  0.0000
  180FIC     O1 3621   2.900  -2.138  -1.592  0.0000  0.0000  0.0000
  180FIC     N5 3622   2.954  -2.393  -0.941  0.0000  0.0000  0.0000
  180FIC     N6 3623   2.890  -1.985  -0.983  0.0000  0.0000  0.0000
  180FIC    C19 3624   2.897  -1.986  -1.329  0.0000  0.0000  0.0000
  180FIC    C20 3625   2.910  -2.125  -1.348  0.0000  0.0000  0.0000
  180FIC    C21 3626   2.913  -2.177  -1.480  0.0000  0.0000  0.0000
  180FIC    C22 3627   2.943  -2.328  -1.452  0.0000  0.0000  0.0000
  180FIC    C23 3628   2.959  -2.432  -1.543  0.0000  0.0000  0.0000
  180FIC    C24 3629   2.983  -2.561  -1.497  0.0000  0.0000  0.0000
  180FIC    C25 3630   2.991  -2.586  -1.360  0.0000  0.0000  0.0000
  180FIC    C26 3631   2.974  -2.482  -1.269  0.0000  0.0000  0.0000
  180FIC    C27 3632   2.950  -2.353  -1.315  0.0000  0.0000  0.0000
  180FIC    C28 3633   2.927  -2.225  -1.241  0.0000  0.0000  0.0000
  180FIC    C29 3634   2.924  -2.202  -1.119  0.0000  0.0000  0.0000
  180FIC    C30 3635   2.945  -2.331  -1.036  0.0000  0.0000  0.0000
  180FIC    C31 3636   2.904  -2.084  -1.042  0.0000  0.0000  0.0000
  181BTD     S2 3637   2.740   3.428   1.649  0.0000  0.0000  0.0000
  181BTD     N1 3638   2.737   3.414   1.810  0.0000  0.0000  0.0000
  181BTD     N2 3639   2.757   3.275   1.603  0.0000  0.0000  0.0000
  181BTD     N3 3640   2.806   2.862   1.829  0.0000  0.0000  0.0000
  181BTD     N4 3641   2.780   3.047   2.112  0.0000  0.0000  0.0000
  181BTD     C5 3642   2.762   3.220   1.959  0.0000  0.0000  0.0000
  181BTD     C6 3643   2.756   3.279   1.834  0.0000  0.0000  0.0000
  181BTD     C7 3644   2.766   3.201   1.719  0.0000  0.0000  0.0000
  181BTD     C8 3645   2.782   3.063   1.731  0.0000  0.0000  0.0000
  181BTD    C15 3646   2.788   3.004   1.856  0.0000  0.0000  0.0000
  181BTD    C16 3647   2.778   3.083   1.971  0.0000  0.0000  0.0000
  181BTD    C43 3648   2.807   2.924   2.193  0.0000  0.0000  0.0000
  181BTD    C44 3649   2.942   2.907   2.262  0.0000  0.0000  0.0000
  181BTD    C45 3650   2.963   2.771   2.331  0.0000  0.0000  0.0000
  181BTD    C46 3651   2.860   2.770   2.448  0.0000  0.0000  0.0000
  181BTD    C47 3652   3.050   2.938   2.160  0.0000  0.0000  0.0000
  181BTD    C48 3653   3.184   2.940   2.239  0.0000  0.0000  0.0000
  181BTD    C49 3654   3.292   2.969   2.136  0.0000  0.0000  0.0000
  181BTD    C50 3655   3.428   2.946   2.205  0.0000  0.0000  0.0000
  181BTD    C75 3656   2.824   2.749   1.914  0.0000  0.0000  0.0000
  181BTD    C76 3657   2.708   2.656   1.948  0.0000  0.0000  0.0000
  181BTD    C77 3658   2.572   2.710   1.984  0.0000  0.0000  0.0000
  181BTD    C78 3659   2.452   2.621   1.943  0.0000  0.0000  0.0000
  181BTD    C79 3660   2.746   2.535   2.037  0.0000  0.0000  0.0000
  181BTD    C80 3661   2.841   2.425   1.988  0.0000  0.0000  0.0000
  181BTD    C81 3662   2.901   2.300   2.060  0.0000  0.0000  0.0000
  181BTD    C82 3663   2.883   2.192   1.974  0.0000  0.0000  0.0000
  182TTP     S1 3664   2.729   3.427   2.164  0.0000  0.0000  0.0000
  182TTP     S5 3665   2.744   3.137   2.470  0.0000  0.0000  0.0000
  182TTP     C1 3666   2.719   3.301   2.535  0.0000  0.0000  0.0000
  182TTP     C2 3667   2.715   3.406   2.438  0.0000  0.0000  0.0000
  182TTP     C3 3668   2.729   3.343   2.324  0.0000  0.0000  0.0000
  182TTP     C4 3669   2.751   3.272   2.094  0.0000  0.0000  0.0000
  182TTP    C17 3670   2.764   3.170   2.179  0.0000  0.0000  0.0000
  182TTP    C18 3671   2.749   3.215   2.312  0.0000  0.0000  0.0000
  182TTP    C32 3672   2.713   3.553   2.481  0.0000  0.0000  0.0000
  182TTP    C33 3673   2.567   3.600   2.473  0.0000  0.0000  0.0000
  182TTP    C34 3674   2.563   3.752   2.486  0.0000  0.0000  0.0000
  182TTP    C35 3675   2.425   3.806   2.518  0.0000  0.0000  0.0000
  182TTP    C36 3676   2.364   3.889   2.408  0.0000  0.0000  0.0000
  182TTP    C37 3677   2.224   3.945   2.438  0.0000  0.0000  0.0000
  182TTP    C38 3678   2.140   3.860   2.531  0.0000  0.0000  0.0000
  182TTP    C39 3679   2.218   3.750   2.601  0.0000  0.0000  0.0000
  182TTP    C40 3680   2.135   3.629   2.635  0.0000  0.0000  0.0000
  182TTP    C41 3681   2.184   3.500   2.574  0.0000  0.0000  0.0000
  182TTP    C42 3682   2.307   3.512   2.486  0.0000  0.0000  0.0000
  183TTP     S1 3683   2.794   2.955   1.458  0.0000  0.0000  0.0000
  183TTP     S5 3684   2.848   2.567   1.613  0.0000  0.0000  0.0000
  183TTP     C1 3685   2.857   2.555   1.440  0.0000  0.0000  0.0000
  183TTP     C2 3686   2.838   2.681   1.375  0.0000  0.0000  0.0000
  183TTP     C3 3687   2.819   2.779   1.473  0.0000  0.0000  0.0000
  183TTP     C4 3688   2.790   2.966   1.626  0.0000  0.0000  0.0000
  183TTP    C17 3689   2.803   2.842   1.693  0.0000  0.0000  0.0000
  183TTP    C18 3690   2.821   2.736   1.603  0.0000  0.0000  0.0000
  183TTP    C32 3691   2.858   2.709   1.224  0.0000  0.0000  0.0000
  183TTP    C33 3692   2.736   2.733   1.137  0.0000  0.0000  0.0000
  183TTP    C34 3693   2.749   2.768   0.986  0.0000  0.0000  0.0000
  183TTP    C35 3694   2.733   2.915   0.953  0.0000  0.0000  0.0000
  183TTP    C36 3695   2.727   2.965   0.808  0.0000  0.0000  0.0000
  183TTP    C37 3696   2.712   3.115   0.793  0.0000  0.0000  0.0000
  183TTP    C38 3697   2.587   3.159   0.720  0.0000  0.0000  0.0000
  183TTP    C39 3698   2.492   3.246   0.798  0.0000  0.0000  0.0000
  183TTP    C40 3699   2.372   3.285   0.716  0.0000  0.0000  0.0000
  183TTP    C41 3700   2.272   3.372   0.787  0.0000  0.0000  0.0000
  183TTP    C42 3701   2.150   3.412   0.706  0.0000  0.0000  0.0000
  184FIC     F1 3702   2.654   2.787   3.178  0.0000  0.0000  0.0000
  184FIC     F2 3703   2.625   2.996   3.339  0.0000  0.0000  0.0000
  184FIC     O1 3704   2.717   3.018   2.701  0.0000  0.0000  0.0000
  184FIC     N5 3705   2.596   3.465   3.218  0.0000  0.0000  0.0000
  184FIC     N6 3706   2.675   3.629   2.830  0.0000  0.0000  0.0000
  184FIC    C19 3707   2.701   3.323   2.678  0.0000  0.0000  0.0000
  184FIC    C20 3708   2.694   3.241   2.787  0.0000  0.0000  0.0000
  184FIC    C21 3709   2.696   3.101   2.794  0.0000  0.0000  0.0000
  184FIC    C22 3710   2.677   3.049   2.934  0.0000  0.0000  0.0000
  184FIC    C23 3711   2.677   2.923   2.993  0.0000  0.0000  0.0000
  184FIC    C24 3712   2.658   2.911   3.130  0.0000  0.0000  0.0000
  184FIC    C25 3713   2.638   3.024   3.208  0.0000  0.0000  0.0000
  184FIC    C26 3714   2.637   3.150   3.149  0.0000  0.0000  0.0000
  184FIC    C27 3715   2.656   3.162   3.012  0.0000  0.0000  0.0000
  184FIC    C28 3716   2.667   3.286   2.937  0.0000  0.0000  0.0000
  184FIC    C29 3717   2.649   3.413   2.970  0.0000  0.0000  0.0000
  184FIC    C30 3718   2.618   3.442   3.105  0.0000  0.0000  0.0000
  184FIC    C31 3719   2.661   3.531   2.895  0.0000  0.0000  0.0000
  185FIC     F1 3720   2.990   1.785   1.669  0.0000  0.0000  0.0000
  185FIC     F2 3721   3.015   1.723   1.419  0.0000  0.0000  0.0000
  185FIC     O1 3722   2.888   2.308   1.634  0.0000  0.0000  0.0000
  185FIC     N5 3723   2.966   1.996   1.017  0.0000  0.0000  0.0000
  185FIC     N6 3724   2.897   2.413   1.028  0.0000  0.0000  0.0000
  185FIC    C19 3725   2.879   2.438   1.366  0.0000  0.0000  0.0000
  185FIC    C20 3726   2.897   2.304   1.393  0.0000  0.0000  0.0000
  185FIC    C21 3727   2.904   2.255   1.521  0.0000  0.0000  0.0000
  185FIC    C22 3728   2.928   2.106   1.521  0.0000  0.0000  0.0000
  185FIC    C23 3729   2.948   2.010   1.618  0.0000  0.0000  0.0000
  185FIC    C24 3730   2.973   1.882   1.575  0.0000  0.0000  0.0000
  185FIC    C25 3731   2.990   1.851   1.442  0.0000  0.0000  0.0000
  185FIC    C26 3732   2.971   1.937   1.346  0.0000  0.0000  0.0000
  185FIC    C27 3733   2.943   2.068   1.386  0.0000  0.0000  0.0000
  185FIC    C28 3734   2.923   2.193   1.306  0.0000  0.0000  0.0000
  185FIC    C29 3735   2.926   2.202   1.168  0.0000  0.0000  0.0000
  185FIC    C30 3736   2.948   2.094   1.087  0.0000  0.0000  0.0000
  185FIC    C31 3737   2.912   2.317   1.096  0.0000  0.0000  0.0000
  186BTD     S2 3738   2.458   2.961   1.659  0.0000  0.0000  0.0000
  186BTD     N1 3739   2.450   2.980   1.827  0.0000  0.0000  0.0000
  186BTD     N2 3740   2.435   3.114   1.613  0.0000  0.0000  0.0000
  186BTD     N3 3741   2.384   3.535   1.820  0.0000  0.0000  0.0000
  186BTD     N4 3742   2.371   3.347   2.112  0.0000  0.0000  0.0000
  186BTD     C5 3743   2.413   3.181   1.966  0.0000  0.0000  0.0000
  186BTD     C6 3744   2.434   3.121   1.845  0.0000  0.0000  0.0000
  186BTD     C7 3745   2.417   3.183   1.725  0.0000  0.0000  0.0000
  186BTD     C8 3746   2.400   3.324   1.733  0.0000  0.0000  0.0000
  186BTD    C15 3747   2.391   3.401   1.851  0.0000  0.0000  0.0000
  186BTD    C16 3748   2.390   3.316   1.976  0.0000  0.0000  0.0000
  186BTD    C43 3749   2.324   3.473   2.172  0.0000  0.0000  0.0000
  186BTD    C44 3750   2.172   3.500   2.160  0.0000  0.0000  0.0000
  186BTD    C45 3751   2.152   3.634   2.239  0.0000  0.0000  0.0000
  186BTD    C46 3752   2.046   3.723   2.171  0.0000  0.0000  0.0000
  186BTD    C47 3753   2.096   3.384   2.221  0.0000  0.0000  0.0000
  186BTD    C48 3754   1.943   3.392   2.215  0.0000  0.0000  0.0000
  186BTD    C49 3755   1.845   3.288   2.269  0.0000  0.0000  0.0000
  186BTD    C50 3756   1.933   3.163   2.236  0.0000  0.0000  0.0000
  186BTD    C75 3757   2.350   3.652   1.904  0.0000  0.0000  0.0000
  186BTD    C76 3758   2.462   3.754   1.931  0.0000  0.0000  0.0000
  186BTD    C77 3759   2.583   3.688   1.989  0.0000  0.0000  0.0000
  186BTD    C78 3760   2.709   3.779   1.999  0.0000  0.0000  0.0000
  186BTD    C79 3761   2.419   3.858   2.037  0.0000  0.0000  0.0000
  186BTD    C80 3762   2.336   3.965   1.965  0.0000  0.0000  0.0000
  186BTD    C81 3763   2.300   4.081   2.063  0.0000  0.0000  0.0000
  186BTD    C82 3764   2.187   4.161   1.994  0.0000  0.0000  0.0000
  187TTP     S1 3765   2.433   2.977   2.177  0.0000  0.0000  0.0000
  187TTP     S5 3766   2.363   3.270   2.470  0.0000  0.0000  0.0000
  187TTP     C1 3767   2.384   3.117   2.547  0.0000  0.0000  0.0000
  187TTP     C2 3768   2.403   3.009   2.458  0.0000  0.0000  0.0000
  187TTP     C3 3769   2.408   3.055   2.323  0.0000  0.0000  0.0000
  187TTP     C4 3770   2.409   3.133   2.093  0.0000  0.0000  0.0000
  187TTP    C17 3771   2.389   3.227   2.186  0.0000  0.0000  0.0000
  187TTP    C18 3772   2.384   3.193   2.322  0.0000  0.0000  0.0000
  187TTP    C32 3773   2.425   2.857   2.494  0.0000  0.0000  0.0000
  187TTP    C33 3774   2.502   2.774   2.392  0.0000  0.0000  0.0000
  187TTP    C34 3775   2.522   2.632   2.446  0.0000  0.0000  0.0000
  187TTP    C35 3776   2.576   2.539   2.338  0.0000  0.0000  0.0000
  187TTP    C36 3777   2.620   2.400   2.388  0.0000  0.0000  0.0000
  187TTP    C37 3778   2.675   2.305   2.286  0.0000  0.0000  0.0000
  187TTP    C38 3779   2.596   2.171   2.272  0.0000  0.0000  0.0000
  187TTP    C39 3780   2.598   2.081   2.396  0.0000  0.0000  0.0000
  187TTP    C40 3781   2.521   1.951   2.381  0.0000  0.0000  0.0000
  187TTP    C41 3782   2.571   1.862   2.271  0.0000  0.0000  0.0000
  187TTP    C42 3783   2.565   1.925   2.128  0.0000  0.0000  0.0000
  188TTP     S1 3784   2.414   3.425   1.454  0.0000  0.0000  0.0000
  188TTP     S5 3785   2.376   3.823   1.587  0.0000  0.0000  0.0000
  188TTP     C1 3786   2.385   3.822   1.413  0.0000  0.0000  0.0000
  188TTP     C2 3787   2.394   3.694   1.359  0.0000  0.0000  0.0000
  188TTP     C3 3788   2.402   3.598   1.459  0.0000  0.0000  0.0000
  188TTP     C4 3789   2.404   3.417   1.629  0.0000  0.0000  0.0000
  188TTP    C17 3790   2.396   3.543   1.681  0.0000  0.0000  0.0000
  188TTP    C18 3791   2.392   3.656   1.586  0.0000  0.0000  0.0000
  188TTP    C32 3792   2.398   3.657   1.211  0.0000  0.0000  0.0000
  188TTP    C33 3793   2.545   3.651   1.157  0.0000  0.0000  0.0000
  188TTP    C34 3794   2.559   3.574   1.024  0.0000  0.0000  0.0000
  188TTP    C35 3795   2.707   3.537   0.985  0.0000  0.0000  0.0000
  188TTP    C36 3796   2.737   3.538   0.837  0.0000  0.0000  0.0000
  188TTP    C37 3797   2.780   3.404   0.783  0.0000  0.0000  0.0000
  188TTP    C38 3798   2.795   3.297   0.888  0.0000  0.0000  0.0000
  188TTP    C39 3799   2.735   3.332   1.022  0.0000  0.0000  0.0000
  188TTP    C40 3800   2.748   3.227   1.127  0.0000  0.0000  0.0000
  188TTP    C41 3801   2.688   3.262   1.260  0.0000  0.0000  0.0000
  188TTP    C42 3802   2.701   3.158   1.366  0.0000  0.0000  0.0000
  189FIC     F1 3803   2.261   3.618   3.183  0.0000  0.0000  0.0000
  189FIC     F2 3804   2.244   3.403   3.344  0.0000  0.0000  0.0000
  189FIC     O1 3805   2.350   3.391   2.712  0.0000  0.0000  0.0000
  189FIC     N5 3806   2.298   2.926   3.232  0.0000  0.0000  0.0000
  189FIC     N6 3807   2.353   2.783   2.838  0.0000  0.0000  0.0000
  189FIC    C19 3808   2.372   3.094   2.687  0.0000  0.0000  0.0000
  189FIC    C20 3809   2.346   3.161   2.801  0.0000  0.0000  0.0000
  189FIC    C21 3810   2.341   3.304   2.797  0.0000  0.0000  0.0000
  189FIC    C22 3811   2.318   3.358   2.938  0.0000  0.0000  0.0000
  189FIC    C23 3812   2.300   3.486   2.990  0.0000  0.0000  0.0000
  189FIC    C24 3813   2.274   3.503   3.125  0.0000  0.0000  0.0000
  189FIC    C25 3814   2.266   3.392   3.209  0.0000  0.0000  0.0000
  189FIC    C26 3815   2.284   3.265   3.157  0.0000  0.0000  0.0000
  189FIC    C27 3816   2.310   3.248   3.021  0.0000  0.0000  0.0000
  189FIC    C28 3817   2.326   3.121   2.943  0.0000  0.0000  0.0000
  189FIC    C29 3818   2.326   2.997   2.974  0.0000  0.0000  0.0000
  189FIC    C30 3819   2.310   2.969   3.133  0.0000  0.0000  0.0000
  189FIC    C31 3820   2.339   2.879   2.897  0.0000  0.0000  0.0000
  190FIC     F1 3821   2.267   4.611   1.590  0.0000  0.0000  0.0000
  190FIC     F2 3822   2.251   4.660   1.320  0.0000  0.0000  0.0000
  190FIC     O1 3823   2.366   4.091   1.592  0.0000  0.0000  0.0000
  190FIC     N5 3824   2.312   4.346   0.941  0.0000  0.0000  0.0000
  190FIC     N6 3825   2.376   3.938   0.983  0.0000  0.0000  0.0000
  190FIC    C19 3826   2.369   3.939   1.329  0.0000  0.0000  0.0000
  190FIC    C20 3827   2.356   4.078   1.348  0.0000  0.0000  0.0000
  190FIC    C21 3828   2.353   4.130   1.480  0.0000  0.0000  0.0000
  190FIC    C22 3829   2.323   4.281   1.452  0.0000  0.0000  0.0000
  190FIC    C23 3830   2.307   4.385   1.543  0.0000  0.0000  0.0000
  190FIC    C24 3831   2.283   4.514   1.497  0.0000  0.0000  0.0000
  190FIC    C25 3832   2.275   4.539   1.360  0.0000  0.0000  0.0000
  190FIC    C26 3833   2.292   4.435   1.269  0.0000  0.0000  0.0000
  190FIC    C27 3834   2.316   4.306   1.315  0.0000  0.0000  0.0000
  190FIC    C28 3835   2.339   4.178   1.241  0.0000  0.0000  0.0000
  190FIC    C29 3836   2.342   4.155   1.119  0.0000  0.0000  0.0000
  190FIC    C30 3837   2.321   4.284   1.036  0.0000  0.0000  0.0000
  190FIC    C31 3838   2.362   4.037   1.042  0.0000  0.0000  0.0000
  191BTD     S2 3839   2.302   0.478  -1.649  0.0000  0.0000  0.0000
  191BTD     N1 3840   2.305   0.492  -1.810  0.0000  0.0000  0.0000
  191BTD     N2 3841   2.285   0.631  -1.603  0.0000  0.0000  0.0000
  191BTD     N3 3842   2.236   1.044  -1.829  0.0000  0.0000  0.0000
  191BTD     N4 3843   2.262   0.859  -2.112  0.0000  0.0000  0.0000
  191BTD     C5 3844   2.280   0.686  -1.959  0.0000  0.0000  0.0000
  191BTD     C6 3845   2.286   0.627  -1.834  0.0000  0.0000  0.0000
  191BTD     C7 3846   2.276   0.705  -1.719  0.0000  0.0000  0.0000
  191BTD     C8 3847   2.260   0.843  -1.731  0.0000  0.0000  0.0000
  191BTD    C15 3848   2.254   0.902  -1.856  0.0000  0.0000  0.0000
  191BTD    C16 3849   2.264   0.823  -1.971  0.0000  0.0000  0.0000
  191BTD    C43 3850   2.235   0.982  -2.193  0.0000  0.0000  0.0000
  191BTD    C44 3851   2.100   0.999  -2.262  0.0000  0.0000  0.0000
  191BTD    C45 3852   2.079   1.135  -2.331  0.0000  0.0000  0.0000
  191BTD    C46 3853   2.182   1.136  -2.448  0.0000  0.0000  0.0000
  191BTD    C47 3854   1.992   0.968  -2.160  0.0000  0.0000  0.0000
  191BTD    C48 3855   1.858   0.966  -2.239  0.0000  0.0000  0.0000
  191BTD    C49 3856   1.750   0.937  -2.136  0.0000  0.0000  0.0000
  191BTD    C50 3857   1.614   0.960  -2.205  0.0000  0.0000  0.0000
  191BTD    C75 3858   2.218   1.157  -1.914  0.0000  0.0000  0.0000
  191BTD    C76 3859   2.334   1.250  -1.948  0.0000  0.0000  0.0000
  191BTD    C77 3860   2.470   1.196  -1.984  0.0000  0.0000  0.0000
  191BTD    C78 3861   2.590   1.285  -1.943  0.0000  0.0000  0.0000
  191BTD    C79 3862   2.296   1.371  -2.037  0.0000  0.0000  0.0000
  191BTD    C80 3863   2.201   1.481  -1.988  0.0000  0.0000  0.0000
  191BTD    C81 3864   2.141   1.606  -2.060  0.0000  0.0000  0.0000
  191BTD    C82 3865   2.159   1.714  -1.974  0.0000  0.0000  0.0000
  192TTP     S1 3866   2.313   0.479  -2.164  0.0000  0.0000  0.0000
  192TTP     S5 3867   2.298   0.769  -2.470  0.0000  0.0000  0.0000
  192TTP     C1 3868   2.323   0.605  -2.535  0.0000  0.0000  0.0000
  192TTP     C2 3869   2.327   0.500  -2.438  0.0000  0.0000  0.0000
  192TTP     C3 3870   2.313   0.563  -2.324  0.0000  0.0000  0.0000
  192TTP     C4 3871   2.291   0.634  -2.094  0.0000  0.0000  0.0000
  192TTP    C17 3872   2.278   0.736  -2.179  0.0000  0.0000  0.0000
  192TTP    C18 3873   2.293   0.691  -2.312  0.0000  0.0000  0.0000
  192TTP    C32 3874   2.329   0.353  -2.481  0.0000  0.0000  0.0000
  192TTP    C33 3875   2.475   0.306  -2.473  0.0000  0.0000  0.0000
  192TTP    C34 3876   2.479   0.154  -2.486  0.0000  0.0000  0.0000
  192TTP    C35 3877   2.617   0.100  -2.518  0.0000  0.0000  0.0000
  192TTP    C36 3878   2.678   0.017  -2.408  0.0000  0.0000  0.0000
  192TTP    C37 3879   2.818  -0.039  -2.438  0.0000  0.0000  0.0000
  192TTP    C38 3880   2.902   0.046  -2.531  0.0000  0.0000  0.0000
  192TTP    C39 3881   2.824   0.156  -2.601  0.0000  0.0000  0.0000
  192TTP    C40 3882   2.907   0.277  -2.635  0.0000  0.0000  0.0000
  192TTP    C41 3883   2.858   0.406  -2.574  0.0000  0.0000  0.0000
  192TTP    C42 3884   2.735   0.394  -2.486  0.0000  0.0000  0.0000
  193TTP     S1 3885   2.248   0.951  -1.458  0.0000  0.0000  0.0000
  193TTP     S5 3886   2.194   1.339  -1.613  0.0000  0.0000  0.0000
  193TTP     C1 3887   2.185   1.351  -1.440  0.0000  0.0000  0.0000
  193TTP     C2 3888   2.204   1.225  -1.375  0.0000  0.0000  0.0000
  193TTP     C3 3889   2.223   1.127  -1.473  0.0000  0.0000  0.0000
  193TTP     C4 3890   2.252   0.940  -1.626  0.0000  0.0000  0.0000
  193TTP    C17 3891   2.239   1.064  -1.693  0.0000  0.0000  0.0000
  193TTP    C18 3892   2.221   1.170  -1.603  0.0000  0.0000  0.0000
  193TTP    C32 3893   2.184   1.197  -1.224  0.0000  0.0000  0.0000
  193TTP    C33 3894   2.306   1.173  -1.137  0.0000  0.0000  0.0000
  193TTP    C34 3895   2.293   1.138  -0.986  0.0000  0.0000  0.0000
  193TTP    C35 3896   2.309   0.991  -0.953  0.0000  0.0000  0.0000
  193TTP    C36 3897   2.315   0.941  -0.808  0.0000  0.0000  0.0000
  193TTP    C37 3898   2.330   0.791  -0.793  0.0000  0.0000  0.0000
  193TTP    C38 3899   2.455   0.747  -0.720  0.0000  0.0000  0.0000
  193TTP    C39 3900   2.550   0.660  -0.798  0.0000  0.0000  0.0000
  193TTP    C40 3901   2.670   0.621  -0.716  0.0000  0.0000  0.0000
  193TTP    C41 3902   2.770   0.534  -0.787  0.0000  0.0000  0.0000
  193TTP    C42 3903   2.892   0.494  -0.706  0.0000  0.0000  0.0000
  194FIC     F1 3904   2.388   1.119  -3.178  0.0000  0.0000  0.0000
  194FIC     F2 3905   2.417   0.910  -3.339  0.0000  0.0000  0.0000
  194FIC     O1 3906   2.325   0.888  -2.701  0.0000  0.0000  0.0000
  194FIC     N5 3907   2.447   0.441  -3.218  0.0000  0.0000  0.0000
  194FIC     N6 3908   2.367   0.277  -2.830  0.0000  0.0000  0.0000
  194FIC    C19 3909   2.341   0.583  -2.678  0.0000  0.0000  0.0000
  194FIC    C20 3910   2.348   0.665  -2.787  0.0000  0.0000  0.0000
  194FIC    C21 3911   2.346   0.805  -2.794  0.0000  0.0000  0.0000
  194FIC    C22 3912   2.366   0.857  -2.934  0.0000  0.0000  0.0000
  194FIC    C23 3913   2.365   0.983  -2.993  0.0000  0.0000  0.0000
  194FIC    C24 3914   2.384   0.995  -3.130  0.0000  0.0000  0.0000
  194FIC    C25 3915   2.404   0.882  -3.208  0.0000  0.0000  0.0000
  194FIC    C26 3916   2.405   0.756  -3.149  0.0000  0.0000  0.0000
  194FIC    C27 3917   2.386   0.744  -3.012  0.0000  0.0000  0.0000
  194FIC    C28 3918   2.375   0.620  -2.937  0.0000  0.0000  0.0000
  194FIC    C29 3919   2.393   0.493  -2.970  0.0000  0.0000  0.0000
  194FIC    C30 3920   2.424   0.464  -3.105  0.0000  0.0000  0.0000
  194FIC    C31 3921   2.381   0.375  -2.895  0.0000  0.0000  0.0000
  195FIC     F1 3922   2.053   2.121  -1.669  0.0000  0.0000  0.0000
  195FIC     F2 3923   2.027   2.183  -1.419  0.0000  0.0000  0.0000
  195FIC     O1 3924   2.154   1.598  -1.634  0.0000  0.0000  0.0000
  195FIC     N5 3925   2.076   1.910  -1.017  0.0000  0.0000  0.0000
  195FIC     N6 3926   2.146   1.493  -1.028  0.0000  0.0000  0.0000
  195FIC    C19 3927   2.163   1.468  -1.366  0.0000  0.0000  0.0000
  195FIC    C20 3928   2.145   1.602  -1.393  0.0000  0.0000  0.0000
  195FIC    C21 3929   2.138   1.651  -1.521  0.0000  0.0000  0.0000
  195FIC    C22 3930   2.114   1.800  -1.521  0.0000  0.0000  0.0000
  195FIC    C23 3931   2.094   1.896  -1.618  0.0000  0.0000  0.0000
  195FIC    C24 3932   2.069   2.023  -1.575  0.0000  0.0000  0.0000
  195FIC    C25 3933   2.052   2.055  -1.442  0.0000  0.0000  0.0000
  195FIC    C26 3934   2.071   1.969  -1.346  0.0000  0.0000  0.0000
  195FIC    C27 3935   2.099   1.838  -1.386  0.0000  0.0000  0.0000
  195FIC    C28 3936   2.119   1.713  -1.306  0.0000  0.0000  0.0000
  195FIC    C29 3937   2.116   1.704  -1.168  0.0000  0.0000  0.0000
  195FIC    C30 3938   2.094   1.812  -1.087  0.0000  0.0000  0.0000
  195FIC    C31 3939   2.130   1.589  -1.096  0.0000  0.0000  0.0000
  196BTD     S2 3940   2.584   0.945  -1.659  0.0000  0.0000  0.0000
  196BTD     N1 3941   2.592   0.926  -1.827  0.0000  0.0000  0.0000
  196BTD     N2 3942   2.607   0.792  -1.613  0.0000  0.0000  0.0000
  196BTD     N3 3943   2.658   0.371  -1.820  0.0000  0.0000  0.0000
  196BTD     N4 3944   2.671   0.559  -2.112  0.0000  0.0000  0.0000
  196BTD     C5 3945   2.629   0.725  -1.966  0.0000  0.0000  0.0000
  196BTD     C6 3946   2.608   0.785  -1.845  0.0000  0.0000  0.0000
  196BTD     C7 3947   2.625   0.723  -1.725  0.0000  0.0000  0.0000
  196BTD     C8 3948   2.642   0.582  -1.733  0.0000  0.0000  0.0000
  196BTD    C15 3949   2.651   0.505  -1.851  0.0000  0.0000  0.0000
  196BTD    C16 3950   2.652   0.590  -1.976  0.0000  0.0000  0.0000
  196BTD    C43 3951   2.718   0.433  -2.172  0.0000  0.0000  0.0000
  196BTD    C44 3952   2.870   0.406  -2.160  0.0000  0.0000  0.0000
  196BTD    C45 3953   2.890   0.272  -2.239  0.0000  0.0000  0.0000
  196BTD    C46 3954   2.996   0.183  -2.171  0.0000  0.0000  0.0000
  196BTD    C47 3955   2.946   0.522  -2.221  0.0000  0.0000  0.0000
  196BTD    C48 3956   3.099   0.514  -2.215  0.0000  0.0000  0.0000
  196BTD    C49 3957   3.197   0.618  -2.269  0.0000  0.0000  0.0000
  196BTD    C50 3958   3.109   0.743  -2.236  0.0000  0.0000  0.0000
  196BTD    C75 3959   2.692   0.254  -1.904  0.0000  0.0000  0.0000
  196BTD    C76 3960   2.581   0.152  -1.931  0.0000  0.0000  0.0000
  196BTD    C77 3961   2.459   0.218  -1.989  0.0000  0.0000  0.0000
  196BTD    C78 3962   2.333   0.127  -1.999  0.0000  0.0000  0.0000
  196BTD    C79 3963   2.623   0.048  -2.037  0.0000  0.0000  0.0000
  196BTD    C80 3964   2.706  -0.059  -1.965  0.0000  0.0000  0.0000
  196BTD    C81 3965   2.742  -0.175  -2.063  0.0000  0.0000  0.0000
  196BTD    C82 3966   2.855  -0.255  -1.994  0.0000  0.0000  0.0000
  197TTP     S1 3967   2.609   0.929  -2.177  0.0000  0.0000  0.0000
  197TTP     S5 3968   2.679   0.636  -2.470  0.0000  0.0000  0.0000
  197TTP     C1 3969   2.658   0.789  -2.547  0.0000  0.0000  0.0000
  197TTP     C2 3970   2.639   0.897  -2.458  0.0000  0.0000  0.0000
  197TTP     C3 3971   2.634   0.851  -2.323  0.0000  0.0000  0.0000
  197TTP     C4 3972   2.633   0.773  -2.093  0.0000  0.0000  0.0000
  197TTP    C17 3973   2.653   0.679  -2.186  0.0000  0.0000  0.0000
  197TTP    C18 3974   2.658   0.713  -2.322  0.0000  0.0000  0.0000
  197TTP    C32 3975   2.617   1.049  -2.494  0.0000  0.0000  0.0000
  197TTP    C33 3976   2.540   1.132  -2.392  0.0000  0.0000  0.0000
  197TTP    C34 3977   2.520   1.274  -2.446  0.0000  0.0000  0.0000
  197TTP    C35 3978   2.466   1.367  -2.338  0.0000  0.0000  0.0000
  197TTP    C36 3979   2.422   1.506  -2.388  0.0000  0.0000  0.0000
  197TTP    C37 3980   2.367   1.601  -2.286  0.0000  0.0000  0.0000
  197TTP    C38 3981   2.446   1.735  -2.272  0.0000  0.0000  0.0000
  197TTP    C39 3982   2.445   1.825  -2.396  0.0000  0.0000  0.0000
  197TTP    C40 3983   2.521   1.955  -2.381  0.0000  0.0000  0.0000
  197TTP    C41 3984   2.471   2.044  -2.271  0.0000  0.0000  0.0000
  197TTP    C42 3985   2.477   1.981  -2.128  0.0000  0.0000  0.0000
  198TTP     S1 3986   2.628   0.481  -1.454  0.0000  0.0000  0.0000
  198TTP     S5 3987   2.666   0.083  -1.587  0.0000  0.0000  0.0000
  198TTP     C1 3988   2.657   0.084  -1.413  0.0000  0.0000  0.0000
  198TTP     C2 3989   2.648   0.212  -1.359  0.0000  0.0000  0.0000
  198TTP     C3 3990   2.640   0.308  -1.459  0.0000  0.0000  0.0000
  198TTP     C4 3991   2.638   0.489  -1.629  0.0000  0.0000  0.0000
  198TTP    C17 3992   2.646   0.363  -1.681  0.0000  0.0000  0.0000
  198TTP    C18 3993   2.650   0.250  -1.586  0.0000  0.0000  0.0000
  198TTP    C32 3994   2.644   0.249  -1.211  0.0000  0.0000  0.0000
  198TTP    C33 3995   2.497   0.255  -1.157  0.0000  0.0000  0.0000
  198TTP    C34 3996   2.483   0.332  -1.024  0.0000  0.0000  0.0000
  198TTP    C35 3997   2.335   0.369  -0.985  0.0000  0.0000  0.0000
  198TTP    C36 3998   2.305   0.368  -0.837  0.0000  0.0000  0.0000
  198TTP    C37 3999   2.262   0.502  -0.783  0.0000  0.0000  0.0000
  198TTP    C38 4000   2.247   0.609  -0.888  0.0000  0.0000  0.0000
  198TTP    C39 4001   2.307   0.574  -1.022  0.0000  0.0000  0.0000
  198TTP    C40 4002   2.294   0.679  -1.127  0.0000  0.0000  0.0000
  198TTP    C41 4003   2.354   0.644  -1.260  0.0000  0.0000  0.0000
  198TTP    C42 4004   2.341   0.748  -1.366  0.0000  0.0000  0.0000
  199FIC     F1 4005   2.781   0.288  -3.183  0.0000  0.0000  0.0000
  199FIC     F2 4006   2.798   0.503  -3.344  0.0000  0.0000  0.0000
  199FIC     O1 4007   2.692   0.515  -2.712  0.0000  0.0000  0.0000
  199FIC     N5 4008   2.744   0.980  -3.232  0.0000  0.0000  0.0000
  199FIC     N6 4009   2.689   1.123  -2.838  0.0000  0.0000  0.0000
  199FIC    C19 4010   2.670   0.812  -2.687  0.0000  0.0000  0.0000
  199FIC    C20 4011   2.696   0.745  -2.801  0.0000  0.0000  0.0000
  199FIC    C21 4012   2.701   0.602  -2.797  0.0000  0.0000  0.0000
  199FIC    C22 4013   2.724   0.548  -2.938  0.0000  0.0000  0.0000
  199FIC    C23 4014   2.742   0.420  -2.990  0.0000  0.0000  0.0000
  199FIC    C24 4015   2.768   0.403  -3.125  0.0000  0.0000  0.0000
  199FIC    C25 4016   2.776   0.514  -3.209  0.0000  0.0000  0.0000
  199FIC    C26 4017   2.758   0.641  -3.157  0.0000  0.0000  0.0000
  199FIC    C27 4018   2.732   0.658  -3.021  0.0000  0.0000  0.0000
  199FIC    C28 4019   2.716   0.785  -2.943  0.0000  0.0000  0.0000
  199FIC    C29 4020   2.716   0.909  -2.974  0.0000  0.0000  0.0000
  199FIC    C30 4021   2.732   0.937  -3.133  0.0000  0.0000  0.0000
  199FIC    C31 4022   2.703   1.027  -2.897  0.0000  0.0000  0.0000
  200FIC     F1 4023   2.775  -0.705  -1.590  0.0000  0.0000  0.0000
  200FIC     F2 4024   2.791  -0.754  -1.320  0.0000  0.0000  0.0000
  200FIC     O1 4025   2.676  -0.185  -1.592  0.0000  0.0000  0.0000
  200FIC     N5 4026   2.730  -0.440  -0.941  0.0000  0.0000  0.0000
  200FIC     N6 4027   2.666  -0.032  -0.983  0.0000  0.0000  0.0000
  200FIC    C19 4028   2.673  -0.033  -1.329  0.0000  0.0000  0.0000
  200FIC    C20 4029   2.686  -0.172  -1.348  0.0000  0.0000  0.0000
  200FIC    C21 4030   2.689  -0.224  -1.480  0.0000  0.0000  0.0000
  200FIC    C22 4031   2.719  -0.375  -1.452  0.0000  0.0000  0.0000
  200FIC    C23 4032   2.735  -0.479  -1.543  0.0000  0.0000  0.0000
  200FIC    C24 4033   2.759  -0.608  -1.497  0.0000  0.0000  0.0000
  200FIC    C25 4034   2.767  -0.633  -1.360  0.0000  0.0000  0.0000
  200FIC    C26 4035   2.750  -0.529  -1.269  0.0000  0.0000  0.0000
  200FIC    C27 4036   2.726  -0.400  -1.315  0.0000  0.0000  0.0000
  200FIC    C28 4037   2.703  -0.272  -1.241  0.0000  0.0000  0.0000
  200FIC    C29 4038   2.700  -0.249  -1.119  0.0000  0.0000  0.0000
  200FIC    C30 4039   2.721  -0.378  -1.036  0.0000  0.0000  0.0000
  200FIC    C31 4040   2.680  -0.131  -1.042  0.0000  0.0000  0.0000
  201BTD     S2 4041   2.515   5.380   1.649  0.0000  0.0000  0.0000
  201BTD     N1 4042   2.512   5.366   1.810  0.0000  0.0000  0.0000
  201BTD     N2 4043   2.532   5.227   1.603  0.0000  0.0000  0.0000
  201BTD     N3 4044   2.581   4.814   1.829  0.0000  0.0000  0.0000
  201BTD     N4 4045   2.555   4.999   2.112  0.0000  0.0000  0.0000
  201BTD     C5 4046   2.537   5.172   1.959  0.0000  0.0000  0.0000
  201BTD     C6 4047   2.531   5.231   1.834  0.0000  0.0000  0.0000
  201BTD     C7 4048   2.541   5.153   1.719  0.0000  0.0000  0.0000
  201BTD     C8 4049   2.557   5.015   1.731  0.0000  0.0000  0.0000
  201BTD    C15 4050   2.563   4.956   1.856  0.0000  0.0000  0.0000
  201BTD    C16 4051   2.553   5.035   1.971  0.0000  0.0000  0.0000
  201BTD    C43 4052   2.582   4.876   2.193  0.0000  0.0000  0.0000
  201BTD    C44 4053   2.717   4.859   2.262  0.0000  0.0000  0.0000
  201BTD    C45 4054   2.738   4.723   2.331  0.0000  0.0000  0.0000
  201BTD    C46 4055   2.635   4.722   2.448  0.0000  0.0000  0.0000
  201BTD    C47 4056   2.825   4.890   2.160  0.0000  0.0000  0.0000
  201BTD    C48 4057   2.959   4.892   2.239  0.0000  0.0000  0.0000
  201BTD    C49 4058   3.067   4.921   2.136  0.0000  0.0000  0.0000
  201BTD    C50 4059   3.203   4.898   2.205  0.0000  0.0000  0.0000
  201BTD    C75 4060   2.599   4.701   1.914  0.0000  0.0000  0.0000
  201BTD    C76 4061   2.483   4.608   1.948  0.0000  0.0000  0.0000
  201BTD    C77 4062   2.347   4.662   1.984  0.0000  0.0000  0.0000
  201BTD    C78 4063   2.227   4.573   1.943  0.0000  0.0000  0.0000
  201BTD    C79 4064   2.521   4.487   2.037  0.0000  0.0000  0.0000
  201BTD    C80 4065   2.616   4.377   1.988  0.0000  0.0000  0.0000
  201BTD    C81 4066   2.676   4.252   2.060  0.0000  0.0000  0.0000
  201BTD    C82 4067   2.658   4.144   1.974  0.0000  0.0000  0.0000
  202TTP     S1 4068   2.504   5.379   2.164  0.0000  0.0000  0.0000
  202TTP     S5 4069   2.519   5.089   2.470  0.0000  0.0000  0.0000
  202TTP     C1 4070   2.494   5.253   2.535  0.0000  0.0000  0.0000
  202TTP     C2 4071   2.490   5.358   2.438  0.0000  0.0000  0.0000
  202TTP     C3 4072   2.504   5.295   2.324  0.0000  0.0000  0.0000
  202TTP     C4 4073   2.526   5.224   2.094  0.0000  0.0000  0.0000
  202TTP    C17 4074   2.539   5.122   2.179  0.0000  0.0000  0.0000
  202TTP    C18 4075   2.524   5.167   2.312  0.0000  0.0000  0.0000
  202TTP    C32 4076   2.488   5.505   2.481  0.0000  0.0000  0.0000
  202TTP    C33 4077   2.342   5.552   2.473  0.0000  0.0000  0.0000
  202TTP    C34 4078   2.338   5.704   2.486  0.0000  0.0000  0.0000
  202TTP    C35 4079   2.200   5.758   2.518  0.0000  0.0000  0.0000
  202TTP    C36 4080   2.139   5.841   2.408  0.0000  0.0000  0.0000
  202TTP    C37 4081   1.999   5.897   2.438  0.0000  0.0000  0.0000
  202TTP    C38 4082   1.915   5.812   2.531  0.0000  0.0000  0.0000
  202TTP    C39 4083   1.993   5.702   2.601  0.0000  0.0000  0.0000
  202TTP    C40 4084   1.910   5.581   2.635  0.0000  0.0000  0.0000
  202TTP    C41 4085   1.959   5.452   2.574  0.0000  0.0000  0.0000
  202TTP    C42 4086   2.082   5.464   2.486  0.0000  0.0000  0.0000
  203TTP     S1 4087   2.569   4.907   1.458  0.0000  0.0000  0.0000
  203TTP     S5 4088   2.623   4.519   1.613  0.0000  0.0000  0.0000
  203TTP     C1 4089   2.632   4.507   1.440  0.0000  0.0000  0.0000
  203TTP     C2 4090   2.613   4.633   1.375  0.0000  0.0000  0.0000
  203TTP     C3 4091   2.594   4.731   1.473  0.0000  0.0000  0.0000
  203TTP     C4 4092   2.565   4.918   1.626  0.0000  0.0000  0.0000
  203TTP    C17 4093   2.578   4.794   1.693  0.0000  0.0000  0.0000
  203TTP    C18 4094   2.596   4.688   1.603  0.0000  0.0000  0.0000
  203TTP    C32 4095   2.633   4.661   1.224  0.0000  0.0000  0.0000
  203TTP    C33 4096   2.511   4.685   1.137  0.0000  0.0000  0.0000
  203TTP    C34 4097   2.524   4.720   0.986  0.0000  0.0000  0.0000
  203TTP    C35 4098   2.508   4.867   0.953  0.0000  0.0000  0.0000
  203TTP    C36 4099   2.502   4.917   0.808  0.0000  0.0000  0.0000
  203TTP    C37 4100   2.487   5.067   0.793  0.0000  0.0000  0.0000
  203TTP    C38 4101   2.362   5.111   0.720  0.0000  0.0000  0.0000
  203TTP    C39 4102   2.267   5.198   0.798  0.0000  0.0000  0.0000
  203TTP    C40 4103   2.147   5.237   0.716  0.0000  0.0000  0.0000
  203TTP    C41 4104   2.047   5.324   0.787  0.0000  0.0000  0.0000
  203TTP    C42 4105   1.925   5.364   0.706  0.0000  0.0000  0.0000
  204FIC     F1 4106   2.429   4.739   3.178  0.0000  0.0000  0.0000
  204FIC     F2 4107   2.400   4.948   3.339  0.0000  0.0000  0.0000
  204FIC     O1 4108   2.492   4.970   2.701  0.0000  0.0000  0.0000
  204FIC     N5 4109   2.371   5.417   3.218  0.0000  0.0000  0.0000
  204FIC     N6 4110   2.450   5.581   2.830  0.0000  0.0000  0.0000
  204FIC    C19 4111   2.476   5.275   2.678  0.0000  0.0000  0.0000
  204FIC    C20 4112   2.469   5.193   2.787  0.0000  0.0000  0.0000
  204FIC    C21 4113   2.471   5.053   2.794  0.0000  0.0000  0.0000
  204FIC    C22 4114   2.452   5.001   2.934  0.0000  0.0000  0.0000
  204FIC    C23 4115   2.452   4.875   2.993  0.0000  0.0000  0.0000
  204FIC    C24 4116   2.433   4.863   3.130  0.0000  0.0000  0.0000
  204FIC    C25 4117   2.413   4.976   3.208  0.0000  0.0000  0.0000
  204FIC    C26 4118   2.412   5.102   3.149  0.0000  0.0000  0.0000
  204FIC    C27 4119   2.431   5.114   3.012  0.0000  0.0000  0.0000
  204FIC    C28 4120   2.442   5.238   2.937  0.0000  0.0000  0.0000
  204FIC    C29 4121   2.424   5.365   2.970  0.0000  0.0000  0.0000
  204FIC    C30 4122   2.393   5.394   3.105  0.0000  0.0000  0.0000
  204FIC    C31 4123   2.436   5.483   2.895  0.0000  0.0000  0.0000
  205FIC     F1 4124   2.765   3.737   1.669  0.0000  0.0000  0.0000
  205FIC     F2 4125   2.790   3.675   1.419  0.0000  0.0000  0.0000
  205FIC     O1 4126   2.663   4.260   1.634  0.0000  0.0000  0.0000
  205FIC     N5 4127   2.741   3.948   1.017  0.0000  0.0000  0.0000
  205FIC     N6 4128   2.672   4.365   1.028  0.0000  0.0000  0.0000
  205FIC    C19 4129   2.654   4.390   1.366  0.0000  0.0000  0.0000
  205FIC    C20 4130   2.672   4.256   1.393  0.0000  0.0000  0.0000
  205FIC    C21 4131   2.679   4.207   1.521  0.0000  0.0000  0.0000
  205FIC    C22 4132   2.703   4.058   1.521  0.0000  0.0000  0.0000
  205FIC    C23 4133   2.723   3.962   1.618  0.0000  0.0000  0.0000
  205FIC    C24 4134   2.748   3.834   1.575  0.0000  0.0000  0.0000
  205FIC    C25 4135   2.765   3.803   1.442  0.0000  0.0000  0.0000
  205FIC    C26 4136   2.746   3.889   1.346  0.0000  0.0000  0.0000
  205FIC    C27 4137   2.718   4.020   1.386  0.0000  0.0000  0.0000
  205FIC    C28 4138   2.698   4.145   1.306  0.0000  0.0000  0.0000
  205FIC    C29 4139   2.701   4.154   1.168  0.0000  0.0000  0.0000
  205FIC    C30 4140   2.723   4.046   1.087  0.0000  0.0000  0.0000
  205FIC    C31 4141   2.687   4.269   1.096  0.0000  0.0000  0.0000
  206BTD     S2 4142   2.233   4.913   1.659  0.0000  0.0000  0.0000
  206BTD     N1 4143   2.225   4.932   1.827  0.0000  0.0000  0.0000
  206BTD     N2 4144   2.210   5.066   1.613  0.0000  0.0000  0.0000
  206BTD     N3 4145   2.159   5.487   1.820  0.0000  0.0000  0.0000
  206BTD     N4 4146   2.146   5.299   2.112  0.0000  0.0000  0.0000
  206BTD     C5 4147   2.188   5.133   1.966  0.0000  0.0000  0.0000
  206BTD     C6 4148   2.209   5.073   1.845  0.0000  0.0000  0.0000
  206BTD     C7 4149   2.192   5.135   1.725  0.0000  0.0000  0.0000
  206BTD     C8 4150   2.175   5.276   1.733  0.0000  0.0000  0.0000
  206BTD    C15 4151   2.166   5.353   1.851  0.0000  0.0000  0.0000
  206BTD    C16 4152   2.165   5.268   1.976  0.0000  0.0000  0.0000
  206BTD    C43 4153   2.099   5.425   2.172  0.0000  0.0000  0.0000
  206BTD    C44 4154   1.947   5.452   2.160  0.0000  0.0000  0.0000
  206BTD    C45 4155   1.927   5.586   2.239  0.0000  0.0000  0.0000
  206BTD    C46 4156   1.821   5.675   2.171  0.0000  0.0000  0.0000
  206BTD    C47 4157   1.871   5.336   2.221  0.0000  0.0000  0.0000
  206BTD    C48 4158   1.718   5.344   2.215  0.0000  0.0000  0.0000
  206BTD    C49 4159   1.620   5.240   2.269  0.0000  0.0000  0.0000
  206BTD    C50 4160   1.708   5.115   2.236  0.0000  0.0000  0.0000
  206BTD    C75 4161   2.125   5.604   1.904  0.0000  0.0000  0.0000
  206BTD    C76 4162   2.237   5.706   1.931  0.0000  0.0000  0.0000
  206BTD    C77 4163   2.358   5.640   1.989  0.0000  0.0000  0.0000
  206BTD    C78 4164   2.484   5.731   1.999  0.0000  0.0000  0.0000
  206BTD    C79 4165   2.194   5.810   2.037  0.0000  0.0000  0.0000
  206BTD    C80 4166   2.111   5.917   1.965  0.0000  0.0000  0.0000
  206BTD    C81 4167   2.075   6.033   2.063  0.0000  0.0000  0.0000
  206BTD    C82 4168   1.962   6.113   1.994  0.0000  0.0000  0.0000
  207TTP     S1 4169   2.208   4.929   2.177  0.0000  0.0000  0.0000
  207TTP     S5 4170   2.138   5.222   2.470  0.0000  0.0000  0.0000
  207TTP     C1 4171   2.159   5.069   2.547  0.0000  0.0000  0.0000
  207TTP     C2 4172   2.178   4.961   2.458  0.0000  0.0000  0.0000
  207TTP     C3 4173   2.183   5.007   2.323  0.0000  0.0000  0.0000
  207TTP     C4 4174   2.184   5.085   2.093  0.0000  0.0000  0.0000
  207TTP    C17 4175   2.164   5.179   2.186  0.0000  0.0000  0.0000
  207TTP    C18 4176   2.159   5.145   2.322  0.0000  0.0000  0.0000
  207TTP    C32 4177   2.200   4.809   2.494  0.0000  0.0000  0.0000
  207TTP    C33 4178   2.277   4.726   2.392  0.0000  0.0000  0.0000
  207TTP    C34 4179   2.297   4.584   2.446  0.0000  0.0000  0.0000
  207TTP    C35 4180   2.351   4.491   2.338  0.0000  0.0000  0.0000
  207TTP    C36 4181   2.395   4.352   2.388  0.0000  0.0000  0.0000
  207TTP    C37 4182   2.450   4.257   2.286  0.0000  0.0000  0.0000
  207TTP    C38 4183   2.371   4.123   2.272  0.0000  0.0000  0.0000
  207TTP    C39 4184   2.373   4.033   2.396  0.0000  0.0000  0.0000
  207TTP    C40 4185   2.296   3.903   2.381  0.0000  0.0000  0.0000
  207TTP    C41 4186   2.346   3.814   2.271  0.0000  0.0000  0.0000
  207TTP    C42 4187   2.340   3.877   2.128  0.0000  0.0000  0.0000
  208TTP     S1 4188   2.189   5.377   1.454  0.0000  0.0000  0.0000
  208TTP     S5 4189   2.151   5.775   1.587  0.0000  0.0000  0.0000
  208TTP     C1 4190   2.160   5.774   1.413  0.0000  0.0000  0.0000
  208TTP     C2 4191   2.169   5.646   1.359  0.0000  0.0000  0.0000
  208TTP     C3 4192   2.177   5.550   1.459  0.0000  0.0000  0.0000
  208TTP     C4 4193   2.179   5.369   1.629  0.0000  0.0000  0.0000
  208TTP    C17 4194   2.171   5.495   1.681  0.0000  0.0000  0.0000
  208TTP    C18 4195   2.167   5.608   1.586  0.0000  0.0000  0.0000
  208TTP    C32 4196   2.173   5.609   1.211  0.0000  0.0000  0.0000
  208TTP    C33 4197   2.320   5.603   1.157  0.0000  0.0000  0.0000
  208TTP    C34 4198   2.334   5.526   1.024  0.0000  0.0000  0.0000
  208TTP    C35 4199   2.482   5.489   0.985  0.0000  0.0000  0.0000
  208TTP    C36 4200   2.512   5.490   0.837  0.0000  0.0000  0.0000
  208TTP    C37 4201   2.555   5.356   0.783  0.0000  0.0000  0.0000
  208TTP    C38 4202   2.570   5.249   0.888  0.0000  0.0000  0.0000
  208TTP    C39 4203   2.510   5.284   1.022  0.0000  0.0000  0.0000
  208TTP    C40 4204   2.523   5.179   1.127  0.0000  0.0000  0.0000
  208TTP    C41 4205   2.463   5.214   1.260  0.0000  0.0000  0.0000
  208TTP    C42 4206   2.476   5.110   1.366  0.0000  0.0000  0.0000
  209FIC     F1 4207   2.036   5.570   3.183  0.0000  0.0000  0.0000
  209FIC     F2 4208   2.019   5.355   3.344  0.0000  0.0000  0.0000
  209FIC     O1 4209   2.125   5.343   2.712  0.0000  0.0000  0.0000
  209FIC     N5 4210   2.073   4.878   3.232  0.0000  0.0000  0.0000
  209FIC     N6 4211   2.128   4.735   2.838  0.0000  0.0000  0.0000
  209FIC    C19 4212   2.147   5.046   2.687  0.0000  0.0000  0.0000
  209FIC    C20 4213   2.121   5.113   2.801  0.0000  0.0000  0.0000
  209FIC    C21 4214   2.116   5.256   2.797  0.0000  0.0000  0.0000
  209FIC    C22 4215   2.093   5.310   2.938  0.0000  0.0000  0.0000
  209FIC    C23 4216   2.075   5.438   2.990  0.0000  0.0000  0.0000
  209FIC    C24 4217   2.049   5.455   3.125  0.0000  0.0000  0.0000
  209FIC    C25 4218   2.041   5.344   3.209  0.0000  0.0000  0.0000
  209FIC    C26 4219   2.059   5.217   3.157  0.0000  0.0000  0.0000
  209FIC    C27 4220   2.085   5.200   3.021  0.0000  0.0000  0.0000
  209FIC    C28 4221   2.101   5.073   2.943  0.0000  0.0000  0.0000
  209FIC    C29 4222   2.101   4.949   2.974  0.0000  0.0000  0.0000
  209FIC    C30 4223   2.085   4.921   3.133  0.0000  0.0000  0.0000
  209FIC    C31 4224   2.114   4.831   2.897  0.0000  0.0000  0.0000
  210FIC     F1 4225   2.042   6.563   1.590  0.0000  0.0000  0.0000
  210FIC     F2 4226   2.026   6.612   1.320  0.0000  0.0000  0.0000
  210FIC     O1 4227   2.141   6.043   1.592  0.0000  0.0000  0.0000
  210FIC     N5 4228   2.087   6.298   0.941  0.0000  0.0000  0.0000
  210FIC     N6 4229   2.151   5.890   0.983  0.0000  0.0000  0.0000
  210FIC    C19 4230   2.144   5.891   1.329  0.0000  0.0000  0.0000
  210FIC    C20 4231   2.131   6.030   1.348  0.0000  0.0000  0.0000
  210FIC    C21 4232   2.128   6.082   1.480  0.0000  0.0000  0.0000
  210FIC    C22 4233   2.098   6.233   1.452  0.0000  0.0000  0.0000
  210FIC    C23 4234   2.082   6.337   1.543  0.0000  0.0000  0.0000
  210FIC    C24 4235   2.058   6.466   1.497  0.0000  0.0000  0.0000
  210FIC    C25 4236   2.050   6.491   1.360  0.0000  0.0000  0.0000
  210FIC    C26 4237   2.067   6.387   1.269  0.0000  0.0000  0.0000
  210FIC    C27 4238   2.091   6.258   1.315  0.0000  0.0000  0.0000
  210FIC    C28 4239   2.114   6.130   1.241  0.0000  0.0000  0.0000
  210FIC    C29 4240   2.117   6.107   1.119  0.0000  0.0000  0.0000
  210FIC    C30 4241   2.096   6.236   1.036  0.0000  0.0000  0.0000
  210FIC    C31 4242   2.137   5.989   1.042  0.0000  0.0000  0.0000
  211BTD     S2 4243   2.077   2.430  -1.649  0.0000  0.0000  0.0000
  211BTD     N1 4244   2.080   2.444  -1.810  0.0000  0.0000  0.0000
  211BTD     N2 4245   2.060   2.583  -1.603  0.0000  0.0000  0.0000
  211BTD     N3 4246   2.011   2.996  -1.829  0.0000  0.0000  0.0000
  211BTD     N4 4247   2.037   2.811  -2.112  0.0000  0.0000  0.0000
  211BTD     C5 4248   2.055   2.638  -1.959  0.0000  0.0000  0.0000
  211BTD     C6 4249   2.061   2.579  -1.834  0.0000  0.0000  0.0000
  211BTD     C7 4250   2.051   2.657  -1.719  0.0000  0.0000  0.0000
  211BTD     C8 4251   2.035   2.795  -1.731  0.0000  0.0000  0.0000
  211BTD    C15 4252   2.029   2.854  -1.856  0.0000  0.0000  0.0000
  211BTD    C16 4253   2.039   2.775  -1.971  0.0000  0.0000  0.0000
  211BTD    C43 4254   2.010   2.934  -2.193  0.0000  0.0000  0.0000
  211BTD    C44 4255   1.875   2.951  -2.262  0.0000  0.0000  0.0000
  211BTD    C45 4256   1.854   3.087  -2.331  0.0000  0.0000  0.0000
  211BTD    C46 4257   1.957   3.088  -2.448  0.0000  0.0000  0.0000
  211BTD    C47 4258   1.767   2.920  -2.160  0.0000  0.0000  0.0000
  211BTD    C48 4259   1.633   2.918  -2.239  0.0000  0.0000  0.0000
  211BTD    C49 4260   1.525   2.889  -2.136  0.0000  0.0000  0.0000
  211BTD    C50 4261   1.389   2.912  -2.205  0.0000  0.0000  0.0000
  211BTD    C75 4262   1.993   3.109  -1.914  0.0000  0.0000  0.0000
  211BTD    C76 4263   2.109   3.202  -1.948  0.0000  0.0000  0.0000
  211BTD    C77 4264   2.245   3.148  -1.984  0.0000  0.0000  0.0000
  211BTD    C78 4265   2.365   3.237  -1.943  0.0000  0.0000  0.0000
  211BTD    C79 4266   2.071   3.323  -2.037  0.0000  0.0000  0.0000
  211BTD    C80 4267   1.976   3.433  -1.988  0.0000  0.0000  0.0000
  211BTD    C81 4268   1.916   3.558  -2.060  0.0000  0.0000  0.0000
  211BTD    C82 4269   1.934   3.666  -1.974  0.0000  0.0000  0.0000
  212TTP     S1 4270   2.088   2.431  -2.164  0.0000  0.0000  0.0000
  212TTP     S5 4271   2.073   2.721  -2.470  0.0000  0.0000  0.0000
  212TTP     C1 4272   2.098   2.557  -2.535  0.0000  0.0000  0.0000
  212TTP     C2 4273   2.102   2.452  -2.438  0.0000  0.0000  0.0000
  212TTP     C3 4274   2.088   2.515  -2.324  0.0000  0.0000  0.0000
  212TTP     C4 4275   2.066   2.586  -2.094  0.0000  0.0000  0.0000
  212TTP    C17 4276   2.053   2.688  -2.179  0.0000  0.0000  0.0000
  212TTP    C18 4277   2.068   2.643  -2.312  0.0000  0.0000  0.0000
  212TTP    C32 4278   2.104   2.305  -2.481  0.0000  0.0000  0.0000
  212TTP    C33 4279   2.250   2.258  -2.473  0.0000  0.0000  0.0000
  212TTP    C34 4280   2.254   2.106  -2.486  0.0000  0.0000  0.0000
  212TTP    C35 4281   2.392   2.052  -2.518  0.0000  0.0000  0.0000
  212TTP    C36 4282   2.453   1.969  -2.408  0.0000  0.0000  0.0000
  212TTP    C37 4283   2.593   1.913  -2.438  0.0000  0.0000  0.0000
  212TTP    C38 4284   2.677   1.998  -2.531  0.0000  0.0000  0.0000
  212TTP    C39 4285   2.599   2.108  -2.601  0.0000  0.0000  0.0000
  212TTP    C40 4286   2.682   2.229  -2.635  0.0000  0.0000  0.0000
  212TTP    C41 4287   2.633   2.358  -2.574  0.0000  0.0000  0.0000
  212TTP    C42 4288   2.510   2.346  -2.486  0.0000  0.0000  0.0000
  213TTP     S1 4289   2.023   2.903  -1.458  0.0000  0.0000  0.0000
  213TTP     S5 4290   1.969   3.291  -1.613  0.0000  0.0000  0.0000
  213TTP     C1 4291   1.960   3.303  -1.440  0.0000  0.0000  0.0000
  213TTP     C2 4292   1.979   3.177  -1.375  0.0000  0.0000  0.0000
  213TTP     C3 4293   1.998   3.079  -1.473  0.0000  0.0000  0.0000
  213TTP     C4 4294   2.027   2.892  -1.626  0.0000  0.0000  0.0000
  213TTP    C17 4295   2.014   3.016  -1.693  0.0000  0.0000  0.0000
  213TTP    C18 4296   1.996   3.122  -1.603  0.0000  0.0000  0.0000
  213TTP    C32 4297   1.959   3.149  -1.224  0.0000  0.0000  0.0000
  213TTP    C33 4298   2.081   3.125  -1.137  0.0000  0.0000  0.0000
  213TTP    C34 4299   2.068   3.090  -0.986  0.0000  0.0000  0.0000
  213TTP    C35 4300   2.084   2.943  -0.953  0.0000  0.0000  0.0000
  213TTP    C36 4301   2.090   2.893  -0.808  0.0000  0.0000  0.0000
  213TTP    C37 4302   2.105   2.743  -0.793  0.0000  0.0000  0.0000
  213TTP    C38 4303   2.230   2.699  -0.720  0.0000  0.0000  0.0000
  213TTP    C39 4304   2.325   2.612  -0.798  0.0000  0.0000  0.0000
  213TTP    C40 4305   2.445   2.573  -0.716  0.0000  0.0000  0.0000
  213TTP    C41 4306   2.545   2.486  -0.787  0.0000  0.0000  0.0000
  213TTP    C42 4307   2.667   2.446  -0.706  0.0000  0.0000  0.0000
  214FIC     F1 4308   2.163   3.071  -3.178  0.0000  0.0000  0.0000
  214FIC     F2 4309   2.192   2.862  -3.339  0.0000  0.0000  0.0000
  214FIC     O1 4310   2.100   2.840  -2.701  0.0000  0.0000  0.0000
  214FIC     N5 4311   2.222   2.393  -3.218  0.0000  0.0000  0.0000
  214FIC     N6 4312   2.142   2.229  -2.830  0.0000  0.0000  0.0000
  214FIC    C19 4313   2.116   2.535  -2.678  0.0000  0.0000  0.0000
  214FIC    C20 4314   2.123   2.617  -2.787  0.0000  0.0000  0.0000
  214FIC    C21 4315   2.121   2.757  -2.794  0.0000  0.0000  0.0000
  214FIC    C22 4316   2.141   2.809  -2.934  0.0000  0.0000  0.0000
  214FIC    C23 4317   2.140   2.935  -2.993  0.0000  0.0000  0.0000
  214FIC    C24 4318   2.159   2.947  -3.130  0.0000  0.0000  0.0000
  214FIC    C25 4319   2.179   2.834  -3.208  0.0000  0.0000  0.0000
  214FIC    C26 4320   2.180   2.708  -3.149  0.0000  0.0000  0.0000
  214FIC    C27 4321   2.161   2.696  -3.012  0.0000  0.0000  0.0000
  214FIC    C28 4322   2.150   2.572  -2.937  0.0000  0.0000  0.0000
  214FIC    C29 4323   2.168   2.445  -2.970  0.0000  0.0000  0.0000
  214FIC    C30 4324   2.199   2.416  -3.105  0.0000  0.0000  0.0000
  214FIC    C31 4325   2.156   2.327  -2.895  0.0000  0.0000  0.0000
  215FIC     F1 4326   1.828   4.073  -1.669  0.0000  0.0000  0.0000
  215FIC     F2 4327   1.802   4.135  -1.419  0.0000  0.0000  0.0000
  215FIC     O1 4328   1.929   3.550  -1.634  0.0000  0.0000  0.0000
  215FIC     N5 4329   1.851   3.862  -1.017  0.0000  0.0000  0.0000
  215FIC     N6 4330   1.921   3.445  -1.028  0.0000  0.0000  0.0000
  215FIC    C19 4331   1.938   3.420  -1.366  0.0000  0.0000  0.0000
  215FIC    C20 4332   1.920   3.554  -1.393  0.0000  0.0000  0.0000
  215FIC    C21 4333   1.913   3.603  -1.521  0.0000  0.0000  0.0000
  215FIC    C22 4334   1.889   3.752  -1.521  0.0000  0.0000  0.0000
  215FIC    C23 4335   1.869   3.848  -1.618  0.0000  0.0000  0.0000
  215FIC    C24 4336   1.844   3.975  -1.575  0.0000  0.0000  0.0000
  215FIC    C25 4337   1.827   4.007  -1.442  0.0000  0.0000  0.0000
  215FIC    C26 4338   1.846   3.921  -1.346  0.0000  0.0000  0.0000
  215FIC    C27 4339   1.874   3.790  -1.386  0.0000  0.0000  0.0000
  215FIC    C28 4340   1.894   3.665  -1.306  0.0000  0.0000  0.0000
  215FIC    C29 4341   1.891   3.656  -1.168  0.0000  0.0000  0.0000
  215FIC    C30 4342   1.869   3.764  -1.087  0.0000  0.0000  0.0000
  215FIC    C31 4343   1.905   3.541  -1.096  0.0000  0.0000  0.0000
  216BTD     S2 4344   2.359   2.897  -1.659  0.0000  0.0000  0.0000
  216BTD     N1 4345   2.367   2.878  -1.827  0.0000  0.0000  0.0000
  216BTD     N2 4346   2.382   2.744  -1.613  0.0000  0.0000  0.0000
  216BTD     N3 4347   2.433   2.323  -1.820  0.0000  0.0000  0.0000
  216BTD     N4 4348   2.446   2.511  -2.112  0.0000  0.0000  0.0000
  216BTD     C5 4349   2.404   2.677  -1.966  0.0000  0.0000  0.0000
  216BTD     C6 4350   2.383   2.737  -1.845  0.0000  0.0000  0.0000
  216BTD     C7 4351   2.400   2.675  -1.725  0.0000  0.0000  0.0000
  216BTD     C8 4352   2.417   2.534  -1.733  0.0000  0.0000  0.0000
  216BTD    C15 4353   2.426   2.457  -1.851  0.0000  0.0000  0.0000
  216BTD    C16 4354   2.427   2.542  -1.976  0.0000  0.0000  0.0000
  216BTD    C43 4355   2.493   2.385  -2.172  0.0000  0.0000  0.0000
  216BTD    C44 4356   2.645   2.358  -2.160  0.0000  0.0000  0.0000
  216BTD    C45 4357   2.665   2.224  -2.239  0.0000  0.0000  0.0000
  216BTD    C46 4358   2.771   2.135  -2.171  0.0000  0.0000  0.0000
  216BTD    C47 4359   2.721   2.474  -2.221  0.0000  0.0000  0.0000
  216BTD    C48 4360   2.874   2.466  -2.215  0.0000  0.0000  0.0000
  216BTD    C49 4361   2.972   2.570  -2.269  0.0000  0.0000  0.0000
  216BTD    C50 4362   2.884   2.695  -2.236  0.0000  0.0000  0.0000
  216BTD    C75 4363   2.467   2.206  -1.904  0.0000  0.0000  0.0000
  216BTD    C76 4364   2.356   2.104  -1.931  0.0000  0.0000  0.0000
  216BTD    C77 4365   2.234   2.170  -1.989  0.0000  0.0000  0.0000
  216BTD    C78 4366   2.108   2.079  -1.999  0.0000  0.0000  0.0000
  216BTD    C79 4367   2.398   2.000  -2.037  0.0000  0.0000  0.0000
  216BTD    C80 4368   2.481   1.893  -1.965  0.0000  0.0000  0.0000
  216BTD    C81 4369   2.517   1.777  -2.063  0.0000  0.0000  0.0000
  216BTD    C82 4370   2.630   1.697  -1.994  0.0000  0.0000  0.0000
  217TTP     S1 4371   2.384   2.881  -2.177  0.0000  0.0000  0.0000
  217TTP     S5 4372   2.454   2.588  -2.470  0.0000  0.0000  0.0000
  217TTP     C1 4373   2.433   2.741  -2.547  0.0000  0.0000  0.0000
  217TTP     C2 4374   2.414   2.849  -2.458  0.0000  0.0000  0.0000
  217TTP     C3 4375   2.409   2.803  -2.323  0.0000  0.0000  0.0000
  217TTP     C4 4376   2.408   2.725  -2.093  0.0000  0.0000  0.0000
  217TTP    C17 4377   2.428   2.631  -2.186  0.0000  0.0000  0.0000
  217TTP    C18 4378   2.433   2.665  -2.322  0.0000  0.0000  0.0000
  217TTP    C32 4379   2.392   3.001  -2.494  0.0000  0.0000  0.0000
  217TTP    C33 4380   2.315   3.084  -2.392  0.0000  0.0000  0.0000
  217TTP    C34 4381   2.295   3.226  -2.446  0.0000  0.0000  0.0000
  217TTP    C35 4382   2.241   3.319  -2.338  0.0000  0.0000  0.0000
  217TTP    C36 4383   2.197   3.458  -2.388  0.0000  0.0000  0.0000
  217TTP    C37 4384   2.142   3.553  -2.286  0.0000  0.0000  0.0000
  217TTP    C38 4385   2.221   3.687  -2.272  0.0000  0.0000  0.0000
  217TTP    C39 4386   2.220   3.777  -2.396  0.0000  0.0000  0.0000
  217TTP    C40 4387   2.296   3.907  -2.381  0.0000  0.0000  0.0000
  217TTP    C41 4388   2.246   3.996  -2.271  0.0000  0.0000  0.0000
  217TTP    C42 4389   2.252   3.933  -2.128  0.0000  0.0000  0.0000
  218TTP     S1 4390   2.403   2.433  -1.454  0.0000  0.0000  0.0000
  218TTP     S5 4391   2.441   2.035  -1.587  0.0000  0.0000  0.0000
  218TTP     C1 4392   2.432   2.036  -1.413  0.0000  0.0000  0.0000
  218TTP     C2 4393   2.423   2.164  -1.359  0.0000  0.0000  0.0000
  218TTP     C3 4394   2.415   2.260  -1.459  0.0000  0.0000  0.0000
  218TTP     C4 4395   2.413   2.441  -1.629  0.0000  0.0000  0.0000
  218TTP    C17 4396   2.421   2.315  -1.681  0.0000  0.0000  0.0000
  218TTP    C18 4397   2.425   2.202  -1.586  0.0000  0.0000  0.0000
  218TTP    C32 4398   2.419   2.201  -1.211  0.0000  0.0000  0.0000
  218TTP    C33 4399   2.272   2.207  -1.157  0.0000  0.0000  0.0000
  218TTP    C34 4400   2.258   2.284  -1.024  0.0000  0.0000  0.0000
  218TTP    C35 4401   2.110   2.321  -0.985  0.0000  0.0000  0.0000
  218TTP    C36 4402   2.080   2.320  -0.837  0.0000  0.0000  0.0000
  218TTP    C37 4403   2.037   2.454  -0.783  0.0000  0.0000  0.0000
  218TTP    C38 4404   2.022   2.561  -0.888  0.0000  0.0000  0.0000
  218TTP    C39 4405   2.082   2.526  -1.022  0.0000  0.0000  0.0000
  218TTP    C40 4406   2.069   2.631  -1.127  0.0000  0.0000  0.0000
  218TTP    C41 4407   2.129   2.596  -1.260  0.0000  0.0000  0.0000
  218TTP    C42 4408   2.116   2.700  -1.366  0.0000  0.0000  0.0000
  219FIC     F1 4409   2.556   2.240  -3.183  0.0000  0.0000  0.0000
  219FIC     F2 4410   2.573   2.455  -3.344  0.0000  0.0000  0.0000
  219FIC     O1 4411   2.467   2.467  -2.712  0.0000  0.0000  0.0000
  219FIC     N5 4412   2.519   2.932  -3.232  0.0000  0.0000  0.0000
  219FIC     N6 4413   2.464   3.075  -2.838  0.0000  0.0000  0.0000
  219FIC    C19 4414   2.445   2.764  -2.687  0.0000  0.0000  0.0000
  219FIC    C20 4415   2.471   2.697  -2.801  0.0000  0.0000  0.0000
  219FIC    C21 4416   2.476   2.554  -2.797  0.0000  0.0000  0.0000
  219FIC    C22 4417   2.499   2.500  -2.938  0.0000  0.0000  0.0000
  219FIC    C23 4418   2.517   2.372  -2.990  0.0000  0.0000  0.0000
  219FIC    C24 4419   2.543   2.355  -3.125  0.0000  0.0000  0.0000
  219FIC    C25 4420   2.551   2.466  -3.209  0.0000  0.0000  0.0000
  219FIC    C26 4421   2.533   2.593  -3.157  0.0000  0.0000  0.0000
  219FIC    C27 4422   2.507   2.610  -3.021  0.0000  0.0000  0.0000
  219FIC    C28 4423   2.491   2.737  -2.943  0.0000  0.0000  0.0000
  219FIC    C29 4424   2.491   2.861  -2.974  0.0000  0.0000  0.0000
  219FIC    C30 4425   2.507   2.889  -3.133  0.0000  0.0000  0.0000
  219FIC    C31 4426   2.478   2.979  -2.897  0.0000  0.0000  0.0000
  220FIC     F1 4427   2.550   1.247  -1.590  0.0000  0.0000  0.0000
  220FIC     F2 4428   2.566   1.198  -1.320  0.0000  0.0000  0.0000
  220FIC     O1 4429   2.451   1.767  -1.592  0.0000  0.0000  0.0000
  220FIC     N5 4430   2.505   1.512  -0.941  0.0000  0.0000  0.0000
  220FIC     N6 4431   2.441   1.920  -0.983  0.0000  0.0000  0.0000
  220FIC    C19 4432   2.448   1.919  -1.329  0.0000  0.0000  0.0000
  220FIC    C20 4433   2.461   1.780  -1.348  0.0000  0.0000  0.0000
  220FIC    C21 4434   2.464   1.728  -1.480  0.0000  0.0000  0.0000
  220FIC    C22 4435   2.494   1.577  -1.452  0.0000  0.0000  0.0000
  220FIC    C23 4436   2.510   1.473  -1.543  0.0000  0.0000  0.0000
  220FIC    C24 4437   2.534   1.344  -1.497  0.0000  0.0000  0.0000
  220FIC    C25 4438   2.542   1.319  -1.360  0.0000  0.0000  0.0000
  220FIC    C26 4439   2.525   1.423  -1.269  0.0000  0.0000  0.0000
  220FIC    C27 4440   2.501   1.552  -1.315  0.0000  0.0000  0.0000
  220FIC    C28 4441   2.478   1.680  -1.241  0.0000  0.0000  0.0000
  220FIC    C29 4442   2.475   1.703  -1.119  0.0000  0.0000  0.0000
  220FIC    C30 4443   2.496   1.574  -1.036  0.0000  0.0000  0.0000
  220FIC    C31 4444   2.455   1.821  -1.042  0.0000  0.0000  0.0000
  221BTD     S2 4445   2.290   7.333   1.649  0.0000  0.0000  0.0000
  221BTD     N1 4446   2.287   7.319   1.810  0.0000  0.0000  0.0000
  221BTD     N2 4447   2.307   7.180   1.603  0.0000  0.0000  0.0000
  221BTD     N3 4448   2.356   6.767   1.829  0.0000  0.0000  0.0000
  221BTD     N4 4449   2.330   6.952   2.112  0.0000  0.0000  0.0000
  221BTD     C5 4450   2.312   7.125   1.959  0.0000  0.0000  0.0000
  221BTD     C6 4451   2.306   7.184   1.834  0.0000  0.0000  0.0000
  221BTD     C7 4452   2.316   7.106   1.719  0.0000  0.0000  0.0000
  221BTD     C8 4453   2.332   6.968   1.731  0.0000  0.0000  0.0000
  221BTD    C15 4454   2.338   6.909   1.856  0.0000  0.0000  0.0000
  221BTD    C16 4455   2.328   6.988   1.971  0.0000  0.0000  0.0000
  221BTD    C43 4456   2.357   6.829   2.193  0.0000  0.0000  0.0000
  221BTD    C44 4457   2.492   6.812   2.262  0.0000  0.0000  0.0000
  221BTD    C45 4458   2.513   6.676   2.331  0.0000  0.0000  0.0000
  221BTD    C46 4459   2.410   6.675   2.448  0.0000  0.0000  0.0000
  221BTD    C47 4460   2.600   6.843   2.160  0.0000  0.0000  0.0000
  221BTD    C48 4461   2.734   6.845   2.239  0.0000  0.0000  0.0000
  221BTD    C49 4462   2.842   6.874   2.136  0.0000  0.0000  0.0000
  221BTD    C50 4463   2.978   6.851   2.205  0.0000  0.0000  0.0000
  221BTD    C75 4464   2.374   6.654   1.914  0.0000  0.0000  0.0000
  221BTD    C76 4465   2.258   6.561   1.948  0.0000  0.0000  0.0000
  221BTD    C77 4466   2.122   6.615   1.984  0.0000  0.0000  0.0000
  221BTD    C78 4467   2.002   6.526   1.943  0.0000  0.0000  0.0000
  221BTD    C79 4468   2.296   6.440   2.037  0.0000  0.0000  0.0000
  221BTD    C80 4469   2.391   6.330   1.988  0.0000  0.0000  0.0000
  221BTD    C81 4470   2.451   6.205   2.060  0.0000  0.0000  0.0000
  221BTD    C82 4471   2.433   6.097   1.974  0.0000  0.0000  0.0000
  222TTP     S1 4472   2.279   7.332   2.164  0.0000  0.0000  0.0000
  222TTP     S5 4473   2.294   7.042   2.470  0.0000  0.0000  0.0000
  222TTP     C1 4474   2.269   7.206   2.535  0.0000  0.0000  0.0000
  222TTP     C2 4475   2.265   7.311   2.438  0.0000  0.0000  0.0000
  222TTP     C3 4476   2.279   7.248   2.324  0.0000  0.0000  0.0000
  222TTP     C4 4477   2.301   7.177   2.094  0.0000  0.0000  0.0000
  222TTP    C17 4478   2.314   7.075   2.179  0.0000  0.0000  0.0000
  222TTP    C18 4479   2.299   7.120   2.312  0.0000  0.0000  0.0000
  222TTP    C32 4480   2.263   7.458   2.481  0.0000  0.0000  0.0000
  222TTP    C33 4481   2.117   7.505   2.473  0.0000  0.0000  0.0000
  222TTP    C34 4482   2.113   7.657   2.486  0.0000  0.0000  0.0000
  222TTP    C35 4483   1.975   7.711   2.518  0.0000  0.0000  0.0000
  222TTP    C36 4484   1.914   7.794   2.408  0.0000  0.0000  0.0000
  222TTP    C37 4485   1.774   7.850   2.438  0.0000  0.0000  0.0000
  222TTP    C38 4486   1.690   7.765   2.531  0.0000  0.0000  0.0000
  222TTP    C39 4487   1.768   7.655   2.601  0.0000  0.0000  0.0000
  222TTP    C40 4488   1.685   7.534   2.635  0.0000  0.0000  0.0000
  222TTP    C41 4489   1.734   7.405   2.574  0.0000  0.0000  0.0000
  222TTP    C42 4490   1.857   7.417   2.486  0.0000  0.0000  0.0000
  223TTP     S1 4491   2.344   6.860   1.458  0.0000  0.0000  0.0000
  223TTP     S5 4492   2.398   6.472   1.613  0.0000  0.0000  0.0000
  223TTP     C1 4493   2.407   6.460   1.440  0.0000  0.0000  0.0000
  223TTP     C2 4494   2.388   6.586   1.375  0.0000  0.0000  0.0000
  223TTP     C3 4495   2.369   6.684   1.473  0.0000  0.0000  0.0000
  223TTP     C4 4496   2.340   6.871   1.626  0.0000  0.0000  0.0000
  223TTP    C17 4497   2.353   6.747   1.693  0.0000  0.0000  0.0000
  223TTP    C18 4498   2.371   6.641   1.603  0.0000  0.0000  0.0000
  223TTP    C32 4499   2.408   6.614   1.224  0.0000  0.0000  0.0000
  223TTP    C33 4500   2.286   6.638   1.137  0.0000  0.0000  0.0000
  223TTP    C34 4501   2.299   6.673   0.986  0.0000  0.0000  0.0000
  223TTP    C35 4502   2.283   6.820   0.953  0.0000  0.0000  0.0000
  223TTP    C36 4503   2.277   6.870   0.808  0.0000  0.0000  0.0000
  223TTP    C37 4504   2.262   7.020   0.793  0.0000  0.0000  0.0000
  223TTP    C38 4505   2.137   7.064   0.720  0.0000  0.0000  0.0000
  223TTP    C39 4506   2.042   7.151   0.798  0.0000  0.0000  0.0000
  223TTP    C40 4507   1.922   7.190   0.716  0.0000  0.0000  0.0000
  223TTP    C41 4508   1.822   7.277   0.787  0.0000  0.0000  0.0000
  223TTP    C42 4509   1.700   7.317   0.706  0.0000  0.0000  0.0000
  224FIC     F1 4510   2.204   6.692   3.178  0.0000  0.0000  0.0000
  224FIC     F2 4511   2.175   6.901   3.339  0.0000  0.0000  0.0000
  224FIC     O1 4512   2.267   6.923   2.701  0.0000  0.0000  0.0000
  224FIC     N5 4513   2.146   7.370   3.218  0.0000  0.0000  0.0000
  224FIC     N6 4514   2.225   7.534   2.830  0.0000  0.0000  0.0000
  224FIC    C19 4515   2.251   7.228   2.678  0.0000  0.0000  0.0000
  224FIC    C20 4516   2.244   7.146   2.787  0.0000  0.0000  0.0000
  224FIC    C21 4517   2.246   7.006   2.794  0.0000  0.0000  0.0000
  224FIC    C22 4518   2.227   6.954   2.934  0.0000  0.0000  0.0000
  224FIC    C23 4519   2.227   6.828   2.993  0.0000  0.0000  0.0000
  224FIC    C24 4520   2.208   6.816   3.130  0.0000  0.0000  0.0000
  224FIC    C25 4521   2.188   6.929   3.208  0.0000  0.0000  0.0000
  224FIC    C26 4522   2.187   7.055   3.149  0.0000  0.0000  0.0000
  224FIC    C27 4523   2.206   7.067   3.012  0.0000  0.0000  0.0000
  224FIC    C28 4524   2.217   7.191   2.937  0.0000  0.0000  0.0000
  224FIC    C29 4525   2.199   7.318   2.970  0.0000  0.0000  0.0000
  224FIC    C30 4526   2.168   7.347   3.105  0.0000  0.0000  0.0000
  224FIC    C31 4527   2.211   7.436   2.895  0.0000  0.0000  0.0000
  225FIC     F1 4528   2.540   5.690   1.669  0.0000  0.0000  0.0000
  225FIC     F2 4529   2.565   5.628   1.419  0.0000  0.0000  0.0000
  225FIC     O1 4530   2.438   6.213   1.634  0.0000  0.0000  0.0000
  225FIC     N5 4531   2.516   5.901   1.017  0.0000  0.0000  0.0000
  225FIC     N6 4532   2.447   6.318   1.028  0.0000  0.0000  0.0000
  225FIC    C19 4533   2.429   6.343   1.366  0.0000  0.0000  0.0000
  225FIC    C20 4534   2.447   6.209   1.393  0.0000  0.0000  0.0000
  225FIC    C21 4535   2.454   6.160   1.521  0.0000  0.0000  0.0000
  225FIC    C22 4536   2.478   6.011   1.521  0.0000  0.0000  0.0000
  225FIC    C23 4537   2.498   5.915   1.618  0.0000  0.0000  0.0000
  225FIC    C24 4538   2.523   5.787   1.575  0.0000  0.0000  0.0000
  225FIC    C25 4539   2.540   5.756   1.442  0.0000  0.0000  0.0000
  225FIC    C26 4540   2.521   5.842   1.346  0.0000  0.0000  0.0000
  225FIC    C27 4541   2.493   5.973   1.386  0.0000  0.0000  0.0000
  225FIC    C28 4542   2.473   6.098   1.306  0.0000  0.0000  0.0000
  225FIC    C29 4543   2.476   6.107   1.168  0.0000  0.0000  0.0000
  225FIC    C30 4544   2.498   5.999   1.087  0.0000  0.0000  0.0000
  225FIC    C31 4545   2.462   6.222   1.096  0.0000  0.0000  0.0000
  226BTD     S2 4546   2.008   6.866   1.659  0.0000  0.0000  0.0000
  226BTD     N1 4547   2.000   6.885   1.827  0.0000  0.0000  0.0000
  226BTD     N2 4548   1.985   7.019   1.613  0.0000  0.0000  0.0000
  226BTD     N3 4549   1.934   7.440   1.820  0.0000  0.0000  0.0000
  226BTD     N4 4550   1.921   7.252   2.112  0.0000  0.0000  0.0000
  226BTD     C5 4551   1.963   7.086   1.966  0.0000  0.0000  0.0000
  226BTD     C6 4552   1.984   7.026   1.845  0.0000  0.0000  0.0000
  226BTD     C7 4553   1.967   7.088   1.725  0.0000  0.0000  0.0000
  226BTD     C8 4554   1.950   7.229   1.733  0.0000  0.0000  0.0000
  226BTD    C15 4555   1.941   7.306   1.851  0.0000  0.0000  0.0000
  226BTD    C16 4556   1.940   7.221   1.976  0.0000  0.0000  0.0000
  226BTD    C43 4557   1.874   7.378   2.172  0.0000  0.0000  0.0000
  226BTD    C44 4558   1.722   7.405   2.160  0.0000  0.0000  0.0000
  226BTD    C45 4559   1.702   7.539   2.239  0.0000  0.0000  0.0000
  226BTD    C46 4560   1.596   7.628   2.171  0.0000  0.0000  0.0000
  226BTD    C47 4561   1.646   7.289   2.221  0.0000  0.0000  0.0000
  226BTD    C48 4562   1.493   7.297   2.215  0.0000  0.0000  0.0000
  226BTD    C49 4563   1.395   7.193   2.269  0.0000  0.0000  0.0000
  226BTD    C50 4564   1.483   7.068   2.236  0.0000  0.0000  0.0000
  226BTD    C75 4565   1.900   7.557   1.904  0.0000  0.0000  0.0000
  226BTD    C76 4566   2.012   7.659   1.931  0.0000  0.0000  0.0000
  226BTD    C77 4567   2.133   7.593   1.989  0.0000  0.0000  0.0000
  226BTD    C78 4568   2.259   7.684   1.999  0.0000  0.0000  0.0000
  226BTD    C79 4569   1.969   7.763   2.037  0.0000  0.0000  0.0000
  226BTD    C80 4570   1.886   7.870   1.965  0.0000  0.0000  0.0000
  226BTD    C81 4571   1.850   7.986   2.063  0.0000  0.0000  0.0000
  226BTD    C82 4572   1.737   8.066   1.994  0.0000  0.0000  0.0000
  227TTP     S1 4573   1.983   6.882   2.177  0.0000  0.0000  0.0000
  227TTP     S5 4574   1.913   7.175   2.470  0.0000  0.0000  0.0000
  227TTP     C1 4575   1.934   7.022   2.547  0.0000  0.0000  0.0000
  227TTP     C2 4576   1.953   6.914   2.458  0.0000  0.0000  0.0000
  227TTP     C3 4577   1.958   6.960   2.323  0.0000  0.0000  0.0000
  227TTP     C4 4578   1.959   7.038   2.093  0.0000  0.0000  0.0000
  227TTP    C17 4579   1.939   7.132   2.186  0.0000  0.0000  0.0000
  227TTP    C18 4580   1.934   7.098   2.322  0.0000  0.0000  0.0000
  227TTP    C32 4581   1.975   6.762   2.494  0.0000  0.0000  0.0000
  227TTP    C33 4582   2.052   6.679   2.392  0.0000  0.0000  0.0000
  227TTP    C34 4583   2.072   6.537   2.446  0.0000  0.0000  0.0000
  227TTP    C35 4584   2.126   6.444   2.338  0.0000  0.0000  0.0000
  227TTP    C36 4585   2.170   6.305   2.388  0.0000  0.0000  0.0000
  227TTP    C37 4586   2.225   6.210   2.286  0.0000  0.0000  0.0000
  227TTP    C38 4587   2.146   6.076   2.272  0.0000  0.0000  0.0000
  227TTP    C39 4588   2.148   5.986   2.396  0.0000  0.0000  0.0000
  227TTP    C40 4589   2.071   5.856   2.381  0.0000  0.0000  0.0000
  227TTP    C41 4590   2.121   5.767   2.271  0.0000  0.0000  0.0000
  227TTP    C42 4591   2.115   5.830   2.128  0.0000  0.0000  0.0000
  228TTP     S1 4592   1.964   7.330   1.454  0.0000  0.0000  0.0000
  228TTP     S5 4593   1.926   7.728   1.587  0.0000  0.0000  0.0000
  228TTP     C1 4594   1.935   7.727   1.413  0.0000  0.0000  0.0000
  228TTP     C2 4595   1.944   7.599   1.359  0.0000  0.0000  0.0000
  228TTP     C3 4596   1.952   7.503   1.459  0.0000  0.0000  0.0000
  228TTP     C4 4597   1.954   7.322   1.629  0.0000  0.0000  0.0000
  228TTP    C17 4598   1.946   7.448   1.681  0.0000  0.0000  0.0000
  228TTP    C18 4599   1.942   7.561   1.586  0.0000  0.0000  0.0000
  228TTP    C32 4600   1.948   7.562   1.211  0.0000  0.0000  0.0000
  228TTP    C33 4601   2.095   7.556   1.157  0.0000  0.0000  0.0000
  228TTP    C34 4602   2.109   7.479   1.024  0.0000  0.0000  0.0000
  228TTP    C35 4603   2.257   7.442   0.985  0.0000  0.0000  0.0000
  228TTP    C36 4604   2.287   7.443   0.837  0.0000  0.0000  0.0000
  228TTP    C37 4605   2.330   7.309   0.783  0.0000  0.0000  0.0000
  228TTP    C38 4606   2.345   7.202   0.888  0.0000  0.0000  0.0000
  228TTP    C39 4607   2.285   7.237   1.022  0.0000  0.0000  0.0000
  228TTP    C40 4608   2.298   7.132   1.127  0.0000  0.0000  0.0000
  228TTP    C41 4609   2.238   7.167   1.260  0.0000  0.0000  0.0000
  228TTP    C42 4610   2.251   7.063   1.366  0.0000  0.0000  0.0000
  229FIC     F1 4611   1.811   7.523   3.183  0.0000  0.0000  0.0000
  229FIC     F2 4612   1.794   7.308   3.344  0.0000  0.0000  0.0000
  229FIC     O1 4613   1.900   7.296   2.712  0.0000  0.0000  0.0000
  229FIC     N5 4614   1.848   6.831   3.232  0.0000  0.0000  0.0000
  229FIC     N6 4615   1.903   6.688   2.838  0.0000  0.0000  0.0000
  229FIC    C19 4616   1.922   6.999   2.687  0.0000  0.0000  0.0000
  229FIC    C20 4617   1.896   7.066   2.801  0.0000  0.0000  0.0000
  229FIC    C21 4618   1.891   7.209   2.797  0.0000  0.0000  0.0000
  229FIC    C22 4619   1.868   7.263   2.938  0.0000  0.0000  0.0000
  229FIC    C23 4620   1.850   7.391   2.990  0.0000  0.0000  0.0000
  229FIC    C24 4621   1.824   7.408   3.125  0.0000  0.0000  0.0000
  229FIC    C25 4622   1.816   7.297   3.209  0.0000  0.0000  0.0000
  229FIC    C26 4623   1.834   7.170   3.157  0.0000  0.0000  0.0000
  229FIC    C27 4624   1.860   7.153   3.021  0.0000  0.0000  0.0000
  229FIC    C28 4625   1.876   7.026   2.943  0.0000  0.0000  0.0000
  229FIC    C29 4626   1.876   6.902   2.974  0.0000  0.0000  0.0000
  229FIC    C30 4627   1.860   6.874   3.133  0.0000  0.0000  0.0000
  229FIC    C31 4628   1.889   6.784   2.897  0.0000  0.0000  0.0000
  230FIC     F1 4629   1.817   8.516   1.590  0.0000  0.0000  0.0000
  230FIC     F2 4630   1.801   8.565   1.320  0.0000  0.0000  0.0000
  230FIC     O1 4631   1.916   7.996   1.592  0.0000  0.0000  0.0000
  230FIC     N5 4632   1.862   8.251   0.941  0.0000  0.0000  0.0000
  230FIC     N6 4633   1.926   7.843   0.983  0.0000  0.0000  0.0000
  230FIC    C19 4634   1.919   7.844   1.329  0.0000  0.0000  0.0000
  230FIC    C20 4635   1.906   7.983   1.348  0.0000  0.0000  0.0000
  230FIC    C21 4636   1.903   8.035   1.480  0.0000  0.0000  0.0000
  230FIC    C22 4637   1.873   8.186   1.452  0.0000  0.0000  0.0000
  230FIC    C23 4638   1.857   8.290   1.543  0.0000  0.0000  0.0000
  230FIC    C24 4639   1.833   8.419   1.497  0.0000  0.0000  0.0000
  230FIC    C25 4640   1.825   8.444   1.360  0.0000  0.0000  0.0000
  230FIC    C26 4641   1.842   8.340   1.269  0.0000  0.0000  0.0000
  230FIC    C27 4642   1.866   8.211   1.315  0.0000  0.0000  0.0000
  230FIC    C28 4643   1.889   8.083   1.241  0.0000  0.0000  0.0000
  230FIC    C29 4644   1.892   8.060   1.119  0.0000  0.0000  0.0000
  230FIC    C30 4645   1.871   8.189   1.036  0.0000  0.0000  0.0000
  230FIC    C31 4646   1.912   7.942   1.042  0.0000  0.0000  0.0000
  231BTD     S2 4647   1.852   4.383  -1.649  0.0000  0.0000  0.0000
  231BTD     N1 4648   1.855   4.397  -1.810  0.0000  0.0000  0.0000
  231BTD     N2 4649   1.835   4.536  -1.603  0.0000  0.0000  0.0000
  231BTD     N3 4650   1.786   4.949  -1.829  0.0000  0.0000  0.0000
  231BTD     N4 4651   1.812   4.764  -2.112  0.0000  0.0000  0.0000
  231BTD     C5 4652   1.830   4.591  -1.959  0.0000  0.0000  0.0000
  231BTD     C6 4653   1.836   4.532  -1.834  0.0000  0.0000  0.0000
  231BTD     C7 4654   1.826   4.610  -1.719  0.0000  0.0000  0.0000
  231BTD     C8 4655   1.810   4.748  -1.731  0.0000  0.0000  0.0000
  231BTD    C15 4656   1.804   4.807  -1.856  0.0000  0.0000  0.0000
  231BTD    C16 4657   1.814   4.728  -1.971  0.0000  0.0000  0.0000
  231BTD    C43 4658   1.785   4.887  -2.193  0.0000  0.0000  0.0000
  231BTD    C44 4659   1.650   4.904  -2.262  0.0000  0.0000  0.0000
  231BTD    C45 4660   1.629   5.040  -2.331  0.0000  0.0000  0.0000
  231BTD    C46 4661   1.732   5.041  -2.448  0.0000  0.0000  0.0000
  231BTD    C47 4662   1.542   4.873  -2.160  0.0000  0.0000  0.0000
  231BTD    C48 4663   1.408   4.871  -2.239  0.0000  0.0000  0.0000
  231BTD    C49 4664   1.300   4.842  -2.136  0.0000  0.0000  0.0000
  231BTD    C50 4665   1.164   4.865  -2.205  0.0000  0.0000  0.0000
  231BTD    C75 4666   1.768   5.062  -1.914  0.0000  0.0000  0.0000
  231BTD    C76 4667   1.884   5.155  -1.948  0.0000  0.0000  0.0000
  231BTD    C77 4668   2.020   5.101  -1.984  0.0000  0.0000  0.0000
  231BTD    C78 4669   2.140   5.190  -1.943  0.0000  0.0000  0.0000
  231BTD    C79 4670   1.846   5.276  -2.037  0.0000  0.0000  0.0000
  231BTD    C80 4671   1.751   5.386  -1.988  0.0000  0.0000  0.0000
  231BTD    C81 4672   1.691   5.511  -2.060  0.0000  0.0000  0.0000
  231BTD    C82 4673   1.709   5.619  -1.974  0.0000  0.0000  0.0000
  232TTP     S1 4674   1.863   4.384  -2.164  0.0000  0.0000  0.0000
  232TTP     S5 4675   1.848   4.674  -2.470  0.0000  0.0000  0.0000
  232TTP     C1 4676   1.873   4.510  -2.535  0.0000  0.0000  0.0000
  232TTP     C2 4677   1.877   4.405  -2.438  0.0000  0.0000  0.0000
  232TTP     C3 4678   1.863   4.468  -2.324  0.0000  0.0000  0.0000
  232TTP     C4 4679   1.841   4.539  -2.094  0.0000  0.0000  0.0000
  232TTP    C17 4680   1.828   4.641  -2.179  0.0000  0.0000  0.0000
  232TTP    C18 4681   1.843   4.596  -2.312  0.0000  0.0000  0.0000
  232TTP    C32 4682   1.879   4.258  -2.481  0.0000  0.0000  0.0000
  232TTP    C33 4683   2.025   4.211  -2.473  0.0000  0.0000  0.0000
  232TTP    C34 4684   2.029   4.059  -2.486  0.0000  0.0000  0.0000
  232TTP    C35 4685   2.167   4.005  -2.518  0.0000  0.0000  0.0000
  232TTP    C36 4686   2.228   3.922  -2.408  0.0000  0.0000  0.0000
  232TTP    C37 4687   2.368   3.866  -2.438  0.0000  0.0000  0.0000
  232TTP    C38 4688   2.452   3.951  -2.531  0.0000  0.0000  0.0000
  232TTP    C39 4689   2.374   4.061  -2.601  0.0000  0.0000  0.0000
  232TTP    C40 4690   2.457   4.182  -2.635  0.0000  0.0000  0.0000
  232TTP    C41 4691   2.408   4.311  -2.574  0.0000  0.0000  0.0000
  232TTP    C42 4692   2.285   4.299  -2.486  0.0000  0.0000  0.0000
  233TTP     S1 4693   1.798   4.856  -1.458  0.0000  0.0000  0.0000
  233TTP     S5 4694   1.744   5.244  -1.613  0.0000  0.0000  0.0000
  233TTP     C1 4695   1.735   5.256  -1.440  0.0000  0.0000  0.0000
  233TTP     C2 4696   1.754   5.130  -1.375  0.0000  0.0000  0.0000
  233TTP     C3 4697   1.773   5.032  -1.473  0.0000  0.0000  0.0000
  233TTP     C4 4698   1.802   4.845  -1.626  0.0000  0.0000  0.0000
  233TTP    C17 4699   1.789   4.969  -1.693  0.0000  0.0000  0.0000
  233TTP    C18 4700   1.771   5.075  -1.603  0.0000  0.0000  0.0000
  233TTP    C32 4701   1.734   5.102  -1.224  0.0000  0.0000  0.0000
  233TTP    C33 4702   1.856   5.078  -1.137  0.0000  0.0000  0.0000
  233TTP    C34 4703   1.843   5.043  -0.986  0.0000  0.0000  0.0000
  233TTP    C35 4704   1.859   4.896  -0.953  0.0000  0.0000  0.0000
  233TTP    C36 4705   1.865   4.846  -0.808  0.0000  0.0000  0.0000
  233TTP    C37 4706   1.880   4.696  -0.793  0.0000  0.0000  0.0000
  233TTP    C38 4707   2.005   4.652  -0.720  0.0000  0.0000  0.0000
  233TTP    C39 4708   2.100   4.565  -0.798  0.0000  0.0000  0.0000
  233TTP    C40 4709   2.220   4.526  -0.716  0.0000  0.0000  0.0000
  233TTP    C41 4710   2.320   4.439  -0.787  0.0000  0.0000  0.0000
  233TTP    C42 4711   2.442   4.399  -0.706  0.0000  0.0000  0.0000
  234FIC     F1 4712   1.938   5.024  -3.178  0.0000  0.0000  0.0000
  234FIC     F2 4713   1.967   4.815  -3.339  0.0000  0.0000  0.0000
  234FIC     O1 4714   1.875   4.793  -2.701  0.0000  0.0000  0.0000
  234FIC     N5 4715   1.997   4.346  -3.218  0.0000  0.0000  0.0000
  234FIC     N6 4716   1.917   4.182  -2.830  0.0000  0.0000  0.0000
  234FIC    C19 4717   1.891   4.488  -2.678  0.0000  0.0000  0.0000
  234FIC    C20 4718   1.898   4.570  -2.787  0.0000  0.0000  0.0000
  234FIC    C21 4719   1.896   4.710  -2.794  0.0000  0.0000  0.0000
  234FIC    C22 4720   1.916   4.762  -2.934  0.0000  0.0000  0.0000
  234FIC    C23 4721   1.915   4.888  -2.993  0.0000  0.0000  0.0000
  234FIC    C24 4722   1.934   4.900  -3.130  0.0000  0.0000  0.0000
  234FIC    C25 4723   1.954   4.787  -3.208  0.0000  0.0000  0.0000
  234FIC    C26 4724   1.955   4.661  -3.149  0.0000  0.0000  0.0000
  234FIC    C27 4725   1.936   4.649  -3.012  0.0000  0.0000  0.0000
  234FIC    C28 4726   1.925   4.525  -2.937  0.0000  0.0000  0.0000
  234FIC    C29 4727   1.943   4.398  -2.970  0.0000  0.0000  0.0000
  234FIC    C30 4728   1.974   4.369  -3.105  0.0000  0.0000  0.0000
  234FIC    C31 4729   1.931   4.280  -2.895  0.0000  0.0000  0.0000
  235FIC     F1 4730   1.603   6.026  -1.669  0.0000  0.0000  0.0000
  235FIC     F2 4731   1.577   6.088  -1.419  0.0000  0.0000  0.0000
  235FIC     O1 4732   1.704   5.503  -1.634  0.0000  0.0000  0.0000
  235FIC     N5 4733   1.626   5.815  -1.017  0.0000  0.0000  0.0000
  235FIC     N6 4734   1.696   5.398  -1.028  0.0000  0.0000  0.0000
  235FIC    C19 4735   1.713   5.373  -1.366  0.0000  0.0000  0.0000
  235FIC    C20 4736   1.695   5.507  -1.393  0.0000  0.0000  0.0000
  235FIC    C21 4737   1.688   5.556  -1.521  0.0000  0.0000  0.0000
  235FIC    C22 4738   1.664   5.705  -1.521  0.0000  0.0000  0.0000
  235FIC    C23 4739   1.644   5.801  -1.618  0.0000  0.0000  0.0000
  235FIC    C24 4740   1.619   5.928  -1.575  0.0000  0.0000  0.0000
  235FIC    C25 4741   1.602   5.960  -1.442  0.0000  0.0000  0.0000
  235FIC    C26 4742   1.621   5.874  -1.346  0.0000  0.0000  0.0000
  235FIC    C27 4743   1.649   5.743  -1.386  0.0000  0.0000  0.0000
  235FIC    C28 4744   1.669   5.618  -1.306  0.0000  0.0000  0.0000
  235FIC    C29 4745   1.666   5.609  -1.168  0.0000  0.0000  0.0000
  235FIC    C30 4746   1.644   5.717  -1.087  0.0000  0.0000  0.0000
  235FIC    C31 4747   1.680   5.494  -1.096  0.0000  0.0000  0.0000
  236BTD     S2 4748   2.134   4.850  -1.659  0.0000  0.0000  0.0000
  236BTD     N1 4749   2.142   4.831  -1.827  0.0000  0.0000  0.0000
  236BTD     N2 4750   2.157   4.697  -1.613  0.0000  0.0000  0.0000
  236BTD     N3 4751   2.208   4.276  -1.820  0.0000  0.0000  0.0000
  236BTD     N4 4752   2.221   4.464  -2.112  0.0000  0.0000  0.0000
  236BTD     C5 4753   2.179   4.630  -1.966  0.0000  0.0000  0.0000
  236BTD     C6 4754   2.158   4.690  -1.845  0.0000  0.0000  0.0000
  236BTD     C7 4755   2.175   4.628  -1.725  0.0000  0.0000  0.0000
  236BTD     C8 4756   2.192   4.487  -1.733  0.0000  0.0000  0.0000
  236BTD    C15 4757   2.201   4.410  -1.851  0.0000  0.0000  0.0000
  236BTD    C16 4758   2.202   4.495  -1.976  0.0000  0.0000  0.0000
  236BTD    C43 4759   2.268   4.338  -2.172  0.0000  0.0000  0.0000
  236BTD    C44 4760   2.420   4.311  -2.160  0.0000  0.0000  0.0000
  236BTD    C45 4761   2.440   4.177  -2.239  0.0000  0.0000  0.0000
  236BTD    C46 4762   2.546   4.088  -2.171  0.0000  0.0000  0.0000
  236BTD    C47 4763   2.496   4.427  -2.221  0.0000  0.0000  0.0000
  236BTD    C48 4764   2.649   4.419  -2.215  0.0000  0.0000  0.0000
  236BTD    C49 4765   2.747   4.523  -2.269  0.0000  0.0000  0.0000
  236BTD    C50 4766   2.659   4.648  -2.236  0.0000  0.0000  0.0000
  236BTD    C75 4767   2.242   4.159  -1.904  0.0000  0.0000  0.0000
  236BTD    C76 4768   2.131   4.057  -1.931  0.0000  0.0000  0.0000
  236BTD    C77 4769   2.009   4.123  -1.989  0.0000  0.0000  0.0000
  236BTD    C78 4770   1.883   4.032  -1.999  0.0000  0.0000  0.0000
  236BTD    C79 4771   2.173   3.953  -2.037  0.0000  0.0000  0.0000
  236BTD    C80 4772   2.256   3.846  -1.965  0.0000  0.0000  0.0000
  236BTD    C81 4773   2.292   3.730  -2.063  0.0000  0.0000  0.0000
  236BTD    C82 4774   2.405   3.650  -1.994  0.0000  0.0000  0.0000
  237TTP     S1 4775   2.159   4.834  -2.177  0.0000  0.0000  0.0000
  237TTP     S5 4776   2.229   4.541  -2.470  0.0000  0.0000  0.0000
  237TTP     C1 4777   2.208   4.694  -2.547  0.0000  0.0000  0.0000
  237TTP     C2 4778   2.189   4.802  -2.458  0.0000  0.0000  0.0000
  237TTP     C3 4779   2.184   4.756  -2.323  0.0000  0.0000  0.0000
  237TTP     C4 4780   2.183   4.678  -2.093  0.0000  0.0000  0.0000
  237TTP    C17 4781   2.203   4.584  -2.186  0.0000  0.0000  0.0000
  237TTP    C18 4782   2.208   4.618  -2.322  0.0000  0.0000  0.0000
  237TTP    C32 4783   2.167   4.954  -2.494  0.0000  0.0000  0.0000
  237TTP    C33 4784   2.090   5.037  -2.392  0.0000  0.0000  0.0000
  237TTP    C34 4785   2.070   5.179  -2.446  0.0000  0.0000  0.0000
  237TTP    C35 4786   2.016   5.272  -2.338  0.0000  0.0000  0.0000
  237TTP    C36 4787   1.972   5.411  -2.388  0.0000  0.0000  0.0000
  237TTP    C37 4788   1.917   5.506  -2.286  0.0000  0.0000  0.0000
  237TTP    C38 4789   1.996   5.640  -2.272  0.0000  0.0000  0.0000
  237TTP    C39 4790   1.995   5.730  -2.396  0.0000  0.0000  0.0000
  237TTP    C40 4791   2.071   5.860  -2.381  0.0000  0.0000  0.0000
  237TTP    C41 4792   2.021   5.949  -2.271  0.0000  0.0000  0.0000
  237TTP    C42 4793   2.027   5.886  -2.128  0.0000  0.0000  0.0000
  238TTP     S1 4794   2.178   4.386  -1.454  0.0000  0.0000  0.0000
  238TTP     S5 4795   2.216   3.988  -1.587  0.0000  0.0000  0.0000
  238TTP     C1 4796   2.207   3.989  -1.413  0.0000  0.0000  0.0000
  238TTP     C2 4797   2.198   4.117  -1.359  0.0000  0.0000  0.0000
  238TTP     C3 4798   2.190   4.213  -1.459  0.0000  0.0000  0.0000
  238TTP     C4 4799   2.188   4.394  -1.629  0.0000  0.0000  0.0000
  238TTP    C17 4800   2.196   4.268  -1.681  0.0000  0.0000  0.0000
  238TTP    C18 4801   2.200   4.155  -1.586  0.0000  0.0000  0.0000
  238TTP    C32 4802   2.194   4.154  -1.211  0.0000  0.0000  0.0000
  238TTP    C33 4803   2.047   4.160  -1.157  0.0000  0.0000  0.0000
  238TTP    C34 4804   2.033   4.237  -1.024  0.0000  0.0000  0.0000
  238TTP    C35 4805   1.885   4.274  -0.985  0.0000  0.0000  0.0000
  238TTP    C36 4806   1.855   4.273  -0.837  0.0000  0.0000  0.0000
  238TTP    C37 4807   1.812   4.407  -0.783  0.0000  0.0000  0.0000
  238TTP    C38 4808   1.797   4.514  -0.888  0.0000  0.0000  0.0000
  238TTP    C39 4809   1.857   4.479  -1.022  0.0000  0.0000  0.0000
  238TTP    C40 4810   1.844   4.584  -1.127  0.0000  0.0000  0.0000
  238TTP    C41 4811   1.904   4.549  -1.260  0.0000  0.0000  0.0000
  238TTP    C42 4812   1.891   4.653  -1.366  0.0000  0.0000  0.0000
  239FIC     F1 4813   2.331   4.193  -3.183  0.0000  0.0000  0.0000
  239FIC     F2 4814   2.348   4.408  -3.344  0.0000  0.0000  0.0000
  239FIC     O1 4815   2.242   4.420  -2.712  0.0000  0.0000  0.0000
  239FIC     N5 4816   2.294   4.885  -3.232  0.0000  0.0000  0.0000
  239FIC     N6 4817   2.239   5.028  -2.838  0.0000  0.0000  0.0000
  239FIC    C19 4818   2.220   4.717  -2.687  0.0000  0.0000  0.0000
  239FIC    C20 4819   2.246   4.650  -2.801  0.0000  0.0000  0.0000
  239FIC    C21 4820   2.251   4.507  -2.797  0.0000  0.0000  0.0000
  239FIC    C22 4821   2.274   4.453  -2.938  0.0000  0.0000  0.0000
  239FIC    C23 4822   2.292   4.325  -2.990  0.0000  0.0000  0.0000
  239FIC    C24 4823   2.318   4.308  -3.125  0.0000  0.0000  0.0000
  239FIC    C25 4824   2.326   4.419  -3.209  0.0000  0.0000  0.0000
  239FIC    C26 4825   2.308   4.546  -3.157  0.0000  0.0000  0.0000
  239FIC    C27 4826   2.282   4.563  -3.021  0.0000  0.0000  0.0000
  239FIC    C28 4827   2.266   4.690  -2.943  0.0000  0.0000  0.0000
  239FIC    C29 4828   2.266   4.814  -2.974  0.0000  0.0000  0.0000
  239FIC    C30 4829   2.282   4.842  -3.133  0.0000  0.0000  0.0000
  239FIC    C31 4830   2.253   4.932  -2.897  0.0000  0.0000  0.0000
  240FIC     F1 4831   2.325   3.200  -1.590  0.0000  0.0000  0.0000
  240FIC     F2 4832   2.341   3.151  -1.320  0.0000  0.0000  0.0000
  240FIC     O1 4833   2.226   3.720  -1.592  0.0000  0.0000  0.0000
  240FIC     N5 4834   2.280   3.465  -0.941  0.0000  0.0000  0.0000
  240FIC     N6 4835   2.216   3.873  -0.983  0.0000  0.0000  0.0000
  240FIC    C19 4836   2.223   3.872  -1.329  0.0000  0.0000  0.0000
  240FIC    C20 4837   2.236   3.733  -1.348  0.0000  0.0000  0.0000
  240FIC    C21 4838   2.239   3.681  -1.480  0.0000  0.0000  0.0000
  240FIC    C22 4839   2.269   3.530  -1.452  0.0000  0.0000  0.0000
  240FIC    C23 4840   2.285   3.426  -1.543  0.0000  0.0000  0.0000
  240FIC    C24 4841   2.309   3.297  -1.497  0.0000  0.0000  0.0000
  240FIC    C25 4842   2.317   3.272  -1.360  0.0000  0.0000  0.0000
  240FIC    C26 4843   2.300   3.376  -1.269  0.0000  0.0000  0.0000
  240FIC    C27 4844   2.276   3.505  -1.315  0.0000  0.0000  0.0000
  240FIC    C28 4845   2.253   3.633  -1.241  0.0000  0.0000  0.0000
  240FIC    C29 4846   2.250   3.656  -1.119  0.0000  0.0000  0.0000
  240FIC    C30 4847   2.271   3.527  -1.036  0.0000  0.0000  0.0000
  240FIC    C31 4848   2.230   3.774  -1.042  0.0000  0.0000  0.0000
  241BTD     S2 4849   4.337   1.475   1.649  0.0000  0.0000  0.0000
  241BTD     N1 4850   4.334   1.461   1.810  0.0000  0.0000  0.0000
  241BTD     N2 4851   4.354   1.322   1.603  0.0000  0.0000  0.0000
  241BTD     N3 4852   4.403   0.909   1.829  0.0000  0.0000  0.0000
  241BTD     N4 4853   4.377   1.094   2.112  0.0000  0.0000  0.0000
  241BTD     C5 4854   4.359   1.267   1.959  0.0000  0.0000  0.0000
  241BTD     C6 4855   4.353   1.326   1.834  0.0000  0.0000  0.0000
  241BTD     C7 4856   4.363   1.248   1.719  0.0000  0.0000  0.0000
  241BTD     C8 4857   4.379   1.110   1.731  0.0000  0.0000  0.0000
  241BTD    C15 4858   4.385   1.051   1.856  0.0000  0.0000  0.0000
  241BTD    C16 4859   4.375   1.130   1.971  0.0000  0.0000  0.0000
  241BTD    C43 4860   4.404   0.971   2.193  0.0000  0.0000  0.0000
  241BTD    C44 4861   4.539   0.954   2.262  0.0000  0.0000  0.0000
  241BTD    C45 4862   4.560   0.818   2.331  0.0000  0.0000  0.0000
  241BTD    C46 4863   4.457   0.817   2.448  0.0000  0.0000  0.0000
  241BTD    C47 4864   4.647   0.985   2.160  0.0000  0.0000  0.0000
  241BTD    C48 4865   4.781   0.987   2.239  0.0000  0.0000  0.0000
  241BTD    C49 4866   4.889   1.016   2.136  0.0000  0.0000  0.0000
  241BTD    C50 4867   5.025   0.993   2.205  0.0000  0.0000  0.0000
  241BTD    C75 4868   4.421   0.796   1.914  0.0000  0.0000  0.0000
  241BTD    C76 4869   4.305   0.703   1.948  0.0000  0.0000  0.0000
  241BTD    C77 4870   4.169   0.757   1.984  0.0000  0.0000  0.0000
  241BTD    C78 4871   4.049   0.668   1.943  0.0000  0.0000  0.0000
  241BTD    C79 4872   4.343   0.582   2.037  0.0000  0.0000  0.0000
  241BTD    C80 4873   4.438   0.472   1.988  0.0000  0.0000  0.0000
  241BTD    C81 4874   4.498   0.347   2.060  0.0000  0.0000  0.0000
  241BTD    C82 4875   4.480   0.239   1.974  0.0000  0.0000  0.0000
  242TTP     S1 4876   4.326   1.474   2.164  0.0000  0.0000  0.0000
  242TTP     S5 4877   4.341   1.184   2.470  0.0000  0.0000  0.0000
  242TTP     C1 4878   4.316   1.348   2.535  0.0000  0.0000  0.0000
  242TTP     C2 4879   4.312   1.453   2.438  0.0000  0.0000  0.0000
  242TTP     C3 4880   4.326   1.390   2.324  0.0000  0.0000  0.0000
  242TTP     C4 4881   4.348   1.319   2.094  0.0000  0.0000  0.0000
  242TTP    C17 4882   4.361   1.217   2.179  0.0000  0.0000  0.0000
  242TTP    C18 4883   4.346   1.262   2.312  0.0000  0.0000  0.0000
  242TTP    C32 4884   4.310   1.600   2.481  0.0000  0.0000  0.0000
  242TTP    C33 4885   4.164   1.647   2.473  0.0000  0.0000  0.0000
  242TTP    C34 4886   4.160   1.799   2.486  0.0000  0.0000  0.0000
  242TTP    C35 4887   4.022   1.853   2.518  0.0000  0.0000  0.0000
  242TTP    C36 4888   3.961   1.936   2.408  0.0000  0.0000  0.0000
  242TTP    C37 4889   3.821   1.992   2.438  0.0000  0.0000  0.0000
  242TTP    C38 4890   3.737   1.907   2.531  0.0000  0.0000  0.0000
  242TTP    C39 4891   3.815   1.797   2.601  0.0000  0.0000  0.0000
  242TTP    C40 4892   3.732   1.676   2.635  0.0000  0.0000  0.0000
  242TTP    C41 4893   3.781   1.547   2.574  0.0000  0.0000  0.0000
  242TTP    C42 4894   3.904   1.559   2.486  0.0000  0.0000  0.0000
  243TTP     S1 4895   4.391   1.002   1.458  0.0000  0.0000  0.0000
  243TTP     S5 4896   4.445   0.614   1.613  0.0000  0.0000  0.0000
  243TTP     C1 4897   4.454   0.602   1.440  0.0000  0.0000  0.0000
  243TTP     C2 4898   4.435   0.728   1.375  0.0000  0.0000  0.0000
  243TTP     C3 4899   4.416   0.826   1.473  0.0000  0.0000  0.0000
  243TTP     C4 4900   4.387   1.013   1.626  0.0000  0.0000  0.0000
  243TTP    C17 4901   4.400   0.889   1.693  0.0000  0.0000  0.0000
  243TTP    C18 4902   4.418   0.783   1.603  0.0000  0.0000  0.0000
  243TTP    C32 4903   4.455   0.756   1.224  0.0000  0.0000  0.0000
  243TTP    C33 4904   4.333   0.780   1.137  0.0000  0.0000  0.0000
  243TTP    C34 4905   4.346   0.815   0.986  0.0000  0.0000  0.0000
  243TTP    C35 4906   4.330   0.962   0.953  0.0000  0.0000  0.0000
  243TTP    C36 4907   4.324   1.012   0.808  0.0000  0.0000  0.0000
  243TTP    C37 4908   4.309   1.162   0.793  0.0000  0.0000  0.0000
  243TTP    C38 4909   4.184   1.206   0.720  0.0000  0.0000  0.0000
  243TTP    C39 4910   4.089   1.293   0.798  0.0000  0.0000  0.0000
  243TTP    C40 4911   3.969   1.332   0.716  0.0000  0.0000  0.0000
  243TTP    C41 4912   3.869   1.419   0.787  0.0000  0.0000  0.0000
  243TTP    C42 4913   3.747   1.459   0.706  0.0000  0.0000  0.0000
  244FIC     F1 4914   4.251   0.834   3.178  0.0000  0.0000  0.0000
  244FIC     F2 4915   4.222   1.043   3.339  0.0000  0.0000  0.0000
  244FIC     O1 4916   4.314   1.065   2.701  0.0000  0.0000  0.0000
  244FIC     N5 4917   4.193   1.512   3.218  0.0000  0.0000  0.0000
  244FIC     N6 4918   4.272   1.676   2.830  0.0000  0.0000  0.0000
  244FIC    C19 4919   4.298   1.370   2.678  0.0000  0.0000  0.0000
  244FIC    C20 4920   4.291   1.288   2.787  0.0000  0.0000  0.0000
  244FIC    C21 4921   4.293   1.148   2.794  0.0000  0.0000  0.0000
  244FIC    C22 4922   4.274   1.096   2.934  0.0000  0.0000  0.0000
  244FIC    C23 4923   4.274   0.970   2.993  0.0000  0.0000  0.0000
  244FIC    C24 4924   4.255   0.958   3.130  0.0000  0.0000  0.0000
  244FIC    C25 4925   4.235   1.071   3.208  0.0000  0.0000  0.0000
  244FIC    C26 4926   4.234   1.197   3.149  0.0000  0.0000  0.0000
  244FIC    C27 4927   4.253   1.209   3.012  0.0000  0.0000  0.0000
  244FIC    C28 4928   4.264   1.333   2.937  0.0000  0.0000  0.0000
  244FIC    C29 4929   4.246   1.460   2.970  0.0000  0.0000  0.0000
  244FIC    C30 4930   4.215   1.489   3.105  0.0000  0.0000  0.0000
  244FIC    C31 4931   4.258   1.578   2.895  0.0000  0.0000  0.0000
  245FIC     F1 4932   4.587  -0.168   1.669  0.0000  0.0000  0.0000
  245FIC     F2 4933   4.612  -0.230   1.419  0.0000  0.0000  0.0000
  245FIC     O1 4934   4.485   0.355   1.634  0.0000  0.0000  0.0000
  245FIC     N5 4935   4.563   0.043   1.017  0.0000  0.0000  0.0000
  245FIC     N6 4936   4.494   0.460   1.028  0.0000  0.0000  0.0000
  245FIC    C19 4937   4.476   0.485   1.366  0.0000  0.0000  0.0000
  245FIC    C20 4938   4.494   0.351   1.393  0.0000  0.0000  0.0000
  245FIC    C21 4939   4.501   0.302   1.521  0.0000  0.0000  0.0000
  245FIC    C22 4940   4.525   0.153   1.521  0.0000  0.0000  0.0000
  245FIC    C23 4941   4.545   0.057   1.618  0.0000  0.0000  0.0000
  245FIC    C24 4942   4.570  -0.071   1.575  0.0000  0.0000  0.0000
  245FIC    C25 4943   4.587  -0.102   1.442  0.0000  0.0000  0.0000
  245FIC    C26 4944   4.568  -0.016   1.346  0.0000  0.0000  0.0000
  245FIC    C27 4945   4.540   0.115   1.386  0.0000  0.0000  0.0000
  245FIC    C28 4946   4.520   0.240   1.306  0.0000  0.0000  0.0000
  245FIC    C29 4947   4.523   0.249   1.168  0.0000  0.0000  0.0000
  245FIC    C30 4948   4.545   0.141   1.087  0.0000  0.0000  0.0000
  245FIC    C31 4949   4.509   0.364   1.096  0.0000  0.0000  0.0000
  246BTD     S2 4950   4.055   1.008   1.659  0.0000  0.0000  0.0000
  246BTD     N1 4951   4.047   1.027   1.827  0.0000  0.0000  0.0000
  246BTD     N2 4952   4.032   1.161   1.613  0.0000  0.0000  0.0000
  246BTD     N3 4953   3.981   1.582   1.820  0.0000  0.0000  0.0000
  246BTD     N4 4954   3.968   1.394   2.112  0.0000  0.0000  0.0000
  246BTD     C5 4955   4.010   1.228   1.966  0.0000  0.0000  0.0000
  246BTD     C6 4956   4.031   1.168   1.845  0.0000  0.0000  0.0000
  246BTD     C7 4957   4.014   1.230   1.725  0.0000  0.0000  0.0000
  246BTD     C8 4958   3.997   1.371   1.733  0.0000  0.0000  0.0000
  246BTD    C15 4959   3.988   1.448   1.851  0.0000  0.0000  0.0000
  246BTD    C16 4960   3.987   1.363   1.976  0.0000  0.0000  0.0000
  246BTD    C43 4961   3.921   1.520   2.172  0.0000  0.0000  0.0000
  246BTD    C44 4962   3.769   1.547   2.160  0.0000  0.0000  0.0000
  246BTD    C45 4963   3.749   1.681   2.239  0.0000  0.0000  0.0000
  246BTD    C46 4964   3.643   1.770   2.171  0.0000  0.0000  0.0000
  246BTD    C47 4965   3.693   1.431   2.221  0.0000  0.0000  0.0000
  246BTD    C48 4966   3.540   1.439   2.215  0.0000  0.0000  0.0000
  246BTD    C49 4967   3.442   1.335   2.269  0.0000  0.0000  0.0000
  246BTD    C50 4968   3.530   1.210   2.236  0.0000  0.0000  0.0000
  246BTD    C75 4969   3.947   1.699   1.904  0.0000  0.0000  0.0000
  246BTD    C76 4970   4.059   1.801   1.931  0.0000  0.0000  0.0000
  246BTD    C77 4971   4.180   1.735   1.989  0.0000  0.0000  0.0000
  246BTD    C78 4972   4.306   1.826   1.999  0.0000  0.0000  0.0000
  246BTD    C79 4973   4.016   1.905   2.037  0.0000  0.0000  0.0000
  246BTD    C80 4974   3.933   2.012   1.965  0.0000  0.0000  0.0000
  246BTD    C81 4975   3.897   2.128   2.063  0.0000  0.0000  0.0000
  246BTD    C82 4976   3.784   2.208   1.994  0.0000  0.0000  0.0000
  247TTP     S1 4977   4.030   1.024   2.177  0.0000  0.0000  0.0000
  247TTP     S5 4978   3.960   1.317   2.470  0.0000  0.0000  0.0000
  247TTP     C1 4979   3.981   1.164   2.547  0.0000  0.0000  0.0000
  247TTP     C2 4980   4.000   1.056   2.458  0.0000  0.0000  0.0000
  247TTP     C3 4981   4.005   1.102   2.323  0.0000  0.0000  0.0000
  247TTP     C4 4982   4.006   1.180   2.093  0.0000  0.0000  0.0000
  247TTP    C17 4983   3.986   1.274   2.186  0.0000  0.0000  0.0000
  247TTP    C18 4984   3.981   1.240   2.322  0.0000  0.0000  0.0000
  247TTP    C32 4985   4.022   0.904   2.494  0.0000  0.0000  0.0000
  247TTP    C33 4986   4.099   0.821   2.392  0.0000  0.0000  0.0000
  247TTP    C34 4987   4.119   0.679   2.446  0.0000  0.0000  0.0000
  247TTP    C35 4988   4.173   0.586   2.338  0.0000  0.0000  0.0000
  247TTP    C36 4989   4.217   0.447   2.388  0.0000  0.0000  0.0000
  247TTP    C37 4990   4.272   0.352   2.286  0.0000  0.0000  0.0000
  247TTP    C38 4991   4.193   0.218   2.272  0.0000  0.0000  0.0000
  247TTP    C39 4992   4.195   0.128   2.396  0.0000  0.0000  0.0000
  247TTP    C40 4993   4.118  -0.002   2.381  0.0000  0.0000  0.0000
  247TTP    C41 4994   4.168  -0.091   2.271  0.0000  0.0000  0.0000
  247TTP    C42 4995   4.162  -0.028   2.128  0.0000  0.0000  0.0000
  248TTP     S1 4996   4.011   1.472   1.454  0.0000  0.0000  0.0000
  248TTP     S5 4997   3.973   1.870   1.587  0.0000  0.0000  0.0000
  248TTP     C1 4998   3.982   1.869   1.413  0.0000  0.0000  0.0000
  248TTP     C2 4999   3.991   1.741   1.359  0.0000  0.0000  0.0000
  248TTP     C3 5000   3.999   1.645   1.459  0.0000  0.0000  0.0000
  248TTP     C4 5001   4.001   1.464   1.629  0.0000  0.0000  0.0000
  248TTP    C17 5002   3.993   1.590   1.681  0.0000  0.0000  0.0000
  248TTP    C18 5003   3.989   1.703   1.586  0.0000  0.0000  0.0000
  248TTP    C32 5004   3.995   1.704   1.211  0.0000  0.0000  0.0000
  248TTP    C33 5005   4.142   1.698   1.157  0.0000  0.0000  0.0000
  248TTP    C34 5006   4.156   1.621   1.024  0.0000  0.0000  0.0000
  248TTP    C35 5007   4.304   1.584   0.985  0.0000  0.0000  0.0000
  248TTP    C36 5008   4.334   1.585   0.837  0.0000  0.0000  0.0000
  248TTP    C37 5009   4.377   1.451   0.783  0.0000  0.0000  0.0000
  248TTP    C38 5010   4.392   1.344   0.888  0.0000  0.0000  0.0000
  248TTP    C39 5011   4.332   1.379   1.022  0.0000  0.0000  0.0000
  248TTP    C40 5012   4.345   1.274   1.127  0.0000  0.0000  0.0000
  248TTP    C41 5013   4.285   1.309   1.260  0.0000  0.0000  0.0000
  248TTP    C42 5014   4.298   1.205   1.366  0.0000  0.0000  0.0000
  249FIC     F1 5015   3.858   1.665   3.183  0.0000  0.0000  0.0000
  249FIC     F2 5016   3.841   1.450   3.344  0.0000  0.0000  0.0000
  249FIC     O1 5017   3.947   1.438   2.712  0.0000  0.0000  0.0000
  249FIC     N5 5018   3.895   0.973   3.232  0.0000  0.0000  0.0000
  249FIC     N6 5019   3.950   0.830   2.838  0.0000  0.0000  0.0000
  249FIC    C19 5020   3.969   1.141   2.687  0.0000  0.0000  0.0000
  249FIC    C20 5021   3.943   1.208   2.801  0.0000  0.0000  0.0000
  249FIC    C21 5022   3.938   1.351   2.797  0.0000  0.0000  0.0000
  249FIC    C22 5023   3.915   1.405   2.938  0.0000  0.0000  0.0000
  249FIC    C23 5024   3.897   1.533   2.990  0.0000  0.0000  0.0000
  249FIC    C24 5025   3.871   1.550   3.125  0.0000  0.0000  0.0000
  249FIC    C25 5026   3.863   1.439   3.209  0.0000  0.0000  0.0000
  249FIC    C26 5027   3.881   1.312   3.157  0.0000  0.0000  0.0000
  249FIC    C27 5028   3.907   1.295   3.021  0.0000  0.0000  0.0000
  249FIC    C28 5029   3.923   1.168   2.943  0.0000  0.0000  0.0000
  249FIC    C29 5030   3.923   1.044   2.974  0.0000  0.0000  0.0000
  249FIC    C30 5031   3.907   1.016   3.133  0.0000  0.0000  0.0000
  249FIC    C31 5032   3.936   0.926   2.897  0.0000  0.0000  0.0000
  250FIC     F1 5033   3.864   2.658   1.590  0.0000  0.0000  0.0000
  250FIC     F2 5034   3.848   2.707   1.320  0.0000  0.0000  0.0000
  250FIC     O1 5035   3.963   2.138   1.592  0.0000  0.0000  0.0000
  250FIC     N5 5036   3.909   2.393   0.941  0.0000  0.0000  0.0000
  250FIC     N6 5037   3.973   1.985   0.983  0.0000  0.0000  0.0000
  250FIC    C19 5038   3.966   1.986   1.329  0.0000  0.0000  0.0000
  250FIC    C20 5039   3.953   2.125   1.348  0.0000  0.0000  0.0000
  250FIC    C21 5040   3.950   2.177   1.480  0.0000  0.0000  0.0000
  250FIC    C22 5041   3.920   2.328   1.452  0.0000  0.0000  0.0000
  250FIC    C23 5042   3.904   2.432   1.543  0.0000  0.0000  0.0000
  250FIC    C24 5043   3.880   2.561   1.497  0.0000  0.0000  0.0000
  250FIC    C25 5044   3.872   2.586   1.360  0.0000  0.0000  0.0000
  250FIC    C26 5045   3.889   2.482   1.269  0.0000  0.0000  0.0000
  250FIC    C27 5046   3.913   2.353   1.315  0.0000  0.0000  0.0000
  250FIC    C28 5047   3.936   2.225   1.241  0.0000  0.0000  0.0000
  250FIC    C29 5048   3.939   2.202   1.119  0.0000  0.0000  0.0000
  250FIC    C30 5049   3.918   2.331   1.036  0.0000  0.0000  0.0000
  250FIC    C31 5050   3.959   2.084   1.042  0.0000  0.0000  0.0000
  251BTD     S2 5051   3.899  -1.475  -1.649  0.0000  0.0000  0.0000
  251BTD     N1 5052   3.902  -1.461  -1.810  0.0000  0.0000  0.0000
  251BTD     N2 5053   3.882  -1.322  -1.603  0.0000  0.0000  0.0000
  251BTD     N3 5054   3.833  -0.909  -1.829  0.0000  0.0000  0.0000
  251BTD     N4 5055   3.859  -1.094  -2.112  0.0000  0.0000  0.0000
  251BTD     C5 5056   3.877  -1.267  -1.959  0.0000  0.0000  0.0000
  251BTD     C6 5057   3.883  -1.326  -1.834  0.0000  0.0000  0.0000
  251BTD     C7 5058   3.873  -1.248  -1.719  0.0000  0.0000  0.0000
  251BTD     C8 5059   3.857  -1.110  -1.731  0.0000  0.0000  0.0000
  251BTD    C15 5060   3.851  -1.051  -1.856  0.0000  0.0000  0.0000
  251BTD    C16 5061   3.861  -1.130  -1.971  0.0000  0.0000  0.0000
  251BTD    C43 5062   3.832  -0.971  -2.193  0.0000  0.0000  0.0000
  251BTD    C44 5063   3.697  -0.954  -2.262  0.0000  0.0000  0.0000
  251BTD    C45 5064   3.676  -0.818  -2.331  0.0000  0.0000  0.0000
  251BTD    C46 5065   3.779  -0.817  -2.448  0.0000  0.0000  0.0000
  251BTD    C47 5066   3.589  -0.985  -2.160  0.0000  0.0000  0.0000
  251BTD    C48 5067   3.455  -0.987  -2.239  0.0000  0.0000  0.0000
  251BTD    C49 5068   3.347  -1.016  -2.136  0.0000  0.0000  0.0000
  251BTD    C50 5069   3.211  -0.993  -2.205  0.0000  0.0000  0.0000
  251BTD    C75 5070   3.815  -0.796  -1.914  0.0000  0.0000  0.0000
  251BTD    C76 5071   3.931  -0.703  -1.948  0.0000  0.0000  0.0000
  251BTD    C77 5072   4.067  -0.757  -1.984  0.0000  0.0000  0.0000
  251BTD    C78 5073   4.187  -0.668  -1.943  0.0000  0.0000  0.0000
  251BTD    C79 5074   3.893  -0.582  -2.037  0.0000  0.0000  0.0000
  251BTD    C80 5075   3.798  -0.472  -1.988  0.0000  0.0000  0.0000
  251BTD    C81 5076   3.738  -0.347  -2.060  0.0000  0.0000  0.0000
  251BTD    C82 5077   3.756  -0.239  -1.974  0.0000  0.0000  0.0000
  252TTP     S1 5078   3.910  -1.474  -2.164  0.0000  0.0000  0.0000
  252TTP     S5 5079   3.895  -1.184  -2.470  0.0000  0.0000  0.0000
  252TTP     C1 5080   3.920  -1.348  -2.535  0.0000  0.0000  0.0000
  252TTP     C2 5081   3.924  -1.453  -2.438  0.0000  0.0000  0.0000
  252TTP     C3 5082   3.910  -1.390  -2.324  0.0000  0.0000  0.0000
  252TTP     C4 5083   3.888  -1.319  -2.094  0.0000  0.0000  0.0000
  252TTP    C17 5084   3.875  -1.217  -2.179  0.0000  0.0000  0.0000
  252TTP    C18 5085   3.890  -1.262  -2.312  0.0000  0.0000  0.0000
  252TTP    C32 5086   3.926  -1.600  -2.481  0.0000  0.0000  0.0000
  252TTP    C33 5087   4.072  -1.647  -2.473  0.0000  0.0000  0.0000
  252TTP    C34 5088   4.076  -1.799  -2.486  0.0000  0.0000  0.0000
  252TTP    C35 5089   4.214  -1.853  -2.518  0.0000  0.0000  0.0000
  252TTP    C36 5090   4.275  -1.936  -2.408  0.0000  0.0000  0.0000
  252TTP    C37 5091   4.415  -1.992  -2.438  0.0000  0.0000  0.0000
  252TTP    C38 5092   4.499  -1.907  -2.531  0.0000  0.0000  0.0000
  252TTP    C39 5093   4.421  -1.797  -2.601  0.0000  0.0000  0.0000
  252TTP    C40 5094   4.504  -1.676  -2.635  0.0000  0.0000  0.0000
  252TTP    C41 5095   4.455  -1.547  -2.574  0.0000  0.0000  0.0000
  252TTP    C42 5096   4.332  -1.559  -2.486  0.0000  0.0000  0.0000
  253TTP     S1 5097   3.845  -1.002  -1.458  0.0000  0.0000  0.0000
  253TTP     S5 5098   3.791  -0.614  -1.613  0.0000  0.0000  0.0000
  253TTP     C1 5099   3.782  -0.602  -1.440  0.0000  0.0000  0.0000
  253TTP     C2 5100   3.801  -0.728  -1.375  0.0000  0.0000  0.0000
  253TTP     C3 5101   3.820  -0.826  -1.473  0.0000  0.0000  0.0000
  253TTP     C4 5102   3.849  -1.013  -1.626  0.0000  0.0000  0.0000
  253TTP    C17 5103   3.836  -0.889  -1.693  0.0000  0.0000  0.0000
  253TTP    C18 5104   3.818  -0.783  -1.603  0.0000  0.0000  0.0000
  253TTP    C32 5105   3.781  -0.756  -1.224  0.0000  0.0000  0.0000
  253TTP    C33 5106   3.903  -0.780  -1.137  0.0000  0.0000  0.0000
  253TTP    C34 5107   3.890  -0.815  -0.986  0.0000  0.0000  0.0000
  253TTP    C35 5108   3.906  -0.962  -0.953  0.0000  0.0000  0.0000
  253TTP    C36 5109   3.912  -1.012  -0.808  0.0000  0.0000  0.0000
  253TTP    C37 5110   3.927  -1.162  -0.793  0.0000  0.0000  0.0000
  253TTP    C38 5111   4.052  -1.206  -0.720  0.0000  0.0000  0.0000
  253TTP    C39 5112   4.147  -1.293  -0.798  0.0000  0.0000  0.0000
  253TTP    C40 5113   4.267  -1.332  -0.716  0.0000  0.0000  0.0000
  253TTP    C41 5114   4.367  -1.419  -0.787  0.0000  0.0000  0.0000
  253TTP    C42 5115   4.489  -1.459  -0.706  0.0000  0.0000  0.0000
  254FIC     F1 5116   3.985  -0.834  -3.178  0.0000  0.0000  0.0000
  254FIC     F2 5117   4.014  -1.043  -3.339  0.0000  0.0000  0.0000
  254FIC     O1 5118   3.922  -1.065  -2.701  0.0000  0.0000  0.0000
  254FIC     N5 5119   4.044  -1.512  -3.218  0.0000  0.0000  0.0000
  254FIC     N6 5120   3.964  -1.676  -2.830  0.0000  0.0000  0.0000
  254FIC    C19 5121   3.938  -1.370  -2.678  0.0000  0.0000  0.0000
  254FIC    C20 5122   3.945  -1.288  -2.787  0.0000  0.0000  0.0000
  254FIC    C21 5123   3.943  -1.148  -2.794  0.0000  0.0000  0.0000
  254FIC    C22 5124   3.963  -1.096  -2.934  0.0000  0.0000  0.0000
  254FIC    C23 5125   3.962  -0.970  -2.993  0.0000  0.0000  0.0000
  254FIC    C24 5126   3.981  -0.958  -3.130  0.0000  0.0000  0.0000
  254FIC    C25 5127   4.001  -1.071  -3.208  0.0000  0.0000  0.0000
  254FIC    C26 5128   4.002  -1.197  -3.149  0.0000  0.0000  0.0000
  254FIC    C27 5129   3.983  -1.209  -3.012  0.0000  0.0000  0.0000
  254FIC    C28 5130   3.972  -1.333  -2.937  0.0000  0.0000  0.0000
  254FIC    C29 5131   3.990  -1.460  -2.970  0.0000  0.0000  0.0000
  254FIC    C30 5132   4.021  -1.489  -3.105  0.0000  0.0000  0.0000
  254FIC    C31 5133   3.978  -1.578  -2.895  0.0000  0.0000  0.0000
  255FIC     F1 5134   3.650   0.168  -1.669  0.0000  0.0000  0.0000
  255FIC     F2 5135   3.624   0.230  -1.419  0.0000  0.0000  0.0000
  255FIC     O1 5136   3.751  -0.355  -1.634  0.0000  0.0000  0.0000
  255FIC     N5 5137   3.673  -0.043  -1.017  0.0000  0.0000  0.0000
  255FIC     N6 5138   3.743  -0.460  -1.028  0.0000  0.0000  0.0000
  255FIC    C19 5139   3.760  -0.485  -1.366  0.0000  0.0000  0.0000
  255FIC    C20 5140   3.742  -0.351  -1.393  0.0000  0.0000  0.0000
  255FIC    C21 5141   3.735  -0.302  -1.521  0.0000  0.0000  0.0000
  255FIC    C22 5142   3.711  -0.153  -1.521  0.0000  0.0000  0.0000
  255FIC    C23 5143   3.691  -0.057  -1.618  0.0000  0.0000  0.0000
  255FIC    C24 5144   3.666   0.070  -1.575  0.0000  0.0000  0.0000
  255FIC    C25 5145   3.649   0.102  -1.442  0.0000  0.0000  0.0000
  255FIC    C26 5146   3.668   0.016  -1.346  0.0000  0.0000  0.0000
  255FIC    C27 5147   3.696  -0.115  -1.386  0.0000  0.0000  0.0000
  255FIC    C28 5148   3.716  -0.240  -1.306  0.0000  0.0000  0.0000
  255FIC    C29 5149   3.713  -0.249  -1.168  0.0000  0.0000  0.0000
  255FIC    C30 5150   3.691  -0.141  -1.087  0.0000  0.0000  0.0000
  255FIC    C31 5151   3.727  -0.364  -1.096  0.0000  0.0000  0.0000
  256BTD     S2 5152   4.181  -1.008  -1.659  0.0000  0.0000  0.0000
  256BTD     N1 5153   4.189  -1.027  -1.827  0.0000  0.0000  0.0000
  256BTD     N2 5154   4.204  -1.161  -1.613  0.0000  0.0000  0.0000
  256BTD     N3 5155   4.255  -1.582  -1.820  0.0000  0.0000  0.0000
  256BTD     N4 5156   4.268  -1.394  -2.112  0.0000  0.0000  0.0000
  256BTD     C5 5157   4.226  -1.228  -1.966  0.0000  0.0000  0.0000
  256BTD     C6 5158   4.205  -1.168  -1.845  0.0000  0.0000  0.0000
  256BTD     C7 5159   4.222  -1.230  -1.725  0.0000  0.0000  0.0000
  256BTD     C8 5160   4.239  -1.371  -1.733  0.0000  0.0000  0.0000
  256BTD    C15 5161   4.248  -1.448  -1.851  0.0000  0.0000  0.0000
  256BTD    C16 5162   4.249  -1.363  -1.976  0.0000  0.0000  0.0000
  256BTD    C43 5163   4.315  -1.520  -2.172  0.0000  0.0000  0.0000
  256BTD    C44 5164   4.467  -1.547  -2.160  0.0000  0.0000  0.0000
  256BTD    C45 5165   4.487  -1.681  -2.239  0.0000  0.0000  0.0000
  256BTD    C46 5166   4.593  -1.770  -2.171  0.0000  0.0000  0.0000
  256BTD    C47 5167   4.543  -1.431  -2.221  0.0000  0.0000  0.0000
  256BTD    C48 5168   4.696  -1.439  -2.215  0.0000  0.0000  0.0000
  256BTD    C49 5169   4.794  -1.335  -2.269  0.0000  0.0000  0.0000
  256BTD    C50 5170   4.706  -1.210  -2.236  0.0000  0.0000  0.0000
  256BTD    C75 5171   4.289  -1.699  -1.904  0.0000  0.0000  0.0000
  256BTD    C76 5172   4.178  -1.801  -1.931  0.0000  0.0000  0.0000
  256BTD    C77 5173   4.056  -1.735  -1.989  0.0000  0.0000  0.0000
  256BTD    C78 5174   3.930  -1.826  -1.999  0.0000  0.0000  0.0000
  256BTD    C79 5175   4.220  -1.905  -2.037  0.0000  0.0000  0.0000
  256BTD    C80 5176   4.303  -2.012  -1.965  0.0000  0.0000  0.0000
  256BTD    C81 5177   4.339  -2.128  -2.063  0.0000  0.0000  0.0000
  256BTD    C82 5178   4.452  -2.208  -1.994  0.0000  0.0000  0.0000
  257TTP     S1 5179   4.206  -1.024  -2.177  0.0000  0.0000  0.0000
  257TTP     S5 5180   4.276  -1.317  -2.470  0.0000  0.0000  0.0000
  257TTP     C1 5181   4.255  -1.164  -2.547  0.0000  0.0000  0.0000
  257TTP     C2 5182   4.236  -1.056  -2.458  0.0000  0.0000  0.0000
  257TTP     C3 5183   4.231  -1.102  -2.323  0.0000  0.0000  0.0000
  257TTP     C4 5184   4.230  -1.180  -2.093  0.0000  0.0000  0.0000
  257TTP    C17 5185   4.250  -1.274  -2.186  0.0000  0.0000  0.0000
  257TTP    C18 5186   4.255  -1.240  -2.322  0.0000  0.0000  0.0000
  257TTP    C32 5187   4.214  -0.904  -2.494  0.0000  0.0000  0.0000
  257TTP    C33 5188   4.137  -0.821  -2.392  0.0000  0.0000  0.0000
  257TTP    C34 5189   4.117  -0.679  -2.446  0.0000  0.0000  0.0000
  257TTP    C35 5190   4.063  -0.586  -2.338  0.0000  0.0000  0.0000
  257TTP    C36 5191   4.019  -0.447  -2.388  0.0000  0.0000  0.0000
  257TTP    C37 5192   3.964  -0.352  -2.286  0.0000  0.0000  0.0000
  257TTP    C38 5193   4.043  -0.218  -2.272  0.0000  0.0000  0.0000
  257TTP    C39 5194   4.042  -0.128  -2.396  0.0000  0.0000  0.0000
  257TTP    C40 5195   4.118   0.002  -2.381  0.0000  0.0000  0.0000
  257TTP    C41 5196   4.068   0.091  -2.271  0.0000  0.0000  0.0000
  257TTP    C42 5197   4.074   0.028  -2.128  0.0000  0.0000  0.0000
  258TTP     S1 5198   4.225  -1.472  -1.454  0.0000  0.0000  0.0000
  258TTP     S5 5199   4.263  -1.870  -1.587  0.0000  0.0000  0.0000
  258TTP     C1 5200   4.254  -1.869  -1.413  0.0000  0.0000  0.0000
  258TTP     C2 5201   4.245  -1.741  -1.359  0.0000  0.0000  0.0000
  258TTP     C3 5202   4.237  -1.645  -1.459  0.0000  0.0000  0.0000
  258TTP     C4 5203   4.235  -1.464  -1.629  0.0000  0.0000  0.0000
  258TTP    C17 5204   4.243  -1.590  -1.681  0.0000  0.0000  0.0000
  258TTP    C18 5205   4.247  -1.703  -1.586  0.0000  0.0000  0.0000
  258TTP    C32 5206   4.241  -1.704  -1.211  0.0000  0.0000  0.0000
  258TTP    C33 5207   4.094  -1.698  -1.157  0.0000  0.0000  0.0000
  258TTP    C34 5208   4.080  -1.621  -1.024  0.0000  0.0000  0.0000
  258TTP    C35 5209   3.932  -1.584  -0.985  0.0000  0.0000  0.0000
  258TTP    C36 5210   3.902  -1.585  -0.837  0.0000  0.0000  0.0000
  258TTP    C37 5211   3.859  -1.451  -0.783  0.0000  0.0000  0.0000
  258TTP    C38 5212   3.844  -1.344  -0.888  0.0000  0.0000  0.0000
  258TTP    C39 5213   3.904  -1.379  -1.022  0.0000  0.0000  0.0000
  258TTP    C40 5214   3.891  -1.274  -1.127  0.0000  0.0000  0.0000
  258TTP    C41 5215   3.951  -1.309  -1.260  0.0000  0.0000  0.0000
  258TTP    C42 5216   3.938  -1.205  -1.366  0.0000  0.0000  0.0000
  259FIC     F1 5217   4.378  -1.665  -3.183  0.0000  0.0000  0.0000
  259FIC     F2 5218   4.395  -1.450  -3.344  0.0000  0.0000  0.0000
  259FIC     O1 5219   4.289  -1.438  -2.712  0.0000  0.0000  0.0000
  259FIC     N5 5220   4.341  -0.973  -3.232  0.0000  0.0000  0.0000
  259FIC     N6 5221   4.286  -0.830  -2.838  0.0000  0.0000  0.0000
  259FIC    C19 5222   4.267  -1.141  -2.687  0.0000  0.0000  0.0000
  259FIC    C20 5223   4.293  -1.208  -2.801  0.0000  0.0000  0.0000
  259FIC    C21 5224   4.298  -1.351  -2.797  0.0000  0.0000  0.0000
  259FIC    C22 5225   4.321  -1.405  -2.938  0.0000  0.0000  0.0000
  259FIC    C23 5226   4.339  -1.533  -2.990  0.0000  0.0000  0.0000
  259FIC    C24 5227   4.365  -1.550  -3.125  0.0000  0.0000  0.0000
  259FIC    C25 5228   4.373  -1.439  -3.209  0.0000  0.0000  0.0000
  259FIC    C26 5229   4.355  -1.312  -3.157  0.0000  0.0000  0.0000
  259FIC    C27 5230   4.329  -1.295  -3.021  0.0000  0.0000  0.0000
  259FIC    C28 5231   4.313  -1.168  -2.943  0.0000  0.0000  0.0000
  259FIC    C29 5232   4.313  -1.044  -2.974  0.0000  0.0000  0.0000
  259FIC    C30 5233   4.329  -1.016  -3.133  0.0000  0.0000  0.0000
  259FIC    C31 5234   4.300  -0.926  -2.897  0.0000  0.0000  0.0000
  260FIC     F1 5235   4.372  -2.658  -1.590  0.0000  0.0000  0.0000
  260FIC     F2 5236   4.388  -2.707  -1.320  0.0000  0.0000  0.0000
  260FIC     O1 5237   4.273  -2.138  -1.592  0.0000  0.0000  0.0000
  260FIC     N5 5238   4.327  -2.393  -0.941  0.0000  0.0000  0.0000
  260FIC     N6 5239   4.263  -1.985  -0.983  0.0000  0.0000  0.0000
  260FIC    C19 5240   4.270  -1.986  -1.329  0.0000  0.0000  0.0000
  260FIC    C20 5241   4.283  -2.125  -1.348  0.0000  0.0000  0.0000
  260FIC    C21 5242   4.286  -2.177  -1.480  0.0000  0.0000  0.0000
  260FIC    C22 5243   4.316  -2.328  -1.452  0.0000  0.0000  0.0000
  260FIC    C23 5244   4.332  -2.432  -1.543  0.0000  0.0000  0.0000
  260FIC    C24 5245   4.356  -2.561  -1.497  0.0000  0.0000  0.0000
  260FIC    C25 5246   4.364  -2.586  -1.360  0.0000  0.0000  0.0000
  260FIC    C26 5247   4.347  -2.482  -1.269  0.0000  0.0000  0.0000
  260FIC    C27 5248   4.323  -2.353  -1.315  0.0000  0.0000  0.0000
  260FIC    C28 5249   4.300  -2.225  -1.241  0.0000  0.0000  0.0000
  260FIC    C29 5250   4.297  -2.202  -1.119  0.0000  0.0000  0.0000
  260FIC    C30 5251   4.318  -2.331  -1.036  0.0000  0.0000  0.0000
  260FIC    C31 5252   4.277  -2.084  -1.042  0.0000  0.0000  0.0000
  261BTD     S2 5253   4.112   3.428   1.649  0.0000  0.0000  0.0000
  261BTD     N1 5254   4.109   3.414   1.810  0.0000  0.0000  0.0000
  261BTD     N2 5255   4.129   3.275   1.603  0.0000  0.0000  0.0000
  261BTD     N3 5256   4.178   2.862   1.829  0.0000  0.0000  0.0000
  261BTD     N4 5257   4.152   3.047   2.112  0.0000  0.0000  0.0000
  261BTD     C5 5258   4.134   3.220   1.959  0.0000  0.0000  0.0000
  261BTD     C6 5259   4.128   3.279   1.834  0.0000  0.0000  0.0000
  261BTD     C7 5260   4.138   3.201   1.719  0.0000  0.0000  0.0000
  261BTD     C8 5261   4.154   3.063   1.731  0.0000  0.0000  0.0000
  261BTD    C15 5262   4.160   3.004   1.856  0.0000  0.0000  0.0000
  261BTD    C16 5263   4.150   3.083   1.971  0.0000  0.0000  0.0000
  261BTD    C43 5264   4.179   2.924   2.193  0.0000  0.0000  0.0000
  261BTD    C44 5265   4.314   2.907   2.262  0.0000  0.0000  0.0000
  261BTD    C45 5266   4.335   2.771   2.331  0.0000  0.0000  0.0000
  261BTD    C46 5267   4.232   2.770   2.448  0.0000  0.0000  0.0000
  261BTD    C47 5268   4.422   2.938   2.160  0.0000  0.0000  0.0000
  261BTD    C48 5269   4.556   2.940   2.239  0.0000  0.0000  0.0000
  261BTD    C49 5270   4.664   2.969   2.136  0.0000  0.0000  0.0000
  261BTD    C50 5271   4.800   2.946   2.205  0.0000  0.0000  0.0000
  261BTD    C75 5272   4.196   2.749   1.914  0.0000  0.0000  0.0000
  261BTD    C76 5273   4.080   2.656   1.948  0.0000  0.0000  0.0000
  261BTD    C77 5274   3.944   2.710   1.984  0.0000  0.0000  0.0000
  261BTD    C78 5275   3.824   2.621   1.943  0.0000  0.0000  0.0000
  261BTD    C79 5276   4.118   2.535   2.037  0.0000  0.0000  0.0000
  261BTD    C80 5277   4.213   2.425   1.988  0.0000  0.0000  0.0000
  261BTD    C81 5278   4.273   2.300   2.060  0.0000  0.0000  0.0000
  261BTD    C82 5279   4.255   2.192   1.974  0.0000  0.0000  0.0000
  262TTP     S1 5280   4.101   3.427   2.164  0.0000  0.0000  0.0000
  262TTP     S5 5281   4.116   3.137   2.470  0.0000  0.0000  0.0000
  262TTP     C1 5282   4.091   3.301   2.535  0.0000  0.0000  0.0000
  262TTP     C2 5283   4.087   3.406   2.438  0.0000  0.0000  0.0000
  262TTP     C3 5284   4.101   3.343   2.324  0.0000  0.0000  0.0000
  262TTP     C4 5285   4.123   3.272   2.094  0.0000  0.0000  0.0000
  262TTP    C17 5286   4.136   3.170   2.179  0.0000  0.0000  0.0000
  262TTP    C18 5287   4.121   3.215   2.312  0.0000  0.0000  0.0000
  262TTP    C32 5288   4.085   3.553   2.481  0.0000  0.0000  0.0000
  262TTP    C33 5289   3.939   3.600   2.473  0.0000  0.0000  0.0000
  262TTP    C34 5290   3.935   3.752   2.486  0.0000  0.0000  0.0000
  262TTP    C35 5291   3.797   3.806   2.518  0.0000  0.0000  0.0000
  262TTP    C36 5292   3.736   3.889   2.408  0.0000  0.0000  0.0000
  262TTP    C37 5293   3.596   3.945   2.438  0.0000  0.0000  0.0000
  262TTP    C38 5294   3.512   3.860   2.531  0.0000  0.0000  0.0000
  262TTP    C39 5295   3.590   3.750   2.601  0.0000  0.0000  0.0000
  262TTP    C40 5296   3.507   3.629   2.635  0.0000  0.0000  0.0000
  262TTP    C41 5297   3.556   3.500   2.574  0.0000  0.0000  0.0000
  262TTP    C42 5298   3.679   3.512   2.486  0.0000  0.0000  0.0000
  263TTP     S1 5299   4.166   2.955   1.458  0.0000  0.0000  0.0000
  263TTP     S5 5300   4.220   2.567   1.613  0.0000  0.0000  0.0000
  263TTP     C1 5301   4.229   2.555   1.440  0.0000  0.0000  0.0000
  263TTP     C2 5302   4.210   2.681   1.375  0.0000  0.0000  0.0000
  263TTP     C3 5303   4.191   2.779   1.473  0.0000  0.0000  0.0000
  263TTP     C4 5304   4.162   2.966   1.626  0.0000  0.0000  0.0000
  263TTP    C17 5305   4.175   2.842   1.693  0.0000  0.0000  0.0000
  263TTP    C18 5306   4.193   2.736   1.603  0.0000  0.0000  0.0000
  263TTP    C32 5307   4.230   2.709   1.224  0.0000  0.0000  0.0000
  263TTP    C33 5308   4.108   2.733   1.137  0.0000  0.0000  0.0000
  263TTP    C34 5309   4.121   2.768   0.986  0.0000  0.0000  0.0000
  263TTP    C35 5310   4.105   2.915   0.953  0.0000  0.0000  0.0000
  263TTP    C36 5311   4.099   2.965   0.808  0.0000  0.0000  0.0000
  263TTP    C37 5312   4.084   3.115   0.793  0.0000  0.0000  0.0000
  263TTP    C38 5313   3.959   3.159   0.720  0.0000  0.0000  0.0000
  263TTP    C39 5314   3.864   3.246   0.798  0.0000  0.0000  0.0000
  263TTP    C40 5315   3.744   3.285   0.716  0.0000  0.0000  0.0000
  263TTP    C41 5316   3.644   3.372   0.787  0.0000  0.0000  0.0000
  263TTP    C42 5317   3.522   3.412   0.706  0.0000  0.0000  0.0000
  264FIC     F1 5318   4.026   2.787   3.178  0.0000  0.0000  0.0000
  264FIC     F2 5319   3.997   2.996   3.339  0.0000  0.0000  0.0000
  264FIC     O1 5320   4.089   3.018   2.701  0.0000  0.0000  0.0000
  264FIC     N5 5321   3.968   3.465   3.218  0.0000  0.0000  0.0000
  264FIC     N6 5322   4.047   3.629   2.830  0.0000  0.0000  0.0000
  264FIC    C19 5323   4.073   3.323   2.678  0.0000  0.0000  0.0000
  264FIC    C20 5324   4.066   3.241   2.787  0.0000  0.0000  0.0000
  264FIC    C21 5325   4.068   3.101   2.794  0.0000  0.0000  0.0000
  264FIC    C22 5326   4.049   3.049   2.934  0.0000  0.0000  0.0000
  264FIC    C23 5327   4.049   2.923   2.993  0.0000  0.0000  0.0000
  264FIC    C24 5328   4.030   2.911   3.130  0.0000  0.0000  0.0000
  264FIC    C25 5329   4.010   3.024   3.208  0.0000  0.0000  0.0000
  264FIC    C26 5330   4.009   3.150   3.149  0.0000  0.0000  0.0000
  264FIC    C27 5331   4.028   3.162   3.012  0.0000  0.0000  0.0000
  264FIC    C28 5332   4.039   3.286   2.937  0.0000  0.0000  0.0000
  264FIC    C29 5333   4.021   3.413   2.970  0.0000  0.0000  0.0000
  264FIC    C30 5334   3.990   3.442   3.105  0.0000  0.0000  0.0000
  264FIC    C31 5335   4.033   3.531   2.895  0.0000  0.0000  0.0000
  265FIC     F1 5336   4.362   1.785   1.669  0.0000  0.0000  0.0000
  265FIC     F2 5337   4.387   1.723   1.419  0.0000  0.0000  0.0000
  265FIC     O1 5338   4.260   2.308   1.634  0.0000  0.0000  0.0000
  265FIC     N5 5339   4.338   1.996   1.017  0.0000  0.0000  0.0000
  265FIC     N6 5340   4.269   2.413   1.028  0.0000  0.0000  0.0000
  265FIC    C19 5341   4.251   2.438   1.366  0.0000  0.0000  0.0000
  265FIC    C20 5342   4.269   2.304   1.393  0.0000  0.0000  0.0000
  265FIC    C21 5343   4.276   2.255   1.521  0.0000  0.0000  0.0000
  265FIC    C22 5344   4.300   2.106   1.521  0.0000  0.0000  0.0000
  265FIC    C23 5345   4.320   2.010   1.618  0.0000  0.0000  0.0000
  265FIC    C24 5346   4.345   1.882   1.575  0.0000  0.0000  0.0000
  265FIC    C25 5347   4.362   1.851   1.442  0.0000  0.0000  0.0000
  265FIC    C26 5348   4.343   1.937   1.346  0.0000  0.0000  0.0000
  265FIC    C27 5349   4.315   2.068   1.386  0.0000  0.0000  0.0000
  265FIC    C28 5350   4.295   2.193   1.306  0.0000  0.0000  0.0000
  265FIC    C29 5351   4.298   2.202   1.168  0.0000  0.0000  0.0000
  265FIC    C30 5352   4.320   2.094   1.087  0.0000  0.0000  0.0000
  265FIC    C31 5353   4.284   2.317   1.096  0.0000  0.0000  0.0000
  266BTD     S2 5354   3.830   2.961   1.659  0.0000  0.0000  0.0000
  266BTD     N1 5355   3.822   2.980   1.827  0.0000  0.0000  0.0000
  266BTD     N2 5356   3.807   3.114   1.613  0.0000  0.0000  0.0000
  266BTD     N3 5357   3.756   3.535   1.820  0.0000  0.0000  0.0000
  266BTD     N4 5358   3.743   3.347   2.112  0.0000  0.0000  0.0000
  266BTD     C5 5359   3.785   3.181   1.966  0.0000  0.0000  0.0000
  266BTD     C6 5360   3.806   3.121   1.845  0.0000  0.0000  0.0000
  266BTD     C7 5361   3.789   3.183   1.725  0.0000  0.0000  0.0000
  266BTD     C8 5362   3.772   3.324   1.733  0.0000  0.0000  0.0000
  266BTD    C15 5363   3.763   3.401   1.851  0.0000  0.0000  0.0000
  266BTD    C16 5364   3.762   3.316   1.976  0.0000  0.0000  0.0000
  266BTD    C43 5365   3.696   3.473   2.172  0.0000  0.0000  0.0000
  266BTD    C44 5366   3.544   3.500   2.160  0.0000  0.0000  0.0000
  266BTD    C45 5367   3.524   3.634   2.239  0.0000  0.0000  0.0000
  266BTD    C46 5368   3.418   3.723   2.171  0.0000  0.0000  0.0000
  266BTD    C47 5369   3.468   3.384   2.221  0.0000  0.0000  0.0000
  266BTD    C48 5370   3.315   3.392   2.215  0.0000  0.0000  0.0000
  266BTD    C49 5371   3.217   3.288   2.269  0.0000  0.0000  0.0000
  266BTD    C50 5372   3.305   3.163   2.236  0.0000  0.0000  0.0000
  266BTD    C75 5373   3.722   3.652   1.904  0.0000  0.0000  0.0000
  266BTD    C76 5374   3.834   3.754   1.931  0.0000  0.0000  0.0000
  266BTD    C77 5375   3.955   3.688   1.989  0.0000  0.0000  0.0000
  266BTD    C78 5376   4.081   3.779   1.999  0.0000  0.0000  0.0000
  266BTD    C79 5377   3.791   3.858   2.037  0.0000  0.0000  0.0000
  266BTD    C80 5378   3.708   3.965   1.965  0.0000  0.0000  0.0000
  266BTD    C81 5379   3.672   4.081   2.063  0.0000  0.0000  0.0000
  266BTD    C82 5380   3.559   4.161   1.994  0.0000  0.0000  0.0000
  267TTP     S1 5381   3.805   2.977   2.177  0.0000  0.0000  0.0000
  267TTP     S5 5382   3.735   3.270   2.470  0.0000  0.0000  0.0000
  267TTP     C1 5383   3.756   3.117   2.547  0.0000  0.0000  0.0000
  267TTP     C2 5384   3.775   3.009   2.458  0.0000  0.0000  0.0000
  267TTP     C3 5385   3.780   3.055   2.323  0.0000  0.0000  0.0000
  267TTP     C4 5386   3.781   3.133   2.093  0.0000  0.0000  0.0000
  267TTP    C17 5387   3.761   3.227   2.186  0.0000  0.0000  0.0000
  267TTP    C18 5388   3.756   3.193   2.322  0.0000  0.0000  0.0000
  267TTP    C32 5389   3.797   2.857   2.494  0.0000  0.0000  0.0000
  267TTP    C33 5390   3.874   2.774   2.392  0.0000  0.0000  0.0000
  267TTP    C34 5391   3.894   2.632   2.446  0.0000  0.0000  0.0000
  267TTP    C35 5392   3.948   2.539   2.338  0.0000  0.0000  0.0000
  267TTP    C36 5393   3.992   2.400   2.388  0.0000  0.0000  0.0000
  267TTP    C37 5394   4.047   2.305   2.286  0.0000  0.0000  0.0000
  267TTP    C38 5395   3.968   2.171   2.272  0.0000  0.0000  0.0000
  267TTP    C39 5396   3.970   2.081   2.396  0.0000  0.0000  0.0000
  267TTP    C40 5397   3.893   1.951   2.381  0.0000  0.0000  0.0000
  267TTP    C41 5398   3.943   1.862   2.271  0.0000  0.0000  0.0000
  267TTP    C42 5399   3.937   1.925   2.128  0.0000  0.0000  0.0000
  268TTP     S1 5400   3.786   3.425   1.454  0.0000  0.0000  0.0000
  268TTP     S5 5401   3.748   3.823   1.587  0.0000  0.0000  0.0000
  268TTP     C1 5402   3.757   3.822   1.413  0.0000  0.0000  0.0000
  268TTP     C2 5403   3.766   3.694   1.359  0.0000  0.0000  0.0000
  268TTP     C3 5404   3.774   3.598   1.459  0.0000  0.0000  0.0000
  268TTP     C4 5405   3.776   3.417   1.629  0.0000  0.0000  0.0000
  268TTP    C17 5406   3.768   3.543   1.681  0.0000  0.0000  0.0000
  268TTP    C18 5407   3.764   3.656   1.586  0.0000  0.0000  0.0000
  268TTP    C32 5408   3.770   3.657   1.211  0.0000  0.0000  0.0000
  268TTP    C33 5409   3.917   3.651   1.157  0.0000  0.0000  0.0000
  268TTP    C34 5410   3.931   3.574   1.024  0.0000  0.0000  0.0000
  268TTP    C35 5411   4.079   3.537   0.985  0.0000  0.0000  0.0000
  268TTP    C36 5412   4.109   3.538   0.837  0.0000  0.0000  0.0000
  268TTP    C37 5413   4.152   3.404   0.783  0.0000  0.0000  0.0000
  268TTP    C38 5414   4.167   3.297   0.888  0.0000  0.0000  0.0000
  268TTP    C39 5415   4.107   3.332   1.022  0.0000  0.0000  0.0000
  268TTP    C40 5416   4.120   3.227   1.127  0.0000  0.0000  0.0000
  268TTP    C41 5417   4.060   3.262   1.260  0.0000  0.0000  0.0000
  268TTP    C42 5418   4.073   3.158   1.366  0.0000  0.0000  0.0000
  269FIC     F1 5419   3.633   3.618   3.183  0.0000  0.0000  0.0000
  269FIC     F2 5420   3.616   3.403   3.344  0.0000  0.0000  0.0000
  269FIC     O1 5421   3.722   3.391   2.712  0.0000  0.0000  0.0000
  269FIC     N5 5422   3.670   2.926   3.232  0.0000  0.0000  0.0000
  269FIC     N6 5423   3.725   2.783   2.838  0.0000  0.0000  0.0000
  269FIC    C19 5424   3.744   3.094   2.687  0.0000  0.0000  0.0000
  269FIC    C20 5425   3.718   3.161   2.801  0.0000  0.0000  0.0000
  269FIC    C21 5426   3.713   3.304   2.797  0.0000  0.0000  0.0000
  269FIC    C22 5427   3.690   3.358   2.938  0.0000  0.0000  0.0000
  269FIC    C23 5428   3.672   3.486   2.990  0.0000  0.0000  0.0000
  269FIC    C24 5429   3.646   3.503   3.125  0.0000  0.0000  0.0000
  269FIC    C25 5430   3.638   3.392   3.209  0.0000  0.0000  0.0000
  269FIC    C26 5431   3.656   3.265   3.157  0.0000  0.0000  0.0000
  269FIC    C27 5432   3.682   3.248   3.021  0.0000  0.0000  0.0000
  269FIC    C28 5433   3.698   3.121   2.943  0.0000  0.0000  0.0000
  269FIC    C29 5434   3.698   2.997   2.974  0.0000  0.0000  0.0000
  269FIC    C30 5435   3.682   2.969   3.133  0.0000  0.0000  0.0000
  269FIC    C31 5436   3.711   2.879   2.897  0.0000  0.0000  0.0000
  270FIC     F1 5437   3.639   4.611   1.590  0.0000  0.0000  0.0000
  270FIC     F2 5438   3.623   4.660   1.320  0.0000  0.0000  0.0000
  270FIC     O1 5439   3.738   4.091   1.592  0.0000  0.0000  0.0000
  270FIC     N5 5440   3.684   4.346   0.941  0.0000  0.0000  0.0000
  270FIC     N6 5441   3.748   3.938   0.983  0.0000  0.0000  0.0000
  270FIC    C19 5442   3.741   3.939   1.329  0.0000  0.0000  0.0000
  270FIC    C20 5443   3.728   4.078   1.348  0.0000  0.0000  0.0000
  270FIC    C21 5444   3.725   4.130   1.480  0.0000  0.0000  0.0000
  270FIC    C22 5445   3.695   4.281   1.452  0.0000  0.0000  0.0000
  270FIC    C23 5446   3.679   4.385   1.543  0.0000  0.0000  0.0000
  270FIC    C24 5447   3.655   4.514   1.497  0.0000  0.0000  0.0000
  270FIC    C25 5448   3.647   4.539   1.360  0.0000  0.0000  0.0000
  270FIC    C26 5449   3.664   4.435   1.269  0.0000  0.0000  0.0000
  270FIC    C27 5450   3.688   4.306   1.315  0.0000  0.0000  0.0000
  270FIC    C28 5451   3.711   4.178   1.241  0.0000  0.0000  0.0000
  270FIC    C29 5452   3.714   4.155   1.119  0.0000  0.0000  0.0000
  270FIC    C30 5453   3.693   4.284   1.036  0.0000  0.0000  0.0000
  270FIC    C31 5454   3.734   4.037   1.042  0.0000  0.0000  0.0000
  271BTD     S2 5455   3.674   0.478  -1.649  0.0000  0.0000  0.0000
  271BTD     N1 5456   3.677   0.492  -1.810  0.0000  0.0000  0.0000
  271BTD     N2 5457   3.657   0.631  -1.603  0.0000  0.0000  0.0000
  271BTD     N3 5458   3.608   1.044  -1.829  0.0000  0.0000  0.0000
  271BTD     N4 5459   3.634   0.859  -2.112  0.0000  0.0000  0.0000
  271BTD     C5 5460   3.652   0.686  -1.959  0.0000  0.0000  0.0000
  271BTD     C6 5461   3.658   0.627  -1.834  0.0000  0.0000  0.0000
  271BTD     C7 5462   3.648   0.705  -1.719  0.0000  0.0000  0.0000
  271BTD     C8 5463   3.632   0.843  -1.731  0.0000  0.0000  0.0000
  271BTD    C15 5464   3.626   0.902  -1.856  0.0000  0.0000  0.0000
  271BTD    C16 5465   3.636   0.823  -1.971  0.0000  0.0000  0.0000
  271BTD    C43 5466   3.607   0.982  -2.193  0.0000  0.0000  0.0000
  271BTD    C44 5467   3.472   0.999  -2.262  0.0000  0.0000  0.0000
  271BTD    C45 5468   3.451   1.135  -2.331  0.0000  0.0000  0.0000
  271BTD    C46 5469   3.554   1.136  -2.448  0.0000  0.0000  0.0000
  271BTD    C47 5470   3.364   0.968  -2.160  0.0000  0.0000  0.0000
  271BTD    C48 5471   3.230   0.966  -2.239  0.0000  0.0000  0.0000
  271BTD    C49 5472   3.122   0.937  -2.136  0.0000  0.0000  0.0000
  271BTD    C50 5473   2.986   0.960  -2.205  0.0000  0.0000  0.0000
  271BTD    C75 5474   3.590   1.157  -1.914  0.0000  0.0000  0.0000
  271BTD    C76 5475   3.706   1.250  -1.948  0.0000  0.0000  0.0000
  271BTD    C77 5476   3.842   1.196  -1.984  0.0000  0.0000  0.0000
  271BTD    C78 5477   3.962   1.285  -1.943  0.0000  0.0000  0.0000
  271BTD    C79 5478   3.668   1.371  -2.037  0.0000  0.0000  0.0000
  271BTD    C80 5479   3.573   1.481  -1.988  0.0000  0.0000  0.0000
  271BTD    C81 5480   3.513   1.606  -2.060  0.0000  0.0000  0.0000
  271BTD    C82 5481   3.531   1.714  -1.974  0.0000  0.0000  0.0000
  272TTP     S1 5482   3.685   0.479  -2.164  0.0000  0.0000  0.0000
  272TTP     S5 5483   3.670   0.769  -2.470  0.0000  0.0000  0.0000
  272TTP     C1 5484   3.695   0.605  -2.535  0.0000  0.0000  0.0000
  272TTP     C2 5485   3.699   0.500  -2.438  0.0000  0.0000  0.0000
  272TTP     C3 5486   3.685   0.563  -2.324  0.0000  0.0000  0.0000
  272TTP     C4 5487   3.663   0.634  -2.094  0.0000  0.0000  0.0000
  272TTP    C17 5488   3.650   0.736  -2.179  0.0000  0.0000  0.0000
  272TTP    C18 5489   3.665   0.691  -2.312  0.0000  0.0000  0.0000
  272TTP    C32 5490   3.701   0.353  -2.481  0.0000  0.0000  0.0000
  272TTP    C33 5491   3.847   0.306  -2.473  0.0000  0.0000  0.0000
  272TTP    C34 5492   3.851   0.154  -2.486  0.0000  0.0000  0.0000
  272TTP    C35 5493   3.989   0.100  -2.518  0.0000  0.0000  0.0000
  272TTP    C36 5494   4.050   0.017  -2.408  0.0000  0.0000  0.0000
  272TTP    C37 5495   4.190  -0.039  -2.438  0.0000  0.0000  0.0000
  272TTP    C38 5496   4.274   0.046  -2.531  0.0000  0.0000  0.0000
  272TTP    C39 5497   4.196   0.156  -2.601  0.0000  0.0000  0.0000
  272TTP    C40 5498   4.279   0.277  -2.635  0.0000  0.0000  0.0000
  272TTP    C41 5499   4.230   0.406  -2.574  0.0000  0.0000  0.0000
  272TTP    C42 5500   4.107   0.394  -2.486  0.0000  0.0000  0.0000
  273TTP     S1 5501   3.620   0.951  -1.458  0.0000  0.0000  0.0000
  273TTP     S5 5502   3.566   1.339  -1.613  0.0000  0.0000  0.0000
  273TTP     C1 5503   3.557   1.351  -1.440  0.0000  0.0000  0.0000
  273TTP     C2 5504   3.576   1.225  -1.375  0.0000  0.0000  0.0000
  273TTP     C3 5505   3.595   1.127  -1.473  0.0000  0.0000  0.0000
  273TTP     C4 5506   3.624   0.940  -1.626  0.0000  0.0000  0.0000
  273TTP    C17 5507   3.611   1.064  -1.693  0.0000  0.0000  0.0000
  273TTP    C18 5508   3.593   1.170  -1.603  0.0000  0.0000  0.0000
  273TTP    C32 5509   3.556   1.197  -1.224  0.0000  0.0000  0.0000
  273TTP    C33 5510   3.678   1.173  -1.137  0.0000  0.0000  0.0000
  273TTP    C34 5511   3.665   1.138  -0.986  0.0000  0.0000  0.0000
  273TTP    C35 5512   3.681   0.991  -0.953  0.0000  0.0000  0.0000
  273TTP    C36 5513   3.687   0.941  -0.808  0.0000  0.0000  0.0000
  273TTP    C37 5514   3.702   0.791  -0.793  0.0000  0.0000  0.0000
  273TTP    C38 5515   3.827   0.747  -0.720  0.0000  0.0000  0.0000
  273TTP    C39 5516   3.922   0.660  -0.798  0.0000  0.0000  0.0000
  273TTP    C40 5517   4.042   0.621  -0.716  0.0000  0.0000  0.0000
  273TTP    C41 5518   4.142   0.534  -0.787  0.0000  0.0000  0.0000
  273TTP    C42 5519   4.264   0.494  -0.706  0.0000  0.0000  0.0000
  274FIC     F1 5520   3.760   1.119  -3.178  0.0000  0.0000  0.0000
  274FIC     F2 5521   3.789   0.910  -3.339  0.0000  0.0000  0.0000
  274FIC     O1 5522   3.697   0.888  -2.701  0.0000  0.0000  0.0000
  274FIC     N5 5523   3.819   0.441  -3.218  0.0000  0.0000  0.0000
  274FIC     N6 5524   3.739   0.277  -2.830  0.0000  0.0000  0.0000
  274FIC    C19 5525   3.713   0.583  -2.678  0.0000  0.0000  0.0000
  274FIC    C20 5526   3.720   0.665  -2.787  0.0000  0.0000  0.0000
  274FIC    C21 5527   3.718   0.805  -2.794  0.0000  0.0000  0.0000
  274FIC    C22 5528   3.738   0.857  -2.934  0.0000  0.0000  0.0000
  274FIC    C23 5529   3.737   0.983  -2.993  0.0000  0.0000  0.0000
  274FIC    C24 5530   3.756   0.995  -3.130  0.0000  0.0000  0.0000
  274FIC    C25 5531   3.776   0.882  -3.208  0.0000  0.0000  0.0000
  274FIC    C26 5532   3.777   0.756  -3.149  0.0000  0.0000  0.0000
  274FIC    C27 5533   3.758   0.744  -3.012  0.0000  0.0000  0.0000
  274FIC    C28 5534   3.747   0.620  -2.937  0.0000  0.0000  0.0000
  274FIC    C29 5535   3.765   0.493  -2.970  0.0000  0.0000  0.0000
  274FIC    C30 5536   3.796   0.464  -3.105  0.0000  0.0000  0.0000
  274FIC    C31 5537   3.753   0.375  -2.895  0.0000  0.0000  0.0000
  275FIC     F1 5538   3.425   2.121  -1.669  0.0000  0.0000  0.0000
  275FIC     F2 5539   3.399   2.183  -1.419  0.0000  0.0000  0.0000
  275FIC     O1 5540   3.526   1.598  -1.634  0.0000  0.0000  0.0000
  275FIC     N5 5541   3.448   1.910  -1.017  0.0000  0.0000  0.0000
  275FIC     N6 5542   3.518   1.493  -1.028  0.0000  0.0000  0.0000
  275FIC    C19 5543   3.535   1.468  -1.366  0.0000  0.0000  0.0000
  275FIC    C20 5544   3.517   1.602  -1.393  0.0000  0.0000  0.0000
  275FIC    C21 5545   3.510   1.651  -1.521  0.0000  0.0000  0.0000
  275FIC    C22 5546   3.486   1.800  -1.521  0.0000  0.0000  0.0000
  275FIC    C23 5547   3.466   1.896  -1.618  0.0000  0.0000  0.0000
  275FIC    C24 5548   3.441   2.023  -1.575  0.0000  0.0000  0.0000
  275FIC    C25 5549   3.424   2.055  -1.442  0.0000  0.0000  0.0000
  275FIC    C26 5550   3.443   1.969  -1.346  0.0000  0.0000  0.0000
  275FIC    C27 5551   3.471   1.838  -1.386  0.0000  0.0000  0.0000
  275FIC    C28 5552   3.491   1.713  -1.306  0.0000  0.0000  0.0000
  275FIC    C29 5553   3.488   1.704  -1.168  0.0000  0.0000  0.0000
  275FIC    C30 5554   3.466   1.812  -1.087  0.0000  0.0000  0.0000
  275FIC    C31 5555   3.502   1.589  -1.096  0.0000  0.0000  0.0000
  276BTD     S2 5556   3.956   0.945  -1.659  0.0000  0.0000  0.0000
  276BTD     N1 5557   3.964   0.926  -1.827  0.0000  0.0000  0.0000
  276BTD     N2 5558   3.979   0.792  -1.613  0.0000  0.0000  0.0000
  276BTD     N3 5559   4.030   0.371  -1.820  0.0000  0.0000  0.0000
  276BTD     N4 5560   4.043   0.559  -2.112  0.0000  0.0000  0.0000
  276BTD     C5 5561   4.001   0.725  -1.966  0.0000  0.0000  0.0000
  276BTD     C6 5562   3.980   0.785  -1.845  0.0000  0.0000  0.0000
  276BTD     C7 5563   3.997   0.723  -1.725  0.0000  0.0000  0.0000
  276BTD     C8 5564   4.014   0.582  -1.733  0.0000  0.0000  0.0000
  276BTD    C15 5565   4.023   0.505  -1.851  0.0000  0.0000  0.0000
  276BTD    C16 5566   4.024   0.590  -1.976  0.0000  0.0000  0.0000
  276BTD    C43 5567   4.090   0.433  -2.172  0.0000  0.0000  0.0000
  276BTD    C44 5568   4.242   0.406  -2.160  0.0000  0.0000  0.0000
  276BTD    C45 5569   4.262   0.272  -2.239  0.0000  0.0000  0.0000
  276BTD    C46 5570   4.368   0.183  -2.171  0.0000  0.0000  0.0000
  276BTD    C47 5571   4.318   0.522  -2.221  0.0000  0.0000  0.0000
  276BTD    C48 5572   4.471   0.514  -2.215  0.0000  0.0000  0.0000
  276BTD    C49 5573   4.569   0.618  -2.269  0.0000  0.0000  0.0000
  276BTD    C50 5574   4.481   0.743  -2.236  0.0000  0.0000  0.0000
  276BTD    C75 5575   4.064   0.254  -1.904  0.0000  0.0000  0.0000
  276BTD    C76 5576   3.953   0.152  -1.931  0.0000  0.0000  0.0000
  276BTD    C77 5577   3.831   0.218  -1.989  0.0000  0.0000  0.0000
  276BTD    C78 5578   3.705   0.127  -1.999  0.0000  0.0000  0.0000
  276BTD    C79 5579   3.995   0.048  -2.037  0.0000  0.0000  0.0000
  276BTD    C80 5580   4.078  -0.059  -1.965  0.0000  0.0000  0.0000
  276BTD    C81 5581   4.114  -0.175  -2.063  0.0000  0.0000  0.0000
  276BTD    C82 5582   4.227  -0.255  -1.994  0.0000  0.0000  0.0000
  277TTP     S1 5583   3.981   0.929  -2.177  0.0000  0.0000  0.0000
  277TTP     S5 5584   4.051   0.636  -2.470  0.0000  0.0000  0.0000
  277TTP     C1 5585   4.030   0.789  -2.547  0.0000  0.0000  0.0000
  277TTP     C2 5586   4.011   0.897  -2.458  0.0000  0.0000  0.0000
  277TTP     C3 5587   4.006   0.851  -2.323  0.0000  0.0000  0.0000
  277TTP     C4 5588   4.005   0.773  -2.093  0.0000  0.0000  0.0000
  277TTP    C17 5589   4.025   0.679  -2.186  0.0000  0.0000  0.0000
  277TTP    C18 5590   4.030   0.713  -2.322  0.0000  0.0000  0.0000
  277TTP    C32 5591   3.989   1.049  -2.494  0.0000  0.0000  0.0000
  277TTP    C33 5592   3.912   1.132  -2.392  0.0000  0.0000  0.0000
  277TTP    C34 5593   3.892   1.274  -2.446  0.0000  0.0000  0.0000
  277TTP    C35 5594   3.838   1.367  -2.338  0.0000  0.0000  0.0000
  277TTP    C36 5595   3.794   1.506  -2.388  0.0000  0.0000  0.0000
  277TTP    C37 5596   3.739   1.601  -2.286  0.0000  0.0000  0.0000
  277TTP    C38 5597   3.818   1.735  -2.272  0.0000  0.0000  0.0000
  277TTP    C39 5598   3.817   1.825  -2.396  0.0000  0.0000  0.0000
  277TTP    C40 5599   3.893   1.955  -2.381  0.0000  0.0000  0.0000
  277TTP    C41 5600   3.843   2.044  -2.271  0.0000  0.0000  0.0000
  277TTP    C42 5601   3.849   1.981  -2.128  0.0000  0.0000  0.0000
  278TTP     S1 5602   4.000   0.481  -1.454  0.0000  0.0000  0.0000
  278TTP     S5 5603   4.038   0.083  -1.587  0.0000  0.0000  0.0000
  278TTP     C1 5604   4.029   0.084  -1.413  0.0000  0.0000  0.0000
  278TTP     C2 5605   4.020   0.212  -1.359  0.0000  0.0000  0.0000
  278TTP     C3 5606   4.012   0.308  -1.459  0.0000  0.0000  0.0000
  278TTP     C4 5607   4.010   0.489  -1.629  0.0000  0.0000  0.0000
  278TTP    C17 5608   4.018   0.363  -1.681  0.0000  0.0000  0.0000
  278TTP    C18 5609   4.022   0.250  -1.586  0.0000  0.0000  0.0000
  278TTP    C32 5610   4.016   0.249  -1.211  0.0000  0.0000  0.0000
  278TTP    C33 5611   3.869   0.255  -1.157  0.0000  0.0000  0.0000
  278TTP    C34 5612   3.855   0.332  -1.024  0.0000  0.0000  0.0000
  278TTP    C35 5613   3.707   0.369  -0.985  0.0000  0.0000  0.0000
  278TTP    C36 5614   3.677   0.368  -0.837  0.0000  0.0000  0.0000
  278TTP    C37 5615   3.634   0.502  -0.783  0.0000  0.0000  0.0000
  278TTP    C38 5616   3.619   0.609  -0.888  0.0000  0.0000  0.0000
  278TTP    C39 5617   3.679   0.574  -1.022  0.0000  0.0000  0.0000
  278TTP    C40 5618   3.666   0.679  -1.127  0.0000  0.0000  0.0000
  278TTP    C41 5619   3.726   0.644  -1.260  0.0000  0.0000  0.0000
  278TTP    C42 5620   3.713   0.748  -1.366  0.0000  0.0000  0.0000
  279FIC     F1 5621   4.153   0.288  -3.183  0.0000  0.0000  0.0000
  279FIC     F2 5622   4.170   0.503  -3.344  0.0000  0.0000  0.0000
  279FIC     O1 5623   4.064   0.515  -2.712  0.0000  0.0000  0.0000
  279FIC     N5 5624   4.116   0.980  -3.232  0.0000  0.0000  0.0000
  279FIC     N6 5625   4.061   1.123  -2.838  0.0000  0.0000  0.0000
  279FIC    C19 5626   4.042   0.812  -2.687  0.0000  0.0000  0.0000
  279FIC    C20 5627   4.068   0.745  -2.801  0.0000  0.0000  0.0000
  279FIC    C21 5628   4.073   0.602  -2.797  0.0000  0.0000  0.0000
  279FIC    C22 5629   4.096   0.548  -2.938  0.0000  0.0000  0.0000
  279FIC    C23 5630   4.114   0.420  -2.990  0.0000  0.0000  0.0000
  279FIC    C24 5631   4.140   0.403  -3.125  0.0000  0.0000  0.0000
  279FIC    C25 5632   4.148   0.514  -3.209  0.0000  0.0000  0.0000
  279FIC    C26 5633   4.130   0.641  -3.157  0.0000  0.0000  0.0000
  279FIC    C27 5634   4.104   0.658  -3.021  0.0000  0.0000  0.0000
  279FIC    C28 5635   4.088   0.785  -2.943  0.0000  0.0000  0.0000
  279FIC    C29 5636   4.088   0.909  -2.974  0.0000  0.0000  0.0000
  279FIC    C30 5637   4.104   0.937  -3.133  0.0000  0.0000  0.0000
  279FIC    C31 5638   4.075   1.027  -2.897  0.0000  0.0000  0.0000
  280FIC     F1 5639   4.147  -0.705  -1.590  0.0000  0.0000  0.0000
  280FIC     F2 5640   4.163  -0.754  -1.320  0.0000  0.0000  0.0000
  280FIC     O1 5641   4.048  -0.185  -1.592  0.0000  0.0000  0.0000
  280FIC     N5 5642   4.102  -0.440  -0.941  0.0000  0.0000  0.0000
  280FIC     N6 5643   4.038  -0.032  -0.983  0.0000  0.0000  0.0000
  280FIC    C19 5644   4.045  -0.033  -1.329  0.0000  0.0000  0.0000
  280FIC    C20 5645   4.058  -0.172  -1.348  0.0000  0.0000  0.0000
  280FIC    C21 5646   4.061  -0.224  -1.480  0.0000  0.0000  0.0000
  280FIC    C22 5647   4.091  -0.375  -1.452  0.0000  0.0000  0.0000
  280FIC    C23 5648   4.107  -0.479  -1.543  0.0000  0.0000  0.0000
  280FIC    C24 5649   4.131  -0.608  -1.497  0.0000  0.0000  0.0000
  280FIC    C25 5650   4.139  -0.633  -1.360  0.0000  0.0000  0.0000
  280FIC    C26 5651   4.122  -0.529  -1.269  0.0000  0.0000  0.0000
  280FIC    C27 5652   4.098  -0.400  -1.315  0.0000  0.0000  0.0000
  280FIC    C28 5653   4.075  -0.272  -1.241  0.0000  0.0000  0.0000
  280FIC    C29 5654   4.072  -0.249  -1.119  0.0000  0.0000  0.0000
  280FIC    C30 5655   4.093  -0.378  -1.036  0.0000  0.0000  0.0000
  280FIC    C31 5656   4.052  -0.131  -1.042  0.0000  0.0000  0.0000
  281BTD     S2 5657   3.887   5.380   1.649  0.0000  0.0000  0.0000
  281BTD     N1 5658   3.884   5.366   1.810  0.0000  0.0000  0.0000
  281BTD     N2 5659   3.904   5.227   1.603  0.0000  0.0000  0.0000
  281BTD     N3 5660   3.953   4.814   1.829  0.0000  0.0000  0.0000
  281BTD     N4 5661   3.927   4.999   2.112  0.0000  0.0000  0.0000
  281BTD     C5 5662   3.909   5.172   1.959  0.0000  0.0000  0.0000
  281BTD     C6 5663   3.903   5.231   1.834  0.0000  0.0000  0.0000
  281BTD     C7 5664   3.913   5.153   1.719  0.0000  0.0000  0.0000
  281BTD     C8 5665   3.929   5.015   1.731  0.0000  0.0000  0.0000
  281BTD    C15 5666   3.935   4.956   1.856  0.0000  0.0000  0.0000
  281BTD    C16 5667   3.925   5.035   1.971  0.0000  0.0000  0.0000
  281BTD    C43 5668   3.954   4.876   2.193  0.0000  0.0000  0.0000
  281BTD    C44 5669   4.089   4.859   2.262  0.0000  0.0000  0.0000
  281BTD    C45 5670   4.110   4.723   2.331  0.0000  0.0000  0.0000
  281BTD    C46 5671   4.007   4.722   2.448  0.0000  0.0000  0.0000
  281BTD    C47 5672   4.197   4.890   2.160  0.0000  0.0000  0.0000
  281BTD    C48 5673   4.331   4.892   2.239  0.0000  0.0000  0.0000
  281BTD    C49 5674   4.439   4.921   2.136  0.0000  0.0000  0.0000
  281BTD    C50 5675   4.575   4.898   2.205  0.0000  0.0000  0.0000
  281BTD    C75 5676   3.971   4.701   1.914  0.0000  0.0000  0.0000
  281BTD    C76 5677   3.855   4.608   1.948  0.0000  0.0000  0.0000
  281BTD    C77 5678   3.719   4.662   1.984  0.0000  0.0000  0.0000
  281BTD    C78 5679   3.599   4.573   1.943  0.0000  0.0000  0.0000
  281BTD    C79 5680   3.893   4.487   2.037  0.0000  0.0000  0.0000
  281BTD    C80 5681   3.988   4.377   1.988  0.0000  0.0000  0.0000
  281BTD    C81 5682   4.048   4.252   2.060  0.0000  0.0000  0.0000
  281BTD    C82 5683   4.030   4.144   1.974  0.0000  0.0000  0.0000
  282TTP     S1 5684   3.876   5.379   2.164  0.0000  0.0000  0.0000
  282TTP     S5 5685   3.891   5.089   2.470  0.0000  0.0000  0.0000
  282TTP     C1 5686   3.866   5.253   2.535  0.0000  0.0000  0.0000
  282TTP     C2 5687   3.862   5.358   2.438  0.0000  0.0000  0.0000
  282TTP     C3 5688   3.876   5.295   2.324  0.0000  0.0000  0.0000
  282TTP     C4 5689   3.898   5.224   2.094  0.0000  0.0000  0.0000
  282TTP    C17 5690   3.911   5.122   2.179  0.0000  0.0000  0.0000
  282TTP    C18 5691   3.896   5.167   2.312  0.0000  0.0000  0.0000
  282TTP    C32 5692   3.860   5.505   2.481  0.0000  0.0000  0.0000
  282TTP    C33 5693   3.714   5.552   2.473  0.0000  0.0000  0.0000
  282TTP    C34 5694   3.710   5.704   2.486  0.0000  0.0000  0.0000
  282TTP    C35 5695   3.572   5.758   2.518  0.0000  0.0000  0.0000
  282TTP    C36 5696   3.511   5.841   2.408  0.0000  0.0000  0.0000
  282TTP    C37 5697   3.371   5.897   2.438  0.0000  0.0000  0.0000
  282TTP    C38 5698   3.287   5.812   2.531  0.0000  0.0000  0.0000
  282TTP    C39 5699   3.365   5.702   2.601  0.0000  0.0000  0.0000
  282TTP    C40 5700   3.282   5.581   2.635  0.0000  0.0000  0.0000
  282TTP    C41 5701   3.331   5.452   2.574  0.0000  0.0000  0.0000
  282TTP    C42 5702   3.454   5.464   2.486  0.0000  0.0000  0.0000
  283TTP     S1 5703   3.941   4.907   1.458  0.0000  0.0000  0.0000
  283TTP     S5 5704   3.995   4.519   1.613  0.0000  0.0000  0.0000
  283TTP     C1 5705   4.004   4.507   1.440  0.0000  0.0000  0.0000
  283TTP     C2 5706   3.985   4.633   1.375  0.0000  0.0000  0.0000
  283TTP     C3 5707   3.966   4.731   1.473  0.0000  0.0000  0.0000
  283TTP     C4 5708   3.937   4.918   1.626  0.0000  0.0000  0.0000
  283TTP    C17 5709   3.950   4.794   1.693  0.0000  0.0000  0.0000
  283TTP    C18 5710   3.968   4.688   1.603  0.0000  0.0000  0.0000
  283TTP    C32 5711   4.005   4.661   1.224  0.0000  0.0000  0.0000
  283TTP    C33 5712   3.883   4.685   1.137  0.0000  0.0000  0.0000
  283TTP    C34 5713   3.896   4.720   0.986  0.0000  0.0000  0.0000
  283TTP    C35 5714   3.880   4.867   0.953  0.0000  0.0000  0.0000
  283TTP    C36 5715   3.874   4.917   0.808  0.0000  0.0000  0.0000
  283TTP    C37 5716   3.859   5.067   0.793  0.0000  0.0000  0.0000
  283TTP    C38 5717   3.734   5.111   0.720  0.0000  0.0000  0.0000
  283TTP    C39 5718   3.639   5.198   0.798  0.0000  0.0000  0.0000
  283TTP    C40 5719   3.519   5.237   0.716  0.0000  0.0000  0.0000
  283TTP    C41 5720   3.419   5.324   0.787  0.0000  0.0000  0.0000
  283TTP    C42 5721   3.297   5.364   0.706  0.0000  0.0000  0.0000
  284FIC     F1 5722   3.801   4.739   3.178  0.0000  0.0000  0.0000
  284FIC     F2 5723   3.772   4.948   3.339  0.0000  0.0000  0.0000
  284FIC     O1 5724   3.864   4.970   2.701  0.0000  0.0000  0.0000
  284FIC     N5 5725   3.743   5.417   3.218  0.0000  0.0000  0.0000
  284FIC     N6 5726   3.822   5.581   2.830  0.0000  0.0000  0.0000
  284FIC    C19 5727   3.848   5.275   2.678  0.0000  0.0000  0.0000
  284FIC    C20 5728   3.841   5.193   2.787  0.0000  0.0000  0.0000
  284FIC    C21 5729   3.843   5.053   2.794  0.0000  0.0000  0.0000
  284FIC    C22 5730   3.824   5.001   2.934  0.0000  0.0000  0.0000
  284FIC    C23 5731   3.824   4.875   2.993  0.0000  0.0000  0.0000
  284FIC    C24 5732   3.805   4.863   3.130  0.0000  0.0000  0.0000
  284FIC    C25 5733   3.785   4.976   3.208  0.0000  0.0000  0.0000
  284FIC    C26 5734   3.784   5.102   3.149  0.0000  0.0000  0.0000
  284FIC    C27 5735   3.803   5.114   3.012  0.0000  0.0000  0.0000
  284FIC    C28 5736   3.814   5.238   2.937  0.0000  0.0000  0.0000
  284FIC    C29 5737   3.796   5.365   2.970  0.0000  0.0000  0.0000
  284FIC    C30 5738   3.765   5.394   3.105  0.0000  0.0000  0.0000
  284FIC    C31 5739   3.808   5.483   2.895  0.0000  0.0000  0.0000
  285FIC     F1 5740   4.137   3.737   1.669  0.0000  0.0000  0.0000
  285FIC     F2 5741   4.162   3.675   1.419  0.0000  0.0000  0.0000
  285FIC     O1 5742   4.035   4.260   1.634  0.0000  0.0000  0.0000
  285FIC     N5 5743   4.113   3.948   1.017  0.0000  0.0000  0.0000
  285FIC     N6 5744   4.044   4.365   1.028  0.0000  0.0000  0.0000
  285FIC    C19 5745   4.026   4.390   1.366  0.0000  0.0000  0.0000
  285FIC    C20 5746   4.044   4.256   1.393  0.0000  0.0000  0.0000
  285FIC    C21 5747   4.051   4.207   1.521  0.0000  0.0000  0.0000
  285FIC    C22 5748   4.075   4.058   1.521  0.0000  0.0000  0.0000
  285FIC    C23 5749   4.095   3.962   1.618  0.0000  0.0000  0.0000
  285FIC    C24 5750   4.120   3.834   1.575  0.0000  0.0000  0.0000
  285FIC    C25 5751   4.137   3.803   1.442  0.0000  0.0000  0.0000
  285FIC    C26 5752   4.118   3.889   1.346  0.0000  0.0000  0.0000
  285FIC    C27 5753   4.090   4.020   1.386  0.0000  0.0000  0.0000
  285FIC    C28 5754   4.070   4.145   1.306  0.0000  0.0000  0.0000
  285FIC    C29 5755   4.073   4.154   1.168  0.0000  0.0000  0.0000
  285FIC    C30 5756   4.095   4.046   1.087  0.0000  0.0000  0.0000
  285FIC    C31 5757   4.059   4.269   1.096  0.0000  0.0000  0.0000
  286BTD     S2 5758   3.605   4.913   1.659  0.0000  0.0000  0.0000
  286BTD     N1 5759   3.597   4.932   1.827  0.0000  0.0000  0.0000
  286BTD     N2 5760   3.582   5.066   1.613  0.0000  0.0000  0.0000
  286BTD     N3 5761   3.531   5.487   1.820  0.0000  0.0000  0.0000
  286BTD     N4 5762   3.518   5.299   2.112  0.0000  0.0000  0.0000
  286BTD     C5 5763   3.560   5.133   1.966  0.0000  0.0000  0.0000
  286BTD     C6 5764   3.581   5.073   1.845  0.0000  0.0000  0.0000
  286BTD     C7 5765   3.564   5.135   1.725  0.0000  0.0000  0.0000
  286BTD     C8 5766   3.547   5.276   1.733  0.0000  0.0000  0.0000
  286BTD    C15 5767   3.538   5.353   1.851  0.0000  0.0000  0.0000
  286BTD    C16 5768   3.537   5.268   1.976  0.0000  0.0000  0.0000
  286BTD    C43 5769   3.471   5.425   2.172  0.0000  0.0000  0.0000
  286BTD    C44 5770   3.319   5.452   2.160  0.0000  0.0000  0.0000
  286BTD    C45 5771   3.299   5.586   2.239  0.0000  0.0000  0.0000
  286BTD    C46 5772   3.193   5.675   2.171  0.0000  0.0000  0.0000
  286BTD    C47 5773   3.243   5.336   2.221  0.0000  0.0000  0.0000
  286BTD    C48 5774   3.090   5.344   2.215  0.0000  0.0000  0.0000
  286BTD    C49 5775   2.992   5.240   2.269  0.0000  0.0000  0.0000
  286BTD    C50 5776   3.080   5.115   2.236  0.0000  0.0000  0.0000
  286BTD    C75 5777   3.497   5.604   1.904  0.0000  0.0000  0.0000
  286BTD    C76 5778   3.609   5.706   1.931  0.0000  0.0000  0.0000
  286BTD    C77 5779   3.730   5.640   1.989  0.0000  0.0000  0.0000
  286BTD    C78 5780   3.856   5.731   1.999  0.0000  0.0000  0.0000
  286BTD    C79 5781   3.566   5.810   2.037  0.0000  0.0000  0.0000
  286BTD    C80 5782   3.483   5.917   1.965  0.0000  0.0000  0.0000
  286BTD    C81 5783   3.447   6.033   2.063  0.0000  0.0000  0.0000
  286BTD    C82 5784   3.334   6.113   1.994  0.0000  0.0000  0.0000
  287TTP     S1 5785   3.580   4.929   2.177  0.0000  0.0000  0.0000
  287TTP     S5 5786   3.510   5.222   2.470  0.0000  0.0000  0.0000
  287TTP     C1 5787   3.531   5.069   2.547  0.0000  0.0000  0.0000
  287TTP     C2 5788   3.550   4.961   2.458  0.0000  0.0000  0.0000
  287TTP     C3 5789   3.555   5.007   2.323  0.0000  0.0000  0.0000
  287TTP     C4 5790   3.556   5.085   2.093  0.0000  0.0000  0.0000
  287TTP    C17 5791   3.536   5.179   2.186  0.0000  0.0000  0.0000
  287TTP    C18 5792   3.531   5.145   2.322  0.0000  0.0000  0.0000
  287TTP    C32 5793   3.572   4.809   2.494  0.0000  0.0000  0.0000
  287TTP    C33 5794   3.649   4.726   2.392  0.0000  0.0000  0.0000
  287TTP    C34 5795   3.669   4.584   2.446  0.0000  0.0000  0.0000
  287TTP    C35 5796   3.723   4.491   2.338  0.0000  0.0000  0.0000
  287TTP    C36 5797   3.767   4.352   2.388  0.0000  0.0000  0.0000
  287TTP    C37 5798   3.822   4.257   2.286  0.0000  0.0000  0.0000
  287TTP    C38 5799   3.743   4.123   2.272  0.0000  0.0000  0.0000
  287TTP    C39 5800   3.745   4.033   2.396  0.0000  0.0000  0.0000
  287TTP    C40 5801   3.668   3.903   2.381  0.0000  0.0000  0.0000
  287TTP    C41 5802   3.718   3.814   2.271  0.0000  0.0000  0.0000
  287TTP    C42 5803   3.712   3.877   2.128  0.0000  0.0000  0.0000
  288TTP     S1 5804   3.561   5.377   1.454  0.0000  0.0000  0.0000
  288TTP     S5 5805   3.523   5.775   1.587  0.0000  0.0000  0.0000
  288TTP     C1 5806   3.532   5.774   1.413  0.0000  0.0000  0.0000
  288TTP     C2 5807   3.541   5.646   1.359  0.0000  0.0000  0.0000
  288TTP     C3 5808   3.549   5.550   1.459  0.0000  0.0000  0.0000
  288TTP     C4 5809   3.551   5.369   1.629  0.0000  0.0000  0.0000
  288TTP    C17 5810   3.543   5.495   1.681  0.0000  0.0000  0.0000
  288TTP    C18 5811   3.539   5.608   1.586  0.0000  0.0000  0.0000
  288TTP    C32 5812   3.545   5.609   1.211  0.0000  0.0000  0.0000
  288TTP    C33 5813   3.692   5.603   1.157  0.0000  0.0000  0.0000
  288TTP    C34 5814   3.706   5.526   1.024  0.0000  0.0000  0.0000
  288TTP    C35 5815   3.854   5.489   0.985  0.0000  0.0000  0.0000
  288TTP    C36 5816   3.884   5.490   0.837  0.0000  0.0000  0.0000
  288TTP    C37 5817   3.927   5.356   0.783  0.0000  0.0000  0.0000
  288TTP    C38 5818   3.942   5.249   0.888  0.0000  0.0000  0.0000
  288TTP    C39 5819   3.882   5.284   1.022  0.0000  0.0000  0.0000
  288TTP    C40 5820   3.895   5.179   1.127  0.0000  0.0000  0.0000
  288TTP    C41 5821   3.835   5.214   1.260  0.0000  0.0000  0.0000
  288TTP    C42 5822   3.848   5.110   1.366  0.0000  0.0000  0.0000
  289FIC     F1 5823   3.408   5.570   3.183  0.0000  0.0000  0.0000
  289FIC     F2 5824   3.391   5.355   3.344  0.0000  0.0000  0.0000
  289FIC     O1 5825   3.497   5.343   2.712  0.0000  0.0000  0.0000
  289FIC     N5 5826   3.445   4.878   3.232  0.0000  0.0000  0.0000
  289FIC     N6 5827   3.500   4.735   2.838  0.0000  0.0000  0.0000
  289FIC    C19 5828   3.519   5.046   2.687  0.0000  0.0000  0.0000
  289FIC    C20 5829   3.493   5.113   2.801  0.0000  0.0000  0.0000
  289FIC    C21 5830   3.488   5.256   2.797  0.0000  0.0000  0.0000
  289FIC    C22 5831   3.465   5.310   2.938  0.0000  0.0000  0.0000
  289FIC    C23 5832   3.447   5.438   2.990  0.0000  0.0000  0.0000
  289FIC    C24 5833   3.421   5.455   3.125  0.0000  0.0000  0.0000
  289FIC    C25 5834   3.413   5.344   3.209  0.0000  0.0000  0.0000
  289FIC    C26 5835   3.431   5.217   3.157  0.0000  0.0000  0.0000
  289FIC    C27 5836   3.457   5.200   3.021  0.0000  0.0000  0.0000
  289FIC    C28 5837   3.473   5.073   2.943  0.0000  0.0000  0.0000
  289FIC    C29 5838   3.473   4.949   2.974  0.0000  0.0000  0.0000
  289FIC    C30 5839   3.457   4.921   3.133  0.0000  0.0000  0.0000
  289FIC    C31 5840   3.486   4.831   2.897  0.0000  0.0000  0.0000
  290FIC     F1 5841   3.414   6.563   1.590  0.0000  0.0000  0.0000
  290FIC     F2 5842   3.398   6.612   1.320  0.0000  0.0000  0.0000
  290FIC     O1 5843   3.513   6.043   1.592  0.0000  0.0000  0.0000
  290FIC     N5 5844   3.459   6.298   0.941  0.0000  0.0000  0.0000
  290FIC     N6 5845   3.523   5.890   0.983  0.0000  0.0000  0.0000
  290FIC    C19 5846   3.516   5.891   1.329  0.0000  0.0000  0.0000
  290FIC    C20 5847   3.503   6.030   1.348  0.0000  0.0000  0.0000
  290FIC    C21 5848   3.500   6.082   1.480  0.0000  0.0000  0.0000
  290FIC    C22 5849   3.470   6.233   1.452  0.0000  0.0000  0.0000
  290FIC    C23 5850   3.454   6.337   1.543  0.0000  0.0000  0.0000
  290FIC    C24 5851   3.430   6.466   1.497  0.0000  0.0000  0.0000
  290FIC    C25 5852   3.422   6.491   1.360  0.0000  0.0000  0.0000
  290FIC    C26 5853   3.439   6.387   1.269  0.0000  0.0000  0.0000
  290FIC    C27 5854   3.463   6.258   1.315  0.0000  0.0000  0.0000
  290FIC    C28 5855   3.486   6.130   1.241  0.0000  0.0000  0.0000
  290FIC    C29 5856   3.489   6.107   1.119  0.0000  0.0000  0.0000
  290FIC    C30 5857   3.468   6.236   1.036  0.0000  0.0000  0.0000
  290FIC    C31 5858   3.509   5.989   1.042  0.0000  0.0000  0.0000
  291BTD     S2 5859   3.449   2.430  -1.649  0.0000  0.0000  0.0000
  291BTD     N1 5860   3.452   2.444  -1.810  0.0000  0.0000  0.0000
  291BTD     N2 5861   3.432   2.583  -1.603  0.0000  0.0000  0.0000
  291BTD     N3 5862   3.383   2.996  -1.829  0.0000  0.0000  0.0000
  291BTD     N4 5863   3.409   2.811  -2.112  0.0000  0.0000  0.0000
  291BTD     C5 5864   3.427   2.638  -1.959  0.0000  0.0000  0.0000
  291BTD     C6 5865   3.433   2.579  -1.834  0.0000  0.0000  0.0000
  291BTD     C7 5866   3.423   2.657  -1.719  0.0000  0.0000  0.0000
  291BTD     C8 5867   3.407   2.795  -1.731  0.0000  0.0000  0.0000
  291BTD    C15 5868   3.401   2.854  -1.856  0.0000  0.0000  0.0000
  291BTD    C16 5869   3.411   2.775  -1.971  0.0000  0.0000  0.0000
  291BTD    C43 5870   3.382   2.934  -2.193  0.0000  0.0000  0.0000
  291BTD    C44 5871   3.247   2.951  -2.262  0.0000  0.0000  0.0000
  291BTD    C45 5872   3.226   3.087  -2.331  0.0000  0.0000  0.0000
  291BTD    C46 5873   3.329   3.088  -2.448  0.0000  0.0000  0.0000
  291BTD    C47 5874   3.139   2.920  -2.160  0.0000  0.0000  0.0000
  291BTD    C48 5875   3.005   2.918  -2.239  0.0000  0.0000  0.0000
  291BTD    C49 5876   2.897   2.889  -2.136  0.0000  0.0000  0.0000
  291BTD    C50 5877   2.761   2.912  -2.205  0.0000  0.0000  0.0000
  291BTD    C75 5878   3.365   3.109  -1.914  0.0000  0.0000  0.0000
  291BTD    C76 5879   3.481   3.202  -1.948  0.0000  0.0000  0.0000
  291BTD    C77 5880   3.617   3.148  -1.984  0.0000  0.0000  0.0000
  291BTD    C78 5881   3.737   3.237  -1.943  0.0000  0.0000  0.0000
  291BTD    C79 5882   3.443   3.323  -2.037  0.0000  0.0000  0.0000
  291BTD    C80 5883   3.348   3.433  -1.988  0.0000  0.0000  0.0000
  291BTD    C81 5884   3.288   3.558  -2.060  0.0000  0.0000  0.0000
  291BTD    C82 5885   3.306   3.666  -1.974  0.0000  0.0000  0.0000
  292TTP     S1 5886   3.460   2.431  -2.164  0.0000  0.0000  0.0000
  292TTP     S5 5887   3.445   2.721  -2.470  0.0000  0.0000  0.0000
  292TTP     C1 5888   3.470   2.557  -2.535  0.0000  0.0000  0.0000
  292TTP     C2 5889   3.474   2.452  -2.438  0.0000  0.0000  0.0000
  292TTP     C3 5890   3.460   2.515  -2.324  0.0000  0.0000  0.0000
  292TTP     C4 5891   3.438   2.586  -2.094  0.0000  0.0000  0.0000
  292TTP    C17 5892   3.425   2.688  -2.179  0.0000  0.0000  0.0000
  292TTP    C18 5893   3.440   2.643  -2.312  0.0000  0.0000  0.0000
  292TTP    C32 5894   3.476   2.305  -2.481  0.0000  0.0000  0.0000
  292TTP    C33 5895   3.622   2.258  -2.473  0.0000  0.0000  0.0000
  292TTP    C34 5896   3.626   2.106  -2.486  0.0000  0.0000  0.0000
  292TTP    C35 5897   3.764   2.052  -2.518  0.0000  0.0000  0.0000
  292TTP    C36 5898   3.825   1.969  -2.408  0.0000  0.0000  0.0000
  292TTP    C37 5899   3.965   1.913  -2.438  0.0000  0.0000  0.0000
  292TTP    C38 5900   4.049   1.998  -2.531  0.0000  0.0000  0.0000
  292TTP    C39 5901   3.971   2.108  -2.601  0.0000  0.0000  0.0000
  292TTP    C40 5902   4.054   2.229  -2.635  0.0000  0.0000  0.0000
  292TTP    C41 5903   4.005   2.358  -2.574  0.0000  0.0000  0.0000
  292TTP    C42 5904   3.882   2.346  -2.486  0.0000  0.0000  0.0000
  293TTP     S1 5905   3.395   2.903  -1.458  0.0000  0.0000  0.0000
  293TTP     S5 5906   3.341   3.291  -1.613  0.0000  0.0000  0.0000
  293TTP     C1 5907   3.332   3.303  -1.440  0.0000  0.0000  0.0000
  293TTP     C2 5908   3.351   3.177  -1.375  0.0000  0.0000  0.0000
  293TTP     C3 5909   3.370   3.079  -1.473  0.0000  0.0000  0.0000
  293TTP     C4 5910   3.399   2.892  -1.626  0.0000  0.0000  0.0000
  293TTP    C17 5911   3.386   3.016  -1.693  0.0000  0.0000  0.0000
  293TTP    C18 5912   3.368   3.122  -1.603  0.0000  0.0000  0.0000
  293TTP    C32 5913   3.331   3.149  -1.224  0.0000  0.0000  0.0000
  293TTP    C33 5914   3.453   3.125  -1.137  0.0000  0.0000  0.0000
  293TTP    C34 5915   3.440   3.090  -0.986  0.0000  0.0000  0.0000
  293TTP    C35 5916   3.456   2.943  -0.953  0.0000  0.0000  0.0000
  293TTP    C36 5917   3.462   2.893  -0.808  0.0000  0.0000  0.0000
  293TTP    C37 5918   3.477   2.743  -0.793  0.0000  0.0000  0.0000
  293TTP    C38 5919   3.602   2.699  -0.720  0.0000  0.0000  0.0000
  293TTP    C39 5920   3.697   2.612  -0.798  0.0000  0.0000  0.0000
  293TTP    C40 5921   3.817   2.573  -0.716  0.0000  0.0000  0.0000
  293TTP    C41 5922   3.917   2.486  -0.787  0.0000  0.0000  0.0000
  293TTP    C42 5923   4.039   2.446  -0.706  0.0000  0.0000  0.0000
  294FIC     F1 5924   3.535   3.071  -3.178  0.0000  0.0000  0.0000
  294FIC     F2 5925   3.564   2.862  -3.339  0.0000  0.0000  0.0000
  294FIC     O1 5926   3.472   2.840  -2.701  0.0000  0.0000  0.0000
  294FIC     N5 5927   3.594   2.393  -3.218  0.0000  0.0000  0.0000
  294FIC     N6 5928   3.514   2.229  -2.830  0.0000  0.0000  0.0000
  294FIC    C19 5929   3.488   2.535  -2.678  0.0000  0.0000  0.0000
  294FIC    C20 5930   3.495   2.617  -2.787  0.0000  0.0000  0.0000
  294FIC    C21 5931   3.493   2.757  -2.794  0.0000  0.0000  0.0000
  294FIC    C22 5932   3.513   2.809  -2.934  0.0000  0.0000  0.0000
  294FIC    C23 5933   3.512   2.935  -2.993  0.0000  0.0000  0.0000
  294FIC    C24 5934   3.531   2.947  -3.130  0.0000  0.0000  0.0000
  294FIC    C25 5935   3.551   2.834  -3.208  0.0000  0.0000  0.0000
  294FIC    C26 5936   3.552   2.708  -3.149  0.0000  0.0000  0.0000
  294FIC    C27 5937   3.533   2.696  -3.012  0.0000  0.0000  0.0000
  294FIC    C28 5938   3.522   2.572  -2.937  0.0000  0.0000  0.0000
  294FIC    C29 5939   3.540   2.445  -2.970  0.0000  0.0000  0.0000
  294FIC    C30 5940   3.571   2.416  -3.105  0.0000  0.0000  0.0000
  294FIC    C31 5941   3.528   2.327  -2.895  0.0000  0.0000  0.0000
  295FIC     F1 5942   3.200   4.073  -1.669  0.0000  0.0000  0.0000
  295FIC     F2 5943   3.174   4.135  -1.419  0.0000  0.0000  0.0000
  295FIC     O1 5944   3.301   3.550  -1.634  0.0000  0.0000  0.0000
  295FIC     N5 5945   3.223   3.862  -1.017  0.0000  0.0000  0.0000
  295FIC     N6 5946   3.293   3.445  -1.028  0.0000  0.0000  0.0000
  295FIC    C19 5947   3.310   3.420  -1.366  0.0000  0.0000  0.0000
  295FIC    C20 5948   3.292   3.554  -1.393  0.0000  0.0000  0.0000
  295FIC    C21 5949   3.285   3.603  -1.521  0.0000  0.0000  0.0000
  295FIC    C22 5950   3.261   3.752  -1.521  0.0000  0.0000  0.0000
  295FIC    C23 5951   3.241   3.848  -1.618  0.0000  0.0000  0.0000
  295FIC    C24 5952   3.216   3.975  -1.575  0.0000  0.0000  0.0000
  295FIC    C25 5953   3.199   4.007  -1.442  0.0000  0.0000  0.0000
  295FIC    C26 5954   3.218   3.921  -1.346  0.0000  0.0000  0.0000
  295FIC    C27 5955   3.246   3.790  -1.386  0.0000  0.0000  0.0000
  295FIC    C28 5956   3.266   3.665  -1.306  0.0000  0.0000  0.0000
  295FIC    C29 5957   3.263   3.656  -1.168  0.0000  0.0000  0.0000
  295FIC    C30 5958   3.241   3.764  -1.087  0.0000  0.0000  0.0000
  295FIC    C31 5959   3.277   3.541  -1.096  0.0000  0.0000  0.0000
  296BTD     S2 5960   3.731   2.897  -1.659  0.0000  0.0000  0.0000
  296BTD     N1 5961   3.739   2.878  -1.827  0.0000  0.0000  0.0000
  296BTD     N2 5962   3.754   2.744  -1.613  0.0000  0.0000  0.0000
  296BTD     N3 5963   3.805   2.323  -1.820  0.0000  0.0000  0.0000
  296BTD     N4 5964   3.818   2.511  -2.112  0.0000  0.0000  0.0000
  296BTD     C5 5965   3.776   2.677  -1.966  0.0000  0.0000  0.0000
  296BTD     C6 5966   3.755   2.737  -1.845  0.0000  0.0000  0.0000
  296BTD     C7 5967   3.772   2.675  -1.725  0.0000  0.0000  0.0000
  296BTD     C8 5968   3.789   2.534  -1.733  0.0000  0.0000  0.0000
  296BTD    C15 5969   3.798   2.457  -1.851  0.0000  0.0000  0.0000
  296BTD    C16 5970   3.799   2.542  -1.976  0.0000  0.0000  0.0000
  296BTD    C43 5971   3.865   2.385  -2.172  0.0000  0.0000  0.0000
  296BTD    C44 5972   4.017   2.358  -2.160  0.0000  0.0000  0.0000
  296BTD    C45 5973   4.037   2.224  -2.239  0.0000  0.0000  0.0000
  296BTD    C46 5974   4.143   2.135  -2.171  0.0000  0.0000  0.0000
  296BTD    C47 5975   4.093   2.474  -2.221  0.0000  0.0000  0.0000
  296BTD    C48 5976   4.246   2.466  -2.215  0.0000  0.0000  0.0000
  296BTD    C49 5977   4.344   2.570  -2.269  0.0000  0.0000  0.0000
  296BTD    C50 5978   4.256   2.695  -2.236  0.0000  0.0000  0.0000
  296BTD    C75 5979   3.839   2.206  -1.904  0.0000  0.0000  0.0000
  296BTD    C76 5980   3.728   2.104  -1.931  0.0000  0.0000  0.0000
  296BTD    C77 5981   3.606   2.170  -1.989  0.0000  0.0000  0.0000
  296BTD    C78 5982   3.480   2.079  -1.999  0.0000  0.0000  0.0000
  296BTD    C79 5983   3.770   2.000  -2.037  0.0000  0.0000  0.0000
  296BTD    C80 5984   3.853   1.893  -1.965  0.0000  0.0000  0.0000
  296BTD    C81 5985   3.889   1.777  -2.063  0.0000  0.0000  0.0000
  296BTD    C82 5986   4.002   1.697  -1.994  0.0000  0.0000  0.0000
  297TTP     S1 5987   3.756   2.881  -2.177  0.0000  0.0000  0.0000
  297TTP     S5 5988   3.826   2.588  -2.470  0.0000  0.0000  0.0000
  297TTP     C1 5989   3.805   2.741  -2.547  0.0000  0.0000  0.0000
  297TTP     C2 5990   3.786   2.849  -2.458  0.0000  0.0000  0.0000
  297TTP     C3 5991   3.781   2.803  -2.323  0.0000  0.0000  0.0000
  297TTP     C4 5992   3.780   2.725  -2.093  0.0000  0.0000  0.0000
  297TTP    C17 5993   3.800   2.631  -2.186  0.0000  0.0000  0.0000
  297TTP    C18 5994   3.805   2.665  -2.322  0.0000  0.0000  0.0000
  297TTP    C32 5995   3.764   3.001  -2.494  0.0000  0.0000  0.0000
  297TTP    C33 5996   3.687   3.084  -2.392  0.0000  0.0000  0.0000
  297TTP    C34 5997   3.667   3.226  -2.446  0.0000  0.0000  0.0000
  297TTP    C35 5998   3.613   3.319  -2.338  0.0000  0.0000  0.0000
  297TTP    C36 5999   3.569   3.458  -2.388  0.0000  0.0000  0.0000
  297TTP    C37 6000   3.514   3.553  -2.286  0.0000  0.0000  0.0000
  297TTP    C38 6001   3.593   3.687  -2.272  0.0000  0.0000  0.0000
  297TTP    C39 6002   3.592   3.777  -2.396  0.0000  0.0000  0.0000
  297TTP    C40 6003   3.668   3.907  -2.381  0.0000  0.0000  0.0000
  297TTP    C41 6004   3.618   3.996  -2.271  0.0000  0.0000  0.0000
  297TTP    C42 6005   3.624   3.933  -2.128  0.0000  0.0000  0.0000
  298TTP     S1 6006   3.775   2.433  -1.454  0.0000  0.0000  0.0000
  298TTP     S5 6007   3.813   2.035  -1.587  0.0000  0.0000  0.0000
  298TTP     C1 6008   3.804   2.036  -1.413  0.0000  0.0000  0.0000
  298TTP     C2 6009   3.795   2.164  -1.359  0.0000  0.0000  0.0000
  298TTP     C3 6010   3.787   2.260  -1.459  0.0000  0.0000  0.0000
  298TTP     C4 6011   3.785   2.441  -1.629  0.0000  0.0000  0.0000
  298TTP    C17 6012   3.793   2.315  -1.681  0.0000  0.0000  0.0000
  298TTP    C18 6013   3.797   2.202  -1.586  0.0000  0.0000  0.0000
  298TTP    C32 6014   3.791   2.201  -1.211  0.0000  0.0000  0.0000
  298TTP    C33 6015   3.644   2.207  -1.157  0.0000  0.0000  0.0000
  298TTP    C34 6016   3.630   2.284  -1.024  0.0000  0.0000  0.0000
  298TTP    C35 6017   3.482   2.321  -0.985  0.0000  0.0000  0.0000
  298TTP    C36 6018   3.452   2.320  -0.837  0.0000  0.0000  0.0000
  298TTP    C37 6019   3.409   2.454  -0.783  0.0000  0.0000  0.0000
  298TTP    C38 6020   3.394   2.561  -0.888  0.0000  0.0000  0.0000
  298TTP    C39 6021   3.454   2.526  -1.022  0.0000  0.0000  0.0000
  298TTP    C40 6022   3.441   2.631  -1.127  0.0000  0.0000  0.0000
  298TTP    C41 6023   3.501   2.596  -1.260  0.0000  0.0000  0.0000
  298TTP    C42 6024   3.488   2.700  -1.366  0.0000  0.0000  0.0000
  299FIC     F1 6025   3.928   2.240  -3.183  0.0000  0.0000  0.0000
  299FIC     F2 6026   3.945   2.455  -3.344  0.0000  0.0000  0.0000
  299FIC     O1 6027   3.839   2.467  -2.712  0.0000  0.0000  0.0000
  299FIC     N5 6028   3.891   2.932  -3.232  0.0000  0.0000  0.0000
  299FIC     N6 6029   3.836   3.075  -2.838  0.0000  0.0000  0.0000
  299FIC    C19 6030   3.817   2.764  -2.687  0.0000  0.0000  0.0000
  299FIC    C20 6031   3.843   2.697  -2.801  0.0000  0.0000  0.0000
  299FIC    C21 6032   3.848   2.554  -2.797  0.0000  0.0000  0.0000
  299FIC    C22 6033   3.871   2.500  -2.938  0.0000  0.0000  0.0000
  299FIC    C23 6034   3.889   2.372  -2.990  0.0000  0.0000  0.0000
  299FIC    C24 6035   3.915   2.355  -3.125  0.0000  0.0000  0.0000
  299FIC    C25 6036   3.923   2.466  -3.209  0.0000  0.0000  0.0000
  299FIC    C26 6037   3.905   2.593  -3.157  0.0000  0.0000  0.0000
  299FIC    C27 6038   3.879   2.610  -3.021  0.0000  0.0000  0.0000
  299FIC    C28 6039   3.863   2.737  -2.943  0.0000  0.0000  0.0000
  299FIC    C29 6040   3.863   2.861  -2.974  0.0000  0.0000  0.0000
  299FIC    C30 6041   3.879   2.889  -3.133  0.0000  0.0000  0.0000
  299FIC    C31 6042   3.850   2.979  -2.897  0.0000  0.0000  0.0000
  300FIC     F1 6043   3.922   1.247  -1.590  0.0000  0.0000  0.0000
  300FIC     F2 6044   3.938   1.198  -1.320  0.0000  0.0000  0.0000
  300FIC     O1 6045   3.823   1.767  -1.592  0.0000  0.0000  0.0000
  300FIC     N5 6046   3.877   1.512  -0.941  0.0000  0.0000  0.0000
  300FIC     N6 6047   3.813   1.920  -0.983  0.0000  0.0000  0.0000
  300FIC    C19 6048   3.820   1.919  -1.329  0.0000  0.0000  0.0000
  300FIC    C20 6049   3.833   1.780  -1.348  0.0000  0.0000  0.0000
  300FIC    C21 6050   3.836   1.728  -1.480  0.0000  0.0000  0.0000
  300FIC    C22 6051   3.866   1.577  -1.452  0.0000  0.0000  0.0000
  300FIC    C23 6052   3.882   1.473  -1.543  0.0000  0.0000  0.0000
  300FIC    C24 6053   3.906   1.344  -1.497  0.0000  0.0000  0.0000
  300FIC    C25 6054   3.914   1.319  -1.360  0.0000  0.0000  0.0000
  300FIC    C26 6055   3.897   1.423  -1.269  0.0000  0.0000  0.0000
  300FIC    C27 6056   3.873   1.552  -1.315  0.0000  0.0000  0.0000
  300FIC    C28 6057   3.850   1.680  -1.241  0.0000  0.0000  0.0000
  300FIC    C29 6058   3.847   1.703  -1.119  0.0000  0.0000  0.0000
  300FIC    C30 6059   3.868   1.574  -1.036  0.0000  0.0000  0.0000
  300FIC    C31 6060   3.827   1.821  -1.042  0.0000  0.0000  0.0000
  301BTD     S2 6061   3.662   7.333   1.649  0.0000  0.0000  0.0000
  301BTD     N1 6062   3.659   7.319   1.810  0.0000  0.0000  0.0000
  301BTD     N2 6063   3.679   7.180   1.603  0.0000  0.0000  0.0000
  301BTD     N3 6064   3.728   6.767   1.829  0.0000  0.0000  0.0000
  301BTD     N4 6065   3.702   6.952   2.112  0.0000  0.0000  0.0000
  301BTD     C5 6066   3.684   7.125   1.959  0.0000  0.0000  0.0000
  301BTD     C6 6067   3.678   7.184   1.834  0.0000  0.0000  0.0000
  301BTD     C7 6068   3.688   7.106   1.719  0.0000  0.0000  0.0000
  301BTD     C8 6069   3.704   6.968   1.731  0.0000  0.0000  0.0000
  301BTD    C15 6070   3.710   6.909   1.856  0.0000  0.0000  0.0000
  301BTD    C16 6071   3.700   6.988   1.971  0.0000  0.0000  0.0000
  301BTD    C43 6072   3.729   6.829   2.193  0.0000  0.0000  0.0000
  301BTD    C44 6073   3.864   6.812   2.262  0.0000  0.0000  0.0000
  301BTD    C45 6074   3.885   6.676   2.331  0.0000  0.0000  0.0000
  301BTD    C46 6075   3.782   6.675   2.448  0.0000  0.0000  0.0000
  301BTD    C47 6076   3.972   6.843   2.160  0.0000  0.0000  0.0000
  301BTD    C48 6077   4.106   6.845   2.239  0.0000  0.0000  0.0000
  301BTD    C49 6078   4.214   6.874   2.136  0.0000  0.0000  0.0000
  301BTD    C50 6079   4.350   6.851   2.205  0.0000  0.0000  0.0000
  301BTD    C75 6080   3.746   6.654   1.914  0.0000  0.0000  0.0000
  301BTD    C76 6081   3.630   6.561   1.948  0.0000  0.0000  0.0000
  301BTD    C77 6082   3.494   6.615   1.984  0.0000  0.0000  0.0000
  301BTD    C78 6083   3.374   6.526   1.943  0.0000  0.0000  0.0000
  301BTD    C79 6084   3.668   6.440   2.037  0.0000  0.0000  0.0000
  301BTD    C80 6085   3.763   6.330   1.988  0.0000  0.0000  0.0000
  301BTD    C81 6086   3.823   6.205   2.060  0.0000  0.0000  0.0000
  301BTD    C82 6087   3.805   6.097   1.974  0.0000  0.0000  0.0000
  302TTP     S1 6088   3.651   7.332   2.164  0.0000  0.0000  0.0000
  302TTP     S5 6089   3.666   7.042   2.470  0.0000  0.0000  0.0000
  302TTP     C1 6090   3.641   7.206   2.535  0.0000  0.0000  0.0000
  302TTP     C2 6091   3.637   7.311   2.438  0.0000  0.0000  0.0000
  302TTP     C3 6092   3.651   7.248   2.324  0.0000  0.0000  0.0000
  302TTP     C4 6093   3.673   7.177   2.094  0.0000  0.0000  0.0000
  302TTP    C17 6094   3.686   7.075   2.179  0.0000  0.0000  0.0000
  302TTP    C18 6095   3.671   7.120   2.312  0.0000  0.0000  0.0000
  302TTP    C32 6096   3.635   7.458   2.481  0.0000  0.0000  0.0000
  302TTP    C33 6097   3.489   7.505   2.473  0.0000  0.0000  0.0000
  302TTP    C34 6098   3.485   7.657   2.486  0.0000  0.0000  0.0000
  302TTP    C35 6099   3.347   7.711   2.518  0.0000  0.0000  0.0000
  302TTP    C36 6100   3.286   7.794   2.408  0.0000  0.0000  0.0000
  302TTP    C37 6101   3.146   7.850   2.438  0.0000  0.0000  0.0000
  302TTP    C38 6102   3.062   7.765   2.531  0.0000  0.0000  0.0000
  302TTP    C39 6103   3.140   7.655   2.601  0.0000  0.0000  0.0000
  302TTP    C40 6104   3.057   7.534   2.635  0.0000  0.0000  0.0000
  302TTP    C41 6105   3.106   7.405   2.574  0.0000  0.0000  0.0000
  302TTP    C42 6106   3.229   7.417   2.486  0.0000  0.0000  0.0000
  303TTP     S1 6107   3.716   6.860   1.458  0.0000  0.0000  0.0000
  303TTP     S5 6108   3.770   6.472   1.613  0.0000  0.0000  0.0000
  303TTP     C1 6109   3.779   6.460   1.440  0.0000  0.0000  0.0000
  303TTP     C2 6110   3.760   6.586   1.375  0.0000  0.0000  0.0000
  303TTP     C3 6111   3.741   6.684   1.473  0.0000  0.0000  0.0000
  303TTP     C4 6112   3.712   6.871   1.626  0.0000  0.0000  0.0000
  303TTP    C17 6113   3.725   6.747   1.693  0.0000  0.0000  0.0000
  303TTP    C18 6114   3.743   6.641   1.603  0.0000  0.0000  0.0000
  303TTP    C32 6115   3.780   6.614   1.224  0.0000  0.0000  0.0000
  303TTP    C33 6116   3.658   6.638   1.137  0.0000  0.0000  0.0000
  303TTP    C34 6117   3.671   6.673   0.986  0.0000  0.0000  0.0000
  303TTP    C35 6118   3.655   6.820   0.953  0.0000  0.0000  0.0000
  303TTP    C36 6119   3.649   6.870   0.808  0.0000  0.0000  0.0000
  303TTP    C37 6120   3.634   7.020   0.793  0.0000  0.0000  0.0000
  303TTP    C38 6121   3.509   7.064   0.720  0.0000  0.0000  0.0000
  303TTP    C39 6122   3.414   7.151   0.798  0.0000  0.0000  0.0000
  303TTP    C40 6123   3.294   7.190   0.716  0.0000  0.0000  0.0000
  303TTP    C41 6124   3.194   7.277   0.787  0.0000  0.0000  0.0000
  303TTP    C42 6125   3.072   7.317   0.706  0.0000  0.0000  0.0000
  304FIC     F1 6126   3.576   6.692   3.178  0.0000  0.0000  0.0000
  304FIC     F2 6127   3.547   6.901   3.339  0.0000  0.0000  0.0000
  304FIC     O1 6128   3.639   6.923   2.701  0.0000  0.0000  0.0000
  304FIC     N5 6129   3.518   7.370   3.218  0.0000  0.0000  0.0000
  304FIC     N6 6130   3.597   7.534   2.830  0.0000  0.0000  0.0000
  304FIC    C19 6131   3.623   7.228   2.678  0.0000  0.0000  0.0000
  304FIC    C20 6132   3.616   7.146   2.787  0.0000  0.0000  0.0000
  304FIC    C21 6133   3.618   7.006   2.794  0.0000  0.0000  0.0000
  304FIC    C22 6134   3.599   6.954   2.934  0.0000  0.0000  0.0000
  304FIC    C23 6135   3.599   6.828   2.993  0.0000  0.0000  0.0000
  304FIC    C24 6136   3.580   6.816   3.130  0.0000  0.0000  0.0000
  304FIC    C25 6137   3.560   6.929   3.208  0.0000  0.0000  0.0000
  304FIC    C26 6138   3.559   7.055   3.149  0.0000  0.0000  0.0000
  304FIC    C27 6139   3.578   7.067   3.012  0.0000  0.0000  0.0000
  304FIC    C28 6140   3.589   7.191   2.937  0.0000  0.0000  0.0000
  304FIC    C29 6141   3.571   7.318   2.970  0.0000  0.0000  0.0000
  304FIC    C30 6142   3.540   7.347   3.105  0.0000  0.0000  0.0000
  304FIC    C31 6143   3.583   7.436   2.895  0.0000  0.0000  0.0000
  305FIC     F1 6144   3.912   5.690   1.669  0.0000  0.0000  0.0000
  305FIC     F2 6145   3.937   5.628   1.419  0.0000  0.0000  0.0000
  305FIC     O1 6146   3.810   6.213   1.634  0.0000  0.0000  0.0000
  305FIC     N5 6147   3.888   5.901   1.017  0.0000  0.0000  0.0000
  305FIC     N6 6148   3.819   6.318   1.028  0.0000  0.0000  0.0000
  305FIC    C19 6149   3.801   6.343   1.366  0.0000  0.0000  0.0000
  305FIC    C20 6150   3.819   6.209   1.393  0.0000  0.0000  0.0000
  305FIC    C21 6151   3.826   6.160   1.521  0.0000  0.0000  0.0000
  305FIC    C22 6152   3.850   6.011   1.521  0.0000  0.0000  0.0000
  305FIC    C23 6153   3.870   5.915   1.618  0.0000  0.0000  0.0000
  305FIC    C24 6154   3.895   5.787   1.575  0.0000  0.0000  0.0000
  305FIC    C25 6155   3.912   5.756   1.442  0.0000  0.0000  0.0000
  305FIC    C26 6156   3.893   5.842   1.346  0.0000  0.0000  0.0000
  305FIC    C27 6157   3.865   5.973   1.386  0.0000  0.0000  0.0000
  305FIC    C28 6158   3.845   6.098   1.306  0.0000  0.0000  0.0000
  305FIC    C29 6159   3.848   6.107   1.168  0.0000  0.0000  0.0000
  305FIC    C30 6160   3.870   5.999   1.087  0.0000  0.0000  0.0000
  305FIC    C31 6161   3.834   6.222   1.096  0.0000  0.0000  0.0000
  306BTD     S2 6162   3.380   6.866   1.659  0.0000  0.0000  0.0000
  306BTD     N1 6163   3.372   6.885   1.827  0.0000  0.0000  0.0000
  306BTD     N2 6164   3.357   7.019   1.613  0.0000  0.0000  0.0000
  306BTD     N3 6165   3.306   7.440   1.820  0.0000  0.0000  0.0000
  306BTD     N4 6166   3.293   7.252   2.112  0.0000  0.0000  0.0000
  306BTD     C5 6167   3.335   7.086   1.966  0.0000  0.0000  0.0000
  306BTD     C6 6168   3.356   7.026   1.845  0.0000  0.0000  0.0000
  306BTD     C7 6169   3.339   7.088   1.725  0.0000  0.0000  0.0000
  306BTD     C8 6170   3.322   7.229   1.733  0.0000  0.0000  0.0000
  306BTD    C15 6171   3.313   7.306   1.851  0.0000  0.0000  0.0000
  306BTD    C16 6172   3.312   7.221   1.976  0.0000  0.0000  0.0000
  306BTD    C43 6173   3.246   7.378   2.172  0.0000  0.0000  0.0000
  306BTD    C44 6174   3.094   7.405   2.160  0.0000  0.0000  0.0000
  306BTD    C45 6175   3.074   7.539   2.239  0.0000  0.0000  0.0000
  306BTD    C46 6176   2.968   7.628   2.171  0.0000  0.0000  0.0000
  306BTD    C47 6177   3.018   7.289   2.221  0.0000  0.0000  0.0000
  306BTD    C48 6178   2.865   7.297   2.215  0.0000  0.0000  0.0000
  306BTD    C49 6179   2.767   7.193   2.269  0.0000  0.0000  0.0000
  306BTD    C50 6180   2.855   7.068   2.236  0.0000  0.0000  0.0000
  306BTD    C75 6181   3.272   7.557   1.904  0.0000  0.0000  0.0000
  306BTD    C76 6182   3.384   7.659   1.931  0.0000  0.0000  0.0000
  306BTD    C77 6183   3.505   7.593   1.989  0.0000  0.0000  0.0000
  306BTD    C78 6184   3.631   7.684   1.999  0.0000  0.0000  0.0000
  306BTD    C79 6185   3.341   7.763   2.037  0.0000  0.0000  0.0000
  306BTD    C80 6186   3.258   7.870   1.965  0.0000  0.0000  0.0000
  306BTD    C81 6187   3.222   7.986   2.063  0.0000  0.0000  0.0000
  306BTD    C82 6188   3.109   8.066   1.994  0.0000  0.0000  0.0000
  307TTP     S1 6189   3.355   6.882   2.177  0.0000  0.0000  0.0000
  307TTP     S5 6190   3.285   7.175   2.470  0.0000  0.0000  0.0000
  307TTP     C1 6191   3.306   7.022   2.547  0.0000  0.0000  0.0000
  307TTP     C2 6192   3.325   6.914   2.458  0.0000  0.0000  0.0000
  307TTP     C3 6193   3.330   6.960   2.323  0.0000  0.0000  0.0000
  307TTP     C4 6194   3.331   7.038   2.093  0.0000  0.0000  0.0000
  307TTP    C17 6195   3.311   7.132   2.186  0.0000  0.0000  0.0000
  307TTP    C18 6196   3.306   7.098   2.322  0.0000  0.0000  0.0000
  307TTP    C32 6197   3.347   6.762   2.494  0.0000  0.0000  0.0000
  307TTP    C33 6198   3.424   6.679   2.392  0.0000  0.0000  0.0000
  307TTP    C34 6199   3.444   6.537   2.446  0.0000  0.0000  0.0000
  307TTP    C35 6200   3.498   6.444   2.338  0.0000  0.0000  0.0000
  307TTP    C36 6201   3.542   6.305   2.388  0.0000  0.0000  0.0000
  307TTP    C37 6202   3.597   6.210   2.286  0.0000  0.0000  0.0000
  307TTP    C38 6203   3.518   6.076   2.272  0.0000  0.0000  0.0000
  307TTP    C39 6204   3.520   5.986   2.396  0.0000  0.0000  0.0000
  307TTP    C40 6205   3.443   5.856   2.381  0.0000  0.0000  0.0000
  307TTP    C41 6206   3.493   5.767   2.271  0.0000  0.0000  0.0000
  307TTP    C42 6207   3.487   5.830   2.128  0.0000  0.0000  0.0000
  308TTP     S1 6208   3.336   7.330   1.454  0.0000  0.0000  0.0000
  308TTP     S5 6209   3.298   7.728   1.587  0.0000  0.0000  0.0000
  308TTP     C1 6210   3.307   7.727   1.413  0.0000  0.0000  0.0000
  308TTP     C2 6211   3.316   7.599   1.359  0.0000  0.0000  0.0000
  308TTP     C3 6212   3.324   7.503   1.459  0.0000  0.0000  0.0000
  308TTP     C4 6213   3.326   7.322   1.629  0.0000  0.0000  0.0000
  308TTP    C17 6214   3.318   7.448   1.681  0.0000  0.0000  0.0000
  308TTP    C18 6215   3.314   7.561   1.586  0.0000  0.0000  0.0000
  308TTP    C32 6216   3.320   7.562   1.211  0.0000  0.0000  0.0000
  308TTP    C33 6217   3.467   7.556   1.157  0.0000  0.0000  0.0000
  308TTP    C34 6218   3.481   7.479   1.024  0.0000  0.0000  0.0000
  308TTP    C35 6219   3.629   7.442   0.985  0.0000  0.0000  0.0000
  308TTP    C36 6220   3.659   7.443   0.837  0.0000  0.0000  0.0000
  308TTP    C37 6221   3.702   7.309   0.783  0.0000  0.0000  0.0000
  308TTP    C38 6222   3.717   7.202   0.888  0.0000  0.0000  0.0000
  308TTP    C39 6223   3.657   7.237   1.022  0.0000  0.0000  0.0000
  308TTP    C40 6224   3.670   7.132   1.127  0.0000  0.0000  0.0000
  308TTP    C41 6225   3.610   7.167   1.260  0.0000  0.0000  0.0000
  308TTP    C42 6226   3.623   7.063   1.366  0.0000  0.0000  0.0000
  309FIC     F1 6227   3.183   7.523   3.183  0.0000  0.0000  0.0000
  309FIC     F2 6228   3.166   7.308   3.344  0.0000  0.0000  0.0000
  309FIC     O1 6229   3.272   7.296   2.712  0.0000  0.0000  0.0000
  309FIC     N5 6230   3.220   6.831   3.232  0.0000  0.0000  0.0000
  309FIC     N6 6231   3.275   6.688   2.838  0.0000  0.0000  0.0000
  309FIC    C19 6232   3.294   6.999   2.687  0.0000  0.0000  0.0000
  309FIC    C20 6233   3.268   7.066   2.801  0.0000  0.0000  0.0000
  309FIC    C21 6234   3.263   7.209   2.797  0.0000  0.0000  0.0000
  309FIC    C22 6235   3.240   7.263   2.938  0.0000  0.0000  0.0000
  309FIC    C23 6236   3.222   7.391   2.990  0.0000  0.0000  0.0000
  309FIC    C24 6237   3.196   7.408   3.125  0.0000  0.0000  0.0000
  309FIC    C25 6238   3.188   7.297   3.209  0.0000  0.0000  0.0000
  309FIC    C26 6239   3.206   7.170   3.157  0.0000  0.0000  0.0000
  309FIC    C27 6240   3.232   7.153   3.021  0.0000  0.0000  0.0000
  309FIC    C28 6241   3.248   7.026   2.943  0.0000  0.0000  0.0000
  309FIC    C29 6242   3.248   6.902   2.974  0.0000  0.0000  0.0000
  309FIC    C30 6243   3.232   6.874   3.133  0.0000  0.0000  0.0000
  309FIC    C31 6244   3.261   6.784   2.897  0.0000  0.0000  0.0000
  310FIC     F1 6245   3.189   8.516   1.590  0.0000  0.0000  0.0000
  310FIC     F2 6246   3.173   8.565   1.320  0.0000  0.0000  0.0000
  310FIC     O1 6247   3.288   7.996   1.592  0.0000  0.0000  0.0000
  310FIC     N5 6248   3.234   8.251   0.941  0.0000  0.0000  0.0000
  310FIC     N6 6249   3.298   7.843   0.983  0.0000  0.0000  0.0000
  310FIC    C19 6250   3.291   7.844   1.329  0.0000  0.0000  0.0000
  310FIC    C20 6251   3.278   7.983   1.348  0.0000  0.0000  0.0000
  310FIC    C21 6252   3.275   8.035   1.480  0.0000  0.0000  0.0000
  310FIC    C22 6253   3.245   8.186   1.452  0.0000  0.0000  0.0000
  310FIC    C23 6254   3.229   8.290   1.543  0.0000  0.0000  0.0000
  310FIC    C24 6255   3.205   8.419   1.497  0.0000  0.0000  0.0000
  310FIC    C25 6256   3.197   8.444   1.360  0.0000  0.0000  0.0000
  310FIC    C26 6257   3.214   8.340   1.269  0.0000  0.0000  0.0000
  310FIC    C27 6258   3.238   8.211   1.315  0.0000  0.0000  0.0000
  310FIC    C28 6259   3.261   8.083   1.241  0.0000  0.0000  0.0000
  310FIC    C29 6260   3.264   8.060   1.119  0.0000  0.0000  0.0000
  310FIC    C30 6261   3.243   8.189   1.036  0.0000  0.0000  0.0000
  310FIC    C31 6262   3.284   7.942   1.042  0.0000  0.0000  0.0000
  311BTD     S2 6263   3.224   4.383  -1.649  0.0000  0.0000  0.0000
  311BTD     N1 6264   3.227   4.397  -1.810  0.0000  0.0000  0.0000
  311BTD     N2 6265   3.207   4.536  -1.603  0.0000  0.0000  0.0000
  311BTD     N3 6266   3.158   4.949  -1.829  0.0000  0.0000  0.0000
  311BTD     N4 6267   3.184   4.764  -2.112  0.0000  0.0000  0.0000
  311BTD     C5 6268   3.202   4.591  -1.959  0.0000  0.0000  0.0000
  311BTD     C6 6269   3.208   4.532  -1.834  0.0000  0.0000  0.0000
  311BTD     C7 6270   3.198   4.610  -1.719  0.0000  0.0000  0.0000
  311BTD     C8 6271   3.182   4.748  -1.731  0.0000  0.0000  0.0000
  311BTD    C15 6272   3.176   4.807  -1.856  0.0000  0.0000  0.0000
  311BTD    C16 6273   3.186   4.728  -1.971  0.0000  0.0000  0.0000
  311BTD    C43 6274   3.157   4.887  -2.193  0.0000  0.0000  0.0000
  311BTD    C44 6275   3.022   4.904  -2.262  0.0000  0.0000  0.0000
  311BTD    C45 6276   3.001   5.040  -2.331  0.0000  0.0000  0.0000
  311BTD    C46 6277   3.104   5.041  -2.448  0.0000  0.0000  0.0000
  311BTD    C47 6278   2.914   4.873  -2.160  0.0000  0.0000  0.0000
  311BTD    C48 6279   2.780   4.871  -2.239  0.0000  0.0000  0.0000
  311BTD    C49 6280   2.672   4.842  -2.136  0.0000  0.0000  0.0000
  311BTD    C50 6281   2.536   4.865  -2.205  0.0000  0.0000  0.0000
  311BTD    C75 6282   3.140   5.062  -1.914  0.0000  0.0000  0.0000
  311BTD    C76 6283   3.256   5.155  -1.948  0.0000  0.0000  0.0000
  311BTD    C77 6284   3.392   5.101  -1.984  0.0000  0.0000  0.0000
  311BTD    C78 6285   3.512   5.190  -1.943  0.0000  0.0000  0.0000
  311BTD    C79 6286   3.218   5.276  -2.037  0.0000  0.0000  0.0000
  311BTD    C80 6287   3.123   5.386  -1.988  0.0000  0.0000  0.0000
  311BTD    C81 6288   3.063   5.511  -2.060  0.0000  0.0000  0.0000
  311BTD    C82 6289   3.081   5.619  -1.974  0.0000  0.0000  0.0000
  312TTP     S1 6290   3.235   4.384  -2.164  0.0000  0.0000  0.0000
  312TTP     S5 6291   3.220   4.674  -2.470  0.0000  0.0000  0.0000
  312TTP     C1 6292   3.245   4.510  -2.535  0.0000  0.0000  0.0000
  312TTP     C2 6293   3.249   4.405  -2.438  0.0000  0.0000  0.0000
  312TTP     C3 6294   3.235   4.468  -2.324  0.0000  0.0000  0.0000
  312TTP     C4 6295   3.213   4.539  -2.094  0.0000  0.0000  0.0000
  312TTP    C17 6296   3.200   4.641  -2.179  0.0000  0.0000  0.0000
  312TTP    C18 6297   3.215   4.596  -2.312  0.0000  0.0000  0.0000
  312TTP    C32 6298   3.251   4.258  -2.481  0.0000  0.0000  0.0000
  312TTP    C33 6299   3.397   4.211  -2.473  0.0000  0.0000  0.0000
  312TTP    C34 6300   3.401   4.059  -2.486  0.0000  0.0000  0.0000
  312TTP    C35 6301   3.539   4.005  -2.518  0.0000  0.0000  0.0000
  312TTP    C36 6302   3.600   3.922  -2.408  0.0000  0.0000  0.0000
  312TTP    C37 6303   3.740   3.866  -2.438  0.0000  0.0000  0.0000
  312TTP    C38 6304   3.824   3.951  -2.531  0.0000  0.0000  0.0000
  312TTP    C39 6305   3.746   4.061  -2.601  0.0000  0.0000  0.0000
  312TTP    C40 6306   3.829   4.182  -2.635  0.0000  0.0000  0.0000
  312TTP    C41 6307   3.780   4.311  -2.574  0.0000  0.0000  0.0000
  312TTP    C42 6308   3.657   4.299  -2.486  0.0000  0.0000  0.0000
  313TTP     S1 6309   3.170   4.856  -1.458  0.0000  0.0000  0.0000
  313TTP     S5 6310   3.116   5.244  -1.613  0.0000  0.0000  0.0000
  313TTP     C1 6311   3.107   5.256  -1.440  0.0000  0.0000  0.0000
  313TTP     C2 6312   3.126   5.130  -1.375  0.0000  0.0000  0.0000
  313TTP     C3 6313   3.145   5.032  -1.473  0.0000  0.0000  0.0000
  313TTP     C4 6314   3.174   4.845  -1.626  0.0000  0.0000  0.0000
  313TTP    C17 6315   3.161   4.969  -1.693  0.0000  0.0000  0.0000
  313TTP    C18 6316   3.143   5.075  -1.603  0.0000  0.0000  0.0000
  313TTP    C32 6317   3.106   5.102  -1.224  0.0000  0.0000  0.0000
  313TTP    C33 6318   3.228   5.078  -1.137  0.0000  0.0000  0.0000
  313TTP    C34 6319   3.215   5.043  -0.986  0.0000  0.0000  0.0000
  313TTP    C35 6320   3.231   4.896  -0.953  0.0000  0.0000  0.0000
  313TTP    C36 6321   3.237   4.846  -0.808  0.0000  0.0000  0.0000
  313TTP    C37 6322   3.252   4.696  -0.793  0.0000  0.0000  0.0000
  313TTP    C38 6323   3.377   4.652  -0.720  0.0000  0.0000  0.0000
  313TTP    C39 6324   3.472   4.565  -0.798  0.0000  0.0000  0.0000
  313TTP    C40 6325   3.592   4.526  -0.716  0.0000  0.0000  0.0000
  313TTP    C41 6326   3.692   4.439  -0.787  0.0000  0.0000  0.0000
  313TTP    C42 6327   3.814   4.399  -0.706  0.0000  0.0000  0.0000
  314FIC     F1 6328   3.310   5.024  -3.178  0.0000  0.0000  0.0000
  314FIC     F2 6329   3.339   4.815  -3.339  0.0000  0.0000  0.0000
  314FIC     O1 6330   3.247   4.793  -2.701  0.0000  0.0000  0.0000
  314FIC     N5 6331   3.369   4.346  -3.218  0.0000  0.0000  0.0000
  314FIC     N6 6332   3.289   4.182  -2.830  0.0000  0.0000  0.0000
  314FIC    C19 6333   3.263   4.488  -2.678  0.0000  0.0000  0.0000
  314FIC    C20 6334   3.270   4.570  -2.787  0.0000  0.0000  0.0000
  314FIC    C21 6335   3.268   4.710  -2.794  0.0000  0.0000  0.0000
  314FIC    C22 6336   3.288   4.762  -2.934  0.0000  0.0000  0.0000
  314FIC    C23 6337   3.287   4.888  -2.993  0.0000  0.0000  0.0000
  314FIC    C24 6338   3.306   4.900  -3.130  0.0000  0.0000  0.0000
  314FIC    C25 6339   3.326   4.787  -3.208  0.0000  0.0000  0.0000
  314FIC    C26 6340   3.327   4.661  -3.149  0.0000  0.0000  0.0000
  314FIC    C27 6341   3.308   4.649  -3.012  0.0000  0.0000  0.0000
  314FIC    C28 6342   3.297   4.525  -2.937  0.0000  0.0000  0.0000
  314FIC    C29 6343   3.315   4.398  -2.970  0.0000  0.0000  0.0000
  314FIC    C30 6344   3.346   4.369  -3.105  0.0000  0.0000  0.0000
  314FIC    C31 6345   3.303   4.280  -2.895  0.0000  0.0000  0.0000
  315FIC     F1 6346   2.975   6.026  -1.669  0.0000  0.0000  0.0000
  315FIC     F2 6347   2.949   6.088  -1.419  0.0000  0.0000  0.0000
  315FIC     O1 6348   3.076   5.503  -1.634  0.0000  0.0000  0.0000
  315FIC     N5 6349   2.998   5.815  -1.017  0.0000  0.0000  0.0000
  315FIC     N6 6350   3.068   5.398  -1.028  0.0000  0.0000  0.0000
  315FIC    C19 6351   3.085   5.373  -1.366  0.0000  0.0000  0.0000
  315FIC    C20 6352   3.067   5.507  -1.393  0.0000  0.0000  0.0000
  315FIC    C21 6353   3.060   5.556  -1.521  0.0000  0.0000  0.0000
  315FIC    C22 6354   3.036   5.705  -1.521  0.0000  0.0000  0.0000
  315FIC    C23 6355   3.016   5.801  -1.618  0.0000  0.0000  0.0000
  315FIC    C24 6356   2.991   5.928  -1.575  0.0000  0.0000  0.0000
  315FIC    C25 6357   2.974   5.960  -1.442  0.0000  0.0000  0.0000
  315FIC    C26 6358   2.993   5.874  -1.346  0.0000  0.0000  0.0000
  315FIC    C27 6359   3.021   5.743  -1.386  0.0000  0.0000  0.0000
  315FIC    C28 6360   3.041   5.618  -1.306  0.0000  0.0000  0.0000
  315FIC    C29 6361   3.038   5.609  -1.168  0.0000  0.0000  0.0000
  315FIC    C30 6362   3.016   5.717  -1.087  0.0000  0.0000  0.0000
  315FIC    C31 6363   3.052   5.494  -1.096  0.0000  0.0000  0.0000
  316BTD     S2 6364   3.506   4.850  -1.659  0.0000  0.0000  0.0000
  316BTD     N1 6365   3.514   4.831  -1.827  0.0000  0.0000  0.0000
  316BTD     N2 6366   3.529   4.697  -1.613  0.0000  0.0000  0.0000
  316BTD     N3 6367   3.580   4.276  -1.820  0.0000  0.0000  0.0000
  316BTD     N4 6368   3.593   4.464  -2.112  0.0000  0.0000  0.0000
  316BTD     C5 6369   3.551   4.630  -1.966  0.0000  0.0000  0.0000
  316BTD     C6 6370   3.530   4.690  -1.845  0.0000  0.0000  0.0000
  316BTD     C7 6371   3.547   4.628  -1.725  0.0000  0.0000  0.0000
  316BTD     C8 6372   3.564   4.487  -1.733  0.0000  0.0000  0.0000
  316BTD    C15 6373   3.573   4.410  -1.851  0.0000  0.0000  0.0000
  316BTD    C16 6374   3.574   4.495  -1.976  0.0000  0.0000  0.0000
  316BTD    C43 6375   3.640   4.338  -2.172  0.0000  0.0000  0.0000
  316BTD    C44 6376   3.792   4.311  -2.160  0.0000  0.0000  0.0000
  316BTD    C45 6377   3.812   4.177  -2.239  0.0000  0.0000  0.0000
  316BTD    C46 6378   3.918   4.088  -2.171  0.0000  0.0000  0.0000
  316BTD    C47 6379   3.868   4.427  -2.221  0.0000  0.0000  0.0000
  316BTD    C48 6380   4.021   4.419  -2.215  0.0000  0.0000  0.0000
  316BTD    C49 6381   4.119   4.523  -2.269  0.0000  0.0000  0.0000
  316BTD    C50 6382   4.031   4.648  -2.236  0.0000  0.0000  0.0000
  316BTD    C75 6383   3.614   4.159  -1.904  0.0000  0.0000  0.0000
  316BTD    C76 6384   3.503   4.057  -1.931  0.0000  0.0000  0.0000
  316BTD    C77 6385   3.381   4.123  -1.989  0.0000  0.0000  0.0000
  316BTD    C78 6386   3.255   4.032  -1.999  0.0000  0.0000  0.0000
  316BTD    C79 6387   3.545   3.953  -2.037  0.0000  0.0000  0.0000
  316BTD    C80 6388   3.628   3.846  -1.965  0.0000  0.0000  0.0000
  316BTD    C81 6389   3.664   3.730  -2.063  0.0000  0.0000  0.0000
  316BTD    C82 6390   3.777   3.650  -1.994  0.0000  0.0000  0.0000
  317TTP     S1 6391   3.531   4.834  -2.177  0.0000  0.0000  0.0000
  317TTP     S5 6392   3.601   4.541  -2.470  0.0000  0.0000  0.0000
  317TTP     C1 6393   3.580   4.694  -2.547  0.0000  0.0000  0.0000
  317TTP     C2 6394   3.561   4.802  -2.458  0.0000  0.0000  0.0000
  317TTP     C3 6395   3.556   4.756  -2.323  0.0000  0.0000  0.0000
  317TTP     C4 6396   3.555   4.678  -2.093  0.0000  0.0000  0.0000
  317TTP    C17 6397   3.575   4.584  -2.186  0.0000  0.0000  0.0000
  317TTP    C18 6398   3.580   4.618  -2.322  0.0000  0.0000  0.0000
  317TTP    C32 6399   3.539   4.954  -2.494  0.0000  0.0000  0.0000
  317TTP    C33 6400   3.462   5.037  -2.392  0.0000  0.0000  0.0000
  317TTP    C34 6401   3.442   5.179  -2.446  0.0000  0.0000  0.0000
  317TTP    C35 6402   3.388   5.272  -2.338  0.0000  0.0000  0.0000
  317TTP    C36 6403   3.344   5.411  -2.388  0.0000  0.0000  0.0000
  317TTP    C37 6404   3.289   5.506  -2.286  0.0000  0.0000  0.0000
  317TTP    C38 6405   3.368   5.640  -2.272  0.0000  0.0000  0.0000
  317TTP    C39 6406   3.367   5.730  -2.396  0.0000  0.0000  0.0000
  317TTP    C40 6407   3.443   5.860  -2.381  0.0000  0.0000  0.0000
  317TTP    C41 6408   3.393   5.949  -2.271  0.0000  0.0000  0.0000
  317TTP    C42 6409   3.399   5.886  -2.128  0.0000  0.0000  0.0000
  318TTP     S1 6410   3.550   4.386  -1.454  0.0000  0.0000  0.0000
  318TTP     S5 6411   3.588   3.988  -1.587  0.0000  0.0000  0.0000
  318TTP     C1 6412   3.579   3.989  -1.413  0.0000  0.0000  0.0000
  318TTP     C2 6413   3.570   4.117  -1.359  0.0000  0.0000  0.0000
  318TTP     C3 6414   3.562   4.213  -1.459  0.0000  0.0000  0.0000
  318TTP     C4 6415   3.560   4.394  -1.629  0.0000  0.0000  0.0000
  318TTP    C17 6416   3.568   4.268  -1.681  0.0000  0.0000  0.0000
  318TTP    C18 6417   3.572   4.155  -1.586  0.0000  0.0000  0.0000
  318TTP    C32 6418   3.566   4.154  -1.211  0.0000  0.0000  0.0000
  318TTP    C33 6419   3.419   4.160  -1.157  0.0000  0.0000  0.0000
  318TTP    C34 6420   3.405   4.237  -1.024  0.0000  0.0000  0.0000
  318TTP    C35 6421   3.257   4.274  -0.985  0.0000  0.0000  0.0000
  318TTP    C36 6422   3.227   4.273  -0.837  0.0000  0.0000  0.0000
  318TTP    C37 6423   3.184   4.407  -0.783  0.0000  0.0000  0.0000
  318TTP    C38 6424   3.169   4.514  -0.888  0.0000  0.0000  0.0000
  318TTP    C39 6425   3.229   4.479  -1.022  0.0000  0.0000  0.0000
  318TTP    C40 6426   3.216   4.584  -1.127  0.0000  0.0000  0.0000
  318TTP    C41 6427   3.276   4.549  -1.260  0.0000  0.0000  0.0000
  318TTP    C42 6428   3.263   4.653  -1.366  0.0000  0.0000  0.0000
  319FIC     F1 6429   3.703   4.193  -3.183  0.0000  0.0000  0.0000
  319FIC     F2 6430   3.720   4.408  -3.344  0.0000  0.0000  0.0000
  319FIC     O1 6431   3.614   4.420  -2.712  0.0000  0.0000  0.0000
  319FIC     N5 6432   3.666   4.885  -3.232  0.0000  0.0000  0.0000
  319FIC     N6 6433   3.611   5.028  -2.838  0.0000  0.0000  0.0000
  319FIC    C19 6434   3.592   4.717  -2.687  0.0000  0.0000  0.0000
  319FIC    C20 6435   3.618   4.650  -2.801  0.0000  0.0000  0.0000
  319FIC    C21 6436   3.623   4.507  -2.797  0.0000  0.0000  0.0000
  319FIC    C22 6437   3.646   4.453  -2.938  0.0000  0.0000  0.0000
  319FIC    C23 6438   3.664   4.325  -2.990  0.0000  0.0000  0.0000
  319FIC    C24 6439   3.690   4.308  -3.125  0.0000  0.0000  0.0000
  319FIC    C25 6440   3.698   4.419  -3.209  0.0000  0.0000  0.0000
  319FIC    C26 6441   3.680   4.546  -3.157  0.0000  0.0000  0.0000
  319FIC    C27 6442   3.654   4.563  -3.021  0.0000  0.0000  0.0000
  319FIC    C28 6443   3.638   4.690  -2.943  0.0000  0.0000  0.0000
  319FIC    C29 6444   3.638   4.814  -2.974  0.0000  0.0000  0.0000
  319FIC    C30 6445   3.654   4.842  -3.133  0.0000  0.0000  0.0000
  319FIC    C31 6446   3.625   4.932  -2.897  0.0000  0.0000  0.0000
  320FIC     F1 6447   3.697   3.200  -1.590  0.0000  0.0000  0.0000
  320FIC     F2 6448   3.713   3.151  -1.320  0.0000  0.0000  0.0000
  320FIC     O1 6449   3.598   3.720  -1.592  0.0000  0.0000  0.0000
  320FIC     N5 6450   3.652   3.465  -0.941  0.0000  0.0000  0.0000
  320FIC     N6 6451   3.588   3.873  -0.983  0.0000  0.0000  0.0000
  320FIC    C19 6452   3.595   3.872  -1.329  0.0000  0.0000  0.0000
  320FIC    C20 6453   3.608   3.733  -1.348  0.0000  0.0000  0.0000
  320FIC    C21 6454   3.611   3.681  -1.480  0.0000  0.0000  0.0000
  320FIC    C22 6455   3.641   3.530  -1.452  0.0000  0.0000  0.0000
  320FIC    C23 6456   3.657   3.426  -1.543  0.0000  0.0000  0.0000
  320FIC    C24 6457   3.681   3.297  -1.497  0.0000  0.0000  0.0000
  320FIC    C25 6458   3.689   3.272  -1.360  0.0000  0.0000  0.0000
  320FIC    C26 6459   3.672   3.376  -1.269  0.0000  0.0000  0.0000
  320FIC    C27 6460   3.648   3.505  -1.315  0.0000  0.0000  0.0000
  320FIC    C28 6461   3.625   3.633  -1.241  0.0000  0.0000  0.0000
  320FIC    C29 6462   3.622   3.656  -1.119  0.0000  0.0000  0.0000
  320FIC    C30 6463   3.643   3.527  -1.036  0.0000  0.0000  0.0000
  320FIC    C31 6464   3.602   3.774  -1.042  0.0000  0.0000  0.0000
  321BTD     S2 6465   5.710   1.475   1.649  0.0000  0.0000  0.0000
  321BTD     N1 6466   5.707   1.461   1.810  0.0000  0.0000  0.0000
  321BTD     N2 6467   5.727   1.322   1.603  0.0000  0.0000  0.0000
  321BTD     N3 6468   5.776   0.909   1.829  0.0000  0.0000  0.0000
  321BTD     N4 6469   5.750   1.094   2.112  0.0000  0.0000  0.0000
  321BTD     C5 6470   5.732   1.267   1.959  0.0000  0.0000  0.0000
  321BTD     C6 6471   5.726   1.326   1.834  0.0000  0.0000  0.0000
  321BTD     C7 6472   5.736   1.248   1.719  0.0000  0.0000  0.0000
  321BTD     C8 6473   5.752   1.110   1.731  0.0000  0.0000  0.0000
  321BTD    C15 6474   5.758   1.051   1.856  0.0000  0.0000  0.0000
  321BTD    C16 6475   5.748   1.130   1.971  0.0000  0.0000  0.0000
  321BTD    C43 6476   5.777   0.971   2.193  0.0000  0.0000  0.0000
  321BTD    C44 6477   5.912   0.954   2.262  0.0000  0.0000  0.0000
  321BTD    C45 6478   5.933   0.818   2.331  0.0000  0.0000  0.0000
  321BTD    C46 6479   5.830   0.817   2.448  0.0000  0.0000  0.0000
  321BTD    C47 6480   6.020   0.985   2.160  0.0000  0.0000  0.0000
  321BTD    C48 6481   6.154   0.987   2.239  0.0000  0.0000  0.0000
  321BTD    C49 6482   6.262   1.016   2.136  0.0000  0.0000  0.0000
  321BTD    C50 6483   6.398   0.993   2.205  0.0000  0.0000  0.0000
  321BTD    C75 6484   5.794   0.796   1.914  0.0000  0.0000  0.0000
  321BTD    C76 6485   5.678   0.703   1.948  0.0000  0.0000  0.0000
  321BTD    C77 6486   5.542   0.757   1.984  0.0000  0.0000  0.0000
  321BTD    C78 6487   5.422   0.668   1.943  0.0000  0.0000  0.0000
  321BTD    C79 6488   5.716   0.582   2.037  0.0000  0.0000  0.0000
  321BTD    C80 6489   5.811   0.472   1.988  0.0000  0.0000  0.0000
  321BTD    C81 6490   5.871   0.347   2.060  0.0000  0.0000  0.0000
  321BTD    C82 6491   5.853   0.239   1.974  0.0000  0.0000  0.0000
  322TTP     S1 6492   5.699   1.474   2.164  0.0000  0.0000  0.0000
  322TTP     S5 6493   5.714   1.184   2.470  0.0000  0.0000  0.0000
  322TTP     C1 6494   5.689   1.348   2.535  0.0000  0.0000  0.0000
  322TTP     C2 6495   5.685   1.453   2.438  0.0000  0.0000  0.0000
  322TTP     C3 6496   5.699   1.390   2.324  0.0000  0.0000  0.0000
  322TTP     C4 6497   5.721   1.319   2.094  0.0000  0.0000  0.0000
  322TTP    C17 6498   5.734   1.217   2.179  0.0000  0.0000  0.0000
  322TTP    C18 6499   5.719   1.262   2.312  0.0000  0.0000  0.0000
  322TTP    C32 6500   5.683   1.600   2.481  0.0000  0.0000  0.0000
  322TTP    C33 6501   5.537   1.647   2.473  0.0000  0.0000  0.0000
  322TTP    C34 6502   5.533   1.799   2.486  0.0000  0.0000  0.0000
  322TTP    C35 6503   5.395   1.853   2.518  0.0000  0.0000  0.0000
  322TTP    C36 6504   5.334   1.936   2.408  0.0000  0.0000  0.0000
  322TTP    C37 6505   5.194   1.992   2.438  0.0000  0.0000  0.0000
  322TTP    C38 6506   5.110   1.907   2.531  0.0000  0.0000  0.0000
  322TTP    C39 6507   5.188   1.797   2.601  0.0000  0.0000  0.0000
  322TTP    C40 6508   5.105   1.676   2.635  0.0000  0.0000  0.0000
  322TTP    C41 6509   5.154   1.547   2.574  0.0000  0.0000  0.0000
  322TTP    C42 6510   5.277   1.559   2.486  0.0000  0.0000  0.0000
  323TTP     S1 6511   5.764   1.002   1.458  0.0000  0.0000  0.0000
  323TTP     S5 6512   5.818   0.614   1.613  0.0000  0.0000  0.0000
  323TTP     C1 6513   5.827   0.602   1.440  0.0000  0.0000  0.0000
  323TTP     C2 6514   5.808   0.728   1.375  0.0000  0.0000  0.0000
  323TTP     C3 6515   5.789   0.826   1.473  0.0000  0.0000  0.0000
  323TTP     C4 6516   5.760   1.013   1.626  0.0000  0.0000  0.0000
  323TTP    C17 6517   5.773   0.889   1.693  0.0000  0.0000  0.0000
  323TTP    C18 6518   5.791   0.783   1.603  0.0000  0.0000  0.0000
  323TTP    C32 6519   5.828   0.756   1.224  0.0000  0.0000  0.0000
  323TTP    C33 6520   5.706   0.780   1.137  0.0000  0.0000  0.0000
  323TTP    C34 6521   5.719   0.815   0.986  0.0000  0.0000  0.0000
  323TTP    C35 6522   5.703   0.962   0.953  0.0000  0.0000  0.0000
  323TTP    C36 6523   5.697   1.012   0.808  0.0000  0.0000  0.0000
  323TTP    C37 6524   5.682   1.162   0.793  0.0000  0.0000  0.0000
  323TTP    C38 6525   5.557   1.206   0.720  0.0000  0.0000  0.0000
  323TTP    C39 6526   5.462   1.293   0.798  0.0000  0.0000  0.0000
  323TTP    C40 6527   5.342   1.332   0.716  0.0000  0.0000  0.0000
  323TTP    C41 6528   5.242   1.419   0.787  0.0000  0.0000  0.0000
  323TTP    C42 6529   5.120   1.459   0.706  0.0000  0.0000  0.0000
  324FIC     F1 6530   5.624   0.834   3.178  0.0000  0.0000  0.0000
  324FIC     F2 6531   5.595   1.043   3.339  0.0000  0.0000  0.0000
  324FIC     O1 6532   5.687   1.065   2.701  0.0000  0.0000  0.0000
  324FIC     N5 6533   5.566   1.512   3.218  0.0000  0.0000  0.0000
  324FIC     N6 6534   5.645   1.676   2.830  0.0000  0.0000  0.0000
  324FIC    C19 6535   5.671   1.370   2.678  0.0000  0.0000  0.0000
  324FIC    C20 6536   5.664   1.288   2.787  0.0000  0.0000  0.0000
  324FIC    C21 6537   5.666   1.148   2.794  0.0000  0.0000  0.0000
  324FIC    C22 6538   5.647   1.096   2.934  0.0000  0.0000  0.0000
  324FIC    C23 6539   5.647   0.970   2.993  0.0000  0.0000  0.0000
  324FIC    C24 6540   5.628   0.958   3.130  0.0000  0.0000  0.0000
  324FIC    C25 6541   5.608   1.071   3.208  0.0000  0.0000  0.0000
  324FIC    C26 6542   5.607   1.197   3.149  0.0000  0.0000  0.0000
  324FIC    C27 6543   5.626   1.209   3.012  0.0000  0.0000  0.0000
  324FIC    C28 6544   5.637   1.333   2.937  0.0000  0.0000  0.0000
  324FIC    C29 6545   5.619   1.460   2.970  0.0000  0.0000  0.0000
  324FIC    C30 6546   5.588   1.489   3.105  0.0000  0.0000  0.0000
  324FIC    C31 6547   5.631   1.578   2.895  0.0000  0.0000  0.0000
  325FIC     F1 6548   5.960  -0.168   1.669  0.0000  0.0000  0.0000
  325FIC     F2 6549   5.985  -0.230   1.419  0.0000  0.0000  0.0000
  325FIC     O1 6550   5.858   0.355   1.634  0.0000  0.0000  0.0000
  325FIC     N5 6551   5.936   0.043   1.017  0.0000  0.0000  0.0000
  325FIC     N6 6552   5.867   0.460   1.028  0.0000  0.0000  0.0000
  325FIC    C19 6553   5.849   0.485   1.366  0.0000  0.0000  0.0000
  325FIC    C20 6554   5.867   0.351   1.393  0.0000  0.0000  0.0000
  325FIC    C21 6555   5.874   0.302   1.521  0.0000  0.0000  0.0000
  325FIC    C22 6556   5.898   0.153   1.521  0.0000  0.0000  0.0000
  325FIC    C23 6557   5.918   0.057   1.618  0.0000  0.0000  0.0000
  325FIC    C24 6558   5.943  -0.071   1.575  0.0000  0.0000  0.0000
  325FIC    C25 6559   5.960  -0.102   1.442  0.0000  0.0000  0.0000
  325FIC    C26 6560   5.941  -0.016   1.346  0.0000  0.0000  0.0000
  325FIC    C27 6561   5.913   0.115   1.386  0.0000  0.0000  0.0000
  325FIC    C28 6562   5.893   0.240   1.306  0.0000  0.0000  0.0000
  325FIC    C29 6563   5.896   0.249   1.168  0.0000  0.0000  0.0000
  325FIC    C30 6564   5.918   0.141   1.087  0.0000  0.0000  0.0000
  325FIC    C31 6565   5.882   0.364   1.096  0.0000  0.0000  0.0000
  326BTD     S2 6566   5.428   1.008   1.659  0.0000  0.0000  0.0000
  326BTD     N1 6567   5.420   1.027   1.827  0.0000  0.0000  0.0000
  326BTD     N2 6568   5.405   1.161   1.613  0.0000  0.0000  0.0000
  326BTD     N3 6569   5.354   1.582   1.820  0.0000  0.0000  0.0000
  326BTD     N4 6570   5.341   1.394   2.112  0.0000  0.0000  0.0000
  326BTD     C5 6571   5.383   1.228   1.966  0.0000  0.0000  0.0000
  326BTD     C6 6572   5.404   1.168   1.845  0.0000  0.0000  0.0000
  326BTD     C7 6573   5.387   1.230   1.725  0.0000  0.0000  0.0000
  326BTD     C8 6574   5.370   1.371   1.733  0.0000  0.0000  0.0000
  326BTD    C15 6575   5.361   1.448   1.851  0.0000  0.0000  0.0000
  326BTD    C16 6576   5.360   1.363   1.976  0.0000  0.0000  0.0000
  326BTD    C43 6577   5.294   1.520   2.172  0.0000  0.0000  0.0000
  326BTD    C44 6578   5.142   1.547   2.160  0.0000  0.0000  0.0000
  326BTD    C45 6579   5.122   1.681   2.239  0.0000  0.0000  0.0000
  326BTD    C46 6580   5.016   1.770   2.171  0.0000  0.0000  0.0000
  326BTD    C47 6581   5.066   1.431   2.221  0.0000  0.0000  0.0000
  326BTD    C48 6582   4.913   1.439   2.215  0.0000  0.0000  0.0000
  326BTD    C49 6583   4.815   1.335   2.269  0.0000  0.0000  0.0000
  326BTD    C50 6584   4.903   1.210   2.236  0.0000  0.0000  0.0000
  326BTD    C75 6585   5.320   1.699   1.904  0.0000  0.0000  0.0000
  326BTD    C76 6586   5.432   1.801   1.931  0.0000  0.0000  0.0000
  326BTD    C77 6587   5.553   1.735   1.989  0.0000  0.0000  0.0000
  326BTD    C78 6588   5.679   1.826   1.999  0.0000  0.0000  0.0000
  326BTD    C79 6589   5.389   1.905   2.037  0.0000  0.0000  0.0000
  326BTD    C80 6590   5.306   2.012   1.965  0.0000  0.0000  0.0000
  326BTD    C81 6591   5.270   2.128   2.063  0.0000  0.0000  0.0000
  326BTD    C82 6592   5.157   2.208   1.994  0.0000  0.0000  0.0000
  327TTP     S1 6593   5.403   1.024   2.177  0.0000  0.0000  0.0000
  327TTP     S5 6594   5.333   1.317   2.470  0.0000  0.0000  0.0000
  327TTP     C1 6595   5.354   1.164   2.547  0.0000  0.0000  0.0000
  327TTP     C2 6596   5.373   1.056   2.458  0.0000  0.0000  0.0000
  327TTP     C3 6597   5.378   1.102   2.323  0.0000  0.0000  0.0000
  327TTP     C4 6598   5.379   1.180   2.093  0.0000  0.0000  0.0000
  327TTP    C17 6599   5.359   1.274   2.186  0.0000  0.0000  0.0000
  327TTP    C18 6600   5.354   1.240   2.322  0.0000  0.0000  0.0000
  327TTP    C32 6601   5.395   0.904   2.494  0.0000  0.0000  0.0000
  327TTP    C33 6602   5.472   0.821   2.392  0.0000  0.0000  0.0000
  327TTP    C34 6603   5.492   0.679   2.446  0.0000  0.0000  0.0000
  327TTP    C35 6604   5.546   0.586   2.338  0.0000  0.0000  0.0000
  327TTP    C36 6605   5.590   0.447   2.388  0.0000  0.0000  0.0000
  327TTP    C37 6606   5.645   0.352   2.286  0.0000  0.0000  0.0000
  327TTP    C38 6607   5.566   0.218   2.272  0.0000  0.0000  0.0000
  327TTP    C39 6608   5.568   0.128   2.396  0.0000  0.0000  0.0000
  327TTP    C40 6609   5.491  -0.002   2.381  0.0000  0.0000  0.0000
  327TTP    C41 6610   5.541  -0.091   2.271  0.0000  0.0000  0.0000
  327TTP    C42 6611   5.535  -0.028   2.128  0.0000  0.0000  0.0000
  328TTP     S1 6612   5.384   1.472   1.454  0.0000  0.0000  0.0000
  328TTP     S5 6613   5.346   1.870   1.587  0.0000  0.0000  0.0000
  328TTP     C1 6614   5.355   1.869   1.413  0.0000  0.0000  0.0000
  328TTP     C2 6615   5.364   1.741   1.359  0.0000  0.0000  0.0000
  328TTP     C3 6616   5.372   1.645   1.459  0.0000  0.0000  0.0000
  328TTP     C4 6617   5.374   1.464   1.629  0.0000  0.0000  0.0000
  328TTP    C17 6618   5.366   1.590   1.681  0.0000  0.0000  0.0000
  328TTP    C18 6619   5.362   1.703   1.586  0.0000  0.0000  0.0000
  328TTP    C32 6620   5.368   1.704   1.211  0.0000  0.0000  0.0000
  328TTP    C33 6621   5.515   1.698   1.157  0.0000  0.0000  0.0000
  328TTP    C34 6622   5.529   1.621   1.024  0.0000  0.0000  0.0000
  328TTP    C35 6623   5.677   1.584   0.985  0.0000  0.0000  0.0000
  328TTP    C36 6624   5.707   1.585   0.837  0.0000  0.0000  0.0000
  328TTP    C37 6625   5.750   1.451   0.783  0.0000  0.0000  0.0000
  328TTP    C38 6626   5.765   1.344   0.888  0.0000  0.0000  0.0000
  328TTP    C39 6627   5.705   1.379   1.022  0.0000  0.0000  0.0000
  328TTP    C40 6628   5.718   1.274   1.127  0.0000  0.0000  0.0000
  328TTP    C41 6629   5.658   1.309   1.260  0.0000  0.0000  0.0000
  328TTP    C42 6630   5.671   1.205   1.366  0.0000  0.0000  0.0000
  329FIC     F1 6631   5.231   1.665   3.183  0.0000  0.0000  0.0000
  329FIC     F2 6632   5.214   1.450   3.344  0.0000  0.0000  0.0000
  329FIC     O1 6633   5.320   1.438   2.712  0.0000  0.0000  0.0000
  329FIC     N5 6634   5.268   0.973   3.232  0.0000  0.0000  0.0000
  329FIC     N6 6635   5.323   0.830   2.838  0.0000  0.0000  0.0000
  329FIC    C19 6636   5.342   1.141   2.687  0.0000  0.0000  0.0000
  329FIC    C20 6637   5.316   1.208   2.801  0.0000  0.0000  0.0000
  329FIC    C21 6638   5.311   1.351   2.797  0.0000  0.0000  0.0000
  329FIC    C22 6639   5.288   1.405   2.938  0.0000  0.0000  0.0000
  329FIC    C23 6640   5.270   1.533   2.990  0.0000  0.0000  0.0000
  329FIC    C24 6641   5.244   1.550   3.125  0.0000  0.0000  0.0000
  329FIC    C25 6642   5.236   1.439   3.209  0.0000  0.0000  0.0000
  329FIC    C26 6643   5.254   1.312   3.157  0.0000  0.0000  0.0000
  329FIC    C27 6644   5.280   1.295   3.021  0.0000  0.0000  0.0000
  329FIC    C28 6645   5.296   1.168   2.943  0.0000  0.0000  0.0000
  329FIC    C29 6646   5.296   1.044   2.974  0.0000  0.0000  0.0000
  329FIC    C30 6647   5.280   1.016   3.133  0.0000  0.0000  0.0000
  329FIC    C31 6648   5.309   0.926   2.897  0.0000  0.0000  0.0000
  330FIC     F1 6649   5.237   2.658   1.590  0.0000  0.0000  0.0000
  330FIC     F2 6650   5.221   2.707   1.320  0.0000  0.0000  0.0000
  330FIC     O1 6651   5.336   2.138   1.592  0.0000  0.0000  0.0000
  330FIC     N5 6652   5.282   2.393   0.941  0.0000  0.0000  0.0000
  330FIC     N6 6653   5.346   1.985   0.983  0.0000  0.0000  0.0000
  330FIC    C19 6654   5.339   1.986   1.329  0.0000  0.0000  0.0000
  330FIC    C20 6655   5.326   2.125   1.348  0.0000  0.0000  0.0000
  330FIC    C21 6656   5.323   2.177   1.480  0.0000  0.0000  0.0000
  330FIC    C22 6657   5.293   2.328   1.452  0.0000  0.0000  0.0000
  330FIC    C23 6658   5.277   2.432   1.543  0.0000  0.0000  0.0000
  330FIC    C24 6659   5.253   2.561   1.497  0.0000  0.0000  0.0000
  330FIC    C25 6660   5.245   2.586   1.360  0.0000  0.0000  0.0000
  330FIC    C26 6661   5.262   2.482   1.269  0.0000  0.0000  0.0000
  330FIC    C27 6662   5.286   2.353   1.315  0.0000  0.0000  0.0000
  330FIC    C28 6663   5.309   2.225   1.241  0.0000  0.0000  0.0000
  330FIC    C29 6664   5.312   2.202   1.119  0.0000  0.0000  0.0000
  330FIC    C30 6665   5.291   2.331   1.036  0.0000  0.0000  0.0000
  330FIC    C31 6666   5.332   2.084   1.042  0.0000  0.0000  0.0000
  331BTD     S2 6667   5.272  -1.475  -1.649  0.0000  0.0000  0.0000
  331BTD     N1 6668   5.275  -1.461  -1.810  0.0000  0.0000  0.0000
  331BTD     N2 6669   5.255  -1.322  -1.603  0.0000  0.0000  0.0000
  331BTD     N3 6670   5.206  -0.909  -1.829  0.0000  0.0000  0.0000
  331BTD     N4 6671   5.232  -1.094  -2.112  0.0000  0.0000  0.0000
  331BTD     C5 6672   5.250  -1.267  -1.959  0.0000  0.0000  0.0000
  331BTD     C6 6673   5.256  -1.326  -1.834  0.0000  0.0000  0.0000
  331BTD     C7 6674   5.246  -1.248  -1.719  0.0000  0.0000  0.0000
  331BTD     C8 6675   5.230  -1.110  -1.731  0.0000  0.0000  0.0000
  331BTD    C15 6676   5.224  -1.051  -1.856  0.0000  0.0000  0.0000
  331BTD    C16 6677   5.234  -1.130  -1.971  0.0000  0.0000  0.0000
  331BTD    C43 6678   5.205  -0.971  -2.193  0.0000  0.0000  0.0000
  331BTD    C44 6679   5.070  -0.954  -2.262  0.0000  0.0000  0.0000
  331BTD    C45 6680   5.049  -0.818  -2.331  0.0000  0.0000  0.0000
  331BTD    C46 6681   5.152  -0.817  -2.448  0.0000  0.0000  0.0000
  331BTD    C47 6682   4.962  -0.985  -2.160  0.0000  0.0000  0.0000
  331BTD    C48 6683   4.828  -0.987  -2.239  0.0000  0.0000  0.0000
  331BTD    C49 6684   4.720  -1.016  -2.136  0.0000  0.0000  0.0000
  331BTD    C50 6685   4.584  -0.993  -2.205  0.0000  0.0000  0.0000
  331BTD    C75 6686   5.188  -0.796  -1.914  0.0000  0.0000  0.0000
  331BTD    C76 6687   5.304  -0.703  -1.948  0.0000  0.0000  0.0000
  331BTD    C77 6688   5.440  -0.757  -1.984  0.0000  0.0000  0.0000
  331BTD    C78 6689   5.560  -0.668  -1.943  0.0000  0.0000  0.0000
  331BTD    C79 6690   5.266  -0.582  -2.037  0.0000  0.0000  0.0000
  331BTD    C80 6691   5.171  -0.472  -1.988  0.0000  0.0000  0.0000
  331BTD    C81 6692   5.111  -0.347  -2.060  0.0000  0.0000  0.0000
  331BTD    C82 6693   5.129  -0.239  -1.974  0.0000  0.0000  0.0000
  332TTP     S1 6694   5.283  -1.474  -2.164  0.0000  0.0000  0.0000
  332TTP     S5 6695   5.268  -1.184  -2.470  0.0000  0.0000  0.0000
  332TTP     C1 6696   5.293  -1.348  -2.535  0.0000  0.0000  0.0000
  332TTP     C2 6697   5.297  -1.453  -2.438  0.0000  0.0000  0.0000
  332TTP     C3 6698   5.283  -1.390  -2.324  0.0000  0.0000  0.0000
  332TTP     C4 6699   5.261  -1.319  -2.094  0.0000  0.0000  0.0000
  332TTP    C17 6700   5.248  -1.217  -2.179  0.0000  0.0000  0.0000
  332TTP    C18 6701   5.263  -1.262  -2.312  0.0000  0.0000  0.0000
  332TTP    C32 6702   5.299  -1.600  -2.481  0.0000  0.0000  0.0000
  332TTP    C33 6703   5.445  -1.647  -2.473  0.0000  0.0000  0.0000
  332TTP    C34 6704   5.449  -1.799  -2.486  0.0000  0.0000  0.0000
  332TTP    C35 6705   5.587  -1.853  -2.518  0.0000  0.0000  0.0000
  332TTP    C36 6706   5.648  -1.936  -2.408  0.0000  0.0000  0.0000
  332TTP    C37 6707   5.788  -1.992  -2.438  0.0000  0.0000  0.0000
  332TTP    C38 6708   5.872  -1.907  -2.531  0.0000  0.0000  0.0000
  332TTP    C39 6709   5.794  -1.797  -2.601  0.0000  0.0000  0.0000
  332TTP    C40 6710   5.877  -1.676  -2.635  0.0000  0.0000  0.0000
  332TTP    C41 6711   5.828  -1.547  -2.574  0.0000  0.0000  0.0000
  332TTP    C42 6712   5.705  -1.559  -2.486  0.0000  0.0000  0.0000
  333TTP     S1 6713   5.218  -1.002  -1.458  0.0000  0.0000  0.0000
  333TTP     S5 6714   5.164  -0.614  -1.613  0.0000  0.0000  0.0000
  333TTP     C1 6715   5.155  -0.602  -1.440  0.0000  0.0000  0.0000
  333TTP     C2 6716   5.174  -0.728  -1.375  0.0000  0.0000  0.0000
  333TTP     C3 6717   5.193  -0.826  -1.473  0.0000  0.0000  0.0000
  333TTP     C4 6718   5.222  -1.013  -1.626  0.0000  0.0000  0.0000
  333TTP    C17 6719   5.209  -0.889  -1.693  0.0000  0.0000  0.0000
  333TTP    C18 6720   5.191  -0.783  -1.603  0.0000  0.0000  0.0000
  333TTP    C32 6721   5.154  -0.756  -1.224  0.0000  0.0000  0.0000
  333TTP    C33 6722   5.276  -0.780  -1.137  0.0000  0.0000  0.0000
  333TTP    C34 6723   5.263  -0.815  -0.986  0.0000  0.0000  0.0000
  333TTP    C35 6724   5.279  -0.962  -0.953  0.0000  0.0000  0.0000
  333TTP    C36 6725   5.285  -1.012  -0.808  0.0000  0.0000  0.0000
  333TTP    C37 6726   5.300  -1.162  -0.793  0.0000  0.0000  0.0000
  333TTP    C38 6727   5.425  -1.206  -0.720  0.0000  0.0000  0.0000
  333TTP    C39 6728   5.520  -1.293  -0.798  0.0000  0.0000  0.0000
  333TTP    C40 6729   5.640  -1.332  -0.716  0.0000  0.0000  0.0000
  333TTP    C41 6730   5.740  -1.419  -0.787  0.0000  0.0000  0.0000
  333TTP    C42 6731   5.862  -1.459  -0.706  0.0000  0.0000  0.0000
  334FIC     F1 6732   5.358  -0.834  -3.178  0.0000  0.0000  0.0000
  334FIC     F2 6733   5.387  -1.043  -3.339  0.0000  0.0000  0.0000
  334FIC     O1 6734   5.295  -1.065  -2.701  0.0000  0.0000  0.0000
  334FIC     N5 6735   5.417  -1.512  -3.218  0.0000  0.0000  0.0000
  334FIC     N6 6736   5.337  -1.676  -2.830  0.0000  0.0000  0.0000
  334FIC    C19 6737   5.311  -1.370  -2.678  0.0000  0.0000  0.0000
  334FIC    C20 6738   5.318  -1.288  -2.787  0.0000  0.0000  0.0000
  334FIC    C21 6739   5.316  -1.148  -2.794  0.0000  0.0000  0.0000
  334FIC    C22 6740   5.336  -1.096  -2.934  0.0000  0.0000  0.0000
  334FIC    C23 6741   5.335  -0.970  -2.993  0.0000  0.0000  0.0000
  334FIC    C24 6742   5.354  -0.958  -3.130  0.0000  0.0000  0.0000
  334FIC    C25 6743   5.374  -1.071  -3.208  0.0000  0.0000  0.0000
  334FIC    C26 6744   5.375  -1.197  -3.149  0.0000  0.0000  0.0000
  334FIC    C27 6745   5.356  -1.209  -3.012  0.0000  0.0000  0.0000
  334FIC    C28 6746   5.345  -1.333  -2.937  0.0000  0.0000  0.0000
  334FIC    C29 6747   5.363  -1.460  -2.970  0.0000  0.0000  0.0000
  334FIC    C30 6748   5.394  -1.489  -3.105  0.0000  0.0000  0.0000
  334FIC    C31 6749   5.351  -1.578  -2.895  0.0000  0.0000  0.0000
  335FIC     F1 6750   5.023   0.168  -1.669  0.0000  0.0000  0.0000
  335FIC     F2 6751   4.997   0.230  -1.419  0.0000  0.0000  0.0000
  335FIC     O1 6752   5.124  -0.355  -1.634  0.0000  0.0000  0.0000
  335FIC     N5 6753   5.046  -0.043  -1.017  0.0000  0.0000  0.0000
  335FIC     N6 6754   5.116  -0.460  -1.028  0.0000  0.0000  0.0000
  335FIC    C19 6755   5.133  -0.485  -1.366  0.0000  0.0000  0.0000
  335FIC    C20 6756   5.115  -0.351  -1.393  0.0000  0.0000  0.0000
  335FIC    C21 6757   5.108  -0.302  -1.521  0.0000  0.0000  0.0000
  335FIC    C22 6758   5.084  -0.153  -1.521  0.0000  0.0000  0.0000
  335FIC    C23 6759   5.064  -0.057  -1.618  0.0000  0.0000  0.0000
  335FIC    C24 6760   5.039   0.070  -1.575  0.0000  0.0000  0.0000
  335FIC    C25 6761   5.022   0.102  -1.442  0.0000  0.0000  0.0000
  335FIC    C26 6762   5.041   0.016  -1.346  0.0000  0.0000  0.0000
  335FIC    C27 6763   5.069  -0.115  -1.386  0.0000  0.0000  0.0000
  335FIC    C28 6764   5.089  -0.240  -1.306  0.0000  0.0000  0.0000
  335FIC    C29 6765   5.086  -0.249  -1.168  0.0000  0.0000  0.0000
  335FIC    C30 6766   5.064  -0.141  -1.087  0.0000  0.0000  0.0000
  335FIC    C31 6767   5.100  -0.364  -1.096  0.0000  0.0000  0.0000
  336BTD     S2 6768   5.554  -1.008  -1.659  0.0000  0.0000  0.0000
  336BTD     N1 6769   5.562  -1.027  -1.827  0.0000  0.0000  0.0000
  336BTD     N2 6770   5.577  -1.161  -1.613  0.0000  0.0000  0.0000
  336BTD     N3 6771   5.628  -1.582  -1.820  0.0000  0.0000  0.0000
  336BTD     N4 6772   5.641  -1.394  -2.112  0.0000  0.0000  0.0000
  336BTD     C5 6773   5.599  -1.228  -1.966  0.0000  0.0000  0.0000
  336BTD     C6 6774   5.578  -1.168  -1.845  0.0000  0.0000  0.0000
  336BTD     C7 6775   5.595  -1.230  -1.725  0.0000  0.0000  0.0000
  336BTD     C8 6776   5.612  -1.371  -1.733  0.0000  0.0000  0.0000
  336BTD    C15 6777   5.621  -1.448  -1.851  0.0000  0.0000  0.0000
  336BTD    C16 6778   5.622  -1.363  -1.976  0.0000  0.0000  0.0000
  336BTD    C43 6779   5.688  -1.520  -2.172  0.0000  0.0000  0.0000
  336BTD    C44 6780   5.840  -1.547  -2.160  0.0000  0.0000  0.0000
  336BTD    C45 6781   5.860  -1.681  -2.239  0.0000  0.0000  0.0000
  336BTD    C46 6782   5.966  -1.770  -2.171  0.0000  0.0000  0.0000
  336BTD    C47 6783   5.916  -1.431  -2.221  0.0000  0.0000  0.0000
  336BTD    C48 6784   6.069  -1.439  -2.215  0.0000  0.0000  0.0000
  336BTD    C49 6785   6.167  -1.335  -2.269  0.0000  0.0000  0.0000
  336BTD    C50 6786   6.079  -1.210  -2.236  0.0000  0.0000  0.0000
  336BTD    C75 6787   5.662  -1.699  -1.904  0.0000  0.0000  0.0000
  336BTD    C76 6788   5.551  -1.801  -1.931  0.0000  0.0000  0.0000
  336BTD    C77 6789   5.429  -1.735  -1.989  0.0000  0.0000  0.0000
  336BTD    C78 6790   5.303  -1.826  -1.999  0.0000  0.0000  0.0000
  336BTD    C79 6791   5.593  -1.905  -2.037  0.0000  0.0000  0.0000
  336BTD    C80 6792   5.676  -2.012  -1.965  0.0000  0.0000  0.0000
  336BTD    C81 6793   5.712  -2.128  -2.063  0.0000  0.0000  0.0000
  336BTD    C82 6794   5.825  -2.208  -1.994  0.0000  0.0000  0.0000
  337TTP     S1 6795   5.579  -1.024  -2.177  0.0000  0.0000  0.0000
  337TTP     S5 6796   5.649  -1.317  -2.470  0.0000  0.0000  0.0000
  337TTP     C1 6797   5.628  -1.164  -2.547  0.0000  0.0000  0.0000
  337TTP     C2 6798   5.609  -1.056  -2.458  0.0000  0.0000  0.0000
  337TTP     C3 6799   5.604  -1.102  -2.323  0.0000  0.0000  0.0000
  337TTP     C4 6800   5.603  -1.180  -2.093  0.0000  0.0000  0.0000
  337TTP    C17 6801   5.623  -1.274  -2.186  0.0000  0.0000  0.0000
  337TTP    C18 6802   5.628  -1.240  -2.322  0.0000  0.0000  0.0000
  337TTP    C32 6803   5.587  -0.904  -2.494  0.0000  0.0000  0.0000
  337TTP    C33 6804   5.510  -0.821  -2.392  0.0000  0.0000  0.0000
  337TTP    C34 6805   5.490  -0.679  -2.446  0.0000  0.0000  0.0000
  337TTP    C35 6806   5.436  -0.586  -2.338  0.0000  0.0000  0.0000
  337TTP    C36 6807   5.392  -0.447  -2.388  0.0000  0.0000  0.0000
  337TTP    C37 6808   5.337  -0.352  -2.286  0.0000  0.0000  0.0000
  337TTP    C38 6809   5.416  -0.218  -2.272  0.0000  0.0000  0.0000
  337TTP    C39 6810   5.415  -0.128  -2.396  0.0000  0.0000  0.0000
  337TTP    C40 6811   5.491   0.002  -2.381  0.0000  0.0000  0.0000
  337TTP    C41 6812   5.441   0.091  -2.271  0.0000  0.0000  0.0000
  337TTP    C42 6813   5.447   0.028  -2.128  0.0000  0.0000  0.0000
  338TTP     S1 6814   5.598  -1.472  -1.454  0.0000  0.0000  0.0000
  338TTP     S5 6815   5.636  -1.870  -1.587  0.0000  0.0000  0.0000
  338TTP     C1 6816   5.627  -1.869  -1.413  0.0000  0.0000  0.0000
  338TTP     C2 6817   5.618  -1.741  -1.359  0.0000  0.0000  0.0000
  338TTP     C3 6818   5.610  -1.645  -1.459  0.0000  0.0000  0.0000
  338TTP     C4 6819   5.608  -1.464  -1.629  0.0000  0.0000  0.0000
  338TTP    C17 6820   5.616  -1.590  -1.681  0.0000  0.0000  0.0000
  338TTP    C18 6821   5.620  -1.703  -1.586  0.0000  0.0000  0.0000
  338TTP    C32 6822   5.614  -1.704  -1.211  0.0000  0.0000  0.0000
  338TTP    C33 6823   5.467  -1.698  -1.157  0.0000  0.0000  0.0000
  338TTP    C34 6824   5.453  -1.621  -1.024  0.0000  0.0000  0.0000
  338TTP    C35 6825   5.305  -1.584  -0.985  0.0000  0.0000  0.0000
  338TTP    C36 6826   5.275  -1.585  -0.837  0.0000  0.0000  0.0000
  338TTP    C37 6827   5.232  -1.451  -0.783  0.0000  0.0000  0.0000
  338TTP    C38 6828   5.217  -1.344  -0.888  0.0000  0.0000  0.0000
  338TTP    C39 6829   5.277  -1.379  -1.022  0.0000  0.0000  0.0000
  338TTP    C40 6830   5.264  -1.274  -1.127  0.0000  0.0000  0.0000
  338TTP    C41 6831   5.324  -1.309  -1.260  0.0000  0.0000  0.0000
  338TTP    C42 6832   5.311  -1.205  -1.366  0.0000  0.0000  0.0000
  339FIC     F1 6833   5.751  -1.665  -3.183  0.0000  0.0000  0.0000
  339FIC     F2 6834   5.768  -1.450  -3.344  0.0000  0.0000  0.0000
  339FIC     O1 6835   5.662  -1.438  -2.712  0.0000  0.0000  0.0000
  339FIC     N5 6836   5.714  -0.973  -3.232  0.0000  0.0000  0.0000
  339FIC     N6 6837   5.659  -0.830  -2.838  0.0000  0.0000  0.0000
  339FIC    C19 6838   5.640  -1.141  -2.687  0.0000  0.0000  0.0000
  339FIC    C20 6839   5.666  -1.208  -2.801  0.0000  0.0000  0.0000
  339FIC    C21 6840   5.671  -1.351  -2.797  0.0000  0.0000  0.0000
  339FIC    C22 6841   5.694  -1.405  -2.938  0.0000  0.0000  0.0000
  339FIC    C23 6842   5.712  -1.533  -2.990  0.0000  0.0000  0.0000
  339FIC    C24 6843   5.738  -1.550  -3.125  0.0000  0.0000  0.0000
  339FIC    C25 6844   5.746  -1.439  -3.209  0.0000  0.0000  0.0000
  339FIC    C26 6845   5.728  -1.312  -3.157  0.0000  0.0000  0.0000
  339FIC    C27 6846   5.702  -1.295  -3.021  0.0000  0.0000  0.0000
  339FIC    C28 6847   5.686  -1.168  -2.943  0.0000  0.0000  0.0000
  339FIC    C29 6848   5.686  -1.044  -2.974  0.0000  0.0000  0.0000
  339FIC    C30 6849   5.702  -1.016  -3.133  0.0000  0.0000  0.0000
  339FIC    C31 6850   5.673  -0.926  -2.897  0.0000  0.0000  0.0000
  340FIC     F1 6851   5.745  -2.658  -1.590  0.0000  0.0000  0.0000
  340FIC     F2 6852   5.761  -2.707  -1.320  0.0000  0.0000  0.0000
  340FIC     O1 6853   5.646  -2.138  -1.592  0.0000  0.0000  0.0000
  340FIC     N5 6854   5.700  -2.393  -0.941  0.0000  0.0000  0.0000
  340FIC     N6 6855   5.636  -1.985  -0.983  0.0000  0.0000  0.0000
  340FIC    C19 6856   5.643  -1.986  -1.329  0.0000  0.0000  0.0000
  340FIC    C20 6857   5.656  -2.125  -1.348  0.0000  0.0000  0.0000
  340FIC    C21 6858   5.659  -2.177  -1.480  0.0000  0.0000  0.0000
  340FIC    C22 6859   5.689  -2.328  -1.452  0.0000  0.0000  0.0000
  340FIC    C23 6860   5.705  -2.432  -1.543  0.0000  0.0000  0.0000
  340FIC    C24 6861   5.729  -2.561  -1.497  0.0000  0.0000  0.0000
  340FIC    C25 6862   5.737  -2.586  -1.360  0.0000  0.0000  0.0000
  340FIC    C26 6863   5.720  -2.482  -1.269  0.0000  0.0000  0.0000
  340FIC    C27 6864   5.696  -2.353  -1.315  0.0000  0.0000  0.0000
  340FIC    C28 6865   5.673  -2.225  -1.241  0.0000  0.0000  0.0000
  340FIC    C29 6866   5.670  -2.202  -1.119  0.0000  0.0000  0.0000
  340FIC    C30 6867   5.691  -2.331  -1.036  0.0000  0.0000  0.0000
  340FIC    C31 6868   5.650  -2.084  -1.042  0.0000  0.0000  0.0000
  341BTD     S2 6869   5.485   3.428   1.649  0.0000  0.0000  0.0000
  341BTD     N1 6870   5.482   3.414   1.810  0.0000  0.0000  0.0000
  341BTD     N2 6871   5.502   3.275   1.603  0.0000  0.0000  0.0000
  341BTD     N3 6872   5.551   2.862   1.829  0.0000  0.0000  0.0000
  341BTD     N4 6873   5.525   3.047   2.112  0.0000  0.0000  0.0000
  341BTD     C5 6874   5.507   3.220   1.959  0.0000  0.0000  0.0000
  341BTD     C6 6875   5.501   3.279   1.834  0.0000  0.0000  0.0000
  341BTD     C7 6876   5.511   3.201   1.719  0.0000  0.0000  0.0000
  341BTD     C8 6877   5.527   3.063   1.731  0.0000  0.0000  0.0000
  341BTD    C15 6878   5.533   3.004   1.856  0.0000  0.0000  0.0000
  341BTD    C16 6879   5.523   3.083   1.971  0.0000  0.0000  0.0000
  341BTD    C43 6880   5.552   2.924   2.193  0.0000  0.0000  0.0000
  341BTD    C44 6881   5.687   2.907   2.262  0.0000  0.0000  0.0000
  341BTD    C45 6882   5.708   2.771   2.331  0.0000  0.0000  0.0000
  341BTD    C46 6883   5.605   2.770   2.448  0.0000  0.0000  0.0000
  341BTD    C47 6884   5.795   2.938   2.160  0.0000  0.0000  0.0000
  341BTD    C48 6885   5.929   2.940   2.239  0.0000  0.0000  0.0000
  341BTD    C49 6886   6.037   2.969   2.136  0.0000  0.0000  0.0000
  341BTD    C50 6887   6.173   2.946   2.205  0.0000  0.0000  0.0000
  341BTD    C75 6888   5.569   2.749   1.914  0.0000  0.0000  0.0000
  341BTD    C76 6889   5.453   2.656   1.948  0.0000  0.0000  0.0000
  341BTD    C77 6890   5.317   2.710   1.984  0.0000  0.0000  0.0000
  341BTD    C78 6891   5.197   2.621   1.943  0.0000  0.0000  0.0000
  341BTD    C79 6892   5.491   2.535   2.037  0.0000  0.0000  0.0000
  341BTD    C80 6893   5.586   2.425   1.988  0.0000  0.0000  0.0000
  341BTD    C81 6894   5.646   2.300   2.060  0.0000  0.0000  0.0000
  341BTD    C82 6895   5.628   2.192   1.974  0.0000  0.0000  0.0000
  342TTP     S1 6896   5.474   3.427   2.164  0.0000  0.0000  0.0000
  342TTP     S5 6897   5.489   3.137   2.470  0.0000  0.0000  0.0000
  342TTP     C1 6898   5.464   3.301   2.535  0.0000  0.0000  0.0000
  342TTP     C2 6899   5.460   3.406   2.438  0.0000  0.0000  0.0000
  342TTP     C3 6900   5.474   3.343   2.324  0.0000  0.0000  0.0000
  342TTP     C4 6901   5.496   3.272   2.094  0.0000  0.0000  0.0000
  342TTP    C17 6902   5.509   3.170   2.179  0.0000  0.0000  0.0000
  342TTP    C18 6903   5.494   3.215   2.312  0.0000  0.0000  0.0000
  342TTP    C32 6904   5.458   3.553   2.481  0.0000  0.0000  0.0000
  342TTP    C33 6905   5.312   3.600   2.473  0.0000  0.0000  0.0000
  342TTP    C34 6906   5.308   3.752   2.486  0.0000  0.0000  0.0000
  342TTP    C35 6907   5.170   3.806   2.518  0.0000  0.0000  0.0000
  342TTP    C36 6908   5.109   3.889   2.408  0.0000  0.0000  0.0000
  342TTP    C37 6909   4.969   3.945   2.438  0.0000  0.0000  0.0000
  342TTP    C38 6910   4.885   3.860   2.531  0.0000  0.0000  0.0000
  342TTP    C39 6911   4.963   3.750   2.601  0.0000  0.0000  0.0000
  342TTP    C40 6912   4.880   3.629   2.635  0.0000  0.0000  0.0000
  342TTP    C41 6913   4.929   3.500   2.574  0.0000  0.0000  0.0000
  342TTP    C42 6914   5.052   3.512   2.486  0.0000  0.0000  0.0000
  343TTP     S1 6915   5.539   2.955   1.458  0.0000  0.0000  0.0000
  343TTP     S5 6916   5.593   2.567   1.613  0.0000  0.0000  0.0000
  343TTP     C1 6917   5.602   2.555   1.440  0.0000  0.0000  0.0000
  343TTP     C2 6918   5.583   2.681   1.375  0.0000  0.0000  0.0000
  343TTP     C3 6919   5.564   2.779   1.473  0.0000  0.0000  0.0000
  343TTP     C4 6920   5.535   2.966   1.626  0.0000  0.0000  0.0000
  343TTP    C17 6921   5.548   2.842   1.693  0.0000  0.0000  0.0000
  343TTP    C18 6922   5.566   2.736   1.603  0.0000  0.0000  0.0000
  343TTP    C32 6923   5.603   2.709   1.224  0.0000  0.0000  0.0000
  343TTP    C33 6924   5.481   2.733   1.137  0.0000  0.0000  0.0000
  343TTP    C34 6925   5.494   2.768   0.986  0.0000  0.0000  0.0000
  343TTP    C35 6926   5.478   2.915   0.953  0.0000  0.0000  0.0000
  343TTP    C36 6927   5.472   2.965   0.808  0.0000  0.0000  0.0000
  343TTP    C37 6928   5.457   3.115   0.793  0.0000  0.0000  0.0000
  343TTP    C38 6929   5.332   3.159   0.720  0.0000  0.0000  0.0000
  343TTP    C39 6930   5.237   3.246   0.798  0.0000  0.0000  0.0000
  343TTP    C40 6931   5.117   3.285   0.716  0.0000  0.0000  0.0000
  343TTP    C41 6932   5.017   3.372   0.787  0.0000  0.0000  0.0000
  343TTP    C42 6933   4.895   3.412   0.706  0.0000  0.0000  0.0000
  344FIC     F1 6934   5.399   2.787   3.178  0.0000  0.0000  0.0000
  344FIC     F2 6935   5.370   2.996   3.339  0.0000  0.0000  0.0000
  344FIC     O1 6936   5.462   3.018   2.701  0.0000  0.0000  0.0000
  344FIC     N5 6937   5.341   3.465   3.218  0.0000  0.0000  0.0000
  344FIC     N6 6938   5.420   3.629   2.830  0.0000  0.0000  0.0000
  344FIC    C19 6939   5.446   3.323   2.678  0.0000  0.0000  0.0000
  344FIC    C20 6940   5.439   3.241   2.787  0.0000  0.0000  0.0000
  344FIC    C21 6941   5.441   3.101   2.794  0.0000  0.0000  0.0000
  344FIC    C22 6942   5.422   3.049   2.934  0.0000  0.0000  0.0000
  344FIC    C23 6943   5.422   2.923   2.993  0.0000  0.0000  0.0000
  344FIC    C24 6944   5.403   2.911   3.130  0.0000  0.0000  0.0000
  344FIC    C25 6945   5.383   3.024   3.208  0.0000  0.0000  0.0000
  344FIC    C26 6946   5.382   3.150   3.149  0.0000  0.0000  0.0000
  344FIC    C27 6947   5.401   3.162   3.012  0.0000  0.0000  0.0000
  344FIC    C28 6948   5.412   3.286   2.937  0.0000  0.0000  0.0000
  344FIC    C29 6949   5.394   3.413   2.970  0.0000  0.0000  0.0000
  344FIC    C30 6950   5.363   3.442   3.105  0.0000  0.0000  0.0000
  344FIC    C31 6951   5.406   3.531   2.895  0.0000  0.0000  0.0000
  345FIC     F1 6952   5.735   1.785   1.669  0.0000  0.0000  0.0000
  345FIC     F2 6953   5.760   1.723   1.419  0.0000  0.0000  0.0000
  345FIC     O1 6954   5.633   2.308   1.634  0.0000  0.0000  0.0000
  345FIC     N5 6955   5.711   1.996   1.017  0.0000  0.0000  0.0000
  345FIC     N6 6956   5.642   2.413   1.028  0.0000  0.0000  0.0000
  345FIC    C19 6957   5.624   2.438   1.366  0.0000  0.0000  0.0000
  345FIC    C20 6958   5.642   2.304   1.393  0.0000  0.0000  0.0000
  345FIC    C21 6959   5.649   2.255   1.521  0.0000  0.0000  0.0000
  345FIC    C22 6960   5.673   2.106   1.521  0.0000  0.0000  0.0000
  345FIC    C23 6961   5.693   2.010   1.618  0.0000  0.0000  0.0000
  345FIC    C24 6962   5.718   1.882   1.575  0.0000  0.0000  0.0000
  345FIC    C25 6963   5.735   1.851   1.442  0.0000  0.0000  0.0000
  345FIC    C26 6964   5.716   1.937   1.346  0.0000  0.0000  0.0000
  345FIC    C27 6965   5.688   2.068   1.386  0.0000  0.0000  0.0000
  345FIC    C28 6966   5.668   2.193   1.306  0.0000  0.0000  0.0000
  345FIC    C29 6967   5.671   2.202   1.168  0.0000  0.0000  0.0000
  345FIC    C30 6968   5.693   2.094   1.087  0.0000  0.0000  0.0000
  345FIC    C31 6969   5.657   2.317   1.096  0.0000  0.0000  0.0000
  346BTD     S2 6970   5.203   2.961   1.659  0.0000  0.0000  0.0000
  346BTD     N1 6971   5.195   2.980   1.827  0.0000  0.0000  0.0000
  346BTD     N2 6972   5.180   3.114   1.613  0.0000  0.0000  0.0000
  346BTD     N3 6973   5.129   3.535   1.820  0.0000  0.0000  0.0000
  346BTD     N4 6974   5.116   3.347   2.112  0.0000  0.0000  0.0000
  346BTD     C5 6975   5.158   3.181   1.966  0.0000  0.0000  0.0000
  346BTD     C6 6976   5.179   3.121   1.845  0.0000  0.0000  0.0000
  346BTD     C7 6977   5.162   3.183   1.725  0.0000  0.0000  0.0000
  346BTD     C8 6978   5.145   3.324   1.733  0.0000  0.0000  0.0000
  346BTD    C15 6979   5.136   3.401   1.851  0.0000  0.0000  0.0000
  346BTD    C16 6980   5.135   3.316   1.976  0.0000  0.0000  0.0000
  346BTD    C43 6981   5.069   3.473   2.172  0.0000  0.0000  0.0000
  346BTD    C44 6982   4.917   3.500   2.160  0.0000  0.0000  0.0000
  346BTD    C45 6983   4.897   3.634   2.239  0.0000  0.0000  0.0000
  346BTD    C46 6984   4.791   3.723   2.171  0.0000  0.0000  0.0000
  346BTD    C47 6985   4.841   3.384   2.221  0.0000  0.0000  0.0000
  346BTD    C48 6986   4.688   3.392   2.215  0.0000  0.0000  0.0000
  346BTD    C49 6987   4.590   3.288   2.269  0.0000  0.0000  0.0000
  346BTD    C50 6988   4.678   3.163   2.236  0.0000  0.0000  0.0000
  346BTD    C75 6989   5.095   3.652   1.904  0.0000  0.0000  0.0000
  346BTD    C76 6990   5.207   3.754   1.931  0.0000  0.0000  0.0000
  346BTD    C77 6991   5.328   3.688   1.989  0.0000  0.0000  0.0000
  346BTD    C78 6992   5.454   3.779   1.999  0.0000  0.0000  0.0000
  346BTD    C79 6993   5.164   3.858   2.037  0.0000  0.0000  0.0000
  346BTD    C80 6994   5.081   3.965   1.965  0.0000  0.0000  0.0000
  346BTD    C81 6995   5.045   4.081   2.063  0.0000  0.0000  0.0000
  346BTD    C82 6996   4.932   4.161   1.994  0.0000  0.0000  0.0000
  347TTP     S1 6997   5.178   2.977   2.177  0.0000  0.0000  0.0000
  347TTP     S5 6998   5.108   3.270   2.470  0.0000  0.0000  0.0000
  347TTP     C1 6999   5.129   3.117   2.547  0.0000  0.0000  0.0000
  347TTP     C2 7000   5.148   3.009   2.458  0.0000  0.0000  0.0000
  347TTP     C3 7001   5.153   3.055   2.323  0.0000  0.0000  0.0000
  347TTP     C4 7002   5.154   3.133   2.093  0.0000  0.0000  0.0000
  347TTP    C17 7003   5.134   3.227   2.186  0.0000  0.0000  0.0000
  347TTP    C18 7004   5.129   3.193   2.322  0.0000  0.0000  0.0000
  347TTP    C32 7005   5.170   2.857   2.494  0.0000  0.0000  0.0000
  347TTP    C33 7006   5.247   2.774   2.392  0.0000  0.0000  0.0000
  347TTP    C34 7007   5.267   2.632   2.446  0.0000  0.0000  0.0000
  347TTP    C35 7008   5.321   2.539   2.338  0.0000  0.0000  0.0000
  347TTP    C36 7009   5.365   2.400   2.388  0.0000  0.0000  0.0000
  347TTP    C37 7010   5.420   2.305   2.286  0.0000  0.0000  0.0000
  347TTP    C38 7011   5.341   2.171   2.272  0.0000  0.0000  0.0000
  347TTP    C39 7012   5.343   2.081   2.396  0.0000  0.0000  0.0000
  347TTP    C40 7013   5.266   1.951   2.381  0.0000  0.0000  0.0000
  347TTP    C41 7014   5.316   1.862   2.271  0.0000  0.0000  0.0000
  347TTP    C42 7015   5.310   1.925   2.128  0.0000  0.0000  0.0000
  348TTP     S1 7016   5.159   3.425   1.454  0.0000  0.0000  0.0000
  348TTP     S5 7017   5.121   3.823   1.587  0.0000  0.0000  0.0000
  348TTP     C1 7018   5.130   3.822   1.413  0.0000  0.0000  0.0000
  348TTP     C2 7019   5.139   3.694   1.359  0.0000  0.0000  0.0000
  348TTP     C3 7020   5.147   3.598   1.459  0.0000  0.0000  0.0000
  348TTP     C4 7021   5.149   3.417   1.629  0.0000  0.0000  0.0000
  348TTP    C17 7022   5.141   3.543   1.681  0.0000  0.0000  0.0000
  348TTP    C18 7023   5.137   3.656   1.586  0.0000  0.0000  0.0000
  348TTP    C32 7024   5.143   3.657   1.211  0.0000  0.0000  0.0000
  348TTP    C33 7025   5.290   3.651   1.157  0.0000  0.0000  0.0000
  348TTP    C34 7026   5.304   3.574   1.024  0.0000  0.0000  0.0000
  348TTP    C35 7027   5.452   3.537   0.985  0.0000  0.0000  0.0000
  348TTP    C36 7028   5.482   3.538   0.837  0.0000  0.0000  0.0000
  348TTP    C37 7029   5.525   3.404   0.783  0.0000  0.0000  0.0000
  348TTP    C38 7030   5.540   3.297   0.888  0.0000  0.0000  0.0000
  348TTP    C39 7031   5.480   3.332   1.022  0.0000  0.0000  0.0000
  348TTP    C40 7032   5.493   3.227   1.127  0.0000  0.0000  0.0000
  348TTP    C41 7033   5.433   3.262   1.260  0.0000  0.0000  0.0000
  348TTP    C42 7034   5.446   3.158   1.366  0.0000  0.0000  0.0000
  349FIC     F1 7035   5.006   3.618   3.183  0.0000  0.0000  0.0000
  349FIC     F2 7036   4.989   3.403   3.344  0.0000  0.0000  0.0000
  349FIC     O1 7037   5.095   3.391   2.712  0.0000  0.0000  0.0000
  349FIC     N5 7038   5.043   2.926   3.232  0.0000  0.0000  0.0000
  349FIC     N6 7039   5.098   2.783   2.838  0.0000  0.0000  0.0000
  349FIC    C19 7040   5.117   3.094   2.687  0.0000  0.0000  0.0000
  349FIC    C20 7041   5.091   3.161   2.801  0.0000  0.0000  0.0000
  349FIC    C21 7042   5.086   3.304   2.797  0.0000  0.0000  0.0000
  349FIC    C22 7043   5.063   3.358   2.938  0.0000  0.0000  0.0000
  349FIC    C23 7044   5.045   3.486   2.990  0.0000  0.0000  0.0000
  349FIC    C24 7045   5.019   3.503   3.125  0.0000  0.0000  0.0000
  349FIC    C25 7046   5.011   3.392   3.209  0.0000  0.0000  0.0000
  349FIC    C26 7047   5.029   3.265   3.157  0.0000  0.0000  0.0000
  349FIC    C27 7048   5.055   3.248   3.021  0.0000  0.0000  0.0000
  349FIC    C28 7049   5.071   3.121   2.943  0.0000  0.0000  0.0000
  349FIC    C29 7050   5.071   2.997   2.974  0.0000  0.0000  0.0000
  349FIC    C30 7051   5.055   2.969   3.133  0.0000  0.0000  0.0000
  349FIC    C31 7052   5.084   2.879   2.897  0.0000  0.0000  0.0000
  350FIC     F1 7053   5.012   4.611   1.590  0.0000  0.0000  0.0000
  350FIC     F2 7054   4.996   4.660   1.320  0.0000  0.0000  0.0000
  350FIC     O1 7055   5.111   4.091   1.592  0.0000  0.0000  0.0000
  350FIC     N5 7056   5.057   4.346   0.941  0.0000  0.0000  0.0000
  350FIC     N6 7057   5.121   3.938   0.983  0.0000  0.0000  0.0000
  350FIC    C19 7058   5.114   3.939   1.329  0.0000  0.0000  0.0000
  350FIC    C20 7059   5.101   4.078   1.348  0.0000  0.0000  0.0000
  350FIC    C21 7060   5.098   4.130   1.480  0.0000  0.0000  0.0000
  350FIC    C22 7061   5.068   4.281   1.452  0.0000  0.0000  0.0000
  350FIC    C23 7062   5.052   4.385   1.543  0.0000  0.0000  0.0000
  350FIC    C24 7063   5.028   4.514   1.497  0.0000  0.0000  0.0000
  350FIC    C25 7064   5.020   4.539   1.360  0.0000  0.0000  0.0000
  350FIC    C26 7065   5.037   4.435   1.269  0.0000  0.0000  0.0000
  350FIC    C27 7066   5.061   4.306   1.315  0.0000  0.0000  0.0000
  350FIC    C28 7067   5.084   4.178   1.241  0.0000  0.0000  0.0000
  350FIC    C29 7068   5.087   4.155   1.119  0.0000  0.0000  0.0000
  350FIC    C30 7069   5.066   4.284   1.036  0.0000  0.0000  0.0000
  350FIC    C31 7070   5.107   4.037   1.042  0.0000  0.0000  0.0000
  351BTD     S2 7071   5.047   0.478  -1.649  0.0000  0.0000  0.0000
  351BTD     N1 7072   5.050   0.492  -1.810  0.0000  0.0000  0.0000
  351BTD     N2 7073   5.030   0.631  -1.603  0.0000  0.0000  0.0000
  351BTD     N3 7074   4.981   1.044  -1.829  0.0000  0.0000  0.0000
  351BTD     N4 7075   5.007   0.859  -2.112  0.0000  0.0000  0.0000
  351BTD     C5 7076   5.025   0.686  -1.959  0.0000  0.0000  0.0000
  351BTD     C6 7077   5.031   0.627  -1.834  0.0000  0.0000  0.0000
  351BTD     C7 7078   5.021   0.705  -1.719  0.0000  0.0000  0.0000
  351BTD     C8 7079   5.005   0.843  -1.731  0.0000  0.0000  0.0000
  351BTD    C15 7080   4.999   0.902  -1.856  0.0000  0.0000  0.0000
  351BTD    C16 7081   5.009   0.823  -1.971  0.0000  0.0000  0.0000
  351BTD    C43 7082   4.980   0.982  -2.193  0.0000  0.0000  0.0000
  351BTD    C44 7083   4.845   0.999  -2.262  0.0000  0.0000  0.0000
  351BTD    C45 7084   4.824   1.135  -2.331  0.0000  0.0000  0.0000
  351BTD    C46 7085   4.927   1.136  -2.448  0.0000  0.0000  0.0000
  351BTD    C47 7086   4.737   0.968  -2.160  0.0000  0.0000  0.0000
  351BTD    C48 7087   4.603   0.966  -2.239  0.0000  0.0000  0.0000
  351BTD    C49 7088   4.495   0.937  -2.136  0.0000  0.0000  0.0000
  351BTD    C50 7089   4.359   0.960  -2.205  0.0000  0.0000  0.0000
  351BTD    C75 7090   4.963   1.157  -1.914  0.0000  0.0000  0.0000
  351BTD    C76 7091   5.079   1.250  -1.948  0.0000  0.0000  0.0000
  351BTD    C77 7092   5.215   1.196  -1.984  0.0000  0.0000  0.0000
  351BTD    C78 7093   5.335   1.285  -1.943  0.0000  0.0000  0.0000
  351BTD    C79 7094   5.041   1.371  -2.037  0.0000  0.0000  0.0000
  351BTD    C80 7095   4.946   1.481  -1.988  0.0000  0.0000  0.0000
  351BTD    C81 7096   4.886   1.606  -2.060  0.0000  0.0000  0.0000
  351BTD    C82 7097   4.904   1.714  -1.974  0.0000  0.0000  0.0000
  352TTP     S1 7098   5.058   0.479  -2.164  0.0000  0.0000  0.0000
  352TTP     S5 7099   5.043   0.769  -2.470  0.0000  0.0000  0.0000
  352TTP     C1 7100   5.068   0.605  -2.535  0.0000  0.0000  0.0000
  352TTP     C2 7101   5.072   0.500  -2.438  0.0000  0.0000  0.0000
  352TTP     C3 7102   5.058   0.563  -2.324  0.0000  0.0000  0.0000
  352TTP     C4 7103   5.036   0.634  -2.094  0.0000  0.0000  0.0000
  352TTP    C17 7104   5.023   0.736  -2.179  0.0000  0.0000  0.0000
  352TTP    C18 7105   5.038   0.691  -2.312  0.0000  0.0000  0.0000
  352TTP    C32 7106   5.074   0.353  -2.481  0.0000  0.0000  0.0000
  352TTP    C33 7107   5.220   0.306  -2.473  0.0000  0.0000  0.0000
  352TTP    C34 7108   5.224   0.154  -2.486  0.0000  0.0000  0.0000
  352TTP    C35 7109   5.362   0.100  -2.518  0.0000  0.0000  0.0000
  352TTP    C36 7110   5.423   0.017  -2.408  0.0000  0.0000  0.0000
  352TTP    C37 7111   5.563  -0.039  -2.438  0.0000  0.0000  0.0000
  352TTP    C38 7112   5.647   0.046  -2.531  0.0000  0.0000  0.0000
  352TTP    C39 7113   5.569   0.156  -2.601  0.0000  0.0000  0.0000
  352TTP    C40 7114   5.652   0.277  -2.635  0.0000  0.0000  0.0000
  352TTP    C41 7115   5.603   0.406  -2.574  0.0000  0.0000  0.0000
  352TTP    C42 7116   5.480   0.394  -2.486  0.0000  0.0000  0.0000
  353TTP     S1 7117   4.993   0.951  -1.458  0.0000  0.0000  0.0000
  353TTP     S5 7118   4.939   1.339  -1.613  0.0000  0.0000  0.0000
  353TTP     C1 7119   4.930   1.351  -1.440  0.0000  0.0000  0.0000
  353TTP     C2 7120   4.949   1.225  -1.375  0.0000  0.0000  0.0000
  353TTP     C3 7121   4.968   1.127  -1.473  0.0000  0.0000  0.0000
  353TTP     C4 7122   4.997   0.940  -1.626  0.0000  0.0000  0.0000
  353TTP    C17 7123   4.984   1.064  -1.693  0.0000  0.0000  0.0000
  353TTP    C18 7124   4.966   1.170  -1.603  0.0000  0.0000  0.0000
  353TTP    C32 7125   4.929   1.197  -1.224  0.0000  0.0000  0.0000
  353TTP    C33 7126   5.051   1.173  -1.137  0.0000  0.0000  0.0000
  353TTP    C34 7127   5.038   1.138  -0.986  0.0000  0.0000  0.0000
  353TTP    C35 7128   5.054   0.991  -0.953  0.0000  0.0000  0.0000
  353TTP    C36 7129   5.060   0.941  -0.808  0.0000  0.0000  0.0000
  353TTP    C37 7130   5.075   0.791  -0.793  0.0000  0.0000  0.0000
  353TTP    C38 7131   5.200   0.747  -0.720  0.0000  0.0000  0.0000
  353TTP    C39 7132   5.295   0.660  -0.798  0.0000  0.0000  0.0000
  353TTP    C40 7133   5.415   0.621  -0.716  0.0000  0.0000  0.0000
  353TTP    C41 7134   5.515   0.534  -0.787  0.0000  0.0000  0.0000
  353TTP    C42 7135   5.637   0.494  -0.706  0.0000  0.0000  0.0000
  354FIC     F1 7136   5.133   1.119  -3.178  0.0000  0.0000  0.0000
  354FIC     F2 7137   5.162   0.910  -3.339  0.0000  0.0000  0.0000
  354FIC     O1 7138   5.070   0.888  -2.701  0.0000  0.0000  0.0000
  354FIC     N5 7139   5.192   0.441  -3.218  0.0000  0.0000  0.0000
  354FIC     N6 7140   5.112   0.277  -2.830  0.0000  0.0000  0.0000
  354FIC    C19 7141   5.086   0.583  -2.678  0.0000  0.0000  0.0000
  354FIC    C20 7142   5.093   0.665  -2.787  0.0000  0.0000  0.0000
  354FIC    C21 7143   5.091   0.805  -2.794  0.0000  0.0000  0.0000
  354FIC    C22 7144   5.111   0.857  -2.934  0.0000  0.0000  0.0000
  354FIC    C23 7145   5.110   0.983  -2.993  0.0000  0.0000  0.0000
  354FIC    C24 7146   5.129   0.995  -3.130  0.0000  0.0000  0.0000
  354FIC    C25 7147   5.149   0.882  -3.208  0.0000  0.0000  0.0000
  354FIC    C26 7148   5.150   0.756  -3.149  0.0000  0.0000  0.0000
  354FIC    C27 7149   5.131   0.744  -3.012  0.0000  0.0000  0.0000
  354FIC    C28 7150   5.120   0.620  -2.937  0.0000  0.0000  0.0000
  354FIC    C29 7151   5.138   0.493  -2.970  0.0000  0.0000  0.0000
  354FIC    C30 7152   5.169   0.464  -3.105  0.0000  0.0000  0.0000
  354FIC    C31 7153   5.126   0.375  -2.895  0.0000  0.0000  0.0000
  355FIC     F1 7154   4.798   2.121  -1.669  0.0000  0.0000  0.0000
  355FIC     F2 7155   4.772   2.183  -1.419  0.0000  0.0000  0.0000
  355FIC     O1 7156   4.899   1.598  -1.634  0.0000  0.0000  0.0000
  355FIC     N5 7157   4.821   1.910  -1.017  0.0000  0.0000  0.0000
  355FIC     N6 7158   4.891   1.493  -1.028  0.0000  0.0000  0.0000
  355FIC    C19 7159   4.908   1.468  -1.366  0.0000  0.0000  0.0000
  355FIC    C20 7160   4.890   1.602  -1.393  0.0000  0.0000  0.0000
  355FIC    C21 7161   4.883   1.651  -1.521  0.0000  0.0000  0.0000
  355FIC    C22 7162   4.859   1.800  -1.521  0.0000  0.0000  0.0000
  355FIC    C23 7163   4.839   1.896  -1.618  0.0000  0.0000  0.0000
  355FIC    C24 7164   4.814   2.023  -1.575  0.0000  0.0000  0.0000
  355FIC    C25 7165   4.797   2.055  -1.442  0.0000  0.0000  0.0000
  355FIC    C26 7166   4.816   1.969  -1.346  0.0000  0.0000  0.0000
  355FIC    C27 7167   4.844   1.838  -1.386  0.0000  0.0000  0.0000
  355FIC    C28 7168   4.864   1.713  -1.306  0.0000  0.0000  0.0000
  355FIC    C29 7169   4.861   1.704  -1.168  0.0000  0.0000  0.0000
  355FIC    C30 7170   4.839   1.812  -1.087  0.0000  0.0000  0.0000
  355FIC    C31 7171   4.875   1.589  -1.096  0.0000  0.0000  0.0000
  356BTD     S2 7172   5.329   0.945  -1.659  0.0000  0.0000  0.0000
  356BTD     N1 7173   5.337   0.926  -1.827  0.0000  0.0000  0.0000
  356BTD     N2 7174   5.352   0.792  -1.613  0.0000  0.0000  0.0000
  356BTD     N3 7175   5.403   0.371  -1.820  0.0000  0.0000  0.0000
  356BTD     N4 7176   5.416   0.559  -2.112  0.0000  0.0000  0.0000
  356BTD     C5 7177   5.374   0.725  -1.966  0.0000  0.0000  0.0000
  356BTD     C6 7178   5.353   0.785  -1.845  0.0000  0.0000  0.0000
  356BTD     C7 7179   5.370   0.723  -1.725  0.0000  0.0000  0.0000
  356BTD     C8 7180   5.387   0.582  -1.733  0.0000  0.0000  0.0000
  356BTD    C15 7181   5.396   0.505  -1.851  0.0000  0.0000  0.0000
  356BTD    C16 7182   5.397   0.590  -1.976  0.0000  0.0000  0.0000
  356BTD    C43 7183   5.463   0.433  -2.172  0.0000  0.0000  0.0000
  356BTD    C44 7184   5.615   0.406  -2.160  0.0000  0.0000  0.0000
  356BTD    C45 7185   5.635   0.272  -2.239  0.0000  0.0000  0.0000
  356BTD    C46 7186   5.741   0.183  -2.171  0.0000  0.0000  0.0000
  356BTD    C47 7187   5.691   0.522  -2.221  0.0000  0.0000  0.0000
  356BTD    C48 7188   5.844   0.514  -2.215  0.0000  0.0000  0.0000
  356BTD    C49 7189   5.942   0.618  -2.269  0.0000  0.0000  0.0000
  356BTD    C50 7190   5.854   0.743  -2.236  0.0000  0.0000  0.0000
  356BTD    C75 7191   5.437   0.254  -1.904  0.0000  0.0000  0.0000
  356BTD    C76 7192   5.326   0.152  -1.931  0.0000  0.0000  0.0000
  356BTD    C77 7193   5.204   0.218  -1.989  0.0000  0.0000  0.0000
  356BTD    C78 7194   5.078   0.127  -1.999  0.0000  0.0000  0.0000
  356BTD    C79 7195   5.368   0.048  -2.037  0.0000  0.0000  0.0000
  356BTD    C80 7196   5.451  -0.059  -1.965  0.0000  0.0000  0.0000
  356BTD    C81 7197   5.487  -0.175  -2.063  0.0000  0.0000  0.0000
  356BTD    C82 7198   5.600  -0.255  -1.994  0.0000  0.0000  0.0000
  357TTP     S1 7199   5.354   0.929  -2.177  0.0000  0.0000  0.0000
  357TTP     S5 7200   5.424   0.636  -2.470  0.0000  0.0000  0.0000
  357TTP     C1 7201   5.403   0.789  -2.547  0.0000  0.0000  0.0000
  357TTP     C2 7202   5.384   0.897  -2.458  0.0000  0.0000  0.0000
  357TTP     C3 7203   5.379   0.851  -2.323  0.0000  0.0000  0.0000
  357TTP     C4 7204   5.378   0.773  -2.093  0.0000  0.0000  0.0000
  357TTP    C17 7205   5.398   0.679  -2.186  0.0000  0.0000  0.0000
  357TTP    C18 7206   5.403   0.713  -2.322  0.0000  0.0000  0.0000
  357TTP    C32 7207   5.362   1.049  -2.494  0.0000  0.0000  0.0000
  357TTP    C33 7208   5.285   1.132  -2.392  0.0000  0.0000  0.0000
  357TTP    C34 7209   5.265   1.274  -2.446  0.0000  0.0000  0.0000
  357TTP    C35 7210   5.211   1.367  -2.338  0.0000  0.0000  0.0000
  357TTP    C36 7211   5.167   1.506  -2.388  0.0000  0.0000  0.0000
  357TTP    C37 7212   5.112   1.601  -2.286  0.0000  0.0000  0.0000
  357TTP    C38 7213   5.191   1.735  -2.272  0.0000  0.0000  0.0000
  357TTP    C39 7214   5.190   1.825  -2.396  0.0000  0.0000  0.0000
  357TTP    C40 7215   5.266   1.955  -2.381  0.0000  0.0000  0.0000
  357TTP    C41 7216   5.216   2.044  -2.271  0.0000  0.0000  0.0000
  357TTP    C42 7217   5.222   1.981  -2.128  0.0000  0.0000  0.0000
  358TTP     S1 7218   5.373   0.481  -1.454  0.0000  0.0000  0.0000
  358TTP     S5 7219   5.411   0.083  -1.587  0.0000  0.0000  0.0000
  358TTP     C1 7220   5.402   0.084  -1.413  0.0000  0.0000  0.0000
  358TTP     C2 7221   5.393   0.212  -1.359  0.0000  0.0000  0.0000
  358TTP     C3 7222   5.385   0.308  -1.459  0.0000  0.0000  0.0000
  358TTP     C4 7223   5.383   0.489  -1.629  0.0000  0.0000  0.0000
  358TTP    C17 7224   5.391   0.363  -1.681  0.0000  0.0000  0.0000
  358TTP    C18 7225   5.395   0.250  -1.586  0.0000  0.0000  0.0000
  358TTP    C32 7226   5.389   0.249  -1.211  0.0000  0.0000  0.0000
  358TTP    C33 7227   5.242   0.255  -1.157  0.0000  0.0000  0.0000
  358TTP    C34 7228   5.228   0.332  -1.024  0.0000  0.0000  0.0000
  358TTP    C35 7229   5.080   0.369  -0.985  0.0000  0.0000  0.0000
  358TTP    C36 7230   5.050   0.368  -0.837  0.0000  0.0000  0.0000
  358TTP    C37 7231   5.007   0.502  -0.783  0.0000  0.0000  0.0000
  358TTP    C38 7232   4.992   0.609  -0.888  0.0000  0.0000  0.0000
  358TTP    C39 7233   5.052   0.574  -1.022  0.0000  0.0000  0.0000
  358TTP    C40 7234   5.039   0.679  -1.127  0.0000  0.0000  0.0000
  358TTP    C41 7235   5.099   0.644  -1.260  0.0000  0.0000  0.0000
  358TTP    C42 7236   5.086   0.748  -1.366  0.0000  0.0000  0.0000
  359FIC     F1 7237   5.526   0.288  -3.183  0.0000  0.0000  0.0000
  359FIC     F2 7238   5.543   0.503  -3.344  0.0000  0.0000  0.0000
  359FIC     O1 7239   5.437   0.515  -2.712  0.0000  0.0000  0.0000
  359FIC     N5 7240   5.489   0.980  -3.232  0.0000  0.0000  0.0000
  359FIC     N6 7241   5.434   1.123  -2.838  0.0000  0.0000  0.0000
  359FIC    C19 7242   5.415   0.812  -2.687  0.0000  0.0000  0.0000
  359FIC    C20 7243   5.441   0.745  -2.801  0.0000  0.0000  0.0000
  359FIC    C21 7244   5.446   0.602  -2.797  0.0000  0.0000  0.0000
  359FIC    C22 7245   5.469   0.548  -2.938  0.0000  0.0000  0.0000
  359FIC    C23 7246   5.487   0.420  -2.990  0.0000  0.0000  0.0000
  359FIC    C24 7247   5.513   0.403  -3.125  0.0000  0.0000  0.0000
  359FIC    C25 7248   5.521   0.514  -3.209  0.0000  0.0000  0.0000
  359FIC    C26 7249   5.503   0.641  -3.157  0.0000  0.0000  0.0000
  359FIC    C27 7250   5.477   0.658  -3.021  0.0000  0.0000  0.0000
  359FIC    C28 7251   5.461   0.785  -2.943  0.0000  0.0000  0.0000
  359FIC    C29 7252   5.461   0.909  -2.974  0.0000  0.0000  0.0000
  359FIC    C30 7253   5.477   0.937  -3.133  0.0000  0.0000  0.0000
  359FIC    C31 7254   5.448   1.027  -2.897  0.0000  0.0000  0.0000
  360FIC     F1 7255   5.520  -0.705  -1.590  0.0000  0.0000  0.0000
  360FIC     F2 7256   5.536  -0.754  -1.320  0.0000  0.0000  0.0000
  360FIC     O1 7257   5.421  -0.185  -1.592  0.0000  0.0000  0.0000
  360FIC     N5 7258   5.475  -0.440  -0.941  0.0000  0.0000  0.0000
  360FIC     N6 7259   5.411  -0.032  -0.983  0.0000  0.0000  0.0000
  360FIC    C19 7260   5.418  -0.033  -1.329  0.0000  0.0000  0.0000
  360FIC    C20 7261   5.431  -0.172  -1.348  0.0000  0.0000  0.0000
  360FIC    C21 7262   5.434  -0.224  -1.480  0.0000  0.0000  0.0000
  360FIC    C22 7263   5.464  -0.375  -1.452  0.0000  0.0000  0.0000
  360FIC    C23 7264   5.480  -0.479  -1.543  0.0000  0.0000  0.0000
  360FIC    C24 7265   5.504  -0.608  -1.497  0.0000  0.0000  0.0000
  360FIC    C25 7266   5.512  -0.633  -1.360  0.0000  0.0000  0.0000
  360FIC    C26 7267   5.495  -0.529  -1.269  0.0000  0.0000  0.0000
  360FIC    C27 7268   5.471  -0.400  -1.315  0.0000  0.0000  0.0000
  360FIC    C28 7269   5.448  -0.272  -1.241  0.0000  0.0000  0.0000
  360FIC    C29 7270   5.445  -0.249  -1.119  0.0000  0.0000  0.0000
  360FIC    C30 7271   5.466  -0.378  -1.036  0.0000  0.0000  0.0000
  360FIC    C31 7272   5.425  -0.131  -1.042  0.0000  0.0000  0.0000
  361BTD     S2 7273   5.260   5.380   1.649  0.0000  0.0000  0.0000
  361BTD     N1 7274   5.257   5.366   1.810  0.0000  0.0000  0.0000
  361BTD     N2 7275   5.277   5.227   1.603  0.0000  0.0000  0.0000
  361BTD     N3 7276   5.326   4.814   1.829  0.0000  0.0000  0.0000
  361BTD     N4 7277   5.300   4.999   2.112  0.0000  0.0000  0.0000
  361BTD     C5 7278   5.282   5.172   1.959  0.0000  0.0000  0.0000
  361BTD     C6 7279   5.276   5.231   1.834  0.0000  0.0000  0.0000
  361BTD     C7 7280   5.286   5.153   1.719  0.0000  0.0000  0.0000
  361BTD     C8 7281   5.302   5.015   1.731  0.0000  0.0000  0.0000
  361BTD    C15 7282   5.308   4.956   1.856  0.0000  0.0000  0.0000
  361BTD    C16 7283   5.298   5.035   1.971  0.0000  0.0000  0.0000
  361BTD    C43 7284   5.327   4.876   2.193  0.0000  0.0000  0.0000
  361BTD    C44 7285   5.462   4.859   2.262  0.0000  0.0000  0.0000
  361BTD    C45 7286   5.483   4.723   2.331  0.0000  0.0000  0.0000
  361BTD    C46 7287   5.380   4.722   2.448  0.0000  0.0000  0.0000
  361BTD    C47 7288   5.570   4.890   2.160  0.0000  0.0000  0.0000
  361BTD    C48 7289   5.704   4.892   2.239  0.0000  0.0000  0.0000
  361BTD    C49 7290   5.812   4.921   2.136  0.0000  0.0000  0.0000
  361BTD    C50 7291   5.948   4.898   2.205  0.0000  0.0000  0.0000
  361BTD    C75 7292   5.344   4.701   1.914  0.0000  0.0000  0.0000
  361BTD    C76 7293   5.228   4.608   1.948  0.0000  0.0000  0.0000
  361BTD    C77 7294   5.092   4.662   1.984  0.0000  0.0000  0.0000
  361BTD    C78 7295   4.972   4.573   1.943  0.0000  0.0000  0.0000
  361BTD    C79 7296   5.266   4.487   2.037  0.0000  0.0000  0.0000
  361BTD    C80 7297   5.361   4.377   1.988  0.0000  0.0000  0.0000
  361BTD    C81 7298   5.421   4.252   2.060  0.0000  0.0000  0.0000
  361BTD    C82 7299   5.403   4.144   1.974  0.0000  0.0000  0.0000
  362TTP     S1 7300   5.249   5.379   2.164  0.0000  0.0000  0.0000
  362TTP     S5 7301   5.264   5.089   2.470  0.0000  0.0000  0.0000
  362TTP     C1 7302   5.239   5.253   2.535  0.0000  0.0000  0.0000
  362TTP     C2 7303   5.235   5.358   2.438  0.0000  0.0000  0.0000
  362TTP     C3 7304   5.249   5.295   2.324  0.0000  0.0000  0.0000
  362TTP     C4 7305   5.271   5.224   2.094  0.0000  0.0000  0.0000
  362TTP    C17 7306   5.284   5.122   2.179  0.0000  0.0000  0.0000
  362TTP    C18 7307   5.269   5.167   2.312  0.0000  0.0000  0.0000
  362TTP    C32 7308   5.233   5.505   2.481  0.0000  0.0000  0.0000
  362TTP    C33 7309   5.087   5.552   2.473  0.0000  0.0000  0.0000
  362TTP    C34 7310   5.083   5.704   2.486  0.0000  0.0000  0.0000
  362TTP    C35 7311   4.945   5.758   2.518  0.0000  0.0000  0.0000
  362TTP    C36 7312   4.884   5.841   2.408  0.0000  0.0000  0.0000
  362TTP    C37 7313   4.744   5.897   2.438  0.0000  0.0000  0.0000
  362TTP    C38 7314   4.660   5.812   2.531  0.0000  0.0000  0.0000
  362TTP    C39 7315   4.738   5.702   2.601  0.0000  0.0000  0.0000
  362TTP    C40 7316   4.655   5.581   2.635  0.0000  0.0000  0.0000
  362TTP    C41 7317   4.704   5.452   2.574  0.0000  0.0000  0.0000
  362TTP    C42 7318   4.827   5.464   2.486  0.0000  0.0000  0.0000
  363TTP     S1 7319   5.314   4.907   1.458  0.0000  0.0000  0.0000
  363TTP     S5 7320   5.368   4.519   1.613  0.0000  0.0000  0.0000
  363TTP     C1 7321   5.377   4.507   1.440  0.0000  0.0000  0.0000
  363TTP     C2 7322   5.358   4.633   1.375  0.0000  0.0000  0.0000
  363TTP     C3 7323   5.339   4.731   1.473  0.0000  0.0000  0.0000
  363TTP     C4 7324   5.310   4.918   1.626  0.0000  0.0000  0.0000
  363TTP    C17 7325   5.323   4.794   1.693  0.0000  0.0000  0.0000
  363TTP    C18 7326   5.341   4.688   1.603  0.0000  0.0000  0.0000
  363TTP    C32 7327   5.378   4.661   1.224  0.0000  0.0000  0.0000
  363TTP    C33 7328   5.256   4.685   1.137  0.0000  0.0000  0.0000
  363TTP    C34 7329   5.269   4.720   0.986  0.0000  0.0000  0.0000
  363TTP    C35 7330   5.253   4.867   0.953  0.0000  0.0000  0.0000
  363TTP    C36 7331   5.247   4.917   0.808  0.0000  0.0000  0.0000
  363TTP    C37 7332   5.232   5.067   0.793  0.0000  0.0000  0.0000
  363TTP    C38 7333   5.107   5.111   0.720  0.0000  0.0000  0.0000
  363TTP    C39 7334   5.012   5.198   0.798  0.0000  0.0000  0.0000
  363TTP    C40 7335   4.892   5.237   0.716  0.0000  0.0000  0.0000
  363TTP    C41 7336   4.792   5.324   0.787  0.0000  0.0000  0.0000
  363TTP    C42 7337   4.670   5.364   0.706  0.0000  0.0000  0.0000
  364FIC     F1 7338   5.174   4.739   3.178  0.0000  0.0000  0.0000
  364FIC     F2 7339   5.145   4.948   3.339  0.0000  0.0000  0.0000
  364FIC     O1 7340   5.237   4.970   2.701  0.0000  0.0000  0.0000
  364FIC     N5 7341   5.116   5.417   3.218  0.0000  0.0000  0.0000
  364FIC     N6 7342   5.195   5.581   2.830  0.0000  0.0000  0.0000
  364FIC    C19 7343   5.221   5.275   2.678  0.0000  0.0000  0.0000
  364FIC    C20 7344   5.214   5.193   2.787  0.0000  0.0000  0.0000
  364FIC    C21 7345   5.216   5.053   2.794  0.0000  0.0000  0.0000
  364FIC    C22 7346   5.197   5.001   2.934  0.0000  0.0000  0.0000
  364FIC    C23 7347   5.197   4.875   2.993  0.0000  0.0000  0.0000
  364FIC    C24 7348   5.178   4.863   3.130  0.0000  0.0000  0.0000
  364FIC    C25 7349   5.158   4.976   3.208  0.0000  0.0000  0.0000
  364FIC    C26 7350   5.157   5.102   3.149  0.0000  0.0000  0.0000
  364FIC    C27 7351   5.176   5.114   3.012  0.0000  0.0000  0.0000
  364FIC    C28 7352   5.187   5.238   2.937  0.0000  0.0000  0.0000
  364FIC    C29 7353   5.169   5.365   2.970  0.0000  0.0000  0.0000
  364FIC    C30 7354   5.138   5.394   3.105  0.0000  0.0000  0.0000
  364FIC    C31 7355   5.181   5.483   2.895  0.0000  0.0000  0.0000
  365FIC     F1 7356   5.510   3.737   1.669  0.0000  0.0000  0.0000
  365FIC     F2 7357   5.535   3.675   1.419  0.0000  0.0000  0.0000
  365FIC     O1 7358   5.408   4.260   1.634  0.0000  0.0000  0.0000
  365FIC     N5 7359   5.486   3.948   1.017  0.0000  0.0000  0.0000
  365FIC     N6 7360   5.417   4.365   1.028  0.0000  0.0000  0.0000
  365FIC    C19 7361   5.399   4.390   1.366  0.0000  0.0000  0.0000
  365FIC    C20 7362   5.417   4.256   1.393  0.0000  0.0000  0.0000
  365FIC    C21 7363   5.424   4.207   1.521  0.0000  0.0000  0.0000
  365FIC    C22 7364   5.448   4.058   1.521  0.0000  0.0000  0.0000
  365FIC    C23 7365   5.468   3.962   1.618  0.0000  0.0000  0.0000
  365FIC    C24 7366   5.493   3.834   1.575  0.0000  0.0000  0.0000
  365FIC    C25 7367   5.510   3.803   1.442  0.0000  0.0000  0.0000
  365FIC    C26 7368   5.491   3.889   1.346  0.0000  0.0000  0.0000
  365FIC    C27 7369   5.463   4.020   1.386  0.0000  0.0000  0.0000
  365FIC    C28 7370   5.443   4.145   1.306  0.0000  0.0000  0.0000
  365FIC    C29 7371   5.446   4.154   1.168  0.0000  0.0000  0.0000
  365FIC    C30 7372   5.468   4.046   1.087  0.0000  0.0000  0.0000
  365FIC    C31 7373   5.432   4.269   1.096  0.0000  0.0000  0.0000
  366BTD     S2 7374   4.978   4.913   1.659  0.0000  0.0000  0.0000
  366BTD     N1 7375   4.970   4.932   1.827  0.0000  0.0000  0.0000
  366BTD     N2 7376   4.955   5.066   1.613  0.0000  0.0000  0.0000
  366BTD     N3 7377   4.904   5.487   1.820  0.0000  0.0000  0.0000
  366BTD     N4 7378   4.891   5.299   2.112  0.0000  0.0000  0.0000
  366BTD     C5 7379   4.933   5.133   1.966  0.0000  0.0000  0.0000
  366BTD     C6 7380   4.954   5.073   1.845  0.0000  0.0000  0.0000
  366BTD     C7 7381   4.937   5.135   1.725  0.0000  0.0000  0.0000
  366BTD     C8 7382   4.920   5.276   1.733  0.0000  0.0000  0.0000
  366BTD    C15 7383   4.911   5.353   1.851  0.0000  0.0000  0.0000
  366BTD    C16 7384   4.910   5.268   1.976  0.0000  0.0000  0.0000
  366BTD    C43 7385   4.844   5.425   2.172  0.0000  0.0000  0.0000
  366BTD    C44 7386   4.692   5.452   2.160  0.0000  0.0000  0.0000
  366BTD    C45 7387   4.672   5.586   2.239  0.0000  0.0000  0.0000
  366BTD    C46 7388   4.566   5.675   2.171  0.0000  0.0000  0.0000
  366BTD    C47 7389   4.616   5.336   2.221  0.0000  0.0000  0.0000
  366BTD    C48 7390   4.463   5.344   2.215  0.0000  0.0000  0.0000
  366BTD    C49 7391   4.365   5.240   2.269  0.0000  0.0000  0.0000
  366BTD    C50 7392   4.453   5.115   2.236  0.0000  0.0000  0.0000
  366BTD    C75 7393   4.870   5.604   1.904  0.0000  0.0000  0.0000
  366BTD    C76 7394   4.982   5.706   1.931  0.0000  0.0000  0.0000
  366BTD    C77 7395   5.103   5.640   1.989  0.0000  0.0000  0.0000
  366BTD    C78 7396   5.229   5.731   1.999  0.0000  0.0000  0.0000
  366BTD    C79 7397   4.939   5.810   2.037  0.0000  0.0000  0.0000
  366BTD    C80 7398   4.856   5.917   1.965  0.0000  0.0000  0.0000
  366BTD    C81 7399   4.820   6.033   2.063  0.0000  0.0000  0.0000
  366BTD    C82 7400   4.707   6.113   1.994  0.0000  0.0000  0.0000
  367TTP     S1 7401   4.953   4.929   2.177  0.0000  0.0000  0.0000
  367TTP     S5 7402   4.883   5.222   2.470  0.0000  0.0000  0.0000
  367TTP     C1 7403   4.904   5.069   2.547  0.0000  0.0000  0.0000
  367TTP     C2 7404   4.923   4.961   2.458  0.0000  0.0000  0.0000
  367TTP     C3 7405   4.928   5.007   2.323  0.0000  0.0000  0.0000
  367TTP     C4 7406   4.929   5.085   2.093  0.0000  0.0000  0.0000
  367TTP    C17 7407   4.909   5.179   2.186  0.0000  0.0000  0.0000
  367TTP    C18 7408   4.904   5.145   2.322  0.0000  0.0000  0.0000
  367TTP    C32 7409   4.945   4.809   2.494  0.0000  0.0000  0.0000
  367TTP    C33 7410   5.022   4.726   2.392  0.0000  0.0000  0.0000
  367TTP    C34 7411   5.042   4.584   2.446  0.0000  0.0000  0.0000
  367TTP    C35 7412   5.096   4.491   2.338  0.0000  0.0000  0.0000
  367TTP    C36 7413   5.140   4.352   2.388  0.0000  0.0000  0.0000
  367TTP    C37 7414   5.195   4.257   2.286  0.0000  0.0000  0.0000
  367TTP    C38 7415   5.116   4.123   2.272  0.0000  0.0000  0.0000
  367TTP    C39 7416   5.118   4.033   2.396  0.0000  0.0000  0.0000
  367TTP    C40 7417   5.041   3.903   2.381  0.0000  0.0000  0.0000
  367TTP    C41 7418   5.091   3.814   2.271  0.0000  0.0000  0.0000
  367TTP    C42 7419   5.085   3.877   2.128  0.0000  0.0000  0.0000
  368TTP     S1 7420   4.934   5.377   1.454  0.0000  0.0000  0.0000
  368TTP     S5 7421   4.896   5.775   1.587  0.0000  0.0000  0.0000
  368TTP     C1 7422   4.905   5.774   1.413  0.0000  0.0000  0.0000
  368TTP     C2 7423   4.914   5.646   1.359  0.0000  0.0000  0.0000
  368TTP     C3 7424   4.922   5.550   1.459  0.0000  0.0000  0.0000
  368TTP     C4 7425   4.924   5.369   1.629  0.0000  0.0000  0.0000
  368TTP    C17 7426   4.916   5.495   1.681  0.0000  0.0000  0.0000
  368TTP    C18 7427   4.912   5.608   1.586  0.0000  0.0000  0.0000
  368TTP    C32 7428   4.918   5.609   1.211  0.0000  0.0000  0.0000
  368TTP    C33 7429   5.065   5.603   1.157  0.0000  0.0000  0.0000
  368TTP    C34 7430   5.079   5.526   1.024  0.0000  0.0000  0.0000
  368TTP    C35 7431   5.227   5.489   0.985  0.0000  0.0000  0.0000
  368TTP    C36 7432   5.257   5.490   0.837  0.0000  0.0000  0.0000
  368TTP    C37 7433   5.300   5.356   0.783  0.0000  0.0000  0.0000
  368TTP    C38 7434   5.315   5.249   0.888  0.0000  0.0000  0.0000
  368TTP    C39 7435   5.255   5.284   1.022  0.0000  0.0000  0.0000
  368TTP    C40 7436   5.268   5.179   1.127  0.0000  0.0000  0.0000
  368TTP    C41 7437   5.208   5.214   1.260  0.0000  0.0000  0.0000
  368TTP    C42 7438   5.221   5.110   1.366  0.0000  0.0000  0.0000
  369FIC     F1 7439   4.781   5.570   3.183  0.0000  0.0000  0.0000
  369FIC     F2 7440   4.764   5.355   3.344  0.0000  0.0000  0.0000
  369FIC     O1 7441   4.870   5.343   2.712  0.0000  0.0000  0.0000
  369FIC     N5 7442   4.818   4.878   3.232  0.0000  0.0000  0.0000
  369FIC     N6 7443   4.873   4.735   2.838  0.0000  0.0000  0.0000
  369FIC    C19 7444   4.892   5.046   2.687  0.0000  0.0000  0.0000
  369FIC    C20 7445   4.866   5.113   2.801  0.0000  0.0000  0.0000
  369FIC    C21 7446   4.861   5.256   2.797  0.0000  0.0000  0.0000
  369FIC    C22 7447   4.838   5.310   2.938  0.0000  0.0000  0.0000
  369FIC    C23 7448   4.820   5.438   2.990  0.0000  0.0000  0.0000
  369FIC    C24 7449   4.794   5.455   3.125  0.0000  0.0000  0.0000
  369FIC    C25 7450   4.786   5.344   3.209  0.0000  0.0000  0.0000
  369FIC    C26 7451   4.804   5.217   3.157  0.0000  0.0000  0.0000
  369FIC    C27 7452   4.830   5.200   3.021  0.0000  0.0000  0.0000
  369FIC    C28 7453   4.846   5.073   2.943  0.0000  0.0000  0.0000
  369FIC    C29 7454   4.846   4.949   2.974  0.0000  0.0000  0.0000
  369FIC    C30 7455   4.830   4.921   3.133  0.0000  0.0000  0.0000
  369FIC    C31 7456   4.859   4.831   2.897  0.0000  0.0000  0.0000
  370FIC     F1 7457   4.787   6.563   1.590  0.0000  0.0000  0.0000
  370FIC     F2 7458   4.771   6.612   1.320  0.0000  0.0000  0.0000
  370FIC     O1 7459   4.886   6.043   1.592  0.0000  0.0000  0.0000
  370FIC     N5 7460   4.832   6.298   0.941  0.0000  0.0000  0.0000
  370FIC     N6 7461   4.896   5.890   0.983  0.0000  0.0000  0.0000
  370FIC    C19 7462   4.889   5.891   1.329  0.0000  0.0000  0.0000
  370FIC    C20 7463   4.876   6.030   1.348  0.0000  0.0000  0.0000
  370FIC    C21 7464   4.873   6.082   1.480  0.0000  0.0000  0.0000
  370FIC    C22 7465   4.843   6.233   1.452  0.0000  0.0000  0.0000
  370FIC    C23 7466   4.827   6.337   1.543  0.0000  0.0000  0.0000
  370FIC    C24 7467   4.803   6.466   1.497  0.0000  0.0000  0.0000
  370FIC    C25 7468   4.795   6.491   1.360  0.0000  0.0000  0.0000
  370FIC    C26 7469   4.812   6.387   1.269  0.0000  0.0000  0.0000
  370FIC    C27 7470   4.836   6.258   1.315  0.0000  0.0000  0.0000
  370FIC    C28 7471   4.859   6.130   1.241  0.0000  0.0000  0.0000
  370FIC    C29 7472   4.862   6.107   1.119  0.0000  0.0000  0.0000
  370FIC    C30 7473   4.841   6.236   1.036  0.0000  0.0000  0.0000
  370FIC    C31 7474   4.882   5.989   1.042  0.0000  0.0000  0.0000
  371BTD     S2 7475   4.822   2.430  -1.649  0.0000  0.0000  0.0000
  371BTD     N1 7476   4.825   2.444  -1.810  0.0000  0.0000  0.0000
  371BTD     N2 7477   4.805   2.583  -1.603  0.0000  0.0000  0.0000
  371BTD     N3 7478   4.756   2.996  -1.829  0.0000  0.0000  0.0000
  371BTD     N4 7479   4.782   2.811  -2.112  0.0000  0.0000  0.0000
  371BTD     C5 7480   4.800   2.638  -1.959  0.0000  0.0000  0.0000
  371BTD     C6 7481   4.806   2.579  -1.834  0.0000  0.0000  0.0000
  371BTD     C7 7482   4.796   2.657  -1.719  0.0000  0.0000  0.0000
  371BTD     C8 7483   4.780   2.795  -1.731  0.0000  0.0000  0.0000
  371BTD    C15 7484   4.774   2.854  -1.856  0.0000  0.0000  0.0000
  371BTD    C16 7485   4.784   2.775  -1.971  0.0000  0.0000  0.0000
  371BTD    C43 7486   4.755   2.934  -2.193  0.0000  0.0000  0.0000
  371BTD    C44 7487   4.620   2.951  -2.262  0.0000  0.0000  0.0000
  371BTD    C45 7488   4.599   3.087  -2.331  0.0000  0.0000  0.0000
  371BTD    C46 7489   4.702   3.088  -2.448  0.0000  0.0000  0.0000
  371BTD    C47 7490   4.512   2.920  -2.160  0.0000  0.0000  0.0000
  371BTD    C48 7491   4.378   2.918  -2.239  0.0000  0.0000  0.0000
  371BTD    C49 7492   4.270   2.889  -2.136  0.0000  0.0000  0.0000
  371BTD    C50 7493   4.134   2.912  -2.205  0.0000  0.0000  0.0000
  371BTD    C75 7494   4.738   3.109  -1.914  0.0000  0.0000  0.0000
  371BTD    C76 7495   4.854   3.202  -1.948  0.0000  0.0000  0.0000
  371BTD    C77 7496   4.990   3.148  -1.984  0.0000  0.0000  0.0000
  371BTD    C78 7497   5.110   3.237  -1.943  0.0000  0.0000  0.0000
  371BTD    C79 7498   4.816   3.323  -2.037  0.0000  0.0000  0.0000
  371BTD    C80 7499   4.721   3.433  -1.988  0.0000  0.0000  0.0000
  371BTD    C81 7500   4.661   3.558  -2.060  0.0000  0.0000  0.0000
  371BTD    C82 7501   4.679   3.666  -1.974  0.0000  0.0000  0.0000
  372TTP     S1 7502   4.833   2.431  -2.164  0.0000  0.0000  0.0000
  372TTP     S5 7503   4.818   2.721  -2.470  0.0000  0.0000  0.0000
  372TTP     C1 7504   4.843   2.557  -2.535  0.0000  0.0000  0.0000
  372TTP     C2 7505   4.847   2.452  -2.438  0.0000  0.0000  0.0000
  372TTP     C3 7506   4.833   2.515  -2.324  0.0000  0.0000  0.0000
  372TTP     C4 7507   4.811   2.586  -2.094  0.0000  0.0000  0.0000
  372TTP    C17 7508   4.798   2.688  -2.179  0.0000  0.0000  0.0000
  372TTP    C18 7509   4.813   2.643  -2.312  0.0000  0.0000  0.0000
  372TTP    C32 7510   4.849   2.305  -2.481  0.0000  0.0000  0.0000
  372TTP    C33 7511   4.995   2.258  -2.473  0.0000  0.0000  0.0000
  372TTP    C34 7512   4.999   2.106  -2.486  0.0000  0.0000  0.0000
  372TTP    C35 7513   5.137   2.052  -2.518  0.0000  0.0000  0.0000
  372TTP    C36 7514   5.198   1.969  -2.408  0.0000  0.0000  0.0000
  372TTP    C37 7515   5.338   1.913  -2.438  0.0000  0.0000  0.0000
  372TTP    C38 7516   5.422   1.998  -2.531  0.0000  0.0000  0.0000
  372TTP    C39 7517   5.344   2.108  -2.601  0.0000  0.0000  0.0000
  372TTP    C40 7518   5.427   2.229  -2.635  0.0000  0.0000  0.0000
  372TTP    C41 7519   5.378   2.358  -2.574  0.0000  0.0000  0.0000
  372TTP    C42 7520   5.255   2.346  -2.486  0.0000  0.0000  0.0000
  373TTP     S1 7521   4.768   2.903  -1.458  0.0000  0.0000  0.0000
  373TTP     S5 7522   4.714   3.291  -1.613  0.0000  0.0000  0.0000
  373TTP     C1 7523   4.705   3.303  -1.440  0.0000  0.0000  0.0000
  373TTP     C2 7524   4.724   3.177  -1.375  0.0000  0.0000  0.0000
  373TTP     C3 7525   4.743   3.079  -1.473  0.0000  0.0000  0.0000
  373TTP     C4 7526   4.772   2.892  -1.626  0.0000  0.0000  0.0000
  373TTP    C17 7527   4.759   3.016  -1.693  0.0000  0.0000  0.0000
  373TTP    C18 7528   4.741   3.122  -1.603  0.0000  0.0000  0.0000
  373TTP    C32 7529   4.704   3.149  -1.224  0.0000  0.0000  0.0000
  373TTP    C33 7530   4.826   3.125  -1.137  0.0000  0.0000  0.0000
  373TTP    C34 7531   4.813   3.090  -0.986  0.0000  0.0000  0.0000
  373TTP    C35 7532   4.829   2.943  -0.953  0.0000  0.0000  0.0000
  373TTP    C36 7533   4.835   2.893  -0.808  0.0000  0.0000  0.0000
  373TTP    C37 7534   4.850   2.743  -0.793  0.0000  0.0000  0.0000
  373TTP    C38 7535   4.975   2.699  -0.720  0.0000  0.0000  0.0000
  373TTP    C39 7536   5.070   2.612  -0.798  0.0000  0.0000  0.0000
  373TTP    C40 7537   5.190   2.573  -0.716  0.0000  0.0000  0.0000
  373TTP    C41 7538   5.290   2.486  -0.787  0.0000  0.0000  0.0000
  373TTP    C42 7539   5.412   2.446  -0.706  0.0000  0.0000  0.0000
  374FIC     F1 7540   4.908   3.071  -3.178  0.0000  0.0000  0.0000
  374FIC     F2 7541   4.937   2.862  -3.339  0.0000  0.0000  0.0000
  374FIC     O1 7542   4.845   2.840  -2.701  0.0000  0.0000  0.0000
  374FIC     N5 7543   4.967   2.393  -3.218  0.0000  0.0000  0.0000
  374FIC     N6 7544   4.887   2.229  -2.830  0.0000  0.0000  0.0000
  374FIC    C19 7545   4.861   2.535  -2.678  0.0000  0.0000  0.0000
  374FIC    C20 7546   4.868   2.617  -2.787  0.0000  0.0000  0.0000
  374FIC    C21 7547   4.866   2.757  -2.794  0.0000  0.0000  0.0000
  374FIC    C22 7548   4.886   2.809  -2.934  0.0000  0.0000  0.0000
  374FIC    C23 7549   4.885   2.935  -2.993  0.0000  0.0000  0.0000
  374FIC    C24 7550   4.904   2.947  -3.130  0.0000  0.0000  0.0000
  374FIC    C25 7551   4.924   2.834  -3.208  0.0000  0.0000  0.0000
  374FIC    C26 7552   4.925   2.708  -3.149  0.0000  0.0000  0.0000
  374FIC    C27 7553   4.906   2.696  -3.012  0.0000  0.0000  0.0000
  374FIC    C28 7554   4.895   2.572  -2.937  0.0000  0.0000  0.0000
  374FIC    C29 7555   4.913   2.445  -2.970  0.0000  0.0000  0.0000
  374FIC    C30 7556   4.944   2.416  -3.105  0.0000  0.0000  0.0000
  374FIC    C31 7557   4.901   2.327  -2.895  0.0000  0.0000  0.0000
  375FIC     F1 7558   4.573   4.073  -1.669  0.0000  0.0000  0.0000
  375FIC     F2 7559   4.547   4.135  -1.419  0.0000  0.0000  0.0000
  375FIC     O1 7560   4.674   3.550  -1.634  0.0000  0.0000  0.0000
  375FIC     N5 7561   4.596   3.862  -1.017  0.0000  0.0000  0.0000
  375FIC     N6 7562   4.666   3.445  -1.028  0.0000  0.0000  0.0000
  375FIC    C19 7563   4.683   3.420  -1.366  0.0000  0.0000  0.0000
  375FIC    C20 7564   4.665   3.554  -1.393  0.0000  0.0000  0.0000
  375FIC    C21 7565   4.658   3.603  -1.521  0.0000  0.0000  0.0000
  375FIC    C22 7566   4.634   3.752  -1.521  0.0000  0.0000  0.0000
  375FIC    C23 7567   4.614   3.848  -1.618  0.0000  0.0000  0.0000
  375FIC    C24 7568   4.589   3.975  -1.575  0.0000  0.0000  0.0000
  375FIC    C25 7569   4.572   4.007  -1.442  0.0000  0.0000  0.0000
  375FIC    C26 7570   4.591   3.921  -1.346  0.0000  0.0000  0.0000
  375FIC    C27 7571   4.619   3.790  -1.386  0.0000  0.0000  0.0000
  375FIC    C28 7572   4.639   3.665  -1.306  0.0000  0.0000  0.0000
  375FIC    C29 7573   4.636   3.656  -1.168  0.0000  0.0000  0.0000
  375FIC    C30 7574   4.614   3.764  -1.087  0.0000  0.0000  0.0000
  375FIC    C31 7575   4.650   3.541  -1.096  0.0000  0.0000  0.0000
  376BTD     S2 7576   5.104   2.897  -1.659  0.0000  0.0000  0.0000
  376BTD     N1 7577   5.112   2.878  -1.827  0.0000  0.0000  0.0000
  376BTD     N2 7578   5.127   2.744  -1.613  0.0000  0.0000  0.0000
  376BTD     N3 7579   5.178   2.323  -1.820  0.0000  0.0000  0.0000
  376BTD     N4 7580   5.191   2.511  -2.112  0.0000  0.0000  0.0000
  376BTD     C5 7581   5.149   2.677  -1.966  0.0000  0.0000  0.0000
  376BTD     C6 7582   5.128   2.737  -1.845  0.0000  0.0000  0.0000
  376BTD     C7 7583   5.145   2.675  -1.725  0.0000  0.0000  0.0000
  376BTD     C8 7584   5.162   2.534  -1.733  0.0000  0.0000  0.0000
  376BTD    C15 7585   5.171   2.457  -1.851  0.0000  0.0000  0.0000
  376BTD    C16 7586   5.172   2.542  -1.976  0.0000  0.0000  0.0000
  376BTD    C43 7587   5.238   2.385  -2.172  0.0000  0.0000  0.0000
  376BTD    C44 7588   5.390   2.358  -2.160  0.0000  0.0000  0.0000
  376BTD    C45 7589   5.410   2.224  -2.239  0.0000  0.0000  0.0000
  376BTD    C46 7590   5.516   2.135  -2.171  0.0000  0.0000  0.0000
  376BTD    C47 7591   5.466   2.474  -2.221  0.0000  0.0000  0.0000
  376BTD    C48 7592   5.619   2.466  -2.215  0.0000  0.0000  0.0000
  376BTD    C49 7593   5.717   2.570  -2.269  0.0000  0.0000  0.0000
  376BTD    C50 7594   5.629   2.695  -2.236  0.0000  0.0000  0.0000
  376BTD    C75 7595   5.212   2.206  -1.904  0.0000  0.0000  0.0000
  376BTD    C76 7596   5.101   2.104  -1.931  0.0000  0.0000  0.0000
  376BTD    C77 7597   4.979   2.170  -1.989  0.0000  0.0000  0.0000
  376BTD    C78 7598   4.853   2.079  -1.999  0.0000  0.0000  0.0000
  376BTD    C79 7599   5.143   2.000  -2.037  0.0000  0.0000  0.0000
  376BTD    C80 7600   5.226   1.893  -1.965  0.0000  0.0000  0.0000
  376BTD    C81 7601   5.262   1.777  -2.063  0.0000  0.0000  0.0000
  376BTD    C82 7602   5.375   1.697  -1.994  0.0000  0.0000  0.0000
  377TTP     S1 7603   5.129   2.881  -2.177  0.0000  0.0000  0.0000
  377TTP     S5 7604   5.199   2.588  -2.470  0.0000  0.0000  0.0000
  377TTP     C1 7605   5.178   2.741  -2.547  0.0000  0.0000  0.0000
  377TTP     C2 7606   5.159   2.849  -2.458  0.0000  0.0000  0.0000
  377TTP     C3 7607   5.154   2.803  -2.323  0.0000  0.0000  0.0000
  377TTP     C4 7608   5.153   2.725  -2.093  0.0000  0.0000  0.0000
  377TTP    C17 7609   5.173   2.631  -2.186  0.0000  0.0000  0.0000
  377TTP    C18 7610   5.178   2.665  -2.322  0.0000  0.0000  0.0000
  377TTP    C32 7611   5.137   3.001  -2.494  0.0000  0.0000  0.0000
  377TTP    C33 7612   5.060   3.084  -2.392  0.0000  0.0000  0.0000
  377TTP    C34 7613   5.040   3.226  -2.446  0.0000  0.0000  0.0000
  377TTP    C35 7614   4.986   3.319  -2.338  0.0000  0.0000  0.0000
  377TTP    C36 7615   4.942   3.458  -2.388  0.0000  0.0000  0.0000
  377TTP    C37 7616   4.887   3.553  -2.286  0.0000  0.0000  0.0000
  377TTP    C38 7617   4.966   3.687  -2.272  0.0000  0.0000  0.0000
  377TTP    C39 7618   4.965   3.777  -2.396  0.0000  0.0000  0.0000
  377TTP    C40 7619   5.041   3.907  -2.381  0.0000  0.0000  0.0000
  377TTP    C41 7620   4.991   3.996  -2.271  0.0000  0.0000  0.0000
  377TTP    C42 7621   4.997   3.933  -2.128  0.0000  0.0000  0.0000
  378TTP     S1 7622   5.148   2.433  -1.454  0.0000  0.0000  0.0000
  378TTP     S5 7623   5.186   2.035  -1.587  0.0000  0.0000  0.0000
  378TTP     C1 7624   5.177   2.036  -1.413  0.0000  0.0000  0.0000
  378TTP     C2 7625   5.168   2.164  -1.359  0.0000  0.0000  0.0000
  378TTP     C3 7626   5.160   2.260  -1.459  0.0000  0.0000  0.0000
  378TTP     C4 7627   5.158   2.441  -1.629  0.0000  0.0000  0.0000
  378TTP    C17 7628   5.166   2.315  -1.681  0.0000  0.0000  0.0000
  378TTP    C18 7629   5.170   2.202  -1.586  0.0000  0.0000  0.0000
  378TTP    C32 7630   5.164   2.201  -1.211  0.0000  0.0000  0.0000
  378TTP    C33 7631   5.017   2.207  -1.157  0.0000  0.0000  0.0000
  378TTP    C34 7632   5.003   2.284  -1.024  0.0000  0.0000  0.0000
  378TTP    C35 7633   4.855   2.321  -0.985  0.0000  0.0000  0.0000
  378TTP    C36 7634   4.825   2.320  -0.837  0.0000  0.0000  0.0000
  378TTP    C37 7635   4.782   2.454  -0.783  0.0000  0.0000  0.0000
  378TTP    C38 7636   4.767   2.561  -0.888  0.0000  0.0000  0.0000
  378TTP    C39 7637   4.827   2.526  -1.022  0.0000  0.0000  0.0000
  378TTP    C40 7638   4.814   2.631  -1.127  0.0000  0.0000  0.0000
  378TTP    C41 7639   4.874   2.596  -1.260  0.0000  0.0000  0.0000
  378TTP    C42 7640   4.861   2.700  -1.366  0.0000  0.0000  0.0000
  379FIC     F1 7641   5.301   2.240  -3.183  0.0000  0.0000  0.0000
  379FIC     F2 7642   5.318   2.455  -3.344  0.0000  0.0000  0.0000
  379FIC     O1 7643   5.212   2.467  -2.712  0.0000  0.0000  0.0000
  379FIC     N5 7644   5.264   2.932  -3.232  0.0000  0.0000  0.0000
  379FIC     N6 7645   5.209   3.075  -2.838  0.0000  0.0000  0.0000
  379FIC    C19 7646   5.190   2.764  -2.687  0.0000  0.0000  0.0000
  379FIC    C20 7647   5.216   2.697  -2.801  0.0000  0.0000  0.0000
  379FIC    C21 7648   5.221   2.554  -2.797  0.0000  0.0000  0.0000
  379FIC    C22 7649   5.244   2.500  -2.938  0.0000  0.0000  0.0000
  379FIC    C23 7650   5.262   2.372  -2.990  0.0000  0.0000  0.0000
  379FIC    C24 7651   5.288   2.355  -3.125  0.0000  0.0000  0.0000
  379FIC    C25 7652   5.296   2.466  -3.209  0.0000  0.0000  0.0000
  379FIC    C26 7653   5.278   2.593  -3.157  0.0000  0.0000  0.0000
  379FIC    C27 7654   5.252   2.610  -3.021  0.0000  0.0000  0.0000
  379FIC    C28 7655   5.236   2.737  -2.943  0.0000  0.0000  0.0000
  379FIC    C29 7656   5.236   2.861  -2.974  0.0000  0.0000  0.0000
  379FIC    C30 7657   5.252   2.889  -3.133  0.0000  0.0000  0.0000
  379FIC    C31 7658   5.223   2.979  -2.897  0.0000  0.0000  0.0000
  380FIC     F1 7659   5.295   1.247  -1.590  0.0000  0.0000  0.0000
  380FIC     F2 7660   5.311   1.198  -1.320  0.0000  0.0000  0.0000
  380FIC     O1 7661   5.196   1.767  -1.592  0.0000  0.0000  0.0000
  380FIC     N5 7662   5.250   1.512  -0.941  0.0000  0.0000  0.0000
  380FIC     N6 7663   5.186   1.920  -0.983  0.0000  0.0000  0.0000
  380FIC    C19 7664   5.193   1.919  -1.329  0.0000  0.0000  0.0000
  380FIC    C20 7665   5.206   1.780  -1.348  0.0000  0.0000  0.0000
  380FIC    C21 7666   5.209   1.728  -1.480  0.0000  0.0000  0.0000
  380FIC    C22 7667   5.239   1.577  -1.452  0.0000  0.0000  0.0000
  380FIC    C23 7668   5.255   1.473  -1.543  0.0000  0.0000  0.0000
  380FIC    C24 7669   5.279   1.344  -1.497  0.0000  0.0000  0.0000
  380FIC    C25 7670   5.287   1.319  -1.360  0.0000  0.0000  0.0000
  380FIC    C26 7671   5.270   1.423  -1.269  0.0000  0.0000  0.0000
  380FIC    C27 7672   5.246   1.552  -1.315  0.0000  0.0000  0.0000
  380FIC    C28 7673   5.223   1.680  -1.241  0.0000  0.0000  0.0000
  380FIC    C29 7674   5.220   1.703  -1.119  0.0000  0.0000  0.0000
  380FIC    C30 7675   5.241   1.574  -1.036  0.0000  0.0000  0.0000
  380FIC    C31 7676   5.200   1.821  -1.042  0.0000  0.0000  0.0000
  381BTD     S2 7677   5.035   7.333   1.649  0.0000  0.0000  0.0000
  381BTD     N1 7678   5.032   7.319   1.810  0.0000  0.0000  0.0000
  381BTD     N2 7679   5.052   7.180   1.603  0.0000  0.0000  0.0000
  381BTD     N3 7680   5.101   6.767   1.829  0.0000  0.0000  0.0000
  381BTD     N4 7681   5.075   6.952   2.112  0.0000  0.0000  0.0000
  381BTD     C5 7682   5.057   7.125   1.959  0.0000  0.0000  0.0000
  381BTD     C6 7683   5.051   7.184   1.834  0.0000  0.0000  0.0000
  381BTD     C7 7684   5.061   7.106   1.719  0.0000  0.0000  0.0000
  381BTD     C8 7685   5.077   6.968   1.731  0.0000  0.0000  0.0000
  381BTD    C15 7686   5.083   6.909   1.856  0.0000  0.0000  0.0000
  381BTD    C16 7687   5.073   6.988   1.971  0.0000  0.0000  0.0000
  381BTD    C43 7688   5.102   6.829   2.193  0.0000  0.0000  0.0000
  381BTD    C44 7689   5.237   6.812   2.262  0.0000  0.0000  0.0000
  381BTD    C45 7690   5.258   6.676   2.331  0.0000  0.0000  0.0000
  381BTD    C46 7691   5.155   6.675   2.448  0.0000  0.0000  0.0000
  381BTD    C47 7692   5.345   6.843   2.160  0.0000  0.0000  0.0000
  381BTD    C48 7693   5.479   6.845   2.239  0.0000  0.0000  0.0000
  381BTD    C49 7694   5.587   6.874   2.136  0.0000  0.0000  0.0000
  381BTD    C50 7695   5.723   6.851   2.205  0.0000  0.0000  0.0000
  381BTD    C75 7696   5.119   6.654   1.914  0.0000  0.0000  0.0000
  381BTD    C76 7697   5.003   6.561   1.948  0.0000  0.0000  0.0000
  381BTD    C77 7698   4.867   6.615   1.984  0.0000  0.0000  0.0000
  381BTD    C78 7699   4.747   6.526   1.943  0.0000  0.0000  0.0000
  381BTD    C79 7700   5.041   6.440   2.037  0.0000  0.0000  0.0000
  381BTD    C80 7701   5.136   6.330   1.988  0.0000  0.0000  0.0000
  381BTD    C81 7702   5.196   6.205   2.060  0.0000  0.0000  0.0000
  381BTD    C82 7703   5.178   6.097   1.974  0.0000  0.0000  0.0000
  382TTP     S1 7704   5.024   7.332   2.164  0.0000  0.0000  0.0000
  382TTP     S5 7705   5.039   7.042   2.470  0.0000  0.0000  0.0000
  382TTP     C1 7706   5.014   7.206   2.535  0.0000  0.0000  0.0000
  382TTP     C2 7707   5.010   7.311   2.438  0.0000  0.0000  0.0000
  382TTP     C3 7708   5.024   7.248   2.324  0.0000  0.0000  0.0000
  382TTP     C4 7709   5.046   7.177   2.094  0.0000  0.0000  0.0000
  382TTP    C17 7710   5.059   7.075   2.179  0.0000  0.0000  0.0000
  382TTP    C18 7711   5.044   7.120   2.312  0.0000  0.0000  0.0000
  382TTP    C32 7712   5.008   7.458   2.481  0.0000  0.0000  0.0000
  382TTP    C33 7713   4.862   7.505   2.473  0.0000  0.0000  0.0000
  382TTP    C34 7714   4.858   7.657   2.486  0.0000  0.0000  0.0000
  382TTP    C35 7715   4.720   7.711   2.518  0.0000  0.0000  0.0000
  382TTP    C36 7716   4.659   7.794   2.408  0.0000  0.0000  0.0000
  382TTP    C37 7717   4.519   7.850   2.438  0.0000  0.0000  0.0000
  382TTP    C38 7718   4.435   7.765   2.531  0.0000  0.0000  0.0000
  382TTP    C39 7719   4.513   7.655   2.601  0.0000  0.0000  0.0000
  382TTP    C40 7720   4.430   7.534   2.635  0.0000  0.0000  0.0000
  382TTP    C41 7721   4.479   7.405   2.574  0.0000  0.0000  0.0000
  382TTP    C42 7722   4.602   7.417   2.486  0.0000  0.0000  0.0000
  383TTP     S1 7723   5.089   6.860   1.458  0.0000  0.0000  0.0000
  383TTP     S5 7724   5.143   6.472   1.613  0.0000  0.0000  0.0000
  383TTP     C1 7725   5.152   6.460   1.440  0.0000  0.0000  0.0000
  383TTP     C2 7726   5.133   6.586   1.375  0.0000  0.0000  0.0000
  383TTP     C3 7727   5.114   6.684   1.473  0.0000  0.0000  0.0000
  383TTP     C4 7728   5.085   6.871   1.626  0.0000  0.0000  0.0000
  383TTP    C17 7729   5.098   6.747   1.693  0.0000  0.0000  0.0000
  383TTP    C18 7730   5.116   6.641   1.603  0.0000  0.0000  0.0000
  383TTP    C32 7731   5.153   6.614   1.224  0.0000  0.0000  0.0000
  383TTP    C33 7732   5.031   6.638   1.137  0.0000  0.0000  0.0000
  383TTP    C34 7733   5.044   6.673   0.986  0.0000  0.0000  0.0000
  383TTP    C35 7734   5.028   6.820   0.953  0.0000  0.0000  0.0000
  383TTP    C36 7735   5.022   6.870   0.808  0.0000  0.0000  0.0000
  383TTP    C37 7736   5.007   7.020   0.793  0.0000  0.0000  0.0000
  383TTP    C38 7737   4.882   7.064   0.720  0.0000  0.0000  0.0000
  383TTP    C39 7738   4.787   7.151   0.798  0.0000  0.0000  0.0000
  383TTP    C40 7739   4.667   7.190   0.716  0.0000  0.0000  0.0000
  383TTP    C41 7740   4.567   7.277   0.787  0.0000  0.0000  0.0000
  383TTP    C42 7741   4.445   7.317   0.706  0.0000  0.0000  0.0000
  384FIC     F1 7742   4.949   6.692   3.178  0.0000  0.0000  0.0000
  384FIC     F2 7743   4.920   6.901   3.339  0.0000  0.0000  0.0000
  384FIC     O1 7744   5.012   6.923   2.701  0.0000  0.0000  0.0000
  384FIC     N5 7745   4.891   7.370   3.218  0.0000  0.0000  0.0000
  384FIC     N6 7746   4.970   7.534   2.830  0.0000  0.0000  0.0000
  384FIC    C19 7747   4.996   7.228   2.678  0.0000  0.0000  0.0000
  384FIC    C20 7748   4.989   7.146   2.787  0.0000  0.0000  0.0000
  384FIC    C21 7749   4.991   7.006   2.794  0.0000  0.0000  0.0000
  384FIC    C22 7750   4.972   6.954   2.934  0.0000  0.0000  0.0000
  384FIC    C23 7751   4.972   6.828   2.993  0.0000  0.0000  0.0000
  384FIC    C24 7752   4.953   6.816   3.130  0.0000  0.0000  0.0000
  384FIC    C25 7753   4.933   6.929   3.208  0.0000  0.0000  0.0000
  384FIC    C26 7754   4.932   7.055   3.149  0.0000  0.0000  0.0000
  384FIC    C27 7755   4.951   7.067   3.012  0.0000  0.0000  0.0000
  384FIC    C28 7756   4.962   7.191   2.937  0.0000  0.0000  0.0000
  384FIC    C29 7757   4.944   7.318   2.970  0.0000  0.0000  0.0000
  384FIC    C30 7758   4.913   7.347   3.105  0.0000  0.0000  0.0000
  384FIC    C31 7759   4.956   7.436   2.895  0.0000  0.0000  0.0000
  385FIC     F1 7760   5.285   5.690   1.669  0.0000  0.0000  0.0000
  385FIC     F2 7761   5.310   5.628   1.419  0.0000  0.0000  0.0000
  385FIC     O1 7762   5.183   6.213   1.634  0.0000  0.0000  0.0000
  385FIC     N5 7763   5.261   5.901   1.017  0.0000  0.0000  0.0000
  385FIC     N6 7764   5.192   6.318   1.028  0.0000  0.0000  0.0000
  385FIC    C19 7765   5.174   6.343   1.366  0.0000  0.0000  0.0000
  385FIC    C20 7766   5.192   6.209   1.393  0.0000  0.0000  0.0000
  385FIC    C21 7767   5.199   6.160   1.521  0.0000  0.0000  0.0000
  385FIC    C22 7768   5.223   6.011   1.521  0.0000  0.0000  0.0000
  385FIC    C23 7769   5.243   5.915   1.618  0.0000  0.0000  0.0000
  385FIC    C24 7770   5.268   5.787   1.575  0.0000  0.0000  0.0000
  385FIC    C25 7771   5.285   5.756   1.442  0.0000  0.0000  0.0000
  385FIC    C26 7772   5.266   5.842   1.346  0.0000  0.0000  0.0000
  385FIC    C27 7773   5.238   5.973   1.386  0.0000  0.0000  0.0000
  385FIC    C28 7774   5.218   6.098   1.306  0.0000  0.0000  0.0000
  385FIC    C29 7775   5.221   6.107   1.168  0.0000  0.0000  0.0000
  385FIC    C30 7776   5.243   5.999   1.087  0.0000  0.0000  0.0000
  385FIC    C31 7777   5.207   6.222   1.096  0.0000  0.0000  0.0000
  386BTD     S2 7778   4.753   6.866   1.659  0.0000  0.0000  0.0000
  386BTD     N1 7779   4.745   6.885   1.827  0.0000  0.0000  0.0000
  386BTD     N2 7780   4.730   7.019   1.613  0.0000  0.0000  0.0000
  386BTD     N3 7781   4.679   7.440   1.820  0.0000  0.0000  0.0000
  386BTD     N4 7782   4.666   7.252   2.112  0.0000  0.0000  0.0000
  386BTD     C5 7783   4.708   7.086   1.966  0.0000  0.0000  0.0000
  386BTD     C6 7784   4.729   7.026   1.845  0.0000  0.0000  0.0000
  386BTD     C7 7785   4.712   7.088   1.725  0.0000  0.0000  0.0000
  386BTD     C8 7786   4.695   7.229   1.733  0.0000  0.0000  0.0000
  386BTD    C15 7787   4.686   7.306   1.851  0.0000  0.0000  0.0000
  386BTD    C16 7788   4.685   7.221   1.976  0.0000  0.0000  0.0000
  386BTD    C43 7789   4.619   7.378   2.172  0.0000  0.0000  0.0000
  386BTD    C44 7790   4.467   7.405   2.160  0.0000  0.0000  0.0000
  386BTD    C45 7791   4.447   7.539   2.239  0.0000  0.0000  0.0000
  386BTD    C46 7792   4.341   7.628   2.171  0.0000  0.0000  0.0000
  386BTD    C47 7793   4.391   7.289   2.221  0.0000  0.0000  0.0000
  386BTD    C48 7794   4.238   7.297   2.215  0.0000  0.0000  0.0000
  386BTD    C49 7795   4.140   7.193   2.269  0.0000  0.0000  0.0000
  386BTD    C50 7796   4.228   7.068   2.236  0.0000  0.0000  0.0000
  386BTD    C75 7797   4.645   7.557   1.904  0.0000  0.0000  0.0000
  386BTD    C76 7798   4.757   7.659   1.931  0.0000  0.0000  0.0000
  386BTD    C77 7799   4.878   7.593   1.989  0.0000  0.0000  0.0000
  386BTD    C78 7800   5.004   7.684   1.999  0.0000  0.0000  0.0000
  386BTD    C79 7801   4.714   7.763   2.037  0.0000  0.0000  0.0000
  386BTD    C80 7802   4.631   7.870   1.965  0.0000  0.0000  0.0000
  386BTD    C81 7803   4.595   7.986   2.063  0.0000  0.0000  0.0000
  386BTD    C82 7804   4.482   8.066   1.994  0.0000  0.0000  0.0000
  387TTP     S1 7805   4.728   6.882   2.177  0.0000  0.0000  0.0000
  387TTP     S5 7806   4.658   7.175   2.470  0.0000  0.0000  0.0000
  387TTP     C1 7807   4.679   7.022   2.547  0.0000  0.0000  0.0000
  387TTP     C2 7808   4.698   6.914   2.458  0.0000  0.0000  0.0000
  387TTP     C3 7809   4.703   6.960   2.323  0.0000  0.0000  0.0000
  387TTP     C4 7810   4.704   7.038   2.093  0.0000  0.0000  0.0000
  387TTP    C17 7811   4.684   7.132   2.186  0.0000  0.0000  0.0000
  387TTP    C18 7812   4.679   7.098   2.322  0.0000  0.0000  0.0000
  387TTP    C32 7813   4.720   6.762   2.494  0.0000  0.0000  0.0000
  387TTP    C33 7814   4.797   6.679   2.392  0.0000  0.0000  0.0000
  387TTP    C34 7815   4.817   6.537   2.446  0.0000  0.0000  0.0000
  387TTP    C35 7816   4.871   6.444   2.338  0.0000  0.0000  0.0000
  387TTP    C36 7817   4.915   6.305   2.388  0.0000  0.0000  0.0000
  387TTP    C37 7818   4.970   6.210   2.286  0.0000  0.0000  0.0000
  387TTP    C38 7819   4.891   6.076   2.272  0.0000  0.0000  0.0000
  387TTP    C39 7820   4.893   5.986   2.396  0.0000  0.0000  0.0000
  387TTP    C40 7821   4.816   5.856   2.381  0.0000  0.0000  0.0000
  387TTP    C41 7822   4.866   5.767   2.271  0.0000  0.0000  0.0000
  387TTP    C42 7823   4.860   5.830   2.128  0.0000  0.0000  0.0000
  388TTP     S1 7824   4.709   7.330   1.454  0.0000  0.0000  0.0000
  388TTP     S5 7825   4.671   7.728   1.587  0.0000  0.0000  0.0000
  388TTP     C1 7826   4.680   7.727   1.413  0.0000  0.0000  0.0000
  388TTP     C2 7827   4.689   7.599   1.359  0.0000  0.0000  0.0000
  388TTP     C3 7828   4.697   7.503   1.459  0.0000  0.0000  0.0000
  388TTP     C4 7829   4.699   7.322   1.629  0.0000  0.0000  0.0000
  388TTP    C17 7830   4.691   7.448   1.681  0.0000  0.0000  0.0000
  388TTP    C18 7831   4.687   7.561   1.586  0.0000  0.0000  0.0000
  388TTP    C32 7832   4.693   7.562   1.211  0.0000  0.0000  0.0000
  388TTP    C33 7833   4.840   7.556   1.157  0.0000  0.0000  0.0000
  388TTP    C34 7834   4.854   7.479   1.024  0.0000  0.0000  0.0000
  388TTP    C35 7835   5.002   7.442   0.985  0.0000  0.0000  0.0000
  388TTP    C36 7836   5.032   7.443   0.837  0.0000  0.0000  0.0000
  388TTP    C37 7837   5.075   7.309   0.783  0.0000  0.0000  0.0000
  388TTP    C38 7838   5.090   7.202   0.888  0.0000  0.0000  0.0000
  388TTP    C39 7839   5.030   7.237   1.022  0.0000  0.0000  0.0000
  388TTP    C40 7840   5.043   7.132   1.127  0.0000  0.0000  0.0000
  388TTP    C41 7841   4.983   7.167   1.260  0.0000  0.0000  0.0000
  388TTP    C42 7842   4.996   7.063   1.366  0.0000  0.0000  0.0000
  389FIC     F1 7843   4.556   7.523   3.183  0.0000  0.0000  0.0000
  389FIC     F2 7844   4.539   7.308   3.344  0.0000  0.0000  0.0000
  389FIC     O1 7845   4.645   7.296   2.712  0.0000  0.0000  0.0000
  389FIC     N5 7846   4.593   6.831   3.232  0.0000  0.0000  0.0000
  389FIC     N6 7847   4.648   6.688   2.838  0.0000  0.0000  0.0000
  389FIC    C19 7848   4.667   6.999   2.687  0.0000  0.0000  0.0000
  389FIC    C20 7849   4.641   7.066   2.801  0.0000  0.0000  0.0000
  389FIC    C21 7850   4.636   7.209   2.797  0.0000  0.0000  0.0000
  389FIC    C22 7851   4.613   7.263   2.938  0.0000  0.0000  0.0000
  389FIC    C23 7852   4.595   7.391   2.990  0.0000  0.0000  0.0000
  389FIC    C24 7853   4.569   7.408   3.125  0.0000  0.0000  0.0000
  389FIC    C25 7854   4.561   7.297   3.209  0.0000  0.0000  0.0000
  389FIC    C26 7855   4.579   7.170   3.157  0.0000  0.0000  0.0000
  389FIC    C27 7856   4.605   7.153   3.021  0.0000  0.0000  0.0000
  389FIC    C28 7857   4.621   7.026   2.943  0.0000  0.0000  0.0000
  389FIC    C29 7858   4.621   6.902   2.974  0.0000  0.0000  0.0000
  389FIC    C30 7859   4.605   6.874   3.133  0.0000  0.0000  0.0000
  389FIC    C31 7860   4.634   6.784   2.897  0.0000  0.0000  0.0000
  390FIC     F1 7861   4.562   8.516   1.590  0.0000  0.0000  0.0000
  390FIC     F2 7862   4.546   8.565   1.320  0.0000  0.0000  0.0000
  390FIC     O1 7863   4.661   7.996   1.592  0.0000  0.0000  0.0000
  390FIC     N5 7864   4.607   8.251   0.941  0.0000  0.0000  0.0000
  390FIC     N6 7865   4.671   7.843   0.983  0.0000  0.0000  0.0000
  390FIC    C19 7866   4.664   7.844   1.329  0.0000  0.0000  0.0000
  390FIC    C20 7867   4.651   7.983   1.348  0.0000  0.0000  0.0000
  390FIC    C21 7868   4.648   8.035   1.480  0.0000  0.0000  0.0000
  390FIC    C22 7869   4.618   8.186   1.452  0.0000  0.0000  0.0000
  390FIC    C23 7870   4.602   8.290   1.543  0.0000  0.0000  0.0000
  390FIC    C24 7871   4.578   8.419   1.497  0.0000  0.0000  0.0000
  390FIC    C25 7872   4.570   8.444   1.360  0.0000  0.0000  0.0000
  390FIC    C26 7873   4.587   8.340   1.269  0.0000  0.0000  0.0000
  390FIC    C27 7874   4.611   8.211   1.315  0.0000  0.0000  0.0000
  390FIC    C28 7875   4.634   8.083   1.241  0.0000  0.0000  0.0000
  390FIC    C29 7876   4.637   8.060   1.119  0.0000  0.0000  0.0000
  390FIC    C30 7877   4.616   8.189   1.036  0.0000  0.0000  0.0000
  390FIC    C31 7878   4.657   7.942   1.042  0.0000  0.0000  0.0000
  391BTD     S2 7879   4.597   4.383  -1.649  0.0000  0.0000  0.0000
  391BTD     N1 7880   4.600   4.397  -1.810  0.0000  0.0000  0.0000
  391BTD     N2 7881   4.580   4.536  -1.603  0.0000  0.0000  0.0000
  391BTD     N3 7882   4.531   4.949  -1.829  0.0000  0.0000  0.0000
  391BTD     N4 7883   4.557   4.764  -2.112  0.0000  0.0000  0.0000
  391BTD     C5 7884   4.575   4.591  -1.959  0.0000  0.0000  0.0000
  391BTD     C6 7885   4.581   4.532  -1.834  0.0000  0.0000  0.0000
  391BTD     C7 7886   4.571   4.610  -1.719  0.0000  0.0000  0.0000
  391BTD     C8 7887   4.555   4.748  -1.731  0.0000  0.0000  0.0000
  391BTD    C15 7888   4.549   4.807  -1.856  0.0000  0.0000  0.0000
  391BTD    C16 7889   4.559   4.728  -1.971  0.0000  0.0000  0.0000
  391BTD    C43 7890   4.530   4.887  -2.193  0.0000  0.0000  0.0000
  391BTD    C44 7891   4.395   4.904  -2.262  0.0000  0.0000  0.0000
  391BTD    C45 7892   4.374   5.040  -2.331  0.0000  0.0000  0.0000
  391BTD    C46 7893   4.477   5.041  -2.448  0.0000  0.0000  0.0000
  391BTD    C47 7894   4.287   4.873  -2.160  0.0000  0.0000  0.0000
  391BTD    C48 7895   4.153   4.871  -2.239  0.0000  0.0000  0.0000
  391BTD    C49 7896   4.045   4.842  -2.136  0.0000  0.0000  0.0000
  391BTD    C50 7897   3.909   4.865  -2.205  0.0000  0.0000  0.0000
  391BTD    C75 7898   4.513   5.062  -1.914  0.0000  0.0000  0.0000
  391BTD    C76 7899   4.629   5.155  -1.948  0.0000  0.0000  0.0000
  391BTD    C77 7900   4.765   5.101  -1.984  0.0000  0.0000  0.0000
  391BTD    C78 7901   4.885   5.190  -1.943  0.0000  0.0000  0.0000
  391BTD    C79 7902   4.591   5.276  -2.037  0.0000  0.0000  0.0000
  391BTD    C80 7903   4.496   5.386  -1.988  0.0000  0.0000  0.0000
  391BTD    C81 7904   4.436   5.511  -2.060  0.0000  0.0000  0.0000
  391BTD    C82 7905   4.454   5.619  -1.974  0.0000  0.0000  0.0000
  392TTP     S1 7906   4.608   4.384  -2.164  0.0000  0.0000  0.0000
  392TTP     S5 7907   4.593   4.674  -2.470  0.0000  0.0000  0.0000
  392TTP     C1 7908   4.618   4.510  -2.535  0.0000  0.0000  0.0000
  392TTP     C2 7909   4.622   4.405  -2.438  0.0000  0.0000  0.0000
  392TTP     C3 7910   4.608   4.468  -2.324  0.0000  0.0000  0.0000
  392TTP     C4 7911   4.586   4.539  -2.094  0.0000  0.0000  0.0000
  392TTP    C17 7912   4.573   4.641  -2.179  0.0000  0.0000  0.0000
  392TTP    C18 7913   4.588   4.596  -2.312  0.0000  0.0000  0.0000
  392TTP    C32 7914   4.624   4.258  -2.481  0.0000  0.0000  0.0000
  392TTP    C33 7915   4.770   4.211  -2.473  0.0000  0.0000  0.0000
  392TTP    C34 7916   4.774   4.059  -2.486  0.0000  0.0000  0.0000
  392TTP    C35 7917   4.912   4.005  -2.518  0.0000  0.0000  0.0000
  392TTP    C36 7918   4.973   3.922  -2.408  0.0000  0.0000  0.0000
  392TTP    C37 7919   5.113   3.866  -2.438  0.0000  0.0000  0.0000
  392TTP    C38 7920   5.197   3.951  -2.531  0.0000  0.0000  0.0000
  392TTP    C39 7921   5.119   4.061  -2.601  0.0000  0.0000  0.0000
  392TTP    C40 7922   5.202   4.182  -2.635  0.0000  0.0000  0.0000
  392TTP    C41 7923   5.153   4.311  -2.574  0.0000  0.0000  0.0000
  392TTP    C42 7924   5.030   4.299  -2.486  0.0000  0.0000  0.0000
  393TTP     S1 7925   4.543   4.856  -1.458  0.0000  0.0000  0.0000
  393TTP     S5 7926   4.489   5.244  -1.613  0.0000  0.0000  0.0000
  393TTP     C1 7927   4.480   5.256  -1.440  0.0000  0.0000  0.0000
  393TTP     C2 7928   4.499   5.130  -1.375  0.0000  0.0000  0.0000
  393TTP     C3 7929   4.518   5.032  -1.473  0.0000  0.0000  0.0000
  393TTP     C4 7930   4.547   4.845  -1.626  0.0000  0.0000  0.0000
  393TTP    C17 7931   4.534   4.969  -1.693  0.0000  0.0000  0.0000
  393TTP    C18 7932   4.516   5.075  -1.603  0.0000  0.0000  0.0000
  393TTP    C32 7933   4.479   5.102  -1.224  0.0000  0.0000  0.0000
  393TTP    C33 7934   4.601   5.078  -1.137  0.0000  0.0000  0.0000
  393TTP    C34 7935   4.588   5.043  -0.986  0.0000  0.0000  0.0000
  393TTP    C35 7936   4.604   4.896  -0.953  0.0000  0.0000  0.0000
  393TTP    C36 7937   4.610   4.846  -0.808  0.0000  0.0000  0.0000
  393TTP    C37 7938   4.625   4.696  -0.793  0.0000  0.0000  0.0000
  393TTP    C38 7939   4.750   4.652  -0.720  0.0000  0.0000  0.0000
  393TTP    C39 7940   4.845   4.565  -0.798  0.0000  0.0000  0.0000
  393TTP    C40 7941   4.965   4.526  -0.716  0.0000  0.0000  0.0000
  393TTP    C41 7942   5.065   4.439  -0.787  0.0000  0.0000  0.0000
  393TTP    C42 7943   5.187   4.399  -0.706  0.0000  0.0000  0.0000
  394FIC     F1 7944   4.683   5.024  -3.178  0.0000  0.0000  0.0000
  394FIC     F2 7945   4.712   4.815  -3.339  0.0000  0.0000  0.0000
  394FIC     O1 7946   4.620   4.793  -2.701  0.0000  0.0000  0.0000
  394FIC     N5 7947   4.742   4.346  -3.218  0.0000  0.0000  0.0000
  394FIC     N6 7948   4.662   4.182  -2.830  0.0000  0.0000  0.0000
  394FIC    C19 7949   4.636   4.488  -2.678  0.0000  0.0000  0.0000
  394FIC    C20 7950   4.643   4.570  -2.787  0.0000  0.0000  0.0000
  394FIC    C21 7951   4.641   4.710  -2.794  0.0000  0.0000  0.0000
  394FIC    C22 7952   4.661   4.762  -2.934  0.0000  0.0000  0.0000
  394FIC    C23 7953   4.660   4.888  -2.993  0.0000  0.0000  0.0000
  394FIC    C24 7954   4.679   4.900  -3.130  0.0000  0.0000  0.0000
  394FIC    C25 7955   4.699   4.787  -3.208  0.0000  0.0000  0.0000
  394FIC    C26 7956   4.700   4.661  -3.149  0.0000  0.0000  0.0000
  394FIC    C27 7957   4.681   4.649  -3.012  0.0000  0.0000  0.0000
  394FIC    C28 7958   4.670   4.525  -2.937  0.0000  0.0000  0.0000
  394FIC    C29 7959   4.688   4.398  -2.970  0.0000  0.0000  0.0000
  394FIC    C30 7960   4.719   4.369  -3.105  0.0000  0.0000  0.0000
  394FIC    C31 7961   4.676   4.280  -2.895  0.0000  0.0000  0.0000
  395FIC     F1 7962   4.348   6.026  -1.669  0.0000  0.0000  0.0000
  395FIC     F2 7963   4.322   6.088  -1.419  0.0000  0.0000  0.0000
  395FIC     O1 7964   4.449   5.503  -1.634  0.0000  0.0000  0.0000
  395FIC     N5 7965   4.371   5.815  -1.017  0.0000  0.0000  0.0000
  395FIC     N6 7966   4.441   5.398  -1.028  0.0000  0.0000  0.0000
  395FIC    C19 7967   4.458   5.373  -1.366  0.0000  0.0000  0.0000
  395FIC    C20 7968   4.440   5.507  -1.393  0.0000  0.0000  0.0000
  395FIC    C21 7969   4.433   5.556  -1.521  0.0000  0.0000  0.0000
  395FIC    C22 7970   4.409   5.705  -1.521  0.0000  0.0000  0.0000
  395FIC    C23 7971   4.389   5.801  -1.618  0.0000  0.0000  0.0000
  395FIC    C24 7972   4.364   5.928  -1.575  0.0000  0.0000  0.0000
  395FIC    C25 7973   4.347   5.960  -1.442  0.0000  0.0000  0.0000
  395FIC    C26 7974   4.366   5.874  -1.346  0.0000  0.0000  0.0000
  395FIC    C27 7975   4.394   5.743  -1.386  0.0000  0.0000  0.0000
  395FIC    C28 7976   4.414   5.618  -1.306  0.0000  0.0000  0.0000
  395FIC    C29 7977   4.411   5.609  -1.168  0.0000  0.0000  0.0000
  395FIC    C30 7978   4.389   5.717  -1.087  0.0000  0.0000  0.0000
  395FIC    C31 7979   4.425   5.494  -1.096  0.0000  0.0000  0.0000
  396BTD     S2 7980   4.879   4.850  -1.659  0.0000  0.0000  0.0000
  396BTD     N1 7981   4.887   4.831  -1.827  0.0000  0.0000  0.0000
  396BTD     N2 7982   4.902   4.697  -1.613  0.0000  0.0000  0.0000
  396BTD     N3 7983   4.953   4.276  -1.820  0.0000  0.0000  0.0000
  396BTD     N4 7984   4.966   4.464  -2.112  0.0000  0.0000  0.0000
  396BTD     C5 7985   4.924   4.630  -1.966  0.0000  0.0000  0.0000
  396BTD     C6 7986   4.903   4.690  -1.845  0.0000  0.0000  0.0000
  396BTD     C7 7987   4.920   4.628  -1.725  0.0000  0.0000  0.0000
  396BTD     C8 7988   4.937   4.487  -1.733  0.0000  0.0000  0.0000
  396BTD    C15 7989   4.946   4.410  -1.851  0.0000  0.0000  0.0000
  396BTD    C16 7990   4.947   4.495  -1.976  0.0000  0.0000  0.0000
  396BTD    C43 7991   5.013   4.338  -2.172  0.0000  0.0000  0.0000
  396BTD    C44 7992   5.165   4.311  -2.160  0.0000  0.0000  0.0000
  396BTD    C45 7993   5.185   4.177  -2.239  0.0000  0.0000  0.0000
  396BTD    C46 7994   5.291   4.088  -2.171  0.0000  0.0000  0.0000
  396BTD    C47 7995   5.241   4.427  -2.221  0.0000  0.0000  0.0000
  396BTD    C48 7996   5.394   4.419  -2.215  0.0000  0.0000  0.0000
  396BTD    C49 7997   5.492   4.523  -2.269  0.0000  0.0000  0.0000
  396BTD    C50 7998   5.404   4.648  -2.236  0.0000  0.0000  0.0000
  396BTD    C75 7999   4.987   4.159  -1.904  0.0000  0.0000  0.0000
  396BTD    C76 8000   4.876   4.057  -1.931  0.0000  0.0000  0.0000
  396BTD    C77 8001   4.754   4.123  -1.989  0.0000  0.0000  0.0000
  396BTD    C78 8002   4.628   4.032  -1.999  0.0000  0.0000  0.0000
  396BTD    C79 8003   4.918   3.953  -2.037  0.0000  0.0000  0.0000
  396BTD    C80 8004   5.001   3.846  -1.965  0.0000  0.0000  0.0000
  396BTD    C81 8005   5.037   3.730  -2.063  0.0000  0.0000  0.0000
  396BTD    C82 8006   5.150   3.650  -1.994  0.0000  0.0000  0.0000
  397TTP     S1 8007   4.904   4.834  -2.177  0.0000  0.0000  0.0000
  397TTP     S5 8008   4.974   4.541  -2.470  0.0000  0.0000  0.0000
  397TTP     C1 8009   4.953   4.694  -2.547  0.0000  0.0000  0.0000
  397TTP     C2 8010   4.934   4.802  -2.458  0.0000  0.0000  0.0000
  397TTP     C3 8011   4.929   4.756  -2.323  0.0000  0.0000  0.0000
  397TTP     C4 8012   4.928   4.678  -2.093  0.0000  0.0000  0.0000
  397TTP    C17 8013   4.948   4.584  -2.186  0.0000  0.0000  0.0000
  397TTP    C18 8014   4.953   4.618  -2.322  0.0000  0.0000  0.0000
  397TTP    C32 8015   4.912   4.954  -2.494  0.0000  0.0000  0.0000
  397TTP    C33 8016   4.835   5.037  -2.392  0.0000  0.0000  0.0000
  397TTP    C34 8017   4.815   5.179  -2.446  0.0000  0.0000  0.0000
  397TTP    C35 8018   4.761   5.272  -2.338  0.0000  0.0000  0.0000
  397TTP    C36 8019   4.717   5.411  -2.388  0.0000  0.0000  0.0000
  397TTP    C37 8020   4.662   5.506  -2.286  0.0000  0.0000  0.0000
  397TTP    C38 8021   4.741   5.640  -2.272  0.0000  0.0000  0.0000
  397TTP    C39 8022   4.740   5.730  -2.396  0.0000  0.0000  0.0000
  397TTP    C40 8023   4.816   5.860  -2.381  0.0000  0.0000  0.0000
  397TTP    C41 8024   4.766   5.949  -2.271  0.0000  0.0000  0.0000
  397TTP    C42 8025   4.772   5.886  -2.128  0.0000  0.0000  0.0000
  398TTP     S1 8026   4.923   4.386  -1.454  0.0000  0.0000  0.0000
  398TTP     S5 8027   4.961   3.988  -1.587  0.0000  0.0000  0.0000
  398TTP     C1 8028   4.952   3.989  -1.413  0.0000  0.0000  0.0000
  398TTP     C2 8029   4.943   4.117  -1.359  0.0000  0.0000  0.0000
  398TTP     C3 8030   4.935   4.213  -1.459  0.0000  0.0000  0.0000
  398TTP     C4 8031   4.933   4.394  -1.629  0.0000  0.0000  0.0000
  398TTP    C17 8032   4.941   4.268  -1.681  0.0000  0.0000  0.0000
  398TTP    C18 8033   4.945   4.155  -1.586  0.0000  0.0000  0.0000
  398TTP    C32 8034   4.939   4.154  -1.211  0.0000  0.0000  0.0000
  398TTP    C33 8035   4.792   4.160  -1.157  0.0000  0.0000  0.0000
  398TTP    C34 8036   4.778   4.237  -1.024  0.0000  0.0000  0.0000
  398TTP    C35 8037   4.630   4.274  -0.985  0.0000  0.0000  0.0000
  398TTP    C36 8038   4.600   4.273  -0.837  0.0000  0.0000  0.0000
  398TTP    C37 8039   4.557   4.407  -0.783  0.0000  0.0000  0.0000
  398TTP    C38 8040   4.542   4.514  -0.888  0.0000  0.0000  0.0000
  398TTP    C39 8041   4.602   4.479  -1.022  0.0000  0.0000  0.0000
  398TTP    C40 8042   4.589   4.584  -1.127  0.0000  0.0000  0.0000
  398TTP    C41 8043   4.649   4.549  -1.260  0.0000  0.0000  0.0000
  398TTP    C42 8044   4.636   4.653  -1.366  0.0000  0.0000  0.0000
  399FIC     F1 8045   5.076   4.193  -3.183  0.0000  0.0000  0.0000
  399FIC     F2 8046   5.093   4.408  -3.344  0.0000  0.0000  0.0000
  399FIC     O1 8047   4.987   4.420  -2.712  0.0000  0.0000  0.0000
  399FIC     N5 8048   5.039   4.885  -3.232  0.0000  0.0000  0.0000
  399FIC     N6 8049   4.984   5.028  -2.838  0.0000  0.0000  0.0000
  399FIC    C19 8050   4.965   4.717  -2.687  0.0000  0.0000  0.0000
  399FIC    C20 8051   4.991   4.650  -2.801  0.0000  0.0000  0.0000
  399FIC    C21 8052   4.996   4.507  -2.797  0.0000  0.0000  0.0000
  399FIC    C22 8053   5.019   4.453  -2.938  0.0000  0.0000  0.0000
  399FIC    C23 8054   5.037   4.325  -2.990  0.0000  0.0000  0.0000
  399FIC    C24 8055   5.063   4.308  -3.125  0.0000  0.0000  0.0000
  399FIC    C25 8056   5.071   4.419  -3.209  0.0000  0.0000  0.0000
  399FIC    C26 8057   5.053   4.546  -3.157  0.0000  0.0000  0.0000
  399FIC    C27 8058   5.027   4.563  -3.021  0.0000  0.0000  0.0000
  399FIC    C28 8059   5.011   4.690  -2.943  0.0000  0.0000  0.0000
  399FIC    C29 8060   5.011   4.814  -2.974  0.0000  0.0000  0.0000
  399FIC    C30 8061   5.027   4.842  -3.133  0.0000  0.0000  0.0000
  399FIC    C31 8062   4.998   4.932  -2.897  0.0000  0.0000  0.0000
  400FIC     F1 8063   5.070   3.200  -1.590  0.0000  0.0000  0.0000
  400FIC     F2 8064   5.086   3.151  -1.320  0.0000  0.0000  0.0000
  400FIC     O1 8065   4.971   3.720  -1.592  0.0000  0.0000  0.0000
  400FIC     N5 8066   5.025   3.465  -0.941  0.0000  0.0000  0.0000
  400FIC     N6 8067   4.961   3.873  -0.983  0.0000  0.0000  0.0000
  400FIC    C19 8068   4.968   3.872  -1.329  0.0000  0.0000  0.0000
  400FIC    C20 8069   4.981   3.733  -1.348  0.0000  0.0000  0.0000
  400FIC    C21 8070   4.984   3.681  -1.480  0.0000  0.0000  0.0000
  400FIC    C22 8071   5.014   3.530  -1.452  0.0000  0.0000  0.0000
  400FIC    C23 8072   5.030   3.426  -1.543  0.0000  0.0000  0.0000
  400FIC    C24 8073   5.054   3.297  -1.497  0.0000  0.0000  0.0000
  400FIC    C25 8074   5.062   3.272  -1.360  0.0000  0.0000  0.0000
  400FIC    C26 8075   5.045   3.376  -1.269  0.0000  0.0000  0.0000
  400FIC    C27 8076   5.021   3.505  -1.315  0.0000  0.0000  0.0000
  400FIC    C28 8077   4.998   3.633  -1.241  0.0000  0.0000  0.0000
  400FIC    C29 8078   4.995   3.656  -1.119  0.0000  0.0000  0.0000
  400FIC    C30 8079   5.016   3.527  -1.036  0.0000  0.0000  0.0000
  400FIC    C31 8080   4.975   3.774  -1.042  0.0000  0.0000  0.0000
   6.86360   7.81080   2.89284   0.00000   0.00000  -0.89960   0.00000  -0.13874  -0.66063
