nature communications unit cell with symmetry
404
    1  BTD   S2    1   0.219   1.475   1.649
    1  BTD   N1    2   0.216   1.461   1.810
    1  BTD   N2    3   0.236   1.322   1.603
    1  BTD   N3    4   0.285   0.909   1.829
    1  BTD   N4    5   0.259   1.094   2.112
    1  BTD   C5    6   0.241   1.267   1.959
    1  BTD   C6    7   0.235   1.326   1.834
    1  BTD   C7    8   0.245   1.248   1.719
    1  BTD   C8    9   0.261   1.110   1.731
    1  BTD  C15   10   0.267   1.051   1.856
    1  BTD  C16   11   0.257   1.130   1.971
    1  BTD  C43   12   0.286   0.971   2.193
    1  BTD  C44   13   0.421   0.954   2.262
    1  BTD  C45   14   0.442   0.818   2.331
    1  BTD  C46   15   0.339   0.817   2.448
    1  BTD  C47   16   0.529   0.985   2.160
    1  BTD  C48   17   0.663   0.987   2.239
    1  BTD  C49   18   0.771   1.016   2.136
    1  BTD  C50   19   0.907   0.993   2.205
    1  BTD  C75   20   0.303   0.796   1.914
    1  BTD  C76   21   0.187   0.703   1.948
    1  BTD  C77   22   0.051   0.757   1.984
    1  BTD  C78   23  -0.069   0.668   1.943
    1  BTD  C79   24   0.225   0.582   2.037
    1  BTD  C80   25   0.320   0.472   1.988
    1  BTD  C81   26   0.380   0.347   2.060
    1  BTD  C82   27   0.362   0.239   1.974
    2  TTP   S1   28   0.208   1.474   2.164
    2  TTP   S5   29   0.223   1.184   2.470
    2  TTP   C1   30   0.198   1.348   2.535
    2  TTP   C2   31   0.194   1.453   2.438
    2  TTP   C3   32   0.208   1.390   2.324
    2  TTP   C4   33   0.230   1.319   2.094
    2  TTP  C17   34   0.243   1.217   2.179
    2  TTP  C18   35   0.228   1.262   2.312
    2  TTP  C32   36   0.192   1.600   2.481
    2  TTP  C33   37   0.046   1.647   2.473
    2  TTP  C34   38   0.042   1.799   2.486
    2  TTP  C35   39  -0.096   1.853   2.518
    2  TTP  C36   40  -0.157   1.936   2.408
    2  TTP  C37   41  -0.297   1.992   2.438
    2  TTP  C38   42  -0.381   1.907   2.531
    2  TTP  C39   43  -0.303   1.797   2.601
    2  TTP  C40   44  -0.386   1.676   2.635
    2  TTP  C41   45  -0.337   1.547   2.574
    2  TTP  C42   46  -0.214   1.559   2.486
    3  TTP   S1   47   0.273   1.002   1.458
    3  TTP   S5   48   0.327   0.614   1.613
    3  TTP   C1   49   0.336   0.602   1.440
    3  TTP   C2   50   0.317   0.728   1.375
    3  TTP   C3   51   0.298   0.826   1.473
    3  TTP   C4   52   0.269   1.013   1.626
    3  TTP  C17   53   0.282   0.889   1.693
    3  TTP  C18   54   0.300   0.783   1.603
    3  TTP  C32   55   0.337   0.756   1.224
    3  TTP  C33   56   0.215   0.780   1.137
    3  TTP  C34   57   0.228   0.815   0.986
    3  TTP  C35   58   0.212   0.962   0.953
    3  TTP  C36   59   0.206   1.012   0.808
    3  TTP  C37   60   0.191   1.162   0.793
    3  TTP  C38   61   0.066   1.206   0.720
    3  TTP  C39   62  -0.029   1.293   0.798
    3  TTP  C40   63  -0.149   1.332   0.716
    3  TTP  C41   64  -0.249   1.419   0.787
    3  TTP  C42   65  -0.371   1.459   0.706
    4  BIM   F1   66   0.133   0.834   3.178
    4  BIM   F2   67   0.104   1.043   3.339
    4  BIM   O1   68   0.196   1.065   2.701
    4  BIM   N5   69   0.075   1.512   3.218
    4  BIM   N6   70   0.154   1.676   2.830
    4  BIM  C19   71   0.180   1.370   2.678
    4  BIM  C20   72   0.173   1.288   2.787
    4  BIM  C21   73   0.175   1.148   2.794
    4  BIM  C22   74   0.156   1.096   2.934
    4  BIM  C23   75   0.156   0.970   2.993
    4  BIM  C24   76   0.137   0.958   3.130
    4  BIM  C25   77   0.117   1.071   3.208
    4  BIM  C26   78   0.116   1.197   3.149
    4  BIM  C27   79   0.135   1.209   3.012
    4  BIM  C28   80   0.146   1.333   2.937
    4  BIM  C29   81   0.128   1.460   2.970
    4  BIM  C30   82   0.097   1.489   3.105
    4  BIM  C31   83   0.140   1.578   2.895
    5  BIM   F1   84   0.469  -0.168   1.669
    5  BIM   F2   85   0.494  -0.230   1.419
    5  BIM   O1   86   0.367   0.355   1.634
    5  BIM   N5   87   0.445   0.043   1.017
    5  BIM   N6   88   0.376   0.460   1.028
    5  BIM  C19   89   0.358   0.485   1.366
    5  BIM  C20   90   0.376   0.351   1.393
    5  BIM  C21   91   0.383   0.302   1.521
    5  BIM  C22   92   0.407   0.153   1.521
    5  BIM  C23   93   0.427   0.057   1.618
    5  BIM  C24   94   0.452  -0.071   1.575
    5  BIM  C25   95   0.469  -0.102   1.442
    5  BIM  C26   96   0.450  -0.016   1.346
    5  BIM  C27   97   0.422   0.115   1.386
    5  BIM  C28   98   0.402   0.240   1.306
    5  BIM  C29   99   0.405   0.249   1.168
    5  BIM  C30  100   0.427   0.141   1.087
    5  BIM  C31  101   0.391   0.364   1.096
    6  BTD   S2  102  -0.063   1.008   1.659
    6  BTD   N1  103  -0.071   1.027   1.827
    6  BTD   N2  104  -0.086   1.161   1.613
    6  BTD   N3  105  -0.137   1.582   1.820
    6  BTD   N4  106  -0.150   1.394   2.112
    6  BTD   C5  107  -0.108   1.228   1.966
    6  BTD   C6  108  -0.087   1.168   1.845
    6  BTD   C7  109  -0.104   1.230   1.725
    6  BTD   C8  110  -0.121   1.371   1.733
    6  BTD  C15  111  -0.130   1.448   1.851
    6  BTD  C16  112  -0.131   1.363   1.976
    6  BTD  C43  113  -0.197   1.520   2.172
    6  BTD  C44  114  -0.349   1.547   2.160
    6  BTD  C45  115  -0.369   1.681   2.239
    6  BTD  C46  116  -0.475   1.770   2.171
    6  BTD  C47  117  -0.425   1.431   2.221
    6  BTD  C48  118  -0.578   1.439   2.215
    6  BTD  C49  119  -0.676   1.335   2.269
    6  BTD  C50  120  -0.588   1.210   2.236
    6  BTD  C75  121  -0.171   1.699   1.904
    6  BTD  C76  122  -0.059   1.801   1.931
    6  BTD  C77  123   0.062   1.735   1.989
    6  BTD  C78  124   0.188   1.826   1.999
    6  BTD  C79  125  -0.102   1.905   2.037
    6  BTD  C80  126  -0.185   2.012   1.965
    6  BTD  C81  127  -0.221   2.128   2.063
    6  BTD  C82  128  -0.334   2.208   1.994
    7  TTP   S1  129  -0.088   1.024   2.177
    7  TTP   S5  130  -0.158   1.317   2.470
    7  TTP   C1  131  -0.137   1.164   2.547
    7  TTP   C2  132  -0.118   1.056   2.458
    7  TTP   C3  133  -0.113   1.102   2.323
    7  TTP   C4  134  -0.112   1.180   2.093
    7  TTP  C17  135  -0.132   1.274   2.186
    7  TTP  C18  136  -0.137   1.240   2.322
    7  TTP  C32  137  -0.096   0.904   2.494
    7  TTP  C33  138  -0.019   0.821   2.392
    7  TTP  C34  139   0.001   0.679   2.446
    7  TTP  C35  140   0.055   0.586   2.338
    7  TTP  C36  141   0.099   0.447   2.388
    7  TTP  C37  142   0.154   0.352   2.286
    7  TTP  C38  143   0.075   0.218   2.272
    7  TTP  C39  144   0.077   0.128   2.396
    7  TTP  C40  145  -0.000  -0.002   2.381
    7  TTP  C41  146   0.050  -0.091   2.271
    7  TTP  C42  147   0.044  -0.028   2.128
    8  TTP   S1  148  -0.107   1.472   1.454
    8  TTP   S5  149  -0.145   1.870   1.587
    8  TTP   C1  150  -0.136   1.869   1.413
    8  TTP   C2  151  -0.127   1.741   1.359
    8  TTP   C3  152  -0.119   1.645   1.459
    8  TTP   C4  153  -0.117   1.464   1.629
    8  TTP  C17  154  -0.125   1.590   1.681
    8  TTP  C18  155  -0.129   1.703   1.586
    8  TTP  C32  156  -0.123   1.704   1.211
    8  TTP  C33  157   0.024   1.698   1.157
    8  TTP  C34  158   0.038   1.621   1.024
    8  TTP  C35  159   0.186   1.584   0.985
    8  TTP  C36  160   0.216   1.585   0.837
    8  TTP  C37  161   0.259   1.451   0.783
    8  TTP  C38  162   0.274   1.344   0.888
    8  TTP  C39  163   0.214   1.379   1.022
    8  TTP  C40  164   0.227   1.274   1.127
    8  TTP  C41  165   0.167   1.309   1.260
    8  TTP  C42  166   0.180   1.205   1.366
    9  BIM   F1  167  -0.260   1.665   3.183
    9  BIM   F2  168  -0.277   1.450   3.344
    9  BIM   O1  169  -0.171   1.438   2.712
    9  BIM   N5  170  -0.223   0.973   3.232
    9  BIM   N6  171  -0.168   0.830   2.838
    9  BIM  C19  172  -0.149   1.141   2.687
    9  BIM  C20  173  -0.175   1.208   2.801
    9  BIM  C21  174  -0.180   1.351   2.797
    9  BIM  C22  175  -0.203   1.405   2.938
    9  BIM  C23  176  -0.221   1.533   2.990
    9  BIM  C24  177  -0.247   1.550   3.125
    9  BIM  C25  178  -0.255   1.439   3.209
    9  BIM  C26  179  -0.237   1.312   3.157
    9  BIM  C27  180  -0.211   1.295   3.021
    9  BIM  C28  181  -0.195   1.168   2.943
    9  BIM  C29  182  -0.195   1.044   2.974
    9  BIM  C30  183  -0.211   1.016   3.133
    9  BIM  C31  184  -0.182   0.926   2.897
   10  BIM   F1  185  -0.254   2.658   1.590
   10  BIM   F2  186  -0.270   2.707   1.320
   10  BIM   O1  187  -0.155   2.138   1.592
   10  BIM   N5  188  -0.209   2.393   0.941
   10  BIM   N6  189  -0.145   1.985   0.983
   10  BIM  C19  190  -0.152   1.986   1.329
   10  BIM  C20  191  -0.165   2.125   1.348
   10  BIM  C21  192  -0.168   2.177   1.480
   10  BIM  C22  193  -0.198   2.328   1.452
   10  BIM  C23  194  -0.214   2.432   1.543
   10  BIM  C24  195  -0.238   2.561   1.497
   10  BIM  C25  196  -0.246   2.586   1.360
   10  BIM  C26  197  -0.229   2.482   1.269
   10  BIM  C27  198  -0.205   2.353   1.315
   10  BIM  C28  199  -0.182   2.225   1.241
   10  BIM  C29  200  -0.179   2.202   1.119
   10  BIM  C30  201  -0.200   2.331   1.036
   10  BIM  C31  202  -0.159   2.084   1.042
   11  BTD   S2  203  -0.219  -1.475  -1.649
   11  BTD   N1  204  -0.216  -1.461  -1.810
   11  BTD   N2  205  -0.236  -1.322  -1.603
   11  BTD   N3  206  -0.285  -0.909  -1.829
   11  BTD   N4  207  -0.259  -1.094  -2.112
   11  BTD   C5  208  -0.241  -1.267  -1.959
   11  BTD   C6  209  -0.235  -1.326  -1.834
   11  BTD   C7  210  -0.245  -1.248  -1.719
   11  BTD   C8  211  -0.261  -1.110  -1.731
   11  BTD  C15  212  -0.267  -1.051  -1.856
   11  BTD  C16  213  -0.257  -1.130  -1.971
   11  BTD  C43  214  -0.286  -0.971  -2.193
   11  BTD  C44  215  -0.421  -0.954  -2.262
   11  BTD  C45  216  -0.442  -0.818  -2.331
   11  BTD  C46  217  -0.339  -0.817  -2.448
   11  BTD  C47  218  -0.529  -0.985  -2.160
   11  BTD  C48  219  -0.663  -0.987  -2.239
   11  BTD  C49  220  -0.771  -1.016  -2.136
   11  BTD  C50  221  -0.907  -0.993  -2.205
   11  BTD  C75  222  -0.303  -0.796  -1.914
   11  BTD  C76  223  -0.187  -0.703  -1.948
   11  BTD  C77  224  -0.051  -0.757  -1.984
   11  BTD  C78  225   0.069  -0.668  -1.943
   11  BTD  C79  226  -0.225  -0.582  -2.037
   11  BTD  C80  227  -0.320  -0.472  -1.988
   11  BTD  C81  228  -0.380  -0.347  -2.060
   11  BTD  C82  229  -0.362  -0.239  -1.974
   12  TTP   S1  230  -0.208  -1.474  -2.164
   12  TTP   S5  231  -0.223  -1.184  -2.470
   12  TTP   C1  232  -0.198  -1.348  -2.535
   12  TTP   C2  233  -0.194  -1.453  -2.438
   12  TTP   C3  234  -0.208  -1.390  -2.324
   12  TTP   C4  235  -0.230  -1.319  -2.094
   12  TTP  C17  236  -0.243  -1.217  -2.179
   12  TTP  C18  237  -0.228  -1.262  -2.312
   12  TTP  C32  238  -0.192  -1.600  -2.481
   12  TTP  C33  239  -0.046  -1.647  -2.473
   12  TTP  C34  240  -0.042  -1.799  -2.486
   12  TTP  C35  241   0.096  -1.853  -2.518
   12  TTP  C36  242   0.157  -1.936  -2.408
   12  TTP  C37  243   0.297  -1.992  -2.438
   12  TTP  C38  244   0.381  -1.907  -2.531
   12  TTP  C39  245   0.303  -1.797  -2.601
   12  TTP  C40  246   0.386  -1.676  -2.635
   12  TTP  C41  247   0.337  -1.547  -2.574
   12  TTP  C42  248   0.214  -1.559  -2.486
   13  TTP   S1  249  -0.273  -1.002  -1.458
   13  TTP   S5  250  -0.327  -0.614  -1.613
   13  TTP   C1  251  -0.336  -0.602  -1.440
   13  TTP   C2  252  -0.317  -0.728  -1.375
   13  TTP   C3  253  -0.298  -0.826  -1.473
   13  TTP   C4  254  -0.269  -1.013  -1.626
   13  TTP  C17  255  -0.282  -0.889  -1.693
   13  TTP  C18  256  -0.300  -0.783  -1.603
   13  TTP  C32  257  -0.337  -0.756  -1.224
   13  TTP  C33  258  -0.215  -0.780  -1.137
   13  TTP  C34  259  -0.228  -0.815  -0.986
   13  TTP  C35  260  -0.212  -0.962  -0.953
   13  TTP  C36  261  -0.206  -1.012  -0.808
   13  TTP  C37  262  -0.191  -1.162  -0.793
   13  TTP  C38  263  -0.066  -1.206  -0.720
   13  TTP  C39  264   0.029  -1.293  -0.798
   13  TTP  C40  265   0.149  -1.332  -0.716
   13  TTP  C41  266   0.249  -1.419  -0.787
   13  TTP  C42  267   0.371  -1.459  -0.706
   14  BIM   F1  268  -0.133  -0.834  -3.178
   14  BIM   F2  269  -0.104  -1.043  -3.339
   14  BIM   O1  270  -0.196  -1.065  -2.701
   14  BIM   N5  271  -0.074  -1.512  -3.218
   14  BIM   N6  272  -0.154  -1.676  -2.830
   14  BIM  C19  273  -0.180  -1.370  -2.678
   14  BIM  C20  274  -0.173  -1.288  -2.787
   14  BIM  C21  275  -0.175  -1.148  -2.794
   14  BIM  C22  276  -0.155  -1.096  -2.934
   14  BIM  C23  277  -0.156  -0.970  -2.993
   14  BIM  C24  278  -0.137  -0.958  -3.130
   14  BIM  C25  279  -0.117  -1.071  -3.208
   14  BIM  C26  280  -0.116  -1.197  -3.149
   14  BIM  C27  281  -0.135  -1.209  -3.012
   14  BIM  C28  282  -0.146  -1.333  -2.937
   14  BIM  C29  283  -0.128  -1.460  -2.970
   14  BIM  C30  284  -0.097  -1.489  -3.105
   14  BIM  C31  285  -0.140  -1.578  -2.895
   15  BIM   F1  286  -0.468   0.168  -1.669
   15  BIM   F2  287  -0.494   0.230  -1.419
   15  BIM   O1  288  -0.367  -0.355  -1.634
   15  BIM   N5  289  -0.445  -0.043  -1.017
   15  BIM   N6  290  -0.375  -0.460  -1.028
   15  BIM  C19  291  -0.358  -0.485  -1.366
   15  BIM  C20  292  -0.376  -0.351  -1.393
   15  BIM  C21  293  -0.383  -0.302  -1.521
   15  BIM  C22  294  -0.407  -0.153  -1.521
   15  BIM  C23  295  -0.427  -0.057  -1.618
   15  BIM  C24  296  -0.452   0.070  -1.575
   15  BIM  C25  297  -0.469   0.102  -1.442
   15  BIM  C26  298  -0.450   0.016  -1.346
   15  BIM  C27  299  -0.422  -0.115  -1.386
   15  BIM  C28  300  -0.402  -0.240  -1.306
   15  BIM  C29  301  -0.405  -0.249  -1.168
   15  BIM  C30  302  -0.427  -0.141  -1.087
   15  BIM  C31  303  -0.391  -0.364  -1.096
   16  BTD   S2  304   0.063  -1.008  -1.659
   16  BTD   N1  305   0.071  -1.027  -1.827
   16  BTD   N2  306   0.086  -1.161  -1.613
   16  BTD   N3  307   0.137  -1.582  -1.820
   16  BTD   N4  308   0.150  -1.394  -2.112
   16  BTD   C5  309   0.108  -1.228  -1.966
   16  BTD   C6  310   0.087  -1.168  -1.845
   16  BTD   C7  311   0.104  -1.230  -1.725
   16  BTD   C8  312   0.121  -1.371  -1.733
   16  BTD  C15  313   0.130  -1.448  -1.851
   16  BTD  C16  314   0.131  -1.363  -1.976
   16  BTD  C43  315   0.197  -1.520  -2.172
   16  BTD  C44  316   0.349  -1.547  -2.160
   16  BTD  C45  317   0.369  -1.681  -2.239
   16  BTD  C46  318   0.475  -1.770  -2.171
   16  BTD  C47  319   0.425  -1.431  -2.221
   16  BTD  C48  320   0.578  -1.439  -2.215
   16  BTD  C49  321   0.676  -1.335  -2.269
   16  BTD  C50  322   0.588  -1.210  -2.236
   16  BTD  C75  323   0.171  -1.699  -1.904
   16  BTD  C76  324   0.060  -1.801  -1.931
   16  BTD  C77  325  -0.062  -1.735  -1.989
   16  BTD  C78  326  -0.188  -1.826  -1.999
   16  BTD  C79  327   0.102  -1.905  -2.037
   16  BTD  C80  328   0.185  -2.012  -1.965
   16  BTD  C81  329   0.221  -2.128  -2.063
   16  BTD  C82  330   0.334  -2.208  -1.994
   17  TTP   S1  331   0.088  -1.024  -2.177
   17  TTP   S5  332   0.158  -1.317  -2.470
   17  TTP   C1  333   0.137  -1.164  -2.547
   17  TTP   C2  334   0.118  -1.056  -2.458
   17  TTP   C3  335   0.113  -1.102  -2.323
   17  TTP   C4  336   0.112  -1.180  -2.093
   17  TTP  C17  337   0.132  -1.274  -2.186
   17  TTP  C18  338   0.137  -1.240  -2.322
   17  TTP  C32  339   0.096  -0.904  -2.494
   17  TTP  C33  340   0.019  -0.821  -2.392
   17  TTP  C34  341  -0.001  -0.679  -2.446
   17  TTP  C35  342  -0.055  -0.586  -2.338
   17  TTP  C36  343  -0.099  -0.447  -2.388
   17  TTP  C37  344  -0.154  -0.352  -2.286
   17  TTP  C38  345  -0.075  -0.218  -2.272
   17  TTP  C39  346  -0.076  -0.128  -2.396
   17  TTP  C40  347   0.000   0.002  -2.381
   17  TTP  C41  348  -0.050   0.091  -2.271
   17  TTP  C42  349  -0.044   0.028  -2.128
   18  TTP   S1  350   0.107  -1.472  -1.454
   18  TTP   S5  351   0.145  -1.870  -1.587
   18  TTP   C1  352   0.136  -1.869  -1.413
   18  TTP   C2  353   0.127  -1.741  -1.359
   18  TTP   C3  354   0.119  -1.645  -1.459
   18  TTP   C4  355   0.117  -1.464  -1.629
   18  TTP  C17  356   0.125  -1.590  -1.681
   18  TTP  C18  357   0.129  -1.703  -1.586
   18  TTP  C32  358   0.123  -1.704  -1.211
   18  TTP  C33  359  -0.024  -1.698  -1.157
   18  TTP  C34  360  -0.038  -1.621  -1.024
   18  TTP  C35  361  -0.186  -1.584  -0.985
   18  TTP  C36  362  -0.216  -1.585  -0.837
   18  TTP  C37  363  -0.259  -1.451  -0.783
   18  TTP  C38  364  -0.274  -1.344  -0.888
   18  TTP  C39  365  -0.214  -1.379  -1.022
   18  TTP  C40  366  -0.227  -1.274  -1.127
   18  TTP  C41  367  -0.167  -1.309  -1.260
   18  TTP  C42  368  -0.180  -1.205  -1.366
   19  BIM   F1  369   0.260  -1.665  -3.183
   19  BIM   F2  370   0.277  -1.450  -3.344
   19  BIM   O1  371   0.171  -1.438  -2.712
   19  BIM   N5  372   0.223  -0.973  -3.232
   19  BIM   N6  373   0.168  -0.830  -2.838
   19  BIM  C19  374   0.149  -1.141  -2.687
   19  BIM  C20  375   0.175  -1.208  -2.801
   19  BIM  C21  376   0.180  -1.351  -2.797
   19  BIM  C22  377   0.203  -1.405  -2.938
   19  BIM  C23  378   0.221  -1.533  -2.990
   19  BIM  C24  379   0.247  -1.550  -3.125
   19  BIM  C25  380   0.255  -1.439  -3.209
   19  BIM  C26  381   0.237  -1.312  -3.157
   19  BIM  C27  382   0.211  -1.295  -3.021
   19  BIM  C28  383   0.195  -1.168  -2.943
   19  BIM  C29  384   0.195  -1.044  -2.974
   19  BIM  C30  385   0.211  -1.016  -3.133
   19  BIM  C31  386   0.182  -0.926  -2.897
   20  BIM   F1  387   0.254  -2.658  -1.590
   20  BIM   F2  388   0.270  -2.707  -1.320
   20  BIM   O1  389   0.155  -2.138  -1.592
   20  BIM   N5  390   0.209  -2.393  -0.941
   20  BIM   N6  391   0.145  -1.985  -0.983
   20  BIM  C19  392   0.152  -1.986  -1.329
   20  BIM  C20  393   0.165  -2.125  -1.348
   20  BIM  C21  394   0.168  -2.177  -1.480
   20  BIM  C22  395   0.198  -2.328  -1.452
   20  BIM  C23  396   0.214  -2.432  -1.543
   20  BIM  C24  397   0.238  -2.561  -1.497
   20  BIM  C25  398   0.246  -2.586  -1.360
   20  BIM  C26  399   0.229  -2.482  -1.269
   20  BIM  C27  400   0.205  -2.353  -1.315
   20  BIM  C28  401   0.182  -2.225  -1.241
   20  BIM  C29  402   0.179  -2.202  -1.119
   20  BIM  C30  403   0.200  -2.331  -1.036
   20  BIM  C31  404   0.159  -2.084  -1.042
1.37272 1.95270 2.89284 0 0 -0.224899 0 -0.138741 -0.660629  
