O-IDTBR crystal built from experiment
11264
    1UNL      C    1   0.538   1.724   2.118  0.0000  0.0000  0.0000
    1UNL      C    2   0.553   1.618   2.015  0.0000  0.0000  0.0000
    1UNL      N    3   0.482   1.669   2.234  0.0000  0.0000  0.0000
    1UNL      S    4   0.497   1.466   2.076  0.0000  0.0000  0.0000
    1UNL      C    5   0.452   1.535   2.231  0.0000  0.0000  0.0000
    1UNL      C    6   0.460   1.755   2.351  0.0000  0.0000  0.0000
    1UNL      S    7   0.385   1.447   2.350  0.0000  0.0000  0.0000
    1UNL      O    8   0.571   1.839   2.108  0.0000  0.0000  0.0000
    1UNL      C    9   0.598   1.654   1.891  0.0000  0.0000  0.0000
    2UNL      C   10   0.625   1.573   1.775  0.0000  0.0000  0.0000
    2UNL      C   11   0.624   1.436   1.768  0.0000  0.0000  0.0000
    2UNL      C   12   0.659   1.641   1.654  0.0000  0.0000  0.0000
    2UNL      C   13   0.651   1.365   1.649  0.0000  0.0000  0.0000
    2UNL      C   14   0.683   1.426   1.528  0.0000  0.0000  0.0000
    2UNL      C   15   0.687   1.570   1.533  0.0000  0.0000  0.0000
    2UNL      N   16   0.668   1.775   1.640  0.0000  0.0000  0.0000
    2UNL      N   17   0.718   1.652   1.430  0.0000  0.0000  0.0000
    2UNL      S   18   0.711   1.803   1.486  0.0000  0.0000  0.0000
    3UNL      C   19   0.715   1.351   1.410  0.0000  0.0000  0.0000
    3UNL      C   20   0.720   1.214   1.397  0.0000  0.0000  0.0000
    3UNL      C   21   0.762   1.173   1.269  0.0000  0.0000  0.0000
    3UNL      C   22   0.787   1.279   1.186  0.0000  0.0000  0.0000
    3UNL      S   23   0.760   1.429   1.260  0.0000  0.0000  0.0000
    4UNL      C   24   0.838   1.233   1.058  0.0000  0.0000  0.0000
    4UNL      C   25   0.843   1.093   1.065  0.0000  0.0000  0.0000
    5UNL      C   26   0.792   1.040   1.201  0.0000  0.0000  0.0000
    6UNL      C   27   0.890   1.020   0.958  0.0000  0.0000  0.0000
    7UNL      C   28   0.664   0.955   1.180  0.0000  0.0000  0.0000
    7UNL      C   29   0.899   0.960   1.275  0.0000  0.0000  0.0000
    7UNL      C   30   1.025   1.033   1.309  0.0000  0.0000  0.0000
    7UNL      C   31   0.552   1.025   1.108  0.0000  0.0000  0.0000
    7UNL      C   32   1.130   0.944   1.370  0.0000  0.0000  0.0000
    7UNL      C   33   1.257   1.014   1.406  0.0000  0.0000  0.0000
    7UNL      C   34   1.371   0.934   1.462  0.0000  0.0000  0.0000
    7UNL      C   35   1.393   0.787   1.441  0.0000  0.0000  0.0000
    7UNL      C   36   1.501   0.683   1.438  0.0000  0.0000  0.0000
    7UNL      C   37   1.480   0.562   1.523  0.0000  0.0000  0.0000
    7UNL      C   38   0.426   0.945   1.084  0.0000  0.0000  0.0000
    7UNL      C   39   0.323   1.025   1.008  0.0000  0.0000  0.0000
    7UNL      C   40   0.189   0.960   0.987  0.0000  0.0000  0.0000
    7UNL      C   41   0.092   1.051   0.916  0.0000  0.0000  0.0000
    7UNL      C   42  -0.039   0.981   0.892  0.0000  0.0000  0.0000
    7UNL      C   43  -0.126   0.979   1.016  0.0000  0.0000  0.0000
    8UNL      C   44   0.877   1.302   0.945  0.0000  0.0000  0.0000
    8UNL      C   45   0.924   1.230   0.838  0.0000  0.0000  0.0000
    9UNL      C   46   0.585   1.760   2.438  0.0000  0.0000  0.0000
   10UNL      C   47   0.930   1.089   0.845  0.0000  0.0000  0.0000
   11UNL      C   48   0.984   1.044   0.716  0.0000  0.0000  0.0000
   12UNL      C   49   0.974   1.283   0.703  0.0000  0.0000  0.0000
   13UNL      C   50   1.010   1.153   0.635  0.0000  0.0000  0.0000
   14UNL      C   51   0.862   1.358   0.628  0.0000  0.0000  0.0000
   14UNL      C   52   1.097   1.376   0.721  0.0000  0.0000  0.0000
   15UNL      S   53   1.020   0.896   0.640  0.0000  0.0000  0.0000
   15UNL      C   54   1.070   0.979   0.494  0.0000  0.0000  0.0000
   15UNL      C   55   1.059   1.116   0.510  0.0000  0.0000  0.0000
   16UNL      C   56   1.110   0.910   0.374  0.0000  0.0000  0.0000
   16UNL      C   57   1.153   0.982   0.263  0.0000  0.0000  0.0000
   16UNL      C   58   1.182   0.920   0.138  0.0000  0.0000  0.0000
   16UNL      C   59   1.176   0.784   0.119  0.0000  0.0000  0.0000
   16UNL      C   60   1.107   0.768   0.359  0.0000  0.0000  0.0000
   16UNL      C   61   1.140   0.706   0.235  0.0000  0.0000  0.0000
   17UNL      C   62   1.202   0.715  -0.029  0.0000  0.0000  0.0000
   18UNL      N   63   1.072   0.679   0.454  0.0000  0.0000  0.0000
   18UNL      N   64   1.127   0.571   0.238  0.0000  0.0000  0.0000
   18UNL      S   65   1.082   0.534   0.387  0.0000  0.0000  0.0000
   19UNL      C   66   1.235   0.765  -0.150  0.0000  0.0000  0.0000
   19UNL      S   67   1.263   0.929  -0.201  0.0000  0.0000  0.0000
   19UNL      C   68   1.250   0.675  -0.264  0.0000  0.0000  0.0000
   19UNL      O   69   1.236   0.554  -0.263  0.0000  0.0000  0.0000
   19UNL      N   70   1.285   0.745  -0.379  0.0000  0.0000  0.0000
   19UNL      C   71   1.296   0.882  -0.368  0.0000  0.0000  0.0000
   19UNL      C   72   1.297   0.677  -0.508  0.0000  0.0000  0.0000
   19UNL      C   73   1.166   0.668  -0.578  0.0000  0.0000  0.0000
   19UNL      S   74   1.332   0.988  -0.483  0.0000  0.0000  0.0000
   20UNL      C   75   1.213   1.314   0.791  0.0000  0.0000  0.0000
   20UNL      C   76   1.339   1.402   0.803  0.0000  0.0000  0.0000
   20UNL      C   77   1.407   1.429   0.668  0.0000  0.0000  0.0000
   20UNL      C   78   1.474   1.307   0.603  0.0000  0.0000  0.0000
   20UNL      C   79   1.552   1.322   0.471  0.0000  0.0000  0.0000
   20UNL      C   80   1.454   1.341   0.354  0.0000  0.0000  0.0000
   20UNL      C   81   1.537   1.362   0.226  0.0000  0.0000  0.0000
   20UNL      C   82   0.736   1.275   0.601  0.0000  0.0000  0.0000
   20UNL      C   83   0.635   1.333   0.507  0.0000  0.0000  0.0000
   20UNL      C   84   0.685   1.326   0.361  0.0000  0.0000  0.0000
   20UNL      C   85   0.576   1.366   0.256  0.0000  0.0000  0.0000
   20UNL      C   86   0.636   1.355   0.114  0.0000  0.0000  0.0000
   20UNL      C   87   0.527   1.384   0.008  0.0000  0.0000  0.0000
   20UNL      C   88   0.577   1.352  -0.139  0.0000  0.0000  0.0000
   21UNL      C   89   0.643   0.931  -0.517  0.0000  0.0000  0.0000
   21UNL      C   90   0.629   0.826  -0.414  0.0000  0.0000  0.0000
   21UNL      N   91   0.699   0.876  -0.633  0.0000  0.0000  0.0000
   21UNL      S   92   0.684   0.674  -0.475  0.0000  0.0000  0.0000
   21UNL      C   93   0.729   0.742  -0.630  0.0000  0.0000  0.0000
   21UNL      C   94   0.722   0.963  -0.750  0.0000  0.0000  0.0000
   21UNL      S   95   0.796   0.654  -0.749  0.0000  0.0000  0.0000
   21UNL      O   96   0.611   1.046  -0.507  0.0000  0.0000  0.0000
   21UNL      C   97   0.583   0.861  -0.290  0.0000  0.0000  0.0000
   22UNL      C   98   0.556   0.780  -0.174  0.0000  0.0000  0.0000
   22UNL      C   99   0.558   0.643  -0.167  0.0000  0.0000  0.0000
   22UNL      C  100   0.523   0.848  -0.054  0.0000  0.0000  0.0000
   22UNL      C  101   0.530   0.573  -0.048  0.0000  0.0000  0.0000
   22UNL      C  102   0.498   0.634   0.096  0.0000  0.0000  0.0000
   22UNL      C  103   0.495   0.778   0.091  0.0000  0.0000  0.0000
   22UNL      N  104   0.513   0.983  -0.039  0.0000  0.0000  0.0000
   22UNL      N  105   0.463   0.859   0.194  0.0000  0.0000  0.0000
   22UNL      S  106   0.470   1.011   0.138  0.0000  0.0000  0.0000
   23UNL      C  107   0.467   0.558   0.214  0.0000  0.0000  0.0000
   23UNL      C  108   0.461   0.421   0.227  0.0000  0.0000  0.0000
   23UNL      C  109   0.419   0.380   0.355  0.0000  0.0000  0.0000
   23UNL      C  110   0.394   0.486   0.438  0.0000  0.0000  0.0000
   23UNL      S  111   0.421   0.637   0.364  0.0000  0.0000  0.0000
   24UNL      C  112   0.344   0.441   0.567  0.0000  0.0000  0.0000
   24UNL      C  113   0.338   0.300   0.559  0.0000  0.0000  0.0000
   25UNL      C  114   0.390   0.248   0.423  0.0000  0.0000  0.0000
   26UNL      C  115   0.291   0.227   0.666  0.0000  0.0000  0.0000
   27UNL      C  116   0.517   0.163   0.444  0.0000  0.0000  0.0000
   27UNL      C  117   0.282   0.168   0.349  0.0000  0.0000  0.0000
   27UNL      C  118   0.156   0.241   0.315  0.0000  0.0000  0.0000
   27UNL      C  119   0.630   0.233   0.516  0.0000  0.0000  0.0000
   27UNL      C  120   0.052   0.152   0.255  0.0000  0.0000  0.0000
   27UNL      C  121  -0.076   0.221   0.218  0.0000  0.0000  0.0000
   27UNL      C  122  -0.190   0.141   0.162  0.0000  0.0000  0.0000
   27UNL      C  123  -0.212  -0.005   0.184  0.0000  0.0000  0.0000
   27UNL      C  124  -0.320  -0.109   0.186  0.0000  0.0000  0.0000
   27UNL      C  125  -0.299  -0.231   0.101  0.0000  0.0000  0.0000
   27UNL      C  126   0.756   0.153   0.540  0.0000  0.0000  0.0000
   27UNL      C  127   0.858   0.232   0.617  0.0000  0.0000  0.0000
   27UNL      C  128   0.993   0.167   0.637  0.0000  0.0000  0.0000
   27UNL      C  129   1.089   0.258   0.708  0.0000  0.0000  0.0000
   27UNL      C  130   1.221   0.189   0.732  0.0000  0.0000  0.0000
   27UNL      C  131   1.307   0.187   0.608  0.0000  0.0000  0.0000
   28UNL      C  132   0.305   0.510   0.679  0.0000  0.0000  0.0000
   28UNL      C  133   0.257   0.438   0.786  0.0000  0.0000  0.0000
   29UNL      C  134   0.596   0.967  -0.837  0.0000  0.0000  0.0000
   30UNL      C  135   0.251   0.296   0.780  0.0000  0.0000  0.0000
   31UNL      C  136   0.197   0.252   0.908  0.0000  0.0000  0.0000
   32UNL      C  137   0.207   0.491   0.921  0.0000  0.0000  0.0000
   33UNL      C  138   0.171   0.360   0.989  0.0000  0.0000  0.0000
   34UNL      C  139   0.319   0.566   0.996  0.0000  0.0000  0.0000
   34UNL      C  140   0.084   0.584   0.903  0.0000  0.0000  0.0000
   35UNL      S  141   0.162   0.104   0.984  0.0000  0.0000  0.0000
   35UNL      C  142   0.112   0.187   1.130  0.0000  0.0000  0.0000
   35UNL      C  143   0.123   0.324   1.115  0.0000  0.0000  0.0000
   36UNL      C  144   0.071   0.118   1.250  0.0000  0.0000  0.0000
   36UNL      C  145   0.029   0.190   1.361  0.0000  0.0000  0.0000
   36UNL      C  146  -0.001   0.128   1.487  0.0000  0.0000  0.0000
   36UNL      C  147   0.005  -0.009   1.505  0.0000  0.0000  0.0000
   36UNL      C  148   0.074  -0.024   1.265  0.0000  0.0000  0.0000
   36UNL      C  149   0.041  -0.086   1.390  0.0000  0.0000  0.0000
   37UNL      C  150  -0.021  -0.078   1.629  0.0000  0.0000  0.0000
   38UNL      N  151   0.109  -0.113   1.170  0.0000  0.0000  0.0000
   38UNL      N  152   0.054  -0.221   1.386  0.0000  0.0000  0.0000
   38UNL      S  153   0.100  -0.258   1.237  0.0000  0.0000  0.0000
   39UNL      C  154  -0.054  -0.027   1.751  0.0000  0.0000  0.0000
   39UNL      S  155  -0.081   0.137   1.802  0.0000  0.0000  0.0000
   39UNL      C  156  -0.068  -0.118   1.865  0.0000  0.0000  0.0000
   39UNL      O  157  -0.055  -0.238   1.864  0.0000  0.0000  0.0000
   39UNL      N  158  -0.103  -0.047   1.980  0.0000  0.0000  0.0000
   39UNL      C  159  -0.114   0.090   1.969  0.0000  0.0000  0.0000
   39UNL      C  160  -0.115  -0.116   2.109  0.0000  0.0000  0.0000
   39UNL      C  161   0.016  -0.125   2.179  0.0000  0.0000  0.0000
   39UNL      S  162  -0.151   0.195   2.084  0.0000  0.0000  0.0000
   40UNL      C  163  -0.032   0.521   0.833  0.0000  0.0000  0.0000
   40UNL      C  164  -0.158   0.610   0.822  0.0000  0.0000  0.0000
   40UNL      C  165  -0.226   0.637   0.957  0.0000  0.0000  0.0000
   40UNL      C  166  -0.293   0.514   1.021  0.0000  0.0000  0.0000
   40UNL      C  167  -0.370   0.530   1.153  0.0000  0.0000  0.0000
   40UNL      C  168  -0.273   0.548   1.270  0.0000  0.0000  0.0000
   40UNL      C  169  -0.355   0.570   1.398  0.0000  0.0000  0.0000
   40UNL      C  170   0.445   0.482   1.023  0.0000  0.0000  0.0000
   40UNL      C  171   0.546   0.541   1.117  0.0000  0.0000  0.0000
   40UNL      C  172   0.496   0.534   1.264  0.0000  0.0000  0.0000
   40UNL      C  173   0.606   0.573   1.368  0.0000  0.0000  0.0000
   40UNL      C  174   0.545   0.563   1.510  0.0000  0.0000  0.0000
   40UNL      C  175   0.654   0.591   1.616  0.0000  0.0000  0.0000
   40UNL      C  176   0.604   0.559   1.763  0.0000  0.0000  0.0000
   41UNL      C  177   0.448  -0.139   1.131  0.0000  0.0000  0.0000
   41UNL      C  178   0.433  -0.034   1.234  0.0000  0.0000  0.0000
   41UNL      N  179   0.504  -0.084   1.014  0.0000  0.0000  0.0000
   41UNL      S  180   0.489   0.119   1.172  0.0000  0.0000  0.0000
   41UNL      C  181   0.534   0.050   1.017  0.0000  0.0000  0.0000
   41UNL      C  182   0.526  -0.170   0.898  0.0000  0.0000  0.0000
   41UNL      S  183   0.601   0.138   0.899  0.0000  0.0000  0.0000
   41UNL      O  184   0.415  -0.254   1.140  0.0000  0.0000  0.0000
   41UNL      C  185   0.388  -0.069   1.357  0.0000  0.0000  0.0000
   42UNL      C  186   0.361   0.012   1.474  0.0000  0.0000  0.0000
   42UNL      C  187   0.362   0.149   1.481  0.0000  0.0000  0.0000
   42UNL      C  188   0.328  -0.056   1.594  0.0000  0.0000  0.0000
   42UNL      C  189   0.335   0.220   1.599  0.0000  0.0000  0.0000
   42UNL      C  190   0.303   0.158   1.720  0.0000  0.0000  0.0000
   42UNL      C  191   0.299   0.015   1.715  0.0000  0.0000  0.0000
   42UNL      N  192   0.318  -0.191   1.608  0.0000  0.0000  0.0000
   42UNL      N  193   0.268  -0.067   1.819  0.0000  0.0000  0.0000
   42UNL      S  194   0.275  -0.218   1.762  0.0000  0.0000  0.0000
   43UNL      C  195   0.272   0.234   1.839  0.0000  0.0000  0.0000
   43UNL      C  196   0.266   0.371   1.852  0.0000  0.0000  0.0000
   43UNL      C  197   0.224   0.412   1.979  0.0000  0.0000  0.0000
   43UNL      C  198   0.199   0.306   2.062  0.0000  0.0000  0.0000
   43UNL      S  199   0.226   0.155   1.989  0.0000  0.0000  0.0000
   44UNL      C  200   0.148   0.351   2.191  0.0000  0.0000  0.0000
   44UNL      C  201   0.143   0.492   2.184  0.0000  0.0000  0.0000
   45UNL      C  202   0.195   0.545   2.047  0.0000  0.0000  0.0000
   46UNL      C  203   0.096   0.565   2.290  0.0000  0.0000  0.0000
   47UNL      C  204   0.322   0.630   2.069  0.0000  0.0000  0.0000
   47UNL      C  205   0.087   0.624   1.973  0.0000  0.0000  0.0000
   47UNL      C  206  -0.039   0.552   1.939  0.0000  0.0000  0.0000
   47UNL      C  207   0.435   0.560   2.141  0.0000  0.0000  0.0000
   47UNL      C  208  -0.143   0.641   1.879  0.0000  0.0000  0.0000
   47UNL      C  209  -0.271   0.571   1.842  0.0000  0.0000  0.0000
   47UNL      C  210  -0.385   0.651   1.786  0.0000  0.0000  0.0000
   47UNL      C  211  -0.407   0.798   1.808  0.0000  0.0000  0.0000
   47UNL      C  212  -0.515   0.901   1.810  0.0000  0.0000  0.0000
   47UNL      C  213  -0.494   1.023   1.725  0.0000  0.0000  0.0000
   47UNL      C  214   0.561   0.640   2.164  0.0000  0.0000  0.0000
   47UNL      C  215   0.663   0.560   2.241  0.0000  0.0000  0.0000
   47UNL      C  216   0.798   0.625   2.261  0.0000  0.0000  0.0000
   47UNL      C  217   0.894   0.534   2.332  0.0000  0.0000  0.0000
   47UNL      C  218   1.026   0.604   2.356  0.0000  0.0000  0.0000
   47UNL      C  219   1.112   0.605   2.233  0.0000  0.0000  0.0000
   48UNL      C  220   0.109   0.282   2.303  0.0000  0.0000  0.0000
   48UNL      C  221   0.062   0.354   2.410  0.0000  0.0000  0.0000
   49UNL      C  222   0.401  -0.175   0.811  0.0000  0.0000  0.0000
   50UNL      C  223   0.056   0.496   2.404  0.0000  0.0000  0.0000
   51UNL      C  224   0.002   0.540   2.532  0.0000  0.0000  0.0000
   52UNL      C  225   0.012   0.302   2.545  0.0000  0.0000  0.0000
   53UNL      C  226  -0.024   0.432   2.613  0.0000  0.0000  0.0000
   54UNL      C  227   0.124   0.227   2.621  0.0000  0.0000  0.0000
   54UNL      C  228  -0.111   0.209   2.528  0.0000  0.0000  0.0000
   55UNL      S  229  -0.034   0.689   2.609  0.0000  0.0000  0.0000
   55UNL      C  230  -0.083   0.606   2.754  0.0000  0.0000  0.0000
   55UNL      C  231  -0.072   0.469   2.739  0.0000  0.0000  0.0000
   56UNL      C  232  -0.124   0.674   2.874  0.0000  0.0000  0.0000
   56UNL      C  233  -0.166   0.603   2.985  0.0000  0.0000  0.0000
   56UNL      C  234  -0.196   0.664   3.111  0.0000  0.0000  0.0000
   56UNL      C  235  -0.190   0.801   3.129  0.0000  0.0000  0.0000
   56UNL      C  236  -0.121   0.817   2.889  0.0000  0.0000  0.0000
   56UNL      C  237  -0.154   0.878   3.014  0.0000  0.0000  0.0000
   57UNL      C  238  -0.216   0.870   3.277  0.0000  0.0000  0.0000
   58UNL      N  239  -0.086   0.905   2.794  0.0000  0.0000  0.0000
   58UNL      N  240  -0.141   1.014   3.010  0.0000  0.0000  0.0000
   58UNL      S  241  -0.095   1.051   2.862  0.0000  0.0000  0.0000
   59UNL      C  242  -0.249   0.820   3.398  0.0000  0.0000  0.0000
   59UNL      S  243  -0.276   0.655   3.450  0.0000  0.0000  0.0000
   59UNL      C  244  -0.264   0.910   3.513  0.0000  0.0000  0.0000
   59UNL      O  245  -0.250   1.031   3.511  0.0000  0.0000  0.0000
   59UNL      N  246  -0.298   0.840   3.628  0.0000  0.0000  0.0000
   59UNL      C  247  -0.309   0.703   3.616  0.0000  0.0000  0.0000
   59UNL      C  248  -0.311   0.908   3.757  0.0000  0.0000  0.0000
   59UNL      C  249  -0.179   0.917   3.826  0.0000  0.0000  0.0000
   59UNL      S  250  -0.346   0.597   3.732  0.0000  0.0000  0.0000
   60UNL      C  251  -0.227   0.271   2.457  0.0000  0.0000  0.0000
   60UNL      C  252  -0.353   0.183   2.446  0.0000  0.0000  0.0000
   60UNL      C  253  -0.421   0.155   2.581  0.0000  0.0000  0.0000
   60UNL      C  254  -0.488   0.278   2.645  0.0000  0.0000  0.0000
   60UNL      C  255  -0.566   0.263   2.777  0.0000  0.0000  0.0000
   60UNL      C  256  -0.468   0.244   2.895  0.0000  0.0000  0.0000
   60UNL      C  257  -0.550   0.223   3.022  0.0000  0.0000  0.0000
   60UNL      C  258   0.250   0.310   2.647  0.0000  0.0000  0.0000
   60UNL      C  259   0.351   0.252   2.742  0.0000  0.0000  0.0000
   60UNL      C  260   0.301   0.259   2.888  0.0000  0.0000  0.0000
   60UNL      C  261   0.411   0.219   2.993  0.0000  0.0000  0.0000
   60UNL      C  262   0.350   0.229   3.135  0.0000  0.0000  0.0000
   60UNL      C  263   0.459   0.201   3.240  0.0000  0.0000  0.0000
   60UNL      C  264   0.409   0.233   3.387  0.0000  0.0000  0.0000
   61UNL      C  265   0.343   0.654   3.765  0.0000  0.0000  0.0000
   61UNL      C  266   0.357   0.759   3.662  0.0000  0.0000  0.0000
   61UNL      N  267   0.287   0.709   3.882  0.0000  0.0000  0.0000
   61UNL      S  268   0.302   0.911   3.724  0.0000  0.0000  0.0000
   61UNL      C  269   0.257   0.843   3.879  0.0000  0.0000  0.0000
   61UNL      C  270   0.265   0.622   3.998  0.0000  0.0000  0.0000
   61UNL      S  271   0.190   0.931   3.997  0.0000  0.0000  0.0000
   61UNL      O  272   0.375   0.538   3.756  0.0000  0.0000  0.0000
   61UNL      C  273   0.403   0.724   3.539  0.0000  0.0000  0.0000
   62UNL      C  274   0.430   0.805   3.422  0.0000  0.0000  0.0000
   62UNL      C  275   0.429   0.942   3.415  0.0000  0.0000  0.0000
   62UNL      C  276   0.463   0.737   3.302  0.0000  0.0000  0.0000
   62UNL      C  277   0.456   1.012   3.297  0.0000  0.0000  0.0000
   62UNL      C  278   0.488   0.951   3.153  0.0000  0.0000  0.0000
   62UNL      C  279   0.492   0.807   3.158  0.0000  0.0000  0.0000
   62UNL      N  280   0.473   0.602   3.288  0.0000  0.0000  0.0000
   62UNL      N  281   0.523   0.725   3.054  0.0000  0.0000  0.0000
   62UNL      S  282   0.516   0.574   3.111  0.0000  0.0000  0.0000
   63UNL      C  283   0.520   1.026   3.034  0.0000  0.0000  0.0000
   63UNL      C  284   0.525   1.164   3.021  0.0000  0.0000  0.0000
   63UNL      C  285   0.567   1.204   2.893  0.0000  0.0000  0.0000
   63UNL      C  286   0.592   1.099   2.810  0.0000  0.0000  0.0000
   63UNL      S  287   0.565   0.948   2.884  0.0000  0.0000  0.0000
   64UNL      C  288   0.643   1.144   2.682  0.0000  0.0000  0.0000
   64UNL      C  289   0.648   1.285   2.689  0.0000  0.0000  0.0000
   65UNL      C  290   0.596   1.337   2.825  0.0000  0.0000  0.0000
   66UNL      C  291   0.695   1.358   2.583  0.0000  0.0000  0.0000
   67UNL      C  292   0.469   1.422   2.804  0.0000  0.0000  0.0000
   67UNL      C  293   0.704   1.417   2.899  0.0000  0.0000  0.0000
   67UNL      C  294   0.830   1.344   2.933  0.0000  0.0000  0.0000
   67UNL      C  295   0.356   1.352   2.732  0.0000  0.0000  0.0000
   67UNL      C  296   0.934   1.433   2.994  0.0000  0.0000  0.0000
   67UNL      C  297   1.062   1.364   3.030  0.0000  0.0000  0.0000
   67UNL      C  298   1.176   1.443   3.087  0.0000  0.0000  0.0000
   67UNL      C  299   1.198   1.590   3.065  0.0000  0.0000  0.0000
   67UNL      C  300   1.306   1.694   3.063  0.0000  0.0000  0.0000
   67UNL      C  301   1.285   1.815   3.147  0.0000  0.0000  0.0000
   67UNL      C  302   0.231   1.432   2.708  0.0000  0.0000  0.0000
   67UNL      C  303   0.128   1.353   2.632  0.0000  0.0000  0.0000
   67UNL      C  304  -0.007   1.418   2.611  0.0000  0.0000  0.0000
   67UNL      C  305  -0.103   1.327   2.540  0.0000  0.0000  0.0000
   67UNL      C  306  -0.235   1.396   2.516  0.0000  0.0000  0.0000
   67UNL      C  307  -0.321   1.398   2.640  0.0000  0.0000  0.0000
   68UNL      C  308   0.682   1.075   2.569  0.0000  0.0000  0.0000
   68UNL      C  309   0.729   1.147   2.463  0.0000  0.0000  0.0000
   69UNL      C  310   0.390   0.617   4.085  0.0000  0.0000  0.0000
   70UNL      C  311   0.735   1.289   2.469  0.0000  0.0000  0.0000
   71UNL      C  312   0.789   1.333   2.340  0.0000  0.0000  0.0000
   72UNL      C  313   0.779   1.094   2.328  0.0000  0.0000  0.0000
   73UNL      C  314   0.815   1.225   2.260  0.0000  0.0000  0.0000
   74UNL      C  315   0.667   1.019   2.252  0.0000  0.0000  0.0000
   74UNL      C  316   0.902   1.001   2.345  0.0000  0.0000  0.0000
   75UNL      S  317   0.825   1.481   2.264  0.0000  0.0000  0.0000
   75UNL      C  318   0.875   1.398   2.118  0.0000  0.0000  0.0000
   75UNL      C  319   0.864   1.261   2.134  0.0000  0.0000  0.0000
   76UNL      C  320   0.915   1.467   1.998  0.0000  0.0000  0.0000
   76UNL      C  321   0.957   1.395   1.887  0.0000  0.0000  0.0000
   76UNL      C  322   0.987   1.457   1.762  0.0000  0.0000  0.0000
   76UNL      C  323   0.981   1.593   1.743  0.0000  0.0000  0.0000
   76UNL      C  324   0.912   1.609   1.983  0.0000  0.0000  0.0000
   76UNL      C  325   0.945   1.671   1.859  0.0000  0.0000  0.0000
   77UNL      C  326   1.007   1.662   1.619  0.0000  0.0000  0.0000
   78UNL      N  327   0.877   1.698   2.079  0.0000  0.0000  0.0000
   78UNL      N  328   0.932   1.806   1.862  0.0000  0.0000  0.0000
   78UNL      S  329   0.887   1.843   2.011  0.0000  0.0000  0.0000
   79UNL      C  330   1.040   1.612   1.498  0.0000  0.0000  0.0000
   79UNL      S  331   1.067   1.448   1.446  0.0000  0.0000  0.0000
   79UNL      C  332   1.054   1.703   1.383  0.0000  0.0000  0.0000
   79UNL      O  333   1.041   1.823   1.385  0.0000  0.0000  0.0000
   79UNL      N  334   1.089   1.632   1.268  0.0000  0.0000  0.0000
   79UNL      C  335   1.100   1.495   1.280  0.0000  0.0000  0.0000
   79UNL      C  336   1.102   1.701   1.140  0.0000  0.0000  0.0000
   79UNL      C  337   0.970   1.709   1.070  0.0000  0.0000  0.0000
   79UNL      S  338   1.137   1.390   1.164  0.0000  0.0000  0.0000
   80UNL      C  339   1.018   1.063   2.415  0.0000  0.0000  0.0000
   80UNL      C  340   1.144   0.975   2.427  0.0000  0.0000  0.0000
   80UNL      C  341   1.212   0.948   2.292  0.0000  0.0000  0.0000
   80UNL      C  342   1.279   1.070   2.227  0.0000  0.0000  0.0000
   80UNL      C  343   1.357   1.055   2.095  0.0000  0.0000  0.0000
   80UNL      C  344   1.259   1.037   1.978  0.0000  0.0000  0.0000
   80UNL      C  345   1.342   1.015   1.850  0.0000  0.0000  0.0000
   80UNL      C  346   0.541   1.102   2.226  0.0000  0.0000  0.0000
   80UNL      C  347   0.440   1.044   2.131  0.0000  0.0000  0.0000
   80UNL      C  348   0.490   1.051   1.985  0.0000  0.0000  0.0000
   80UNL      C  349   0.380   1.011   1.880  0.0000  0.0000  0.0000
   80UNL      C  350   0.441   1.022   1.738  0.0000  0.0000  0.0000
   80UNL      C  351   0.332   0.993   1.632  0.0000  0.0000  0.0000
   80UNL      C  352   0.382   1.025   1.485  0.0000  0.0000  0.0000
   81UNL      C  353   0.148   1.724   5.366  0.0000  0.0000  0.0000
   81UNL      C  354   0.163   1.618   5.263  0.0000  0.0000  0.0000
   81UNL      N  355   0.092   1.669   5.482  0.0000  0.0000  0.0000
   81UNL      S  356   0.107   1.466   5.324  0.0000  0.0000  0.0000
   81UNL      C  357   0.062   1.535   5.479  0.0000  0.0000  0.0000
   81UNL      C  358   0.070   1.755   5.599  0.0000  0.0000  0.0000
   81UNL      S  359  -0.005   1.447   5.598  0.0000  0.0000  0.0000
   81UNL      O  360   0.181   1.839   5.356  0.0000  0.0000  0.0000
   81UNL      C  361   0.208   1.654   5.139  0.0000  0.0000  0.0000
   82UNL      C  362   0.235   1.573   5.023  0.0000  0.0000  0.0000
   82UNL      C  363   0.234   1.436   5.016  0.0000  0.0000  0.0000
   82UNL      C  364   0.269   1.641   4.902  0.0000  0.0000  0.0000
   82UNL      C  365   0.261   1.365   4.897  0.0000  0.0000  0.0000
   82UNL      C  366   0.293   1.426   4.776  0.0000  0.0000  0.0000
   82UNL      C  367   0.297   1.570   4.781  0.0000  0.0000  0.0000
   82UNL      N  368   0.278   1.775   4.888  0.0000  0.0000  0.0000
   82UNL      N  369   0.328   1.652   4.678  0.0000  0.0000  0.0000
   82UNL      S  370   0.321   1.803   4.734  0.0000  0.0000  0.0000
   83UNL      C  371   0.325   1.351   4.658  0.0000  0.0000  0.0000
   83UNL      C  372   0.330   1.214   4.645  0.0000  0.0000  0.0000
   83UNL      C  373   0.372   1.173   4.517  0.0000  0.0000  0.0000
   83UNL      C  374   0.397   1.279   4.434  0.0000  0.0000  0.0000
   83UNL      S  375   0.370   1.429   4.508  0.0000  0.0000  0.0000
   84UNL      C  376   0.448   1.233   4.306  0.0000  0.0000  0.0000
   84UNL      C  377   0.453   1.093   4.313  0.0000  0.0000  0.0000
   85UNL      C  378   0.402   1.040   4.449  0.0000  0.0000  0.0000
   86UNL      C  379   0.500   1.020   4.206  0.0000  0.0000  0.0000
   87UNL      C  380   0.274   0.955   4.428  0.0000  0.0000  0.0000
   87UNL      C  381   0.509   0.960   4.523  0.0000  0.0000  0.0000
   87UNL      C  382   0.635   1.033   4.557  0.0000  0.0000  0.0000
   87UNL      C  383   0.162   1.025   4.356  0.0000  0.0000  0.0000
   87UNL      C  384   0.740   0.944   4.618  0.0000  0.0000  0.0000
   87UNL      C  385   0.867   1.014   4.654  0.0000  0.0000  0.0000
   87UNL      C  386   0.981   0.934   4.710  0.0000  0.0000  0.0000
   87UNL      C  387   1.003   0.787   4.689  0.0000  0.0000  0.0000
   87UNL      C  388   1.111   0.683   4.686  0.0000  0.0000  0.0000
   87UNL      C  389   1.090   0.562   4.771  0.0000  0.0000  0.0000
   87UNL      C  390   0.036   0.945   4.332  0.0000  0.0000  0.0000
   87UNL      C  391  -0.067   1.025   4.256  0.0000  0.0000  0.0000
   87UNL      C  392  -0.201   0.960   4.235  0.0000  0.0000  0.0000
   87UNL      C  393  -0.298   1.051   4.164  0.0000  0.0000  0.0000
   87UNL      C  394  -0.429   0.981   4.140  0.0000  0.0000  0.0000
   87UNL      C  395  -0.516   0.979   4.264  0.0000  0.0000  0.0000
   88UNL      C  396   0.487   1.302   4.193  0.0000  0.0000  0.0000
   88UNL      C  397   0.534   1.230   4.086  0.0000  0.0000  0.0000
   89UNL      C  398   0.195   1.760   5.686  0.0000  0.0000  0.0000
   90UNL      C  399   0.540   1.089   4.093  0.0000  0.0000  0.0000
   91UNL      C  400   0.594   1.044   3.964  0.0000  0.0000  0.0000
   92UNL      C  401   0.584   1.283   3.951  0.0000  0.0000  0.0000
   93UNL      C  402   0.620   1.153   3.883  0.0000  0.0000  0.0000
   94UNL      C  403   0.472   1.358   3.876  0.0000  0.0000  0.0000
   94UNL      C  404   0.707   1.376   3.969  0.0000  0.0000  0.0000
   95UNL      S  405   0.630   0.896   3.888  0.0000  0.0000  0.0000
   95UNL      C  406   0.680   0.979   3.742  0.0000  0.0000  0.0000
   95UNL      C  407   0.669   1.116   3.758  0.0000  0.0000  0.0000
   96UNL      C  408   0.720   0.910   3.622  0.0000  0.0000  0.0000
   96UNL      C  409   0.763   0.982   3.511  0.0000  0.0000  0.0000
   96UNL      C  410   0.792   0.920   3.386  0.0000  0.0000  0.0000
   96UNL      C  411   0.786   0.784   3.367  0.0000  0.0000  0.0000
   96UNL      C  412   0.717   0.768   3.607  0.0000  0.0000  0.0000
   96UNL      C  413   0.750   0.706   3.483  0.0000  0.0000  0.0000
   97UNL      C  414   0.812   0.715   3.219  0.0000  0.0000  0.0000
   98UNL      N  415   0.682   0.679   3.702  0.0000  0.0000  0.0000
   98UNL      N  416   0.737   0.571   3.486  0.0000  0.0000  0.0000
   98UNL      S  417   0.692   0.534   3.635  0.0000  0.0000  0.0000
   99UNL      C  418   0.845   0.765   3.098  0.0000  0.0000  0.0000
   99UNL      S  419   0.873   0.929   3.047  0.0000  0.0000  0.0000
   99UNL      C  420   0.860   0.675   2.984  0.0000  0.0000  0.0000
   99UNL      O  421   0.846   0.554   2.985  0.0000  0.0000  0.0000
   99UNL      N  422   0.895   0.745   2.869  0.0000  0.0000  0.0000
   99UNL      C  423   0.906   0.882   2.880  0.0000  0.0000  0.0000
   99UNL      C  424   0.907   0.677   2.740  0.0000  0.0000  0.0000
   99UNL      C  425   0.776   0.668   2.670  0.0000  0.0000  0.0000
   99UNL      S  426   0.942   0.988   2.765  0.0000  0.0000  0.0000
  100UNL      C  427   0.823   1.314   4.039  0.0000  0.0000  0.0000
  100UNL      C  428   0.949   1.402   4.051  0.0000  0.0000  0.0000
  100UNL      C  429   1.017   1.429   3.916  0.0000  0.0000  0.0000
  100UNL      C  430   1.084   1.307   3.851  0.0000  0.0000  0.0000
  100UNL      C  431   1.162   1.322   3.719  0.0000  0.0000  0.0000
  100UNL      C  432   1.064   1.341   3.602  0.0000  0.0000  0.0000
  100UNL      C  433   1.147   1.362   3.474  0.0000  0.0000  0.0000
  100UNL      C  434   0.346   1.275   3.849  0.0000  0.0000  0.0000
  100UNL      C  435   0.245   1.333   3.755  0.0000  0.0000  0.0000
  100UNL      C  436   0.295   1.326   3.609  0.0000  0.0000  0.0000
  100UNL      C  437   0.186   1.366   3.504  0.0000  0.0000  0.0000
  100UNL      C  438   0.246   1.355   3.362  0.0000  0.0000  0.0000
  100UNL      C  439   0.137   1.384   3.256  0.0000  0.0000  0.0000
  100UNL      C  440   0.187   1.352   3.109  0.0000  0.0000  0.0000
  101UNL      C  441   0.253   0.931   2.731  0.0000  0.0000  0.0000
  101UNL      C  442   0.239   0.826   2.834  0.0000  0.0000  0.0000
  101UNL      N  443   0.309   0.876   2.615  0.0000  0.0000  0.0000
  101UNL      S  444   0.294   0.674   2.773  0.0000  0.0000  0.0000
  101UNL      C  445   0.339   0.742   2.618  0.0000  0.0000  0.0000
  101UNL      C  446   0.332   0.963   2.498  0.0000  0.0000  0.0000
  101UNL      S  447   0.406   0.654   2.499  0.0000  0.0000  0.0000
  101UNL      O  448   0.221   1.046   2.741  0.0000  0.0000  0.0000
  101UNL      C  449   0.193   0.861   2.958  0.0000  0.0000  0.0000
  102UNL      C  450   0.166   0.780   3.074  0.0000  0.0000  0.0000
  102UNL      C  451   0.168   0.643   3.081  0.0000  0.0000  0.0000
  102UNL      C  452   0.133   0.848   3.194  0.0000  0.0000  0.0000
  102UNL      C  453   0.140   0.573   3.200  0.0000  0.0000  0.0000
  102UNL      C  454   0.108   0.634   3.344  0.0000  0.0000  0.0000
  102UNL      C  455   0.105   0.778   3.339  0.0000  0.0000  0.0000
  102UNL      N  456   0.123   0.983   3.209  0.0000  0.0000  0.0000
  102UNL      N  457   0.073   0.859   3.442  0.0000  0.0000  0.0000
  102UNL      S  458   0.080   1.011   3.386  0.0000  0.0000  0.0000
  103UNL      C  459   0.077   0.558   3.462  0.0000  0.0000  0.0000
  103UNL      C  460   0.071   0.421   3.475  0.0000  0.0000  0.0000
  103UNL      C  461   0.029   0.380   3.603  0.0000  0.0000  0.0000
  103UNL      C  462   0.004   0.486   3.686  0.0000  0.0000  0.0000
  103UNL      S  463   0.031   0.637   3.612  0.0000  0.0000  0.0000
  104UNL      C  464  -0.046   0.441   3.815  0.0000  0.0000  0.0000
  104UNL      C  465  -0.052   0.300   3.807  0.0000  0.0000  0.0000
  105UNL      C  466  -0.000   0.248   3.671  0.0000  0.0000  0.0000
  106UNL      C  467  -0.099   0.227   3.914  0.0000  0.0000  0.0000
  107UNL      C  468   0.127   0.163   3.692  0.0000  0.0000  0.0000
  107UNL      C  469  -0.108   0.168   3.597  0.0000  0.0000  0.0000
  107UNL      C  470  -0.234   0.241   3.563  0.0000  0.0000  0.0000
  107UNL      C  471   0.240   0.233   3.764  0.0000  0.0000  0.0000
  107UNL      C  472  -0.338   0.152   3.503  0.0000  0.0000  0.0000
  107UNL      C  473  -0.466   0.221   3.466  0.0000  0.0000  0.0000
  107UNL      C  474  -0.580   0.141   3.410  0.0000  0.0000  0.0000
  107UNL      C  475  -0.602  -0.005   3.432  0.0000  0.0000  0.0000
  107UNL      C  476  -0.710  -0.109   3.434  0.0000  0.0000  0.0000
  107UNL      C  477  -0.689  -0.231   3.349  0.0000  0.0000  0.0000
  107UNL      C  478   0.366   0.153   3.788  0.0000  0.0000  0.0000
  107UNL      C  479   0.468   0.232   3.865  0.0000  0.0000  0.0000
  107UNL      C  480   0.603   0.167   3.885  0.0000  0.0000  0.0000
  107UNL      C  481   0.699   0.258   3.956  0.0000  0.0000  0.0000
  107UNL      C  482   0.831   0.189   3.980  0.0000  0.0000  0.0000
  107UNL      C  483   0.917   0.187   3.856  0.0000  0.0000  0.0000
  108UNL      C  484  -0.085   0.510   3.927  0.0000  0.0000  0.0000
  108UNL      C  485  -0.133   0.438   4.034  0.0000  0.0000  0.0000
  109UNL      C  486   0.206   0.967   2.411  0.0000  0.0000  0.0000
  110UNL      C  487  -0.139   0.296   4.028  0.0000  0.0000  0.0000
  111UNL      C  488  -0.193   0.252   4.156  0.0000  0.0000  0.0000
  112UNL      C  489  -0.183   0.491   4.169  0.0000  0.0000  0.0000
  113UNL      C  490  -0.219   0.360   4.237  0.0000  0.0000  0.0000
  114UNL      C  491  -0.071   0.566   4.244  0.0000  0.0000  0.0000
  114UNL      C  492  -0.306   0.584   4.151  0.0000  0.0000  0.0000
  115UNL      S  493  -0.228   0.104   4.232  0.0000  0.0000  0.0000
  115UNL      C  494  -0.278   0.187   4.378  0.0000  0.0000  0.0000
  115UNL      C  495  -0.267   0.324   4.363  0.0000  0.0000  0.0000
  116UNL      C  496  -0.319   0.118   4.498  0.0000  0.0000  0.0000
  116UNL      C  497  -0.361   0.190   4.609  0.0000  0.0000  0.0000
  116UNL      C  498  -0.391   0.128   4.735  0.0000  0.0000  0.0000
  116UNL      C  499  -0.385  -0.009   4.753  0.0000  0.0000  0.0000
  116UNL      C  500  -0.316  -0.024   4.513  0.0000  0.0000  0.0000
  116UNL      C  501  -0.349  -0.086   4.638  0.0000  0.0000  0.0000
  117UNL      C  502  -0.411  -0.078   4.877  0.0000  0.0000  0.0000
  118UNL      N  503  -0.281  -0.113   4.418  0.0000  0.0000  0.0000
  118UNL      N  504  -0.336  -0.221   4.634  0.0000  0.0000  0.0000
  118UNL      S  505  -0.290  -0.258   4.485  0.0000  0.0000  0.0000
  119UNL      C  506  -0.444  -0.027   4.999  0.0000  0.0000  0.0000
  119UNL      S  507  -0.471   0.137   5.050  0.0000  0.0000  0.0000
  119UNL      C  508  -0.458  -0.118   5.113  0.0000  0.0000  0.0000
  119UNL      O  509  -0.445  -0.238   5.112  0.0000  0.0000  0.0000
  119UNL      N  510  -0.493  -0.047   5.228  0.0000  0.0000  0.0000
  119UNL      C  511  -0.504   0.090   5.217  0.0000  0.0000  0.0000
  119UNL      C  512  -0.505  -0.116   5.357  0.0000  0.0000  0.0000
  119UNL      C  513  -0.374  -0.125   5.427  0.0000  0.0000  0.0000
  119UNL      S  514  -0.541   0.195   5.332  0.0000  0.0000  0.0000
  120UNL      C  515  -0.422   0.521   4.081  0.0000  0.0000  0.0000
  120UNL      C  516  -0.548   0.610   4.070  0.0000  0.0000  0.0000
  120UNL      C  517  -0.616   0.637   4.205  0.0000  0.0000  0.0000
  120UNL      C  518  -0.683   0.514   4.269  0.0000  0.0000  0.0000
  120UNL      C  519  -0.760   0.530   4.401  0.0000  0.0000  0.0000
  120UNL      C  520  -0.663   0.548   4.518  0.0000  0.0000  0.0000
  120UNL      C  521  -0.745   0.570   4.646  0.0000  0.0000  0.0000
  120UNL      C  522   0.055   0.482   4.271  0.0000  0.0000  0.0000
  120UNL      C  523   0.156   0.541   4.365  0.0000  0.0000  0.0000
  120UNL      C  524   0.106   0.534   4.512  0.0000  0.0000  0.0000
  120UNL      C  525   0.216   0.573   4.616  0.0000  0.0000  0.0000
  120UNL      C  526   0.155   0.563   4.758  0.0000  0.0000  0.0000
  120UNL      C  527   0.264   0.591   4.864  0.0000  0.0000  0.0000
  120UNL      C  528   0.214   0.559   5.011  0.0000  0.0000  0.0000
  121UNL      C  529   0.058  -0.139   4.379  0.0000  0.0000  0.0000
  121UNL      C  530   0.043  -0.034   4.482  0.0000  0.0000  0.0000
  121UNL      N  531   0.114  -0.084   4.262  0.0000  0.0000  0.0000
  121UNL      S  532   0.099   0.119   4.420  0.0000  0.0000  0.0000
  121UNL      C  533   0.144   0.050   4.265  0.0000  0.0000  0.0000
  121UNL      C  534   0.136  -0.170   4.146  0.0000  0.0000  0.0000
  121UNL      S  535   0.211   0.138   4.147  0.0000  0.0000  0.0000
  121UNL      O  536   0.025  -0.254   4.388  0.0000  0.0000  0.0000
  121UNL      C  537  -0.002  -0.069   4.605  0.0000  0.0000  0.0000
  122UNL      C  538  -0.029   0.012   4.722  0.0000  0.0000  0.0000
  122UNL      C  539  -0.028   0.149   4.729  0.0000  0.0000  0.0000
  122UNL      C  540  -0.062  -0.056   4.842  0.0000  0.0000  0.0000
  122UNL      C  541  -0.055   0.220   4.847  0.0000  0.0000  0.0000
  122UNL      C  542  -0.087   0.158   4.968  0.0000  0.0000  0.0000
  122UNL      C  543  -0.091   0.015   4.963  0.0000  0.0000  0.0000
  122UNL      N  544  -0.072  -0.191   4.856  0.0000  0.0000  0.0000
  122UNL      N  545  -0.122  -0.067   5.067  0.0000  0.0000  0.0000
  122UNL      S  546  -0.115  -0.218   5.010  0.0000  0.0000  0.0000
  123UNL      C  547  -0.118   0.234   5.087  0.0000  0.0000  0.0000
  123UNL      C  548  -0.124   0.371   5.100  0.0000  0.0000  0.0000
  123UNL      C  549  -0.166   0.412   5.227  0.0000  0.0000  0.0000
  123UNL      C  550  -0.191   0.306   5.310  0.0000  0.0000  0.0000
  123UNL      S  551  -0.164   0.155   5.237  0.0000  0.0000  0.0000
  124UNL      C  552  -0.242   0.351   5.439  0.0000  0.0000  0.0000
  124UNL      C  553  -0.247   0.492   5.432  0.0000  0.0000  0.0000
  125UNL      C  554  -0.195   0.545   5.295  0.0000  0.0000  0.0000
  126UNL      C  555  -0.294   0.565   5.538  0.0000  0.0000  0.0000
  127UNL      C  556  -0.068   0.630   5.317  0.0000  0.0000  0.0000
  127UNL      C  557  -0.303   0.624   5.221  0.0000  0.0000  0.0000
  127UNL      C  558  -0.429   0.552   5.187  0.0000  0.0000  0.0000
  127UNL      C  559   0.045   0.560   5.389  0.0000  0.0000  0.0000
  127UNL      C  560  -0.533   0.641   5.127  0.0000  0.0000  0.0000
  127UNL      C  561  -0.661   0.571   5.090  0.0000  0.0000  0.0000
  127UNL      C  562  -0.775   0.651   5.034  0.0000  0.0000  0.0000
  127UNL      C  563  -0.797   0.798   5.056  0.0000  0.0000  0.0000
  127UNL      C  564  -0.905   0.901   5.058  0.0000  0.0000  0.0000
  127UNL      C  565  -0.884   1.023   4.973  0.0000  0.0000  0.0000
  127UNL      C  566   0.171   0.640   5.412  0.0000  0.0000  0.0000
  127UNL      C  567   0.273   0.560   5.489  0.0000  0.0000  0.0000
  127UNL      C  568   0.408   0.625   5.509  0.0000  0.0000  0.0000
  127UNL      C  569   0.504   0.534   5.580  0.0000  0.0000  0.0000
  127UNL      C  570   0.636   0.604   5.604  0.0000  0.0000  0.0000
  127UNL      C  571   0.722   0.605   5.481  0.0000  0.0000  0.0000
  128UNL      C  572  -0.281   0.282   5.551  0.0000  0.0000  0.0000
  128UNL      C  573  -0.328   0.354   5.658  0.0000  0.0000  0.0000
  129UNL      C  574   0.011  -0.175   4.059  0.0000  0.0000  0.0000
  130UNL      C  575  -0.334   0.496   5.652  0.0000  0.0000  0.0000
  131UNL      C  576  -0.388   0.540   5.780  0.0000  0.0000  0.0000
  132UNL      C  577  -0.378   0.302   5.793  0.0000  0.0000  0.0000
  133UNL      C  578  -0.414   0.432   5.861  0.0000  0.0000  0.0000
  134UNL      C  579  -0.266   0.227   5.869  0.0000  0.0000  0.0000
  134UNL      C  580  -0.501   0.209   5.776  0.0000  0.0000  0.0000
  135UNL      S  581  -0.424   0.689   5.857  0.0000  0.0000  0.0000
  135UNL      C  582  -0.473   0.606   6.002  0.0000  0.0000  0.0000
  135UNL      C  583  -0.462   0.469   5.987  0.0000  0.0000  0.0000
  136UNL      C  584  -0.514   0.674   6.122  0.0000  0.0000  0.0000
  136UNL      C  585  -0.556   0.603   6.233  0.0000  0.0000  0.0000
  136UNL      C  586  -0.586   0.664   6.359  0.0000  0.0000  0.0000
  136UNL      C  587  -0.580   0.801   6.377  0.0000  0.0000  0.0000
  136UNL      C  588  -0.511   0.817   6.137  0.0000  0.0000  0.0000
  136UNL      C  589  -0.544   0.878   6.262  0.0000  0.0000  0.0000
  137UNL      C  590  -0.606   0.870   6.525  0.0000  0.0000  0.0000
  138UNL      N  591  -0.476   0.905   6.042  0.0000  0.0000  0.0000
  138UNL      N  592  -0.531   1.014   6.258  0.0000  0.0000  0.0000
  138UNL      S  593  -0.485   1.051   6.110  0.0000  0.0000  0.0000
  139UNL      C  594  -0.639   0.820   6.646  0.0000  0.0000  0.0000
  139UNL      S  595  -0.666   0.655   6.698  0.0000  0.0000  0.0000
  139UNL      C  596  -0.654   0.910   6.761  0.0000  0.0000  0.0000
  139UNL      O  597  -0.640   1.031   6.759  0.0000  0.0000  0.0000
  139UNL      N  598  -0.688   0.840   6.876  0.0000  0.0000  0.0000
  139UNL      C  599  -0.699   0.703   6.864  0.0000  0.0000  0.0000
  139UNL      C  600  -0.701   0.908   7.005  0.0000  0.0000  0.0000
  139UNL      C  601  -0.569   0.917   7.074  0.0000  0.0000  0.0000
  139UNL      S  602  -0.736   0.597   6.980  0.0000  0.0000  0.0000
  140UNL      C  603  -0.617   0.271   5.705  0.0000  0.0000  0.0000
  140UNL      C  604  -0.743   0.183   5.694  0.0000  0.0000  0.0000
  140UNL      C  605  -0.811   0.155   5.829  0.0000  0.0000  0.0000
  140UNL      C  606  -0.878   0.278   5.893  0.0000  0.0000  0.0000
  140UNL      C  607  -0.956   0.263   6.025  0.0000  0.0000  0.0000
  140UNL      C  608  -0.858   0.244   6.143  0.0000  0.0000  0.0000
  140UNL      C  609  -0.940   0.223   6.270  0.0000  0.0000  0.0000
  140UNL      C  610  -0.140   0.310   5.895  0.0000  0.0000  0.0000
  140UNL      C  611  -0.039   0.252   5.990  0.0000  0.0000  0.0000
  140UNL      C  612  -0.089   0.259   6.136  0.0000  0.0000  0.0000
  140UNL      C  613   0.021   0.219   6.241  0.0000  0.0000  0.0000
  140UNL      C  614  -0.040   0.229   6.383  0.0000  0.0000  0.0000
  140UNL      C  615   0.069   0.201   6.488  0.0000  0.0000  0.0000
  140UNL      C  616   0.019   0.233   6.635  0.0000  0.0000  0.0000
  141UNL      C  617  -0.047   0.654   7.013  0.0000  0.0000  0.0000
  141UNL      C  618  -0.033   0.759   6.910  0.0000  0.0000  0.0000
  141UNL      N  619  -0.103   0.709   7.130  0.0000  0.0000  0.0000
  141UNL      S  620  -0.088   0.911   6.972  0.0000  0.0000  0.0000
  141UNL      C  621  -0.133   0.843   7.127  0.0000  0.0000  0.0000
  141UNL      C  622  -0.125   0.622   7.246  0.0000  0.0000  0.0000
  141UNL      S  623  -0.200   0.931   7.245  0.0000  0.0000  0.0000
  141UNL      O  624  -0.015   0.538   7.004  0.0000  0.0000  0.0000
  141UNL      C  625   0.013   0.724   6.787  0.0000  0.0000  0.0000
  142UNL      C  626   0.040   0.805   6.670  0.0000  0.0000  0.0000
  142UNL      C  627   0.039   0.942   6.663  0.0000  0.0000  0.0000
  142UNL      C  628   0.073   0.737   6.550  0.0000  0.0000  0.0000
  142UNL      C  629   0.066   1.012   6.545  0.0000  0.0000  0.0000
  142UNL      C  630   0.098   0.951   6.401  0.0000  0.0000  0.0000
  142UNL      C  631   0.102   0.807   6.406  0.0000  0.0000  0.0000
  142UNL      N  632   0.083   0.602   6.536  0.0000  0.0000  0.0000
  142UNL      N  633   0.133   0.725   6.302  0.0000  0.0000  0.0000
  142UNL      S  634   0.126   0.574   6.359  0.0000  0.0000  0.0000
  143UNL      C  635   0.130   1.026   6.282  0.0000  0.0000  0.0000
  143UNL      C  636   0.135   1.164   6.269  0.0000  0.0000  0.0000
  143UNL      C  637   0.177   1.204   6.141  0.0000  0.0000  0.0000
  143UNL      C  638   0.202   1.099   6.058  0.0000  0.0000  0.0000
  143UNL      S  639   0.175   0.948   6.132  0.0000  0.0000  0.0000
  144UNL      C  640   0.253   1.144   5.930  0.0000  0.0000  0.0000
  144UNL      C  641   0.258   1.285   5.937  0.0000  0.0000  0.0000
  145UNL      C  642   0.206   1.337   6.073  0.0000  0.0000  0.0000
  146UNL      C  643   0.305   1.358   5.831  0.0000  0.0000  0.0000
  147UNL      C  644   0.079   1.422   6.052  0.0000  0.0000  0.0000
  147UNL      C  645   0.314   1.417   6.147  0.0000  0.0000  0.0000
  147UNL      C  646   0.440   1.344   6.181  0.0000  0.0000  0.0000
  147UNL      C  647  -0.034   1.352   5.980  0.0000  0.0000  0.0000
  147UNL      C  648   0.544   1.433   6.242  0.0000  0.0000  0.0000
  147UNL      C  649   0.672   1.364   6.278  0.0000  0.0000  0.0000
  147UNL      C  650   0.786   1.443   6.335  0.0000  0.0000  0.0000
  147UNL      C  651   0.808   1.590   6.313  0.0000  0.0000  0.0000
  147UNL      C  652   0.916   1.694   6.311  0.0000  0.0000  0.0000
  147UNL      C  653   0.895   1.815   6.395  0.0000  0.0000  0.0000
  147UNL      C  654  -0.159   1.432   5.956  0.0000  0.0000  0.0000
  147UNL      C  655  -0.262   1.353   5.880  0.0000  0.0000  0.0000
  147UNL      C  656  -0.397   1.418   5.859  0.0000  0.0000  0.0000
  147UNL      C  657  -0.493   1.327   5.788  0.0000  0.0000  0.0000
  147UNL      C  658  -0.625   1.396   5.764  0.0000  0.0000  0.0000
  147UNL      C  659  -0.711   1.398   5.888  0.0000  0.0000  0.0000
  148UNL      C  660   0.292   1.075   5.817  0.0000  0.0000  0.0000
  148UNL      C  661   0.339   1.147   5.711  0.0000  0.0000  0.0000
  149UNL      C  662  -0.000   0.617   7.333  0.0000  0.0000  0.0000
  150UNL      C  663   0.345   1.289   5.717  0.0000  0.0000  0.0000
  151UNL      C  664   0.399   1.333   5.588  0.0000  0.0000  0.0000
  152UNL      C  665   0.389   1.094   5.576  0.0000  0.0000  0.0000
  153UNL      C  666   0.425   1.225   5.508  0.0000  0.0000  0.0000
  154UNL      C  667   0.277   1.019   5.500  0.0000  0.0000  0.0000
  154UNL      C  668   0.512   1.001   5.593  0.0000  0.0000  0.0000
  155UNL      S  669   0.435   1.481   5.512  0.0000  0.0000  0.0000
  155UNL      C  670   0.485   1.398   5.366  0.0000  0.0000  0.0000
  155UNL      C  671   0.474   1.261   5.382  0.0000  0.0000  0.0000
  156UNL      C  672   0.525   1.467   5.246  0.0000  0.0000  0.0000
  156UNL      C  673   0.567   1.395   5.135  0.0000  0.0000  0.0000
  156UNL      C  674   0.597   1.457   5.010  0.0000  0.0000  0.0000
  156UNL      C  675   0.591   1.593   4.991  0.0000  0.0000  0.0000
  156UNL      C  676   0.522   1.609   5.231  0.0000  0.0000  0.0000
  156UNL      C  677   0.555   1.671   5.107  0.0000  0.0000  0.0000
  157UNL      C  678   0.617   1.662   4.867  0.0000  0.0000  0.0000
  158UNL      N  679   0.487   1.698   5.327  0.0000  0.0000  0.0000
  158UNL      N  680   0.542   1.806   5.110  0.0000  0.0000  0.0000
  158UNL      S  681   0.497   1.843   5.259  0.0000  0.0000  0.0000
  159UNL      C  682   0.650   1.612   4.746  0.0000  0.0000  0.0000
  159UNL      S  683   0.677   1.448   4.694  0.0000  0.0000  0.0000
  159UNL      C  684   0.664   1.703   4.631  0.0000  0.0000  0.0000
  159UNL      O  685   0.651   1.823   4.633  0.0000  0.0000  0.0000
  159UNL      N  686   0.699   1.632   4.516  0.0000  0.0000  0.0000
  159UNL      C  687   0.710   1.495   4.528  0.0000  0.0000  0.0000
  159UNL      C  688   0.712   1.701   4.388  0.0000  0.0000  0.0000
  159UNL      C  689   0.580   1.709   4.318  0.0000  0.0000  0.0000
  159UNL      S  690   0.747   1.390   4.412  0.0000  0.0000  0.0000
  160UNL      C  691   0.628   1.063   5.663  0.0000  0.0000  0.0000
  160UNL      C  692   0.754   0.975   5.675  0.0000  0.0000  0.0000
  160UNL      C  693   0.822   0.948   5.540  0.0000  0.0000  0.0000
  160UNL      C  694   0.889   1.070   5.475  0.0000  0.0000  0.0000
  160UNL      C  695   0.967   1.055   5.343  0.0000  0.0000  0.0000
  160UNL      C  696   0.869   1.037   5.226  0.0000  0.0000  0.0000
  160UNL      C  697   0.952   1.015   5.098  0.0000  0.0000  0.0000
  160UNL      C  698   0.151   1.102   5.474  0.0000  0.0000  0.0000
  160UNL      C  699   0.050   1.044   5.379  0.0000  0.0000  0.0000
  160UNL      C  700   0.100   1.051   5.233  0.0000  0.0000  0.0000
  160UNL      C  701  -0.010   1.011   5.128  0.0000  0.0000  0.0000
  160UNL      C  702   0.051   1.022   4.986  0.0000  0.0000  0.0000
  160UNL      C  703  -0.058   0.993   4.880  0.0000  0.0000  0.0000
  160UNL      C  704  -0.008   1.025   4.733  0.0000  0.0000  0.0000
  161UNL      C  705   0.538   3.309   2.118  0.0000  0.0000  0.0000
  161UNL      C  706   0.553   3.203   2.015  0.0000  0.0000  0.0000
  161UNL      N  707   0.482   3.254   2.234  0.0000  0.0000  0.0000
  161UNL      S  708   0.497   3.051   2.076  0.0000  0.0000  0.0000
  161UNL      C  709   0.452   3.120   2.231  0.0000  0.0000  0.0000
  161UNL      C  710   0.460   3.340   2.351  0.0000  0.0000  0.0000
  161UNL      S  711   0.385   3.032   2.350  0.0000  0.0000  0.0000
  161UNL      O  712   0.571   3.424   2.108  0.0000  0.0000  0.0000
  161UNL      C  713   0.598   3.239   1.891  0.0000  0.0000  0.0000
  162UNL      C  714   0.625   3.158   1.775  0.0000  0.0000  0.0000
  162UNL      C  715   0.624   3.021   1.768  0.0000  0.0000  0.0000
  162UNL      C  716   0.659   3.226   1.654  0.0000  0.0000  0.0000
  162UNL      C  717   0.651   2.950   1.649  0.0000  0.0000  0.0000
  162UNL      C  718   0.683   3.011   1.528  0.0000  0.0000  0.0000
  162UNL      C  719   0.687   3.155   1.533  0.0000  0.0000  0.0000
  162UNL      N  720   0.668   3.360   1.640  0.0000  0.0000  0.0000
  162UNL      N  721   0.718   3.237   1.430  0.0000  0.0000  0.0000
  162UNL      S  722   0.711   3.388   1.486  0.0000  0.0000  0.0000
  163UNL      C  723   0.715   2.936   1.410  0.0000  0.0000  0.0000
  163UNL      C  724   0.720   2.799   1.397  0.0000  0.0000  0.0000
  163UNL      C  725   0.762   2.758   1.269  0.0000  0.0000  0.0000
  163UNL      C  726   0.787   2.864   1.186  0.0000  0.0000  0.0000
  163UNL      S  727   0.760   3.014   1.260  0.0000  0.0000  0.0000
  164UNL      C  728   0.838   2.818   1.058  0.0000  0.0000  0.0000
  164UNL      C  729   0.843   2.678   1.065  0.0000  0.0000  0.0000
  165UNL      C  730   0.792   2.625   1.201  0.0000  0.0000  0.0000
  166UNL      C  731   0.890   2.605   0.958  0.0000  0.0000  0.0000
  167UNL      C  732   0.664   2.540   1.180  0.0000  0.0000  0.0000
  167UNL      C  733   0.899   2.545   1.275  0.0000  0.0000  0.0000
  167UNL      C  734   1.025   2.618   1.309  0.0000  0.0000  0.0000
  167UNL      C  735   0.552   2.610   1.108  0.0000  0.0000  0.0000
  167UNL      C  736   1.130   2.529   1.370  0.0000  0.0000  0.0000
  167UNL      C  737   1.257   2.599   1.406  0.0000  0.0000  0.0000
  167UNL      C  738   1.371   2.519   1.462  0.0000  0.0000  0.0000
  167UNL      C  739   1.393   2.372   1.441  0.0000  0.0000  0.0000
  167UNL      C  740   1.501   2.268   1.438  0.0000  0.0000  0.0000
  167UNL      C  741   1.480   2.147   1.523  0.0000  0.0000  0.0000
  167UNL      C  742   0.426   2.530   1.084  0.0000  0.0000  0.0000
  167UNL      C  743   0.323   2.610   1.008  0.0000  0.0000  0.0000
  167UNL      C  744   0.189   2.545   0.987  0.0000  0.0000  0.0000
  167UNL      C  745   0.092   2.636   0.916  0.0000  0.0000  0.0000
  167UNL      C  746  -0.039   2.566   0.892  0.0000  0.0000  0.0000
  167UNL      C  747  -0.126   2.564   1.016  0.0000  0.0000  0.0000
  168UNL      C  748   0.877   2.887   0.945  0.0000  0.0000  0.0000
  168UNL      C  749   0.924   2.815   0.838  0.0000  0.0000  0.0000
  169UNL      C  750   0.585   3.345   2.438  0.0000  0.0000  0.0000
  170UNL      C  751   0.930   2.674   0.845  0.0000  0.0000  0.0000
  171UNL      C  752   0.984   2.629   0.716  0.0000  0.0000  0.0000
  172UNL      C  753   0.974   2.868   0.703  0.0000  0.0000  0.0000
  173UNL      C  754   1.010   2.738   0.635  0.0000  0.0000  0.0000
  174UNL      C  755   0.862   2.943   0.628  0.0000  0.0000  0.0000
  174UNL      C  756   1.097   2.961   0.721  0.0000  0.0000  0.0000
  175UNL      S  757   1.020   2.481   0.640  0.0000  0.0000  0.0000
  175UNL      C  758   1.070   2.564   0.494  0.0000  0.0000  0.0000
  175UNL      C  759   1.059   2.701   0.510  0.0000  0.0000  0.0000
  176UNL      C  760   1.110   2.495   0.374  0.0000  0.0000  0.0000
  176UNL      C  761   1.153   2.567   0.263  0.0000  0.0000  0.0000
  176UNL      C  762   1.182   2.505   0.138  0.0000  0.0000  0.0000
  176UNL      C  763   1.176   2.369   0.119  0.0000  0.0000  0.0000
  176UNL      C  764   1.107   2.353   0.359  0.0000  0.0000  0.0000
  176UNL      C  765   1.140   2.291   0.235  0.0000  0.0000  0.0000
  177UNL      C  766   1.202   2.300  -0.029  0.0000  0.0000  0.0000
  178UNL      N  767   1.072   2.264   0.454  0.0000  0.0000  0.0000
  178UNL      N  768   1.127   2.156   0.238  0.0000  0.0000  0.0000
  178UNL      S  769   1.082   2.119   0.387  0.0000  0.0000  0.0000
  179UNL      C  770   1.235   2.350  -0.150  0.0000  0.0000  0.0000
  179UNL      S  771   1.263   2.514  -0.201  0.0000  0.0000  0.0000
  179UNL      C  772   1.250   2.260  -0.264  0.0000  0.0000  0.0000
  179UNL      O  773   1.236   2.139  -0.263  0.0000  0.0000  0.0000
  179UNL      N  774   1.285   2.330  -0.379  0.0000  0.0000  0.0000
  179UNL      C  775   1.296   2.467  -0.368  0.0000  0.0000  0.0000
  179UNL      C  776   1.297   2.262  -0.508  0.0000  0.0000  0.0000
  179UNL      C  777   1.166   2.253  -0.578  0.0000  0.0000  0.0000
  179UNL      S  778   1.332   2.573  -0.483  0.0000  0.0000  0.0000
  180UNL      C  779   1.213   2.899   0.791  0.0000  0.0000  0.0000
  180UNL      C  780   1.339   2.987   0.803  0.0000  0.0000  0.0000
  180UNL      C  781   1.407   3.014   0.668  0.0000  0.0000  0.0000
  180UNL      C  782   1.474   2.892   0.603  0.0000  0.0000  0.0000
  180UNL      C  783   1.552   2.907   0.471  0.0000  0.0000  0.0000
  180UNL      C  784   1.454   2.926   0.354  0.0000  0.0000  0.0000
  180UNL      C  785   1.537   2.947   0.226  0.0000  0.0000  0.0000
  180UNL      C  786   0.736   2.860   0.601  0.0000  0.0000  0.0000
  180UNL      C  787   0.635   2.918   0.507  0.0000  0.0000  0.0000
  180UNL      C  788   0.685   2.911   0.361  0.0000  0.0000  0.0000
  180UNL      C  789   0.576   2.951   0.256  0.0000  0.0000  0.0000
  180UNL      C  790   0.636   2.940   0.114  0.0000  0.0000  0.0000
  180UNL      C  791   0.527   2.969   0.008  0.0000  0.0000  0.0000
  180UNL      C  792   0.577   2.937  -0.139  0.0000  0.0000  0.0000
  181UNL      C  793   0.643   2.516  -0.517  0.0000  0.0000  0.0000
  181UNL      C  794   0.629   2.411  -0.414  0.0000  0.0000  0.0000
  181UNL      N  795   0.699   2.461  -0.633  0.0000  0.0000  0.0000
  181UNL      S  796   0.684   2.259  -0.475  0.0000  0.0000  0.0000
  181UNL      C  797   0.729   2.327  -0.630  0.0000  0.0000  0.0000
  181UNL      C  798   0.722   2.548  -0.750  0.0000  0.0000  0.0000
  181UNL      S  799   0.796   2.239  -0.749  0.0000  0.0000  0.0000
  181UNL      O  800   0.611   2.631  -0.507  0.0000  0.0000  0.0000
  181UNL      C  801   0.583   2.446  -0.290  0.0000  0.0000  0.0000
  182UNL      C  802   0.556   2.365  -0.174  0.0000  0.0000  0.0000
  182UNL      C  803   0.558   2.228  -0.167  0.0000  0.0000  0.0000
  182UNL      C  804   0.523   2.433  -0.054  0.0000  0.0000  0.0000
  182UNL      C  805   0.530   2.158  -0.048  0.0000  0.0000  0.0000
  182UNL      C  806   0.498   2.219   0.096  0.0000  0.0000  0.0000
  182UNL      C  807   0.495   2.363   0.091  0.0000  0.0000  0.0000
  182UNL      N  808   0.513   2.568  -0.039  0.0000  0.0000  0.0000
  182UNL      N  809   0.463   2.444   0.194  0.0000  0.0000  0.0000
  182UNL      S  810   0.470   2.596   0.138  0.0000  0.0000  0.0000
  183UNL      C  811   0.467   2.143   0.214  0.0000  0.0000  0.0000
  183UNL      C  812   0.461   2.006   0.227  0.0000  0.0000  0.0000
  183UNL      C  813   0.419   1.965   0.355  0.0000  0.0000  0.0000
  183UNL      C  814   0.394   2.071   0.438  0.0000  0.0000  0.0000
  183UNL      S  815   0.421   2.222   0.364  0.0000  0.0000  0.0000
  184UNL      C  816   0.344   2.026   0.567  0.0000  0.0000  0.0000
  184UNL      C  817   0.338   1.885   0.559  0.0000  0.0000  0.0000
  185UNL      C  818   0.390   1.833   0.423  0.0000  0.0000  0.0000
  186UNL      C  819   0.291   1.812   0.666  0.0000  0.0000  0.0000
  187UNL      C  820   0.517   1.748   0.444  0.0000  0.0000  0.0000
  187UNL      C  821   0.282   1.753   0.349  0.0000  0.0000  0.0000
  187UNL      C  822   0.156   1.826   0.315  0.0000  0.0000  0.0000
  187UNL      C  823   0.630   1.818   0.516  0.0000  0.0000  0.0000
  187UNL      C  824   0.052   1.737   0.255  0.0000  0.0000  0.0000
  187UNL      C  825  -0.076   1.806   0.218  0.0000  0.0000  0.0000
  187UNL      C  826  -0.190   1.726   0.162  0.0000  0.0000  0.0000
  187UNL      C  827  -0.212   1.580   0.184  0.0000  0.0000  0.0000
  187UNL      C  828  -0.320   1.476   0.186  0.0000  0.0000  0.0000
  187UNL      C  829  -0.299   1.354   0.101  0.0000  0.0000  0.0000
  187UNL      C  830   0.756   1.738   0.540  0.0000  0.0000  0.0000
  187UNL      C  831   0.858   1.817   0.617  0.0000  0.0000  0.0000
  187UNL      C  832   0.993   1.752   0.637  0.0000  0.0000  0.0000
  187UNL      C  833   1.089   1.843   0.708  0.0000  0.0000  0.0000
  187UNL      C  834   1.221   1.774   0.732  0.0000  0.0000  0.0000
  187UNL      C  835   1.307   1.772   0.608  0.0000  0.0000  0.0000
  188UNL      C  836   0.305   2.095   0.679  0.0000  0.0000  0.0000
  188UNL      C  837   0.257   2.023   0.786  0.0000  0.0000  0.0000
  189UNL      C  838   0.596   2.552  -0.837  0.0000  0.0000  0.0000
  190UNL      C  839   0.251   1.881   0.780  0.0000  0.0000  0.0000
  191UNL      C  840   0.197   1.837   0.908  0.0000  0.0000  0.0000
  192UNL      C  841   0.207   2.076   0.921  0.0000  0.0000  0.0000
  193UNL      C  842   0.171   1.945   0.989  0.0000  0.0000  0.0000
  194UNL      C  843   0.319   2.151   0.996  0.0000  0.0000  0.0000
  194UNL      C  844   0.084   2.169   0.903  0.0000  0.0000  0.0000
  195UNL      S  845   0.162   1.689   0.984  0.0000  0.0000  0.0000
  195UNL      C  846   0.112   1.772   1.130  0.0000  0.0000  0.0000
  195UNL      C  847   0.123   1.909   1.115  0.0000  0.0000  0.0000
  196UNL      C  848   0.071   1.703   1.250  0.0000  0.0000  0.0000
  196UNL      C  849   0.029   1.775   1.361  0.0000  0.0000  0.0000
  196UNL      C  850  -0.001   1.713   1.487  0.0000  0.0000  0.0000
  196UNL      C  851   0.005   1.576   1.505  0.0000  0.0000  0.0000
  196UNL      C  852   0.074   1.561   1.265  0.0000  0.0000  0.0000
  196UNL      C  853   0.041   1.499   1.390  0.0000  0.0000  0.0000
  197UNL      C  854  -0.021   1.507   1.629  0.0000  0.0000  0.0000
  198UNL      N  855   0.109   1.472   1.170  0.0000  0.0000  0.0000
  198UNL      N  856   0.054   1.364   1.386  0.0000  0.0000  0.0000
  198UNL      S  857   0.100   1.327   1.237  0.0000  0.0000  0.0000
  199UNL      C  858  -0.054   1.558   1.751  0.0000  0.0000  0.0000
  199UNL      S  859  -0.081   1.722   1.802  0.0000  0.0000  0.0000
  199UNL      C  860  -0.068   1.467   1.865  0.0000  0.0000  0.0000
  199UNL      O  861  -0.055   1.347   1.864  0.0000  0.0000  0.0000
  199UNL      N  862  -0.103   1.538   1.980  0.0000  0.0000  0.0000
  199UNL      C  863  -0.114   1.675   1.969  0.0000  0.0000  0.0000
  199UNL      C  864  -0.115   1.469   2.109  0.0000  0.0000  0.0000
  199UNL      C  865   0.016   1.460   2.179  0.0000  0.0000  0.0000
  199UNL      S  866  -0.151   1.780   2.084  0.0000  0.0000  0.0000
  200UNL      C  867  -0.032   2.106   0.833  0.0000  0.0000  0.0000
  200UNL      C  868  -0.158   2.195   0.822  0.0000  0.0000  0.0000
  200UNL      C  869  -0.226   2.222   0.957  0.0000  0.0000  0.0000
  200UNL      C  870  -0.293   2.099   1.021  0.0000  0.0000  0.0000
  200UNL      C  871  -0.370   2.115   1.153  0.0000  0.0000  0.0000
  200UNL      C  872  -0.273   2.133   1.270  0.0000  0.0000  0.0000
  200UNL      C  873  -0.355   2.155   1.398  0.0000  0.0000  0.0000
  200UNL      C  874   0.445   2.067   1.023  0.0000  0.0000  0.0000
  200UNL      C  875   0.546   2.126   1.117  0.0000  0.0000  0.0000
  200UNL      C  876   0.496   2.119   1.264  0.0000  0.0000  0.0000
  200UNL      C  877   0.606   2.158   1.368  0.0000  0.0000  0.0000
  200UNL      C  878   0.545   2.148   1.510  0.0000  0.0000  0.0000
  200UNL      C  879   0.654   2.176   1.616  0.0000  0.0000  0.0000
  200UNL      C  880   0.604   2.144   1.763  0.0000  0.0000  0.0000
  201UNL      C  881   0.448   1.446   1.131  0.0000  0.0000  0.0000
  201UNL      C  882   0.433   1.551   1.234  0.0000  0.0000  0.0000
  201UNL      N  883   0.504   1.501   1.014  0.0000  0.0000  0.0000
  201UNL      S  884   0.489   1.704   1.172  0.0000  0.0000  0.0000
  201UNL      C  885   0.534   1.635   1.017  0.0000  0.0000  0.0000
  201UNL      C  886   0.526   1.415   0.898  0.0000  0.0000  0.0000
  201UNL      S  887   0.601   1.723   0.899  0.0000  0.0000  0.0000
  201UNL      O  888   0.415   1.331   1.140  0.0000  0.0000  0.0000
  201UNL      C  889   0.388   1.516   1.357  0.0000  0.0000  0.0000
  202UNL      C  890   0.361   1.597   1.474  0.0000  0.0000  0.0000
  202UNL      C  891   0.362   1.734   1.481  0.0000  0.0000  0.0000
  202UNL      C  892   0.328   1.529   1.594  0.0000  0.0000  0.0000
  202UNL      C  893   0.335   1.805   1.599  0.0000  0.0000  0.0000
  202UNL      C  894   0.303   1.743   1.720  0.0000  0.0000  0.0000
  202UNL      C  895   0.299   1.600   1.715  0.0000  0.0000  0.0000
  202UNL      N  896   0.318   1.394   1.608  0.0000  0.0000  0.0000
  202UNL      N  897   0.268   1.518   1.819  0.0000  0.0000  0.0000
  202UNL      S  898   0.275   1.367   1.762  0.0000  0.0000  0.0000
  203UNL      C  899   0.272   1.819   1.839  0.0000  0.0000  0.0000
  203UNL      C  900   0.266   1.956   1.852  0.0000  0.0000  0.0000
  203UNL      C  901   0.224   1.997   1.979  0.0000  0.0000  0.0000
  203UNL      C  902   0.199   1.891   2.062  0.0000  0.0000  0.0000
  203UNL      S  903   0.226   1.740   1.989  0.0000  0.0000  0.0000
  204UNL      C  904   0.148   1.936   2.191  0.0000  0.0000  0.0000
  204UNL      C  905   0.143   2.077   2.184  0.0000  0.0000  0.0000
  205UNL      C  906   0.195   2.130   2.047  0.0000  0.0000  0.0000
  206UNL      C  907   0.096   2.150   2.290  0.0000  0.0000  0.0000
  207UNL      C  908   0.322   2.215   2.069  0.0000  0.0000  0.0000
  207UNL      C  909   0.087   2.209   1.973  0.0000  0.0000  0.0000
  207UNL      C  910  -0.039   2.137   1.939  0.0000  0.0000  0.0000
  207UNL      C  911   0.435   2.145   2.141  0.0000  0.0000  0.0000
  207UNL      C  912  -0.143   2.226   1.879  0.0000  0.0000  0.0000
  207UNL      C  913  -0.271   2.156   1.842  0.0000  0.0000  0.0000
  207UNL      C  914  -0.385   2.236   1.786  0.0000  0.0000  0.0000
  207UNL      C  915  -0.407   2.383   1.808  0.0000  0.0000  0.0000
  207UNL      C  916  -0.515   2.486   1.810  0.0000  0.0000  0.0000
  207UNL      C  917  -0.494   2.608   1.725  0.0000  0.0000  0.0000
  207UNL      C  918   0.561   2.225   2.164  0.0000  0.0000  0.0000
  207UNL      C  919   0.663   2.145   2.241  0.0000  0.0000  0.0000
  207UNL      C  920   0.798   2.210   2.261  0.0000  0.0000  0.0000
  207UNL      C  921   0.894   2.119   2.332  0.0000  0.0000  0.0000
  207UNL      C  922   1.026   2.189   2.356  0.0000  0.0000  0.0000
  207UNL      C  923   1.112   2.190   2.233  0.0000  0.0000  0.0000
  208UNL      C  924   0.109   1.867   2.303  0.0000  0.0000  0.0000
  208UNL      C  925   0.062   1.939   2.410  0.0000  0.0000  0.0000
  209UNL      C  926   0.401   1.410   0.811  0.0000  0.0000  0.0000
  210UNL      C  927   0.056   2.081   2.404  0.0000  0.0000  0.0000
  211UNL      C  928   0.002   2.125   2.532  0.0000  0.0000  0.0000
  212UNL      C  929   0.012   1.887   2.545  0.0000  0.0000  0.0000
  213UNL      C  930  -0.024   2.017   2.613  0.0000  0.0000  0.0000
  214UNL      C  931   0.124   1.812   2.621  0.0000  0.0000  0.0000
  214UNL      C  932  -0.111   1.794   2.528  0.0000  0.0000  0.0000
  215UNL      S  933  -0.034   2.274   2.609  0.0000  0.0000  0.0000
  215UNL      C  934  -0.083   2.191   2.754  0.0000  0.0000  0.0000
  215UNL      C  935  -0.072   2.054   2.739  0.0000  0.0000  0.0000
  216UNL      C  936  -0.124   2.259   2.874  0.0000  0.0000  0.0000
  216UNL      C  937  -0.166   2.188   2.985  0.0000  0.0000  0.0000
  216UNL      C  938  -0.196   2.249   3.111  0.0000  0.0000  0.0000
  216UNL      C  939  -0.190   2.386   3.129  0.0000  0.0000  0.0000
  216UNL      C  940  -0.121   2.402   2.889  0.0000  0.0000  0.0000
  216UNL      C  941  -0.154   2.463   3.014  0.0000  0.0000  0.0000
  217UNL      C  942  -0.216   2.455   3.277  0.0000  0.0000  0.0000
  218UNL      N  943  -0.086   2.490   2.794  0.0000  0.0000  0.0000
  218UNL      N  944  -0.141   2.599   3.010  0.0000  0.0000  0.0000
  218UNL      S  945  -0.095   2.636   2.862  0.0000  0.0000  0.0000
  219UNL      C  946  -0.249   2.405   3.398  0.0000  0.0000  0.0000
  219UNL      S  947  -0.276   2.240   3.450  0.0000  0.0000  0.0000
  219UNL      C  948  -0.264   2.495   3.513  0.0000  0.0000  0.0000
  219UNL      O  949  -0.250   2.616   3.511  0.0000  0.0000  0.0000
  219UNL      N  950  -0.298   2.425   3.628  0.0000  0.0000  0.0000
  219UNL      C  951  -0.309   2.288   3.616  0.0000  0.0000  0.0000
  219UNL      C  952  -0.311   2.493   3.757  0.0000  0.0000  0.0000
  219UNL      C  953  -0.179   2.502   3.826  0.0000  0.0000  0.0000
  219UNL      S  954  -0.346   2.182   3.732  0.0000  0.0000  0.0000
  220UNL      C  955  -0.227   1.856   2.457  0.0000  0.0000  0.0000
  220UNL      C  956  -0.353   1.768   2.446  0.0000  0.0000  0.0000
  220UNL      C  957  -0.421   1.740   2.581  0.0000  0.0000  0.0000
  220UNL      C  958  -0.488   1.863   2.645  0.0000  0.0000  0.0000
  220UNL      C  959  -0.566   1.848   2.777  0.0000  0.0000  0.0000
  220UNL      C  960  -0.468   1.829   2.895  0.0000  0.0000  0.0000
  220UNL      C  961  -0.550   1.808   3.022  0.0000  0.0000  0.0000
  220UNL      C  962   0.250   1.895   2.647  0.0000  0.0000  0.0000
  220UNL      C  963   0.351   1.837   2.742  0.0000  0.0000  0.0000
  220UNL      C  964   0.301   1.844   2.888  0.0000  0.0000  0.0000
  220UNL      C  965   0.411   1.804   2.993  0.0000  0.0000  0.0000
  220UNL      C  966   0.350   1.814   3.135  0.0000  0.0000  0.0000
  220UNL      C  967   0.459   1.786   3.240  0.0000  0.0000  0.0000
  220UNL      C  968   0.409   1.818   3.387  0.0000  0.0000  0.0000
  221UNL      C  969   0.343   2.239   3.765  0.0000  0.0000  0.0000
  221UNL      C  970   0.357   2.344   3.662  0.0000  0.0000  0.0000
  221UNL      N  971   0.287   2.294   3.882  0.0000  0.0000  0.0000
  221UNL      S  972   0.302   2.496   3.724  0.0000  0.0000  0.0000
  221UNL      C  973   0.257   2.428   3.879  0.0000  0.0000  0.0000
  221UNL      C  974   0.265   2.207   3.998  0.0000  0.0000  0.0000
  221UNL      S  975   0.190   2.516   3.997  0.0000  0.0000  0.0000
  221UNL      O  976   0.375   2.123   3.756  0.0000  0.0000  0.0000
  221UNL      C  977   0.403   2.309   3.539  0.0000  0.0000  0.0000
  222UNL      C  978   0.430   2.390   3.422  0.0000  0.0000  0.0000
  222UNL      C  979   0.429   2.527   3.415  0.0000  0.0000  0.0000
  222UNL      C  980   0.463   2.322   3.302  0.0000  0.0000  0.0000
  222UNL      C  981   0.456   2.597   3.297  0.0000  0.0000  0.0000
  222UNL      C  982   0.488   2.536   3.153  0.0000  0.0000  0.0000
  222UNL      C  983   0.492   2.392   3.158  0.0000  0.0000  0.0000
  222UNL      N  984   0.473   2.187   3.288  0.0000  0.0000  0.0000
  222UNL      N  985   0.523   2.310   3.054  0.0000  0.0000  0.0000
  222UNL      S  986   0.516   2.159   3.111  0.0000  0.0000  0.0000
  223UNL      C  987   0.520   2.611   3.034  0.0000  0.0000  0.0000
  223UNL      C  988   0.525   2.749   3.021  0.0000  0.0000  0.0000
  223UNL      C  989   0.567   2.789   2.893  0.0000  0.0000  0.0000
  223UNL      C  990   0.592   2.684   2.810  0.0000  0.0000  0.0000
  223UNL      S  991   0.565   2.533   2.884  0.0000  0.0000  0.0000
  224UNL      C  992   0.643   2.729   2.682  0.0000  0.0000  0.0000
  224UNL      C  993   0.648   2.870   2.689  0.0000  0.0000  0.0000
  225UNL      C  994   0.596   2.922   2.825  0.0000  0.0000  0.0000
  226UNL      C  995   0.695   2.943   2.583  0.0000  0.0000  0.0000
  227UNL      C  996   0.469   3.007   2.804  0.0000  0.0000  0.0000
  227UNL      C  997   0.704   3.002   2.899  0.0000  0.0000  0.0000
  227UNL      C  998   0.830   2.929   2.933  0.0000  0.0000  0.0000
  227UNL      C  999   0.356   2.937   2.732  0.0000  0.0000  0.0000
  227UNL      C 1000   0.934   3.018   2.994  0.0000  0.0000  0.0000
  227UNL      C 1001   1.062   2.949   3.030  0.0000  0.0000  0.0000
  227UNL      C 1002   1.176   3.028   3.087  0.0000  0.0000  0.0000
  227UNL      C 1003   1.198   3.175   3.065  0.0000  0.0000  0.0000
  227UNL      C 1004   1.306   3.279   3.063  0.0000  0.0000  0.0000
  227UNL      C 1005   1.285   3.400   3.147  0.0000  0.0000  0.0000
  227UNL      C 1006   0.231   3.017   2.708  0.0000  0.0000  0.0000
  227UNL      C 1007   0.128   2.938   2.632  0.0000  0.0000  0.0000
  227UNL      C 1008  -0.007   3.003   2.611  0.0000  0.0000  0.0000
  227UNL      C 1009  -0.103   2.912   2.540  0.0000  0.0000  0.0000
  227UNL      C 1010  -0.235   2.981   2.516  0.0000  0.0000  0.0000
  227UNL      C 1011  -0.321   2.983   2.640  0.0000  0.0000  0.0000
  228UNL      C 1012   0.682   2.660   2.569  0.0000  0.0000  0.0000
  228UNL      C 1013   0.729   2.732   2.463  0.0000  0.0000  0.0000
  229UNL      C 1014   0.390   2.202   4.085  0.0000  0.0000  0.0000
  230UNL      C 1015   0.735   2.874   2.469  0.0000  0.0000  0.0000
  231UNL      C 1016   0.789   2.918   2.340  0.0000  0.0000  0.0000
  232UNL      C 1017   0.779   2.679   2.328  0.0000  0.0000  0.0000
  233UNL      C 1018   0.815   2.810   2.260  0.0000  0.0000  0.0000
  234UNL      C 1019   0.667   2.604   2.252  0.0000  0.0000  0.0000
  234UNL      C 1020   0.902   2.586   2.345  0.0000  0.0000  0.0000
  235UNL      S 1021   0.825   3.066   2.264  0.0000  0.0000  0.0000
  235UNL      C 1022   0.875   2.983   2.118  0.0000  0.0000  0.0000
  235UNL      C 1023   0.864   2.846   2.134  0.0000  0.0000  0.0000
  236UNL      C 1024   0.915   3.052   1.998  0.0000  0.0000  0.0000
  236UNL      C 1025   0.957   2.980   1.887  0.0000  0.0000  0.0000
  236UNL      C 1026   0.987   3.042   1.762  0.0000  0.0000  0.0000
  236UNL      C 1027   0.981   3.178   1.743  0.0000  0.0000  0.0000
  236UNL      C 1028   0.912   3.194   1.983  0.0000  0.0000  0.0000
  236UNL      C 1029   0.945   3.256   1.859  0.0000  0.0000  0.0000
  237UNL      C 1030   1.007   3.247   1.619  0.0000  0.0000  0.0000
  238UNL      N 1031   0.877   3.283   2.079  0.0000  0.0000  0.0000
  238UNL      N 1032   0.932   3.391   1.862  0.0000  0.0000  0.0000
  238UNL      S 1033   0.887   3.428   2.011  0.0000  0.0000  0.0000
  239UNL      C 1034   1.040   3.197   1.498  0.0000  0.0000  0.0000
  239UNL      S 1035   1.067   3.033   1.446  0.0000  0.0000  0.0000
  239UNL      C 1036   1.054   3.288   1.383  0.0000  0.0000  0.0000
  239UNL      O 1037   1.041   3.408   1.385  0.0000  0.0000  0.0000
  239UNL      N 1038   1.089   3.217   1.268  0.0000  0.0000  0.0000
  239UNL      C 1039   1.100   3.080   1.280  0.0000  0.0000  0.0000
  239UNL      C 1040   1.102   3.286   1.140  0.0000  0.0000  0.0000
  239UNL      C 1041   0.970   3.294   1.070  0.0000  0.0000  0.0000
  239UNL      S 1042   1.137   2.975   1.164  0.0000  0.0000  0.0000
  240UNL      C 1043   1.018   2.648   2.415  0.0000  0.0000  0.0000
  240UNL      C 1044   1.144   2.560   2.427  0.0000  0.0000  0.0000
  240UNL      C 1045   1.212   2.533   2.292  0.0000  0.0000  0.0000
  240UNL      C 1046   1.279   2.655   2.227  0.0000  0.0000  0.0000
  240UNL      C 1047   1.357   2.640   2.095  0.0000  0.0000  0.0000
  240UNL      C 1048   1.259   2.622   1.978  0.0000  0.0000  0.0000
  240UNL      C 1049   1.342   2.600   1.850  0.0000  0.0000  0.0000
  240UNL      C 1050   0.541   2.687   2.226  0.0000  0.0000  0.0000
  240UNL      C 1051   0.440   2.629   2.131  0.0000  0.0000  0.0000
  240UNL      C 1052   0.490   2.636   1.985  0.0000  0.0000  0.0000
  240UNL      C 1053   0.380   2.596   1.880  0.0000  0.0000  0.0000
  240UNL      C 1054   0.441   2.607   1.738  0.0000  0.0000  0.0000
  240UNL      C 1055   0.332   2.578   1.632  0.0000  0.0000  0.0000
  240UNL      C 1056   0.382   2.610   1.485  0.0000  0.0000  0.0000
  241UNL      C 1057   0.148   3.309   5.366  0.0000  0.0000  0.0000
  241UNL      C 1058   0.163   3.203   5.263  0.0000  0.0000  0.0000
  241UNL      N 1059   0.092   3.254   5.482  0.0000  0.0000  0.0000
  241UNL      S 1060   0.107   3.051   5.324  0.0000  0.0000  0.0000
  241UNL      C 1061   0.062   3.120   5.479  0.0000  0.0000  0.0000
  241UNL      C 1062   0.070   3.340   5.599  0.0000  0.0000  0.0000
  241UNL      S 1063  -0.005   3.032   5.598  0.0000  0.0000  0.0000
  241UNL      O 1064   0.181   3.424   5.356  0.0000  0.0000  0.0000
  241UNL      C 1065   0.208   3.239   5.139  0.0000  0.0000  0.0000
  242UNL      C 1066   0.235   3.158   5.023  0.0000  0.0000  0.0000
  242UNL      C 1067   0.234   3.021   5.016  0.0000  0.0000  0.0000
  242UNL      C 1068   0.269   3.226   4.902  0.0000  0.0000  0.0000
  242UNL      C 1069   0.261   2.950   4.897  0.0000  0.0000  0.0000
  242UNL      C 1070   0.293   3.011   4.776  0.0000  0.0000  0.0000
  242UNL      C 1071   0.297   3.155   4.781  0.0000  0.0000  0.0000
  242UNL      N 1072   0.278   3.360   4.888  0.0000  0.0000  0.0000
  242UNL      N 1073   0.328   3.237   4.678  0.0000  0.0000  0.0000
  242UNL      S 1074   0.321   3.388   4.734  0.0000  0.0000  0.0000
  243UNL      C 1075   0.325   2.936   4.658  0.0000  0.0000  0.0000
  243UNL      C 1076   0.330   2.799   4.645  0.0000  0.0000  0.0000
  243UNL      C 1077   0.372   2.758   4.517  0.0000  0.0000  0.0000
  243UNL      C 1078   0.397   2.864   4.434  0.0000  0.0000  0.0000
  243UNL      S 1079   0.370   3.014   4.508  0.0000  0.0000  0.0000
  244UNL      C 1080   0.448   2.818   4.306  0.0000  0.0000  0.0000
  244UNL      C 1081   0.453   2.678   4.313  0.0000  0.0000  0.0000
  245UNL      C 1082   0.402   2.625   4.449  0.0000  0.0000  0.0000
  246UNL      C 1083   0.500   2.605   4.206  0.0000  0.0000  0.0000
  247UNL      C 1084   0.274   2.540   4.428  0.0000  0.0000  0.0000
  247UNL      C 1085   0.509   2.545   4.523  0.0000  0.0000  0.0000
  247UNL      C 1086   0.635   2.618   4.557  0.0000  0.0000  0.0000
  247UNL      C 1087   0.162   2.610   4.356  0.0000  0.0000  0.0000
  247UNL      C 1088   0.740   2.529   4.618  0.0000  0.0000  0.0000
  247UNL      C 1089   0.867   2.599   4.654  0.0000  0.0000  0.0000
  247UNL      C 1090   0.981   2.519   4.710  0.0000  0.0000  0.0000
  247UNL      C 1091   1.003   2.372   4.689  0.0000  0.0000  0.0000
  247UNL      C 1092   1.111   2.268   4.686  0.0000  0.0000  0.0000
  247UNL      C 1093   1.090   2.147   4.771  0.0000  0.0000  0.0000
  247UNL      C 1094   0.036   2.530   4.332  0.0000  0.0000  0.0000
  247UNL      C 1095  -0.067   2.610   4.256  0.0000  0.0000  0.0000
  247UNL      C 1096  -0.201   2.545   4.235  0.0000  0.0000  0.0000
  247UNL      C 1097  -0.298   2.636   4.164  0.0000  0.0000  0.0000
  247UNL      C 1098  -0.429   2.566   4.140  0.0000  0.0000  0.0000
  247UNL      C 1099  -0.516   2.564   4.264  0.0000  0.0000  0.0000
  248UNL      C 1100   0.487   2.887   4.193  0.0000  0.0000  0.0000
  248UNL      C 1101   0.534   2.815   4.086  0.0000  0.0000  0.0000
  249UNL      C 1102   0.195   3.345   5.686  0.0000  0.0000  0.0000
  250UNL      C 1103   0.540   2.674   4.093  0.0000  0.0000  0.0000
  251UNL      C 1104   0.594   2.629   3.964  0.0000  0.0000  0.0000
  252UNL      C 1105   0.584   2.868   3.951  0.0000  0.0000  0.0000
  253UNL      C 1106   0.620   2.738   3.883  0.0000  0.0000  0.0000
  254UNL      C 1107   0.472   2.943   3.876  0.0000  0.0000  0.0000
  254UNL      C 1108   0.707   2.961   3.969  0.0000  0.0000  0.0000
  255UNL      S 1109   0.630   2.481   3.888  0.0000  0.0000  0.0000
  255UNL      C 1110   0.680   2.564   3.742  0.0000  0.0000  0.0000
  255UNL      C 1111   0.669   2.701   3.758  0.0000  0.0000  0.0000
  256UNL      C 1112   0.720   2.495   3.622  0.0000  0.0000  0.0000
  256UNL      C 1113   0.763   2.567   3.511  0.0000  0.0000  0.0000
  256UNL      C 1114   0.792   2.505   3.386  0.0000  0.0000  0.0000
  256UNL      C 1115   0.786   2.369   3.367  0.0000  0.0000  0.0000
  256UNL      C 1116   0.717   2.353   3.607  0.0000  0.0000  0.0000
  256UNL      C 1117   0.750   2.291   3.483  0.0000  0.0000  0.0000
  257UNL      C 1118   0.812   2.300   3.219  0.0000  0.0000  0.0000
  258UNL      N 1119   0.682   2.264   3.702  0.0000  0.0000  0.0000
  258UNL      N 1120   0.737   2.156   3.486  0.0000  0.0000  0.0000
  258UNL      S 1121   0.692   2.119   3.635  0.0000  0.0000  0.0000
  259UNL      C 1122   0.845   2.350   3.098  0.0000  0.0000  0.0000
  259UNL      S 1123   0.873   2.514   3.047  0.0000  0.0000  0.0000
  259UNL      C 1124   0.860   2.260   2.984  0.0000  0.0000  0.0000
  259UNL      O 1125   0.846   2.139   2.985  0.0000  0.0000  0.0000
  259UNL      N 1126   0.895   2.330   2.869  0.0000  0.0000  0.0000
  259UNL      C 1127   0.906   2.467   2.880  0.0000  0.0000  0.0000
  259UNL      C 1128   0.907   2.262   2.740  0.0000  0.0000  0.0000
  259UNL      C 1129   0.776   2.253   2.670  0.0000  0.0000  0.0000
  259UNL      S 1130   0.942   2.573   2.765  0.0000  0.0000  0.0000
  260UNL      C 1131   0.823   2.899   4.039  0.0000  0.0000  0.0000
  260UNL      C 1132   0.949   2.987   4.051  0.0000  0.0000  0.0000
  260UNL      C 1133   1.017   3.014   3.916  0.0000  0.0000  0.0000
  260UNL      C 1134   1.084   2.892   3.851  0.0000  0.0000  0.0000
  260UNL      C 1135   1.162   2.907   3.719  0.0000  0.0000  0.0000
  260UNL      C 1136   1.064   2.926   3.602  0.0000  0.0000  0.0000
  260UNL      C 1137   1.147   2.947   3.474  0.0000  0.0000  0.0000
  260UNL      C 1138   0.346   2.860   3.849  0.0000  0.0000  0.0000
  260UNL      C 1139   0.245   2.918   3.755  0.0000  0.0000  0.0000
  260UNL      C 1140   0.295   2.911   3.609  0.0000  0.0000  0.0000
  260UNL      C 1141   0.186   2.951   3.504  0.0000  0.0000  0.0000
  260UNL      C 1142   0.246   2.940   3.362  0.0000  0.0000  0.0000
  260UNL      C 1143   0.137   2.969   3.256  0.0000  0.0000  0.0000
  260UNL      C 1144   0.187   2.937   3.109  0.0000  0.0000  0.0000
  261UNL      C 1145   0.253   2.516   2.731  0.0000  0.0000  0.0000
  261UNL      C 1146   0.239   2.411   2.834  0.0000  0.0000  0.0000
  261UNL      N 1147   0.309   2.461   2.615  0.0000  0.0000  0.0000
  261UNL      S 1148   0.294   2.259   2.773  0.0000  0.0000  0.0000
  261UNL      C 1149   0.339   2.327   2.618  0.0000  0.0000  0.0000
  261UNL      C 1150   0.332   2.548   2.498  0.0000  0.0000  0.0000
  261UNL      S 1151   0.406   2.239   2.499  0.0000  0.0000  0.0000
  261UNL      O 1152   0.221   2.631   2.741  0.0000  0.0000  0.0000
  261UNL      C 1153   0.193   2.446   2.958  0.0000  0.0000  0.0000
  262UNL      C 1154   0.166   2.365   3.074  0.0000  0.0000  0.0000
  262UNL      C 1155   0.168   2.228   3.081  0.0000  0.0000  0.0000
  262UNL      C 1156   0.133   2.433   3.194  0.0000  0.0000  0.0000
  262UNL      C 1157   0.140   2.158   3.200  0.0000  0.0000  0.0000
  262UNL      C 1158   0.108   2.219   3.344  0.0000  0.0000  0.0000
  262UNL      C 1159   0.105   2.363   3.339  0.0000  0.0000  0.0000
  262UNL      N 1160   0.123   2.568   3.209  0.0000  0.0000  0.0000
  262UNL      N 1161   0.073   2.444   3.442  0.0000  0.0000  0.0000
  262UNL      S 1162   0.080   2.596   3.386  0.0000  0.0000  0.0000
  263UNL      C 1163   0.077   2.143   3.462  0.0000  0.0000  0.0000
  263UNL      C 1164   0.071   2.006   3.475  0.0000  0.0000  0.0000
  263UNL      C 1165   0.029   1.965   3.603  0.0000  0.0000  0.0000
  263UNL      C 1166   0.004   2.071   3.686  0.0000  0.0000  0.0000
  263UNL      S 1167   0.031   2.222   3.612  0.0000  0.0000  0.0000
  264UNL      C 1168  -0.046   2.026   3.815  0.0000  0.0000  0.0000
  264UNL      C 1169  -0.052   1.885   3.807  0.0000  0.0000  0.0000
  265UNL      C 1170  -0.000   1.833   3.671  0.0000  0.0000  0.0000
  266UNL      C 1171  -0.099   1.812   3.914  0.0000  0.0000  0.0000
  267UNL      C 1172   0.127   1.748   3.692  0.0000  0.0000  0.0000
  267UNL      C 1173  -0.108   1.753   3.597  0.0000  0.0000  0.0000
  267UNL      C 1174  -0.234   1.826   3.563  0.0000  0.0000  0.0000
  267UNL      C 1175   0.240   1.818   3.764  0.0000  0.0000  0.0000
  267UNL      C 1176  -0.338   1.737   3.503  0.0000  0.0000  0.0000
  267UNL      C 1177  -0.466   1.806   3.466  0.0000  0.0000  0.0000
  267UNL      C 1178  -0.580   1.726   3.410  0.0000  0.0000  0.0000
  267UNL      C 1179  -0.602   1.580   3.432  0.0000  0.0000  0.0000
  267UNL      C 1180  -0.710   1.476   3.434  0.0000  0.0000  0.0000
  267UNL      C 1181  -0.689   1.354   3.349  0.0000  0.0000  0.0000
  267UNL      C 1182   0.366   1.738   3.788  0.0000  0.0000  0.0000
  267UNL      C 1183   0.468   1.817   3.865  0.0000  0.0000  0.0000
  267UNL      C 1184   0.603   1.752   3.885  0.0000  0.0000  0.0000
  267UNL      C 1185   0.699   1.843   3.956  0.0000  0.0000  0.0000
  267UNL      C 1186   0.831   1.774   3.980  0.0000  0.0000  0.0000
  267UNL      C 1187   0.917   1.772   3.856  0.0000  0.0000  0.0000
  268UNL      C 1188  -0.085   2.095   3.927  0.0000  0.0000  0.0000
  268UNL      C 1189  -0.133   2.023   4.034  0.0000  0.0000  0.0000
  269UNL      C 1190   0.206   2.552   2.411  0.0000  0.0000  0.0000
  270UNL      C 1191  -0.139   1.881   4.028  0.0000  0.0000  0.0000
  271UNL      C 1192  -0.193   1.837   4.156  0.0000  0.0000  0.0000
  272UNL      C 1193  -0.183   2.076   4.169  0.0000  0.0000  0.0000
  273UNL      C 1194  -0.219   1.945   4.237  0.0000  0.0000  0.0000
  274UNL      C 1195  -0.071   2.151   4.244  0.0000  0.0000  0.0000
  274UNL      C 1196  -0.306   2.169   4.151  0.0000  0.0000  0.0000
  275UNL      S 1197  -0.228   1.689   4.232  0.0000  0.0000  0.0000
  275UNL      C 1198  -0.278   1.772   4.378  0.0000  0.0000  0.0000
  275UNL      C 1199  -0.267   1.909   4.363  0.0000  0.0000  0.0000
  276UNL      C 1200  -0.319   1.703   4.498  0.0000  0.0000  0.0000
  276UNL      C 1201  -0.361   1.775   4.609  0.0000  0.0000  0.0000
  276UNL      C 1202  -0.391   1.713   4.735  0.0000  0.0000  0.0000
  276UNL      C 1203  -0.385   1.576   4.753  0.0000  0.0000  0.0000
  276UNL      C 1204  -0.316   1.561   4.513  0.0000  0.0000  0.0000
  276UNL      C 1205  -0.349   1.499   4.638  0.0000  0.0000  0.0000
  277UNL      C 1206  -0.411   1.507   4.877  0.0000  0.0000  0.0000
  278UNL      N 1207  -0.281   1.472   4.418  0.0000  0.0000  0.0000
  278UNL      N 1208  -0.336   1.364   4.634  0.0000  0.0000  0.0000
  278UNL      S 1209  -0.290   1.327   4.485  0.0000  0.0000  0.0000
  279UNL      C 1210  -0.444   1.558   4.999  0.0000  0.0000  0.0000
  279UNL      S 1211  -0.471   1.722   5.050  0.0000  0.0000  0.0000
  279UNL      C 1212  -0.458   1.467   5.113  0.0000  0.0000  0.0000
  279UNL      O 1213  -0.445   1.347   5.112  0.0000  0.0000  0.0000
  279UNL      N 1214  -0.493   1.538   5.228  0.0000  0.0000  0.0000
  279UNL      C 1215  -0.504   1.675   5.217  0.0000  0.0000  0.0000
  279UNL      C 1216  -0.505   1.469   5.357  0.0000  0.0000  0.0000
  279UNL      C 1217  -0.374   1.460   5.427  0.0000  0.0000  0.0000
  279UNL      S 1218  -0.541   1.780   5.332  0.0000  0.0000  0.0000
  280UNL      C 1219  -0.422   2.106   4.081  0.0000  0.0000  0.0000
  280UNL      C 1220  -0.548   2.195   4.070  0.0000  0.0000  0.0000
  280UNL      C 1221  -0.616   2.222   4.205  0.0000  0.0000  0.0000
  280UNL      C 1222  -0.683   2.099   4.269  0.0000  0.0000  0.0000
  280UNL      C 1223  -0.760   2.115   4.401  0.0000  0.0000  0.0000
  280UNL      C 1224  -0.663   2.133   4.518  0.0000  0.0000  0.0000
  280UNL      C 1225  -0.745   2.155   4.646  0.0000  0.0000  0.0000
  280UNL      C 1226   0.055   2.067   4.271  0.0000  0.0000  0.0000
  280UNL      C 1227   0.156   2.126   4.365  0.0000  0.0000  0.0000
  280UNL      C 1228   0.106   2.119   4.512  0.0000  0.0000  0.0000
  280UNL      C 1229   0.216   2.158   4.616  0.0000  0.0000  0.0000
  280UNL      C 1230   0.155   2.148   4.758  0.0000  0.0000  0.0000
  280UNL      C 1231   0.264   2.176   4.864  0.0000  0.0000  0.0000
  280UNL      C 1232   0.214   2.144   5.011  0.0000  0.0000  0.0000
  281UNL      C 1233   0.058   1.446   4.379  0.0000  0.0000  0.0000
  281UNL      C 1234   0.043   1.551   4.482  0.0000  0.0000  0.0000
  281UNL      N 1235   0.114   1.501   4.262  0.0000  0.0000  0.0000
  281UNL      S 1236   0.099   1.704   4.420  0.0000  0.0000  0.0000
  281UNL      C 1237   0.144   1.635   4.265  0.0000  0.0000  0.0000
  281UNL      C 1238   0.136   1.415   4.146  0.0000  0.0000  0.0000
  281UNL      S 1239   0.211   1.723   4.147  0.0000  0.0000  0.0000
  281UNL      O 1240   0.025   1.331   4.388  0.0000  0.0000  0.0000
  281UNL      C 1241  -0.002   1.516   4.605  0.0000  0.0000  0.0000
  282UNL      C 1242  -0.029   1.597   4.722  0.0000  0.0000  0.0000
  282UNL      C 1243  -0.028   1.734   4.729  0.0000  0.0000  0.0000
  282UNL      C 1244  -0.062   1.529   4.842  0.0000  0.0000  0.0000
  282UNL      C 1245  -0.055   1.805   4.847  0.0000  0.0000  0.0000
  282UNL      C 1246  -0.087   1.743   4.968  0.0000  0.0000  0.0000
  282UNL      C 1247  -0.091   1.600   4.963  0.0000  0.0000  0.0000
  282UNL      N 1248  -0.072   1.394   4.856  0.0000  0.0000  0.0000
  282UNL      N 1249  -0.122   1.518   5.067  0.0000  0.0000  0.0000
  282UNL      S 1250  -0.115   1.367   5.010  0.0000  0.0000  0.0000
  283UNL      C 1251  -0.118   1.819   5.087  0.0000  0.0000  0.0000
  283UNL      C 1252  -0.124   1.956   5.100  0.0000  0.0000  0.0000
  283UNL      C 1253  -0.166   1.997   5.227  0.0000  0.0000  0.0000
  283UNL      C 1254  -0.191   1.891   5.310  0.0000  0.0000  0.0000
  283UNL      S 1255  -0.164   1.740   5.237  0.0000  0.0000  0.0000
  284UNL      C 1256  -0.242   1.936   5.439  0.0000  0.0000  0.0000
  284UNL      C 1257  -0.247   2.077   5.432  0.0000  0.0000  0.0000
  285UNL      C 1258  -0.195   2.130   5.295  0.0000  0.0000  0.0000
  286UNL      C 1259  -0.294   2.150   5.538  0.0000  0.0000  0.0000
  287UNL      C 1260  -0.068   2.215   5.317  0.0000  0.0000  0.0000
  287UNL      C 1261  -0.303   2.209   5.221  0.0000  0.0000  0.0000
  287UNL      C 1262  -0.429   2.137   5.187  0.0000  0.0000  0.0000
  287UNL      C 1263   0.045   2.145   5.389  0.0000  0.0000  0.0000
  287UNL      C 1264  -0.533   2.226   5.127  0.0000  0.0000  0.0000
  287UNL      C 1265  -0.661   2.156   5.090  0.0000  0.0000  0.0000
  287UNL      C 1266  -0.775   2.236   5.034  0.0000  0.0000  0.0000
  287UNL      C 1267  -0.797   2.383   5.056  0.0000  0.0000  0.0000
  287UNL      C 1268  -0.905   2.486   5.058  0.0000  0.0000  0.0000
  287UNL      C 1269  -0.884   2.608   4.973  0.0000  0.0000  0.0000
  287UNL      C 1270   0.171   2.225   5.412  0.0000  0.0000  0.0000
  287UNL      C 1271   0.273   2.145   5.489  0.0000  0.0000  0.0000
  287UNL      C 1272   0.408   2.210   5.509  0.0000  0.0000  0.0000
  287UNL      C 1273   0.504   2.119   5.580  0.0000  0.0000  0.0000
  287UNL      C 1274   0.636   2.189   5.604  0.0000  0.0000  0.0000
  287UNL      C 1275   0.722   2.190   5.481  0.0000  0.0000  0.0000
  288UNL      C 1276  -0.281   1.867   5.551  0.0000  0.0000  0.0000
  288UNL      C 1277  -0.328   1.939   5.658  0.0000  0.0000  0.0000
  289UNL      C 1278   0.011   1.410   4.059  0.0000  0.0000  0.0000
  290UNL      C 1279  -0.334   2.081   5.652  0.0000  0.0000  0.0000
  291UNL      C 1280  -0.388   2.125   5.780  0.0000  0.0000  0.0000
  292UNL      C 1281  -0.378   1.887   5.793  0.0000  0.0000  0.0000
  293UNL      C 1282  -0.414   2.017   5.861  0.0000  0.0000  0.0000
  294UNL      C 1283  -0.266   1.812   5.869  0.0000  0.0000  0.0000
  294UNL      C 1284  -0.501   1.794   5.776  0.0000  0.0000  0.0000
  295UNL      S 1285  -0.424   2.274   5.857  0.0000  0.0000  0.0000
  295UNL      C 1286  -0.473   2.191   6.002  0.0000  0.0000  0.0000
  295UNL      C 1287  -0.462   2.054   5.987  0.0000  0.0000  0.0000
  296UNL      C 1288  -0.514   2.259   6.122  0.0000  0.0000  0.0000
  296UNL      C 1289  -0.556   2.188   6.233  0.0000  0.0000  0.0000
  296UNL      C 1290  -0.586   2.249   6.359  0.0000  0.0000  0.0000
  296UNL      C 1291  -0.580   2.386   6.377  0.0000  0.0000  0.0000
  296UNL      C 1292  -0.511   2.402   6.137  0.0000  0.0000  0.0000
  296UNL      C 1293  -0.544   2.463   6.262  0.0000  0.0000  0.0000
  297UNL      C 1294  -0.606   2.455   6.525  0.0000  0.0000  0.0000
  298UNL      N 1295  -0.476   2.490   6.042  0.0000  0.0000  0.0000
  298UNL      N 1296  -0.531   2.599   6.258  0.0000  0.0000  0.0000
  298UNL      S 1297  -0.485   2.636   6.110  0.0000  0.0000  0.0000
  299UNL      C 1298  -0.639   2.405   6.646  0.0000  0.0000  0.0000
  299UNL      S 1299  -0.666   2.240   6.698  0.0000  0.0000  0.0000
  299UNL      C 1300  -0.654   2.495   6.761  0.0000  0.0000  0.0000
  299UNL      O 1301  -0.640   2.616   6.759  0.0000  0.0000  0.0000
  299UNL      N 1302  -0.688   2.425   6.876  0.0000  0.0000  0.0000
  299UNL      C 1303  -0.699   2.288   6.864  0.0000  0.0000  0.0000
  299UNL      C 1304  -0.701   2.493   7.005  0.0000  0.0000  0.0000
  299UNL      C 1305  -0.569   2.502   7.074  0.0000  0.0000  0.0000
  299UNL      S 1306  -0.736   2.182   6.980  0.0000  0.0000  0.0000
  300UNL      C 1307  -0.617   1.856   5.705  0.0000  0.0000  0.0000
  300UNL      C 1308  -0.743   1.768   5.694  0.0000  0.0000  0.0000
  300UNL      C 1309  -0.811   1.740   5.829  0.0000  0.0000  0.0000
  300UNL      C 1310  -0.878   1.863   5.893  0.0000  0.0000  0.0000
  300UNL      C 1311  -0.956   1.848   6.025  0.0000  0.0000  0.0000
  300UNL      C 1312  -0.858   1.829   6.143  0.0000  0.0000  0.0000
  300UNL      C 1313  -0.940   1.808   6.270  0.0000  0.0000  0.0000
  300UNL      C 1314  -0.140   1.895   5.895  0.0000  0.0000  0.0000
  300UNL      C 1315  -0.039   1.837   5.990  0.0000  0.0000  0.0000
  300UNL      C 1316  -0.089   1.844   6.136  0.0000  0.0000  0.0000
  300UNL      C 1317   0.021   1.804   6.241  0.0000  0.0000  0.0000
  300UNL      C 1318  -0.040   1.814   6.383  0.0000  0.0000  0.0000
  300UNL      C 1319   0.069   1.786   6.488  0.0000  0.0000  0.0000
  300UNL      C 1320   0.019   1.818   6.635  0.0000  0.0000  0.0000
  301UNL      C 1321  -0.047   2.239   7.013  0.0000  0.0000  0.0000
  301UNL      C 1322  -0.033   2.344   6.910  0.0000  0.0000  0.0000
  301UNL      N 1323  -0.103   2.294   7.130  0.0000  0.0000  0.0000
  301UNL      S 1324  -0.088   2.496   6.972  0.0000  0.0000  0.0000
  301UNL      C 1325  -0.133   2.428   7.127  0.0000  0.0000  0.0000
  301UNL      C 1326  -0.125   2.207   7.246  0.0000  0.0000  0.0000
  301UNL      S 1327  -0.200   2.516   7.245  0.0000  0.0000  0.0000
  301UNL      O 1328  -0.015   2.123   7.004  0.0000  0.0000  0.0000
  301UNL      C 1329   0.013   2.309   6.787  0.0000  0.0000  0.0000
  302UNL      C 1330   0.040   2.390   6.670  0.0000  0.0000  0.0000
  302UNL      C 1331   0.039   2.527   6.663  0.0000  0.0000  0.0000
  302UNL      C 1332   0.073   2.322   6.550  0.0000  0.0000  0.0000
  302UNL      C 1333   0.066   2.597   6.545  0.0000  0.0000  0.0000
  302UNL      C 1334   0.098   2.536   6.401  0.0000  0.0000  0.0000
  302UNL      C 1335   0.102   2.392   6.406  0.0000  0.0000  0.0000
  302UNL      N 1336   0.083   2.187   6.536  0.0000  0.0000  0.0000
  302UNL      N 1337   0.133   2.310   6.302  0.0000  0.0000  0.0000
  302UNL      S 1338   0.126   2.159   6.359  0.0000  0.0000  0.0000
  303UNL      C 1339   0.130   2.611   6.282  0.0000  0.0000  0.0000
  303UNL      C 1340   0.135   2.749   6.269  0.0000  0.0000  0.0000
  303UNL      C 1341   0.177   2.789   6.141  0.0000  0.0000  0.0000
  303UNL      C 1342   0.202   2.684   6.058  0.0000  0.0000  0.0000
  303UNL      S 1343   0.175   2.533   6.132  0.0000  0.0000  0.0000
  304UNL      C 1344   0.253   2.729   5.930  0.0000  0.0000  0.0000
  304UNL      C 1345   0.258   2.870   5.937  0.0000  0.0000  0.0000
  305UNL      C 1346   0.206   2.922   6.073  0.0000  0.0000  0.0000
  306UNL      C 1347   0.305   2.943   5.831  0.0000  0.0000  0.0000
  307UNL      C 1348   0.079   3.007   6.052  0.0000  0.0000  0.0000
  307UNL      C 1349   0.314   3.002   6.147  0.0000  0.0000  0.0000
  307UNL      C 1350   0.440   2.929   6.181  0.0000  0.0000  0.0000
  307UNL      C 1351  -0.034   2.937   5.980  0.0000  0.0000  0.0000
  307UNL      C 1352   0.544   3.018   6.242  0.0000  0.0000  0.0000
  307UNL      C 1353   0.672   2.949   6.278  0.0000  0.0000  0.0000
  307UNL      C 1354   0.786   3.028   6.335  0.0000  0.0000  0.0000
  307UNL      C 1355   0.808   3.175   6.313  0.0000  0.0000  0.0000
  307UNL      C 1356   0.916   3.279   6.311  0.0000  0.0000  0.0000
  307UNL      C 1357   0.895   3.400   6.395  0.0000  0.0000  0.0000
  307UNL      C 1358  -0.159   3.017   5.956  0.0000  0.0000  0.0000
  307UNL      C 1359  -0.262   2.938   5.880  0.0000  0.0000  0.0000
  307UNL      C 1360  -0.397   3.003   5.859  0.0000  0.0000  0.0000
  307UNL      C 1361  -0.493   2.912   5.788  0.0000  0.0000  0.0000
  307UNL      C 1362  -0.625   2.981   5.764  0.0000  0.0000  0.0000
  307UNL      C 1363  -0.711   2.983   5.888  0.0000  0.0000  0.0000
  308UNL      C 1364   0.292   2.660   5.817  0.0000  0.0000  0.0000
  308UNL      C 1365   0.339   2.732   5.711  0.0000  0.0000  0.0000
  309UNL      C 1366  -0.000   2.202   7.333  0.0000  0.0000  0.0000
  310UNL      C 1367   0.345   2.874   5.717  0.0000  0.0000  0.0000
  311UNL      C 1368   0.399   2.918   5.588  0.0000  0.0000  0.0000
  312UNL      C 1369   0.389   2.679   5.576  0.0000  0.0000  0.0000
  313UNL      C 1370   0.425   2.810   5.508  0.0000  0.0000  0.0000
  314UNL      C 1371   0.277   2.604   5.500  0.0000  0.0000  0.0000
  314UNL      C 1372   0.512   2.586   5.593  0.0000  0.0000  0.0000
  315UNL      S 1373   0.435   3.066   5.512  0.0000  0.0000  0.0000
  315UNL      C 1374   0.485   2.983   5.366  0.0000  0.0000  0.0000
  315UNL      C 1375   0.474   2.846   5.382  0.0000  0.0000  0.0000
  316UNL      C 1376   0.525   3.052   5.246  0.0000  0.0000  0.0000
  316UNL      C 1377   0.567   2.980   5.135  0.0000  0.0000  0.0000
  316UNL      C 1378   0.597   3.042   5.010  0.0000  0.0000  0.0000
  316UNL      C 1379   0.591   3.178   4.991  0.0000  0.0000  0.0000
  316UNL      C 1380   0.522   3.194   5.231  0.0000  0.0000  0.0000
  316UNL      C 1381   0.555   3.256   5.107  0.0000  0.0000  0.0000
  317UNL      C 1382   0.617   3.247   4.867  0.0000  0.0000  0.0000
  318UNL      N 1383   0.487   3.283   5.327  0.0000  0.0000  0.0000
  318UNL      N 1384   0.542   3.391   5.110  0.0000  0.0000  0.0000
  318UNL      S 1385   0.497   3.428   5.259  0.0000  0.0000  0.0000
  319UNL      C 1386   0.650   3.197   4.746  0.0000  0.0000  0.0000
  319UNL      S 1387   0.677   3.033   4.694  0.0000  0.0000  0.0000
  319UNL      C 1388   0.664   3.288   4.631  0.0000  0.0000  0.0000
  319UNL      O 1389   0.651   3.408   4.633  0.0000  0.0000  0.0000
  319UNL      N 1390   0.699   3.217   4.516  0.0000  0.0000  0.0000
  319UNL      C 1391   0.710   3.080   4.528  0.0000  0.0000  0.0000
  319UNL      C 1392   0.712   3.286   4.388  0.0000  0.0000  0.0000
  319UNL      C 1393   0.580   3.294   4.318  0.0000  0.0000  0.0000
  319UNL      S 1394   0.747   2.975   4.412  0.0000  0.0000  0.0000
  320UNL      C 1395   0.628   2.648   5.663  0.0000  0.0000  0.0000
  320UNL      C 1396   0.754   2.560   5.675  0.0000  0.0000  0.0000
  320UNL      C 1397   0.822   2.533   5.540  0.0000  0.0000  0.0000
  320UNL      C 1398   0.889   2.655   5.475  0.0000  0.0000  0.0000
  320UNL      C 1399   0.967   2.640   5.343  0.0000  0.0000  0.0000
  320UNL      C 1400   0.869   2.622   5.226  0.0000  0.0000  0.0000
  320UNL      C 1401   0.952   2.600   5.098  0.0000  0.0000  0.0000
  320UNL      C 1402   0.151   2.687   5.474  0.0000  0.0000  0.0000
  320UNL      C 1403   0.050   2.629   5.379  0.0000  0.0000  0.0000
  320UNL      C 1404   0.100   2.636   5.233  0.0000  0.0000  0.0000
  320UNL      C 1405  -0.010   2.596   5.128  0.0000  0.0000  0.0000
  320UNL      C 1406   0.051   2.607   4.986  0.0000  0.0000  0.0000
  320UNL      C 1407  -0.058   2.578   4.880  0.0000  0.0000  0.0000
  320UNL      C 1408  -0.008   2.610   4.733  0.0000  0.0000  0.0000
  321UNL      C 1409   0.538   4.894   2.118  0.0000  0.0000  0.0000
  321UNL      C 1410   0.553   4.788   2.015  0.0000  0.0000  0.0000
  321UNL      N 1411   0.482   4.839   2.234  0.0000  0.0000  0.0000
  321UNL      S 1412   0.497   4.636   2.076  0.0000  0.0000  0.0000
  321UNL      C 1413   0.452   4.705   2.231  0.0000  0.0000  0.0000
  321UNL      C 1414   0.460   4.925   2.351  0.0000  0.0000  0.0000
  321UNL      S 1415   0.385   4.617   2.350  0.0000  0.0000  0.0000
  321UNL      O 1416   0.571   5.009   2.108  0.0000  0.0000  0.0000
  321UNL      C 1417   0.598   4.824   1.891  0.0000  0.0000  0.0000
  322UNL      C 1418   0.625   4.743   1.775  0.0000  0.0000  0.0000
  322UNL      C 1419   0.624   4.606   1.768  0.0000  0.0000  0.0000
  322UNL      C 1420   0.659   4.811   1.654  0.0000  0.0000  0.0000
  322UNL      C 1421   0.651   4.535   1.649  0.0000  0.0000  0.0000
  322UNL      C 1422   0.683   4.596   1.528  0.0000  0.0000  0.0000
  322UNL      C 1423   0.687   4.740   1.533  0.0000  0.0000  0.0000
  322UNL      N 1424   0.668   4.945   1.640  0.0000  0.0000  0.0000
  322UNL      N 1425   0.718   4.822   1.430  0.0000  0.0000  0.0000
  322UNL      S 1426   0.711   4.973   1.486  0.0000  0.0000  0.0000
  323UNL      C 1427   0.715   4.521   1.410  0.0000  0.0000  0.0000
  323UNL      C 1428   0.720   4.384   1.397  0.0000  0.0000  0.0000
  323UNL      C 1429   0.762   4.343   1.269  0.0000  0.0000  0.0000
  323UNL      C 1430   0.787   4.449   1.186  0.0000  0.0000  0.0000
  323UNL      S 1431   0.760   4.599   1.260  0.0000  0.0000  0.0000
  324UNL      C 1432   0.838   4.403   1.058  0.0000  0.0000  0.0000
  324UNL      C 1433   0.843   4.263   1.065  0.0000  0.0000  0.0000
  325UNL      C 1434   0.792   4.210   1.201  0.0000  0.0000  0.0000
  326UNL      C 1435   0.890   4.190   0.958  0.0000  0.0000  0.0000
  327UNL      C 1436   0.664   4.125   1.180  0.0000  0.0000  0.0000
  327UNL      C 1437   0.899   4.130   1.275  0.0000  0.0000  0.0000
  327UNL      C 1438   1.025   4.203   1.309  0.0000  0.0000  0.0000
  327UNL      C 1439   0.552   4.195   1.108  0.0000  0.0000  0.0000
  327UNL      C 1440   1.130   4.114   1.370  0.0000  0.0000  0.0000
  327UNL      C 1441   1.257   4.184   1.406  0.0000  0.0000  0.0000
  327UNL      C 1442   1.371   4.104   1.462  0.0000  0.0000  0.0000
  327UNL      C 1443   1.393   3.957   1.441  0.0000  0.0000  0.0000
  327UNL      C 1444   1.501   3.853   1.438  0.0000  0.0000  0.0000
  327UNL      C 1445   1.480   3.732   1.523  0.0000  0.0000  0.0000
  327UNL      C 1446   0.426   4.115   1.084  0.0000  0.0000  0.0000
  327UNL      C 1447   0.323   4.195   1.008  0.0000  0.0000  0.0000
  327UNL      C 1448   0.189   4.130   0.987  0.0000  0.0000  0.0000
  327UNL      C 1449   0.092   4.221   0.916  0.0000  0.0000  0.0000
  327UNL      C 1450  -0.039   4.151   0.892  0.0000  0.0000  0.0000
  327UNL      C 1451  -0.126   4.149   1.016  0.0000  0.0000  0.0000
  328UNL      C 1452   0.877   4.472   0.945  0.0000  0.0000  0.0000
  328UNL      C 1453   0.924   4.400   0.838  0.0000  0.0000  0.0000
  329UNL      C 1454   0.585   4.930   2.438  0.0000  0.0000  0.0000
  330UNL      C 1455   0.930   4.259   0.845  0.0000  0.0000  0.0000
  331UNL      C 1456   0.984   4.214   0.716  0.0000  0.0000  0.0000
  332UNL      C 1457   0.974   4.453   0.703  0.0000  0.0000  0.0000
  333UNL      C 1458   1.010   4.323   0.635  0.0000  0.0000  0.0000
  334UNL      C 1459   0.862   4.528   0.628  0.0000  0.0000  0.0000
  334UNL      C 1460   1.097   4.546   0.721  0.0000  0.0000  0.0000
  335UNL      S 1461   1.020   4.066   0.640  0.0000  0.0000  0.0000
  335UNL      C 1462   1.070   4.149   0.494  0.0000  0.0000  0.0000
  335UNL      C 1463   1.059   4.286   0.510  0.0000  0.0000  0.0000
  336UNL      C 1464   1.110   4.080   0.374  0.0000  0.0000  0.0000
  336UNL      C 1465   1.153   4.152   0.263  0.0000  0.0000  0.0000
  336UNL      C 1466   1.182   4.090   0.138  0.0000  0.0000  0.0000
  336UNL      C 1467   1.176   3.954   0.119  0.0000  0.0000  0.0000
  336UNL      C 1468   1.107   3.938   0.359  0.0000  0.0000  0.0000
  336UNL      C 1469   1.140   3.876   0.235  0.0000  0.0000  0.0000
  337UNL      C 1470   1.202   3.885  -0.029  0.0000  0.0000  0.0000
  338UNL      N 1471   1.072   3.849   0.454  0.0000  0.0000  0.0000
  338UNL      N 1472   1.127   3.741   0.238  0.0000  0.0000  0.0000
  338UNL      S 1473   1.082   3.704   0.387  0.0000  0.0000  0.0000
  339UNL      C 1474   1.235   3.935  -0.150  0.0000  0.0000  0.0000
  339UNL      S 1475   1.263   4.099  -0.201  0.0000  0.0000  0.0000
  339UNL      C 1476   1.250   3.845  -0.264  0.0000  0.0000  0.0000
  339UNL      O 1477   1.236   3.724  -0.263  0.0000  0.0000  0.0000
  339UNL      N 1478   1.285   3.915  -0.379  0.0000  0.0000  0.0000
  339UNL      C 1479   1.296   4.052  -0.368  0.0000  0.0000  0.0000
  339UNL      C 1480   1.297   3.847  -0.508  0.0000  0.0000  0.0000
  339UNL      C 1481   1.166   3.838  -0.578  0.0000  0.0000  0.0000
  339UNL      S 1482   1.332   4.158  -0.483  0.0000  0.0000  0.0000
  340UNL      C 1483   1.213   4.484   0.791  0.0000  0.0000  0.0000
  340UNL      C 1484   1.339   4.572   0.803  0.0000  0.0000  0.0000
  340UNL      C 1485   1.407   4.599   0.668  0.0000  0.0000  0.0000
  340UNL      C 1486   1.474   4.477   0.603  0.0000  0.0000  0.0000
  340UNL      C 1487   1.552   4.492   0.471  0.0000  0.0000  0.0000
  340UNL      C 1488   1.454   4.511   0.354  0.0000  0.0000  0.0000
  340UNL      C 1489   1.537   4.532   0.226  0.0000  0.0000  0.0000
  340UNL      C 1490   0.736   4.445   0.601  0.0000  0.0000  0.0000
  340UNL      C 1491   0.635   4.503   0.507  0.0000  0.0000  0.0000
  340UNL      C 1492   0.685   4.496   0.361  0.0000  0.0000  0.0000
  340UNL      C 1493   0.576   4.536   0.256  0.0000  0.0000  0.0000
  340UNL      C 1494   0.636   4.525   0.114  0.0000  0.0000  0.0000
  340UNL      C 1495   0.527   4.554   0.008  0.0000  0.0000  0.0000
  340UNL      C 1496   0.577   4.522  -0.139  0.0000  0.0000  0.0000
  341UNL      C 1497   0.643   4.101  -0.517  0.0000  0.0000  0.0000
  341UNL      C 1498   0.629   3.996  -0.414  0.0000  0.0000  0.0000
  341UNL      N 1499   0.699   4.046  -0.633  0.0000  0.0000  0.0000
  341UNL      S 1500   0.684   3.844  -0.475  0.0000  0.0000  0.0000
  341UNL      C 1501   0.729   3.912  -0.630  0.0000  0.0000  0.0000
  341UNL      C 1502   0.722   4.133  -0.750  0.0000  0.0000  0.0000
  341UNL      S 1503   0.796   3.824  -0.749  0.0000  0.0000  0.0000
  341UNL      O 1504   0.611   4.216  -0.507  0.0000  0.0000  0.0000
  341UNL      C 1505   0.583   4.031  -0.290  0.0000  0.0000  0.0000
  342UNL      C 1506   0.556   3.950  -0.174  0.0000  0.0000  0.0000
  342UNL      C 1507   0.558   3.813  -0.167  0.0000  0.0000  0.0000
  342UNL      C 1508   0.523   4.018  -0.054  0.0000  0.0000  0.0000
  342UNL      C 1509   0.530   3.743  -0.048  0.0000  0.0000  0.0000
  342UNL      C 1510   0.498   3.804   0.096  0.0000  0.0000  0.0000
  342UNL      C 1511   0.495   3.948   0.091  0.0000  0.0000  0.0000
  342UNL      N 1512   0.513   4.153  -0.039  0.0000  0.0000  0.0000
  342UNL      N 1513   0.463   4.029   0.194  0.0000  0.0000  0.0000
  342UNL      S 1514   0.470   4.181   0.138  0.0000  0.0000  0.0000
  343UNL      C 1515   0.467   3.728   0.214  0.0000  0.0000  0.0000
  343UNL      C 1516   0.461   3.591   0.227  0.0000  0.0000  0.0000
  343UNL      C 1517   0.419   3.550   0.355  0.0000  0.0000  0.0000
  343UNL      C 1518   0.394   3.656   0.438  0.0000  0.0000  0.0000
  343UNL      S 1519   0.421   3.807   0.364  0.0000  0.0000  0.0000
  344UNL      C 1520   0.344   3.611   0.567  0.0000  0.0000  0.0000
  344UNL      C 1521   0.338   3.470   0.559  0.0000  0.0000  0.0000
  345UNL      C 1522   0.390   3.418   0.423  0.0000  0.0000  0.0000
  346UNL      C 1523   0.291   3.397   0.666  0.0000  0.0000  0.0000
  347UNL      C 1524   0.517   3.333   0.444  0.0000  0.0000  0.0000
  347UNL      C 1525   0.282   3.338   0.349  0.0000  0.0000  0.0000
  347UNL      C 1526   0.156   3.411   0.315  0.0000  0.0000  0.0000
  347UNL      C 1527   0.630   3.403   0.516  0.0000  0.0000  0.0000
  347UNL      C 1528   0.052   3.322   0.255  0.0000  0.0000  0.0000
  347UNL      C 1529  -0.076   3.391   0.218  0.0000  0.0000  0.0000
  347UNL      C 1530  -0.190   3.311   0.162  0.0000  0.0000  0.0000
  347UNL      C 1531  -0.212   3.165   0.184  0.0000  0.0000  0.0000
  347UNL      C 1532  -0.320   3.061   0.186  0.0000  0.0000  0.0000
  347UNL      C 1533  -0.299   2.939   0.101  0.0000  0.0000  0.0000
  347UNL      C 1534   0.756   3.323   0.540  0.0000  0.0000  0.0000
  347UNL      C 1535   0.858   3.402   0.617  0.0000  0.0000  0.0000
  347UNL      C 1536   0.993   3.337   0.637  0.0000  0.0000  0.0000
  347UNL      C 1537   1.089   3.428   0.708  0.0000  0.0000  0.0000
  347UNL      C 1538   1.221   3.359   0.732  0.0000  0.0000  0.0000
  347UNL      C 1539   1.307   3.357   0.608  0.0000  0.0000  0.0000
  348UNL      C 1540   0.305   3.680   0.679  0.0000  0.0000  0.0000
  348UNL      C 1541   0.257   3.608   0.786  0.0000  0.0000  0.0000
  349UNL      C 1542   0.596   4.137  -0.837  0.0000  0.0000  0.0000
  350UNL      C 1543   0.251   3.466   0.780  0.0000  0.0000  0.0000
  351UNL      C 1544   0.197   3.422   0.908  0.0000  0.0000  0.0000
  352UNL      C 1545   0.207   3.661   0.921  0.0000  0.0000  0.0000
  353UNL      C 1546   0.171   3.530   0.989  0.0000  0.0000  0.0000
  354UNL      C 1547   0.319   3.736   0.996  0.0000  0.0000  0.0000
  354UNL      C 1548   0.084   3.754   0.903  0.0000  0.0000  0.0000
  355UNL      S 1549   0.162   3.274   0.984  0.0000  0.0000  0.0000
  355UNL      C 1550   0.112   3.357   1.130  0.0000  0.0000  0.0000
  355UNL      C 1551   0.123   3.494   1.115  0.0000  0.0000  0.0000
  356UNL      C 1552   0.071   3.288   1.250  0.0000  0.0000  0.0000
  356UNL      C 1553   0.029   3.360   1.361  0.0000  0.0000  0.0000
  356UNL      C 1554  -0.001   3.298   1.487  0.0000  0.0000  0.0000
  356UNL      C 1555   0.005   3.161   1.505  0.0000  0.0000  0.0000
  356UNL      C 1556   0.074   3.146   1.265  0.0000  0.0000  0.0000
  356UNL      C 1557   0.041   3.084   1.390  0.0000  0.0000  0.0000
  357UNL      C 1558  -0.021   3.092   1.629  0.0000  0.0000  0.0000
  358UNL      N 1559   0.109   3.057   1.170  0.0000  0.0000  0.0000
  358UNL      N 1560   0.054   2.949   1.386  0.0000  0.0000  0.0000
  358UNL      S 1561   0.100   2.912   1.237  0.0000  0.0000  0.0000
  359UNL      C 1562  -0.054   3.143   1.751  0.0000  0.0000  0.0000
  359UNL      S 1563  -0.081   3.307   1.802  0.0000  0.0000  0.0000
  359UNL      C 1564  -0.068   3.052   1.865  0.0000  0.0000  0.0000
  359UNL      O 1565  -0.055   2.932   1.864  0.0000  0.0000  0.0000
  359UNL      N 1566  -0.103   3.123   1.980  0.0000  0.0000  0.0000
  359UNL      C 1567  -0.114   3.260   1.969  0.0000  0.0000  0.0000
  359UNL      C 1568  -0.115   3.054   2.109  0.0000  0.0000  0.0000
  359UNL      C 1569   0.016   3.045   2.179  0.0000  0.0000  0.0000
  359UNL      S 1570  -0.151   3.365   2.084  0.0000  0.0000  0.0000
  360UNL      C 1571  -0.032   3.691   0.833  0.0000  0.0000  0.0000
  360UNL      C 1572  -0.158   3.780   0.822  0.0000  0.0000  0.0000
  360UNL      C 1573  -0.226   3.807   0.957  0.0000  0.0000  0.0000
  360UNL      C 1574  -0.293   3.684   1.021  0.0000  0.0000  0.0000
  360UNL      C 1575  -0.370   3.700   1.153  0.0000  0.0000  0.0000
  360UNL      C 1576  -0.273   3.718   1.270  0.0000  0.0000  0.0000
  360UNL      C 1577  -0.355   3.740   1.398  0.0000  0.0000  0.0000
  360UNL      C 1578   0.445   3.652   1.023  0.0000  0.0000  0.0000
  360UNL      C 1579   0.546   3.711   1.117  0.0000  0.0000  0.0000
  360UNL      C 1580   0.496   3.704   1.264  0.0000  0.0000  0.0000
  360UNL      C 1581   0.606   3.743   1.368  0.0000  0.0000  0.0000
  360UNL      C 1582   0.545   3.733   1.510  0.0000  0.0000  0.0000
  360UNL      C 1583   0.654   3.761   1.616  0.0000  0.0000  0.0000
  360UNL      C 1584   0.604   3.729   1.763  0.0000  0.0000  0.0000
  361UNL      C 1585   0.448   3.031   1.131  0.0000  0.0000  0.0000
  361UNL      C 1586   0.433   3.136   1.234  0.0000  0.0000  0.0000
  361UNL      N 1587   0.504   3.086   1.014  0.0000  0.0000  0.0000
  361UNL      S 1588   0.489   3.289   1.172  0.0000  0.0000  0.0000
  361UNL      C 1589   0.534   3.220   1.017  0.0000  0.0000  0.0000
  361UNL      C 1590   0.526   3.000   0.898  0.0000  0.0000  0.0000
  361UNL      S 1591   0.601   3.308   0.899  0.0000  0.0000  0.0000
  361UNL      O 1592   0.415   2.916   1.140  0.0000  0.0000  0.0000
  361UNL      C 1593   0.388   3.101   1.357  0.0000  0.0000  0.0000
  362UNL      C 1594   0.361   3.182   1.474  0.0000  0.0000  0.0000
  362UNL      C 1595   0.362   3.319   1.481  0.0000  0.0000  0.0000
  362UNL      C 1596   0.328   3.114   1.594  0.0000  0.0000  0.0000
  362UNL      C 1597   0.335   3.390   1.599  0.0000  0.0000  0.0000
  362UNL      C 1598   0.303   3.328   1.720  0.0000  0.0000  0.0000
  362UNL      C 1599   0.299   3.185   1.715  0.0000  0.0000  0.0000
  362UNL      N 1600   0.318   2.979   1.608  0.0000  0.0000  0.0000
  362UNL      N 1601   0.268   3.103   1.819  0.0000  0.0000  0.0000
  362UNL      S 1602   0.275   2.952   1.762  0.0000  0.0000  0.0000
  363UNL      C 1603   0.272   3.404   1.839  0.0000  0.0000  0.0000
  363UNL      C 1604   0.266   3.541   1.852  0.0000  0.0000  0.0000
  363UNL      C 1605   0.224   3.582   1.979  0.0000  0.0000  0.0000
  363UNL      C 1606   0.199   3.476   2.062  0.0000  0.0000  0.0000
  363UNL      S 1607   0.226   3.325   1.989  0.0000  0.0000  0.0000
  364UNL      C 1608   0.148   3.521   2.191  0.0000  0.0000  0.0000
  364UNL      C 1609   0.143   3.662   2.184  0.0000  0.0000  0.0000
  365UNL      C 1610   0.195   3.715   2.047  0.0000  0.0000  0.0000
  366UNL      C 1611   0.096   3.735   2.290  0.0000  0.0000  0.0000
  367UNL      C 1612   0.322   3.800   2.069  0.0000  0.0000  0.0000
  367UNL      C 1613   0.087   3.794   1.973  0.0000  0.0000  0.0000
  367UNL      C 1614  -0.039   3.722   1.939  0.0000  0.0000  0.0000
  367UNL      C 1615   0.435   3.730   2.141  0.0000  0.0000  0.0000
  367UNL      C 1616  -0.143   3.811   1.879  0.0000  0.0000  0.0000
  367UNL      C 1617  -0.271   3.741   1.842  0.0000  0.0000  0.0000
  367UNL      C 1618  -0.385   3.821   1.786  0.0000  0.0000  0.0000
  367UNL      C 1619  -0.407   3.968   1.808  0.0000  0.0000  0.0000
  367UNL      C 1620  -0.515   4.071   1.810  0.0000  0.0000  0.0000
  367UNL      C 1621  -0.494   4.193   1.725  0.0000  0.0000  0.0000
  367UNL      C 1622   0.561   3.810   2.164  0.0000  0.0000  0.0000
  367UNL      C 1623   0.663   3.730   2.241  0.0000  0.0000  0.0000
  367UNL      C 1624   0.798   3.795   2.261  0.0000  0.0000  0.0000
  367UNL      C 1625   0.894   3.704   2.332  0.0000  0.0000  0.0000
  367UNL      C 1626   1.026   3.774   2.356  0.0000  0.0000  0.0000
  367UNL      C 1627   1.112   3.775   2.233  0.0000  0.0000  0.0000
  368UNL      C 1628   0.109   3.452   2.303  0.0000  0.0000  0.0000
  368UNL      C 1629   0.062   3.524   2.410  0.0000  0.0000  0.0000
  369UNL      C 1630   0.401   2.995   0.811  0.0000  0.0000  0.0000
  370UNL      C 1631   0.056   3.666   2.404  0.0000  0.0000  0.0000
  371UNL      C 1632   0.002   3.710   2.532  0.0000  0.0000  0.0000
  372UNL      C 1633   0.012   3.472   2.545  0.0000  0.0000  0.0000
  373UNL      C 1634  -0.024   3.602   2.613  0.0000  0.0000  0.0000
  374UNL      C 1635   0.124   3.397   2.621  0.0000  0.0000  0.0000
  374UNL      C 1636  -0.111   3.379   2.528  0.0000  0.0000  0.0000
  375UNL      S 1637  -0.034   3.859   2.609  0.0000  0.0000  0.0000
  375UNL      C 1638  -0.083   3.776   2.754  0.0000  0.0000  0.0000
  375UNL      C 1639  -0.072   3.639   2.739  0.0000  0.0000  0.0000
  376UNL      C 1640  -0.124   3.844   2.874  0.0000  0.0000  0.0000
  376UNL      C 1641  -0.166   3.773   2.985  0.0000  0.0000  0.0000
  376UNL      C 1642  -0.196   3.834   3.111  0.0000  0.0000  0.0000
  376UNL      C 1643  -0.190   3.971   3.129  0.0000  0.0000  0.0000
  376UNL      C 1644  -0.121   3.987   2.889  0.0000  0.0000  0.0000
  376UNL      C 1645  -0.154   4.048   3.014  0.0000  0.0000  0.0000
  377UNL      C 1646  -0.216   4.040   3.277  0.0000  0.0000  0.0000
  378UNL      N 1647  -0.086   4.075   2.794  0.0000  0.0000  0.0000
  378UNL      N 1648  -0.141   4.184   3.010  0.0000  0.0000  0.0000
  378UNL      S 1649  -0.095   4.221   2.862  0.0000  0.0000  0.0000
  379UNL      C 1650  -0.249   3.990   3.398  0.0000  0.0000  0.0000
  379UNL      S 1651  -0.276   3.825   3.450  0.0000  0.0000  0.0000
  379UNL      C 1652  -0.264   4.080   3.513  0.0000  0.0000  0.0000
  379UNL      O 1653  -0.250   4.201   3.511  0.0000  0.0000  0.0000
  379UNL      N 1654  -0.298   4.010   3.628  0.0000  0.0000  0.0000
  379UNL      C 1655  -0.309   3.873   3.616  0.0000  0.0000  0.0000
  379UNL      C 1656  -0.311   4.078   3.757  0.0000  0.0000  0.0000
  379UNL      C 1657  -0.179   4.087   3.826  0.0000  0.0000  0.0000
  379UNL      S 1658  -0.346   3.767   3.732  0.0000  0.0000  0.0000
  380UNL      C 1659  -0.227   3.441   2.457  0.0000  0.0000  0.0000
  380UNL      C 1660  -0.353   3.353   2.446  0.0000  0.0000  0.0000
  380UNL      C 1661  -0.421   3.325   2.581  0.0000  0.0000  0.0000
  380UNL      C 1662  -0.488   3.448   2.645  0.0000  0.0000  0.0000
  380UNL      C 1663  -0.566   3.433   2.777  0.0000  0.0000  0.0000
  380UNL      C 1664  -0.468   3.414   2.895  0.0000  0.0000  0.0000
  380UNL      C 1665  -0.550   3.393   3.022  0.0000  0.0000  0.0000
  380UNL      C 1666   0.250   3.480   2.647  0.0000  0.0000  0.0000
  380UNL      C 1667   0.351   3.422   2.742  0.0000  0.0000  0.0000
  380UNL      C 1668   0.301   3.429   2.888  0.0000  0.0000  0.0000
  380UNL      C 1669   0.411   3.389   2.993  0.0000  0.0000  0.0000
  380UNL      C 1670   0.350   3.399   3.135  0.0000  0.0000  0.0000
  380UNL      C 1671   0.459   3.371   3.240  0.0000  0.0000  0.0000
  380UNL      C 1672   0.409   3.403   3.387  0.0000  0.0000  0.0000
  381UNL      C 1673   0.343   3.824   3.765  0.0000  0.0000  0.0000
  381UNL      C 1674   0.357   3.929   3.662  0.0000  0.0000  0.0000
  381UNL      N 1675   0.287   3.879   3.882  0.0000  0.0000  0.0000
  381UNL      S 1676   0.302   4.081   3.724  0.0000  0.0000  0.0000
  381UNL      C 1677   0.257   4.013   3.879  0.0000  0.0000  0.0000
  381UNL      C 1678   0.265   3.792   3.998  0.0000  0.0000  0.0000
  381UNL      S 1679   0.190   4.101   3.997  0.0000  0.0000  0.0000
  381UNL      O 1680   0.375   3.708   3.756  0.0000  0.0000  0.0000
  381UNL      C 1681   0.403   3.894   3.539  0.0000  0.0000  0.0000
  382UNL      C 1682   0.430   3.975   3.422  0.0000  0.0000  0.0000
  382UNL      C 1683   0.429   4.112   3.415  0.0000  0.0000  0.0000
  382UNL      C 1684   0.463   3.907   3.302  0.0000  0.0000  0.0000
  382UNL      C 1685   0.456   4.182   3.297  0.0000  0.0000  0.0000
  382UNL      C 1686   0.488   4.121   3.153  0.0000  0.0000  0.0000
  382UNL      C 1687   0.492   3.977   3.158  0.0000  0.0000  0.0000
  382UNL      N 1688   0.473   3.772   3.288  0.0000  0.0000  0.0000
  382UNL      N 1689   0.523   3.895   3.054  0.0000  0.0000  0.0000
  382UNL      S 1690   0.516   3.744   3.111  0.0000  0.0000  0.0000
  383UNL      C 1691   0.520   4.196   3.034  0.0000  0.0000  0.0000
  383UNL      C 1692   0.525   4.334   3.021  0.0000  0.0000  0.0000
  383UNL      C 1693   0.567   4.374   2.893  0.0000  0.0000  0.0000
  383UNL      C 1694   0.592   4.269   2.810  0.0000  0.0000  0.0000
  383UNL      S 1695   0.565   4.118   2.884  0.0000  0.0000  0.0000
  384UNL      C 1696   0.643   4.314   2.682  0.0000  0.0000  0.0000
  384UNL      C 1697   0.648   4.455   2.689  0.0000  0.0000  0.0000
  385UNL      C 1698   0.596   4.507   2.825  0.0000  0.0000  0.0000
  386UNL      C 1699   0.695   4.528   2.583  0.0000  0.0000  0.0000
  387UNL      C 1700   0.469   4.592   2.804  0.0000  0.0000  0.0000
  387UNL      C 1701   0.704   4.587   2.899  0.0000  0.0000  0.0000
  387UNL      C 1702   0.830   4.514   2.933  0.0000  0.0000  0.0000
  387UNL      C 1703   0.356   4.522   2.732  0.0000  0.0000  0.0000
  387UNL      C 1704   0.934   4.603   2.994  0.0000  0.0000  0.0000
  387UNL      C 1705   1.062   4.534   3.030  0.0000  0.0000  0.0000
  387UNL      C 1706   1.176   4.613   3.087  0.0000  0.0000  0.0000
  387UNL      C 1707   1.198   4.760   3.065  0.0000  0.0000  0.0000
  387UNL      C 1708   1.306   4.864   3.063  0.0000  0.0000  0.0000
  387UNL      C 1709   1.285   4.985   3.147  0.0000  0.0000  0.0000
  387UNL      C 1710   0.231   4.602   2.708  0.0000  0.0000  0.0000
  387UNL      C 1711   0.128   4.523   2.632  0.0000  0.0000  0.0000
  387UNL      C 1712  -0.007   4.588   2.611  0.0000  0.0000  0.0000
  387UNL      C 1713  -0.103   4.497   2.540  0.0000  0.0000  0.0000
  387UNL      C 1714  -0.235   4.566   2.516  0.0000  0.0000  0.0000
  387UNL      C 1715  -0.321   4.568   2.640  0.0000  0.0000  0.0000
  388UNL      C 1716   0.682   4.245   2.569  0.0000  0.0000  0.0000
  388UNL      C 1717   0.729   4.317   2.463  0.0000  0.0000  0.0000
  389UNL      C 1718   0.390   3.787   4.085  0.0000  0.0000  0.0000
  390UNL      C 1719   0.735   4.459   2.469  0.0000  0.0000  0.0000
  391UNL      C 1720   0.789   4.503   2.340  0.0000  0.0000  0.0000
  392UNL      C 1721   0.779   4.264   2.328  0.0000  0.0000  0.0000
  393UNL      C 1722   0.815   4.395   2.260  0.0000  0.0000  0.0000
  394UNL      C 1723   0.667   4.189   2.252  0.0000  0.0000  0.0000
  394UNL      C 1724   0.902   4.171   2.345  0.0000  0.0000  0.0000
  395UNL      S 1725   0.825   4.651   2.264  0.0000  0.0000  0.0000
  395UNL      C 1726   0.875   4.568   2.118  0.0000  0.0000  0.0000
  395UNL      C 1727   0.864   4.431   2.134  0.0000  0.0000  0.0000
  396UNL      C 1728   0.915   4.637   1.998  0.0000  0.0000  0.0000
  396UNL      C 1729   0.957   4.565   1.887  0.0000  0.0000  0.0000
  396UNL      C 1730   0.987   4.627   1.762  0.0000  0.0000  0.0000
  396UNL      C 1731   0.981   4.763   1.743  0.0000  0.0000  0.0000
  396UNL      C 1732   0.912   4.779   1.983  0.0000  0.0000  0.0000
  396UNL      C 1733   0.945   4.841   1.859  0.0000  0.0000  0.0000
  397UNL      C 1734   1.007   4.832   1.619  0.0000  0.0000  0.0000
  398UNL      N 1735   0.877   4.868   2.079  0.0000  0.0000  0.0000
  398UNL      N 1736   0.932   4.976   1.862  0.0000  0.0000  0.0000
  398UNL      S 1737   0.887   5.013   2.011  0.0000  0.0000  0.0000
  399UNL      C 1738   1.040   4.782   1.498  0.0000  0.0000  0.0000
  399UNL      S 1739   1.067   4.618   1.446  0.0000  0.0000  0.0000
  399UNL      C 1740   1.054   4.873   1.383  0.0000  0.0000  0.0000
  399UNL      O 1741   1.041   4.993   1.385  0.0000  0.0000  0.0000
  399UNL      N 1742   1.089   4.802   1.268  0.0000  0.0000  0.0000
  399UNL      C 1743   1.100   4.665   1.280  0.0000  0.0000  0.0000
  399UNL      C 1744   1.102   4.871   1.140  0.0000  0.0000  0.0000
  399UNL      C 1745   0.970   4.879   1.070  0.0000  0.0000  0.0000
  399UNL      S 1746   1.137   4.560   1.164  0.0000  0.0000  0.0000
  400UNL      C 1747   1.018   4.233   2.415  0.0000  0.0000  0.0000
  400UNL      C 1748   1.144   4.145   2.427  0.0000  0.0000  0.0000
  400UNL      C 1749   1.212   4.118   2.292  0.0000  0.0000  0.0000
  400UNL      C 1750   1.279   4.240   2.227  0.0000  0.0000  0.0000
  400UNL      C 1751   1.357   4.225   2.095  0.0000  0.0000  0.0000
  400UNL      C 1752   1.259   4.207   1.978  0.0000  0.0000  0.0000
  400UNL      C 1753   1.342   4.185   1.850  0.0000  0.0000  0.0000
  400UNL      C 1754   0.541   4.272   2.226  0.0000  0.0000  0.0000
  400UNL      C 1755   0.440   4.214   2.131  0.0000  0.0000  0.0000
  400UNL      C 1756   0.490   4.221   1.985  0.0000  0.0000  0.0000
  400UNL      C 1757   0.380   4.181   1.880  0.0000  0.0000  0.0000
  400UNL      C 1758   0.441   4.192   1.738  0.0000  0.0000  0.0000
  400UNL      C 1759   0.332   4.163   1.632  0.0000  0.0000  0.0000
  400UNL      C 1760   0.382   4.195   1.485  0.0000  0.0000  0.0000
  401UNL      C 1761   0.148   4.894   5.366  0.0000  0.0000  0.0000
  401UNL      C 1762   0.163   4.788   5.263  0.0000  0.0000  0.0000
  401UNL      N 1763   0.092   4.839   5.482  0.0000  0.0000  0.0000
  401UNL      S 1764   0.107   4.636   5.324  0.0000  0.0000  0.0000
  401UNL      C 1765   0.062   4.705   5.479  0.0000  0.0000  0.0000
  401UNL      C 1766   0.070   4.925   5.599  0.0000  0.0000  0.0000
  401UNL      S 1767  -0.005   4.617   5.598  0.0000  0.0000  0.0000
  401UNL      O 1768   0.181   5.009   5.356  0.0000  0.0000  0.0000
  401UNL      C 1769   0.208   4.824   5.139  0.0000  0.0000  0.0000
  402UNL      C 1770   0.235   4.743   5.023  0.0000  0.0000  0.0000
  402UNL      C 1771   0.234   4.606   5.016  0.0000  0.0000  0.0000
  402UNL      C 1772   0.269   4.811   4.902  0.0000  0.0000  0.0000
  402UNL      C 1773   0.261   4.535   4.897  0.0000  0.0000  0.0000
  402UNL      C 1774   0.293   4.596   4.776  0.0000  0.0000  0.0000
  402UNL      C 1775   0.297   4.740   4.781  0.0000  0.0000  0.0000
  402UNL      N 1776   0.278   4.945   4.888  0.0000  0.0000  0.0000
  402UNL      N 1777   0.328   4.822   4.678  0.0000  0.0000  0.0000
  402UNL      S 1778   0.321   4.973   4.734  0.0000  0.0000  0.0000
  403UNL      C 1779   0.325   4.521   4.658  0.0000  0.0000  0.0000
  403UNL      C 1780   0.330   4.384   4.645  0.0000  0.0000  0.0000
  403UNL      C 1781   0.372   4.343   4.517  0.0000  0.0000  0.0000
  403UNL      C 1782   0.397   4.449   4.434  0.0000  0.0000  0.0000
  403UNL      S 1783   0.370   4.599   4.508  0.0000  0.0000  0.0000
  404UNL      C 1784   0.448   4.403   4.306  0.0000  0.0000  0.0000
  404UNL      C 1785   0.453   4.263   4.313  0.0000  0.0000  0.0000
  405UNL      C 1786   0.402   4.210   4.449  0.0000  0.0000  0.0000
  406UNL      C 1787   0.500   4.190   4.206  0.0000  0.0000  0.0000
  407UNL      C 1788   0.274   4.125   4.428  0.0000  0.0000  0.0000
  407UNL      C 1789   0.509   4.130   4.523  0.0000  0.0000  0.0000
  407UNL      C 1790   0.635   4.203   4.557  0.0000  0.0000  0.0000
  407UNL      C 1791   0.162   4.195   4.356  0.0000  0.0000  0.0000
  407UNL      C 1792   0.740   4.114   4.618  0.0000  0.0000  0.0000
  407UNL      C 1793   0.867   4.184   4.654  0.0000  0.0000  0.0000
  407UNL      C 1794   0.981   4.104   4.710  0.0000  0.0000  0.0000
  407UNL      C 1795   1.003   3.957   4.689  0.0000  0.0000  0.0000
  407UNL      C 1796   1.111   3.853   4.686  0.0000  0.0000  0.0000
  407UNL      C 1797   1.090   3.732   4.771  0.0000  0.0000  0.0000
  407UNL      C 1798   0.036   4.115   4.332  0.0000  0.0000  0.0000
  407UNL      C 1799  -0.067   4.195   4.256  0.0000  0.0000  0.0000
  407UNL      C 1800  -0.201   4.130   4.235  0.0000  0.0000  0.0000
  407UNL      C 1801  -0.298   4.221   4.164  0.0000  0.0000  0.0000
  407UNL      C 1802  -0.429   4.151   4.140  0.0000  0.0000  0.0000
  407UNL      C 1803  -0.516   4.149   4.264  0.0000  0.0000  0.0000
  408UNL      C 1804   0.487   4.472   4.193  0.0000  0.0000  0.0000
  408UNL      C 1805   0.534   4.400   4.086  0.0000  0.0000  0.0000
  409UNL      C 1806   0.195   4.930   5.686  0.0000  0.0000  0.0000
  410UNL      C 1807   0.540   4.259   4.093  0.0000  0.0000  0.0000
  411UNL      C 1808   0.594   4.214   3.964  0.0000  0.0000  0.0000
  412UNL      C 1809   0.584   4.453   3.951  0.0000  0.0000  0.0000
  413UNL      C 1810   0.620   4.323   3.883  0.0000  0.0000  0.0000
  414UNL      C 1811   0.472   4.528   3.876  0.0000  0.0000  0.0000
  414UNL      C 1812   0.707   4.546   3.969  0.0000  0.0000  0.0000
  415UNL      S 1813   0.630   4.066   3.888  0.0000  0.0000  0.0000
  415UNL      C 1814   0.680   4.149   3.742  0.0000  0.0000  0.0000
  415UNL      C 1815   0.669   4.286   3.758  0.0000  0.0000  0.0000
  416UNL      C 1816   0.720   4.080   3.622  0.0000  0.0000  0.0000
  416UNL      C 1817   0.763   4.152   3.511  0.0000  0.0000  0.0000
  416UNL      C 1818   0.792   4.090   3.386  0.0000  0.0000  0.0000
  416UNL      C 1819   0.786   3.954   3.367  0.0000  0.0000  0.0000
  416UNL      C 1820   0.717   3.938   3.607  0.0000  0.0000  0.0000
  416UNL      C 1821   0.750   3.876   3.483  0.0000  0.0000  0.0000
  417UNL      C 1822   0.812   3.885   3.219  0.0000  0.0000  0.0000
  418UNL      N 1823   0.682   3.849   3.702  0.0000  0.0000  0.0000
  418UNL      N 1824   0.737   3.741   3.486  0.0000  0.0000  0.0000
  418UNL      S 1825   0.692   3.704   3.635  0.0000  0.0000  0.0000
  419UNL      C 1826   0.845   3.935   3.098  0.0000  0.0000  0.0000
  419UNL      S 1827   0.873   4.099   3.047  0.0000  0.0000  0.0000
  419UNL      C 1828   0.860   3.845   2.984  0.0000  0.0000  0.0000
  419UNL      O 1829   0.846   3.724   2.985  0.0000  0.0000  0.0000
  419UNL      N 1830   0.895   3.915   2.869  0.0000  0.0000  0.0000
  419UNL      C 1831   0.906   4.052   2.880  0.0000  0.0000  0.0000
  419UNL      C 1832   0.907   3.847   2.740  0.0000  0.0000  0.0000
  419UNL      C 1833   0.776   3.838   2.670  0.0000  0.0000  0.0000
  419UNL      S 1834   0.942   4.158   2.765  0.0000  0.0000  0.0000
  420UNL      C 1835   0.823   4.484   4.039  0.0000  0.0000  0.0000
  420UNL      C 1836   0.949   4.572   4.051  0.0000  0.0000  0.0000
  420UNL      C 1837   1.017   4.599   3.916  0.0000  0.0000  0.0000
  420UNL      C 1838   1.084   4.477   3.851  0.0000  0.0000  0.0000
  420UNL      C 1839   1.162   4.492   3.719  0.0000  0.0000  0.0000
  420UNL      C 1840   1.064   4.511   3.602  0.0000  0.0000  0.0000
  420UNL      C 1841   1.147   4.532   3.474  0.0000  0.0000  0.0000
  420UNL      C 1842   0.346   4.445   3.849  0.0000  0.0000  0.0000
  420UNL      C 1843   0.245   4.503   3.755  0.0000  0.0000  0.0000
  420UNL      C 1844   0.295   4.496   3.609  0.0000  0.0000  0.0000
  420UNL      C 1845   0.186   4.536   3.504  0.0000  0.0000  0.0000
  420UNL      C 1846   0.246   4.525   3.362  0.0000  0.0000  0.0000
  420UNL      C 1847   0.137   4.554   3.256  0.0000  0.0000  0.0000
  420UNL      C 1848   0.187   4.522   3.109  0.0000  0.0000  0.0000
  421UNL      C 1849   0.253   4.101   2.731  0.0000  0.0000  0.0000
  421UNL      C 1850   0.239   3.996   2.834  0.0000  0.0000  0.0000
  421UNL      N 1851   0.309   4.046   2.615  0.0000  0.0000  0.0000
  421UNL      S 1852   0.294   3.844   2.773  0.0000  0.0000  0.0000
  421UNL      C 1853   0.339   3.912   2.618  0.0000  0.0000  0.0000
  421UNL      C 1854   0.332   4.133   2.498  0.0000  0.0000  0.0000
  421UNL      S 1855   0.406   3.824   2.499  0.0000  0.0000  0.0000
  421UNL      O 1856   0.221   4.216   2.741  0.0000  0.0000  0.0000
  421UNL      C 1857   0.193   4.031   2.958  0.0000  0.0000  0.0000
  422UNL      C 1858   0.166   3.950   3.074  0.0000  0.0000  0.0000
  422UNL      C 1859   0.168   3.813   3.081  0.0000  0.0000  0.0000
  422UNL      C 1860   0.133   4.018   3.194  0.0000  0.0000  0.0000
  422UNL      C 1861   0.140   3.743   3.200  0.0000  0.0000  0.0000
  422UNL      C 1862   0.108   3.804   3.344  0.0000  0.0000  0.0000
  422UNL      C 1863   0.105   3.948   3.339  0.0000  0.0000  0.0000
  422UNL      N 1864   0.123   4.153   3.209  0.0000  0.0000  0.0000
  422UNL      N 1865   0.073   4.029   3.442  0.0000  0.0000  0.0000
  422UNL      S 1866   0.080   4.181   3.386  0.0000  0.0000  0.0000
  423UNL      C 1867   0.077   3.728   3.462  0.0000  0.0000  0.0000
  423UNL      C 1868   0.071   3.591   3.475  0.0000  0.0000  0.0000
  423UNL      C 1869   0.029   3.550   3.603  0.0000  0.0000  0.0000
  423UNL      C 1870   0.004   3.656   3.686  0.0000  0.0000  0.0000
  423UNL      S 1871   0.031   3.807   3.612  0.0000  0.0000  0.0000
  424UNL      C 1872  -0.046   3.611   3.815  0.0000  0.0000  0.0000
  424UNL      C 1873  -0.052   3.470   3.807  0.0000  0.0000  0.0000
  425UNL      C 1874  -0.000   3.418   3.671  0.0000  0.0000  0.0000
  426UNL      C 1875  -0.099   3.397   3.914  0.0000  0.0000  0.0000
  427UNL      C 1876   0.127   3.333   3.692  0.0000  0.0000  0.0000
  427UNL      C 1877  -0.108   3.338   3.597  0.0000  0.0000  0.0000
  427UNL      C 1878  -0.234   3.411   3.563  0.0000  0.0000  0.0000
  427UNL      C 1879   0.240   3.403   3.764  0.0000  0.0000  0.0000
  427UNL      C 1880  -0.338   3.322   3.503  0.0000  0.0000  0.0000
  427UNL      C 1881  -0.466   3.391   3.466  0.0000  0.0000  0.0000
  427UNL      C 1882  -0.580   3.311   3.410  0.0000  0.0000  0.0000
  427UNL      C 1883  -0.602   3.165   3.432  0.0000  0.0000  0.0000
  427UNL      C 1884  -0.710   3.061   3.434  0.0000  0.0000  0.0000
  427UNL      C 1885  -0.689   2.939   3.349  0.0000  0.0000  0.0000
  427UNL      C 1886   0.366   3.323   3.788  0.0000  0.0000  0.0000
  427UNL      C 1887   0.468   3.402   3.865  0.0000  0.0000  0.0000
  427UNL      C 1888   0.603   3.337   3.885  0.0000  0.0000  0.0000
  427UNL      C 1889   0.699   3.428   3.956  0.0000  0.0000  0.0000
  427UNL      C 1890   0.831   3.359   3.980  0.0000  0.0000  0.0000
  427UNL      C 1891   0.917   3.357   3.856  0.0000  0.0000  0.0000
  428UNL      C 1892  -0.085   3.680   3.927  0.0000  0.0000  0.0000
  428UNL      C 1893  -0.133   3.608   4.034  0.0000  0.0000  0.0000
  429UNL      C 1894   0.206   4.137   2.411  0.0000  0.0000  0.0000
  430UNL      C 1895  -0.139   3.466   4.028  0.0000  0.0000  0.0000
  431UNL      C 1896  -0.193   3.422   4.156  0.0000  0.0000  0.0000
  432UNL      C 1897  -0.183   3.661   4.169  0.0000  0.0000  0.0000
  433UNL      C 1898  -0.219   3.530   4.237  0.0000  0.0000  0.0000
  434UNL      C 1899  -0.071   3.736   4.244  0.0000  0.0000  0.0000
  434UNL      C 1900  -0.306   3.754   4.151  0.0000  0.0000  0.0000
  435UNL      S 1901  -0.228   3.274   4.232  0.0000  0.0000  0.0000
  435UNL      C 1902  -0.278   3.357   4.378  0.0000  0.0000  0.0000
  435UNL      C 1903  -0.267   3.494   4.363  0.0000  0.0000  0.0000
  436UNL      C 1904  -0.319   3.288   4.498  0.0000  0.0000  0.0000
  436UNL      C 1905  -0.361   3.360   4.609  0.0000  0.0000  0.0000
  436UNL      C 1906  -0.391   3.298   4.735  0.0000  0.0000  0.0000
  436UNL      C 1907  -0.385   3.161   4.753  0.0000  0.0000  0.0000
  436UNL      C 1908  -0.316   3.146   4.513  0.0000  0.0000  0.0000
  436UNL      C 1909  -0.349   3.084   4.638  0.0000  0.0000  0.0000
  437UNL      C 1910  -0.411   3.092   4.877  0.0000  0.0000  0.0000
  438UNL      N 1911  -0.281   3.057   4.418  0.0000  0.0000  0.0000
  438UNL      N 1912  -0.336   2.949   4.634  0.0000  0.0000  0.0000
  438UNL      S 1913  -0.290   2.912   4.485  0.0000  0.0000  0.0000
  439UNL      C 1914  -0.444   3.143   4.999  0.0000  0.0000  0.0000
  439UNL      S 1915  -0.471   3.307   5.050  0.0000  0.0000  0.0000
  439UNL      C 1916  -0.458   3.052   5.113  0.0000  0.0000  0.0000
  439UNL      O 1917  -0.445   2.932   5.112  0.0000  0.0000  0.0000
  439UNL      N 1918  -0.493   3.123   5.228  0.0000  0.0000  0.0000
  439UNL      C 1919  -0.504   3.260   5.217  0.0000  0.0000  0.0000
  439UNL      C 1920  -0.505   3.054   5.357  0.0000  0.0000  0.0000
  439UNL      C 1921  -0.374   3.045   5.427  0.0000  0.0000  0.0000
  439UNL      S 1922  -0.541   3.365   5.332  0.0000  0.0000  0.0000
  440UNL      C 1923  -0.422   3.691   4.081  0.0000  0.0000  0.0000
  440UNL      C 1924  -0.548   3.780   4.070  0.0000  0.0000  0.0000
  440UNL      C 1925  -0.616   3.807   4.205  0.0000  0.0000  0.0000
  440UNL      C 1926  -0.683   3.684   4.269  0.0000  0.0000  0.0000
  440UNL      C 1927  -0.760   3.700   4.401  0.0000  0.0000  0.0000
  440UNL      C 1928  -0.663   3.718   4.518  0.0000  0.0000  0.0000
  440UNL      C 1929  -0.745   3.740   4.646  0.0000  0.0000  0.0000
  440UNL      C 1930   0.055   3.652   4.271  0.0000  0.0000  0.0000
  440UNL      C 1931   0.156   3.711   4.365  0.0000  0.0000  0.0000
  440UNL      C 1932   0.106   3.704   4.512  0.0000  0.0000  0.0000
  440UNL      C 1933   0.216   3.743   4.616  0.0000  0.0000  0.0000
  440UNL      C 1934   0.155   3.733   4.758  0.0000  0.0000  0.0000
  440UNL      C 1935   0.264   3.761   4.864  0.0000  0.0000  0.0000
  440UNL      C 1936   0.214   3.729   5.011  0.0000  0.0000  0.0000
  441UNL      C 1937   0.058   3.031   4.379  0.0000  0.0000  0.0000
  441UNL      C 1938   0.043   3.136   4.482  0.0000  0.0000  0.0000
  441UNL      N 1939   0.114   3.086   4.262  0.0000  0.0000  0.0000
  441UNL      S 1940   0.099   3.289   4.420  0.0000  0.0000  0.0000
  441UNL      C 1941   0.144   3.220   4.265  0.0000  0.0000  0.0000
  441UNL      C 1942   0.136   3.000   4.146  0.0000  0.0000  0.0000
  441UNL      S 1943   0.211   3.308   4.147  0.0000  0.0000  0.0000
  441UNL      O 1944   0.025   2.916   4.388  0.0000  0.0000  0.0000
  441UNL      C 1945  -0.002   3.101   4.605  0.0000  0.0000  0.0000
  442UNL      C 1946  -0.029   3.182   4.722  0.0000  0.0000  0.0000
  442UNL      C 1947  -0.028   3.319   4.729  0.0000  0.0000  0.0000
  442UNL      C 1948  -0.062   3.114   4.842  0.0000  0.0000  0.0000
  442UNL      C 1949  -0.055   3.390   4.847  0.0000  0.0000  0.0000
  442UNL      C 1950  -0.087   3.328   4.968  0.0000  0.0000  0.0000
  442UNL      C 1951  -0.091   3.185   4.963  0.0000  0.0000  0.0000
  442UNL      N 1952  -0.072   2.979   4.856  0.0000  0.0000  0.0000
  442UNL      N 1953  -0.122   3.103   5.067  0.0000  0.0000  0.0000
  442UNL      S 1954  -0.115   2.952   5.010  0.0000  0.0000  0.0000
  443UNL      C 1955  -0.118   3.404   5.087  0.0000  0.0000  0.0000
  443UNL      C 1956  -0.124   3.541   5.100  0.0000  0.0000  0.0000
  443UNL      C 1957  -0.166   3.582   5.227  0.0000  0.0000  0.0000
  443UNL      C 1958  -0.191   3.476   5.310  0.0000  0.0000  0.0000
  443UNL      S 1959  -0.164   3.325   5.237  0.0000  0.0000  0.0000
  444UNL      C 1960  -0.242   3.521   5.439  0.0000  0.0000  0.0000
  444UNL      C 1961  -0.247   3.662   5.432  0.0000  0.0000  0.0000
  445UNL      C 1962  -0.195   3.715   5.295  0.0000  0.0000  0.0000
  446UNL      C 1963  -0.294   3.735   5.538  0.0000  0.0000  0.0000
  447UNL      C 1964  -0.068   3.800   5.317  0.0000  0.0000  0.0000
  447UNL      C 1965  -0.303   3.794   5.221  0.0000  0.0000  0.0000
  447UNL      C 1966  -0.429   3.722   5.187  0.0000  0.0000  0.0000
  447UNL      C 1967   0.045   3.730   5.389  0.0000  0.0000  0.0000
  447UNL      C 1968  -0.533   3.811   5.127  0.0000  0.0000  0.0000
  447UNL      C 1969  -0.661   3.741   5.090  0.0000  0.0000  0.0000
  447UNL      C 1970  -0.775   3.821   5.034  0.0000  0.0000  0.0000
  447UNL      C 1971  -0.797   3.968   5.056  0.0000  0.0000  0.0000
  447UNL      C 1972  -0.905   4.071   5.058  0.0000  0.0000  0.0000
  447UNL      C 1973  -0.884   4.193   4.973  0.0000  0.0000  0.0000
  447UNL      C 1974   0.171   3.810   5.412  0.0000  0.0000  0.0000
  447UNL      C 1975   0.273   3.730   5.489  0.0000  0.0000  0.0000
  447UNL      C 1976   0.408   3.795   5.509  0.0000  0.0000  0.0000
  447UNL      C 1977   0.504   3.704   5.580  0.0000  0.0000  0.0000
  447UNL      C 1978   0.636   3.774   5.604  0.0000  0.0000  0.0000
  447UNL      C 1979   0.722   3.775   5.481  0.0000  0.0000  0.0000
  448UNL      C 1980  -0.281   3.452   5.551  0.0000  0.0000  0.0000
  448UNL      C 1981  -0.328   3.524   5.658  0.0000  0.0000  0.0000
  449UNL      C 1982   0.011   2.995   4.059  0.0000  0.0000  0.0000
  450UNL      C 1983  -0.334   3.666   5.652  0.0000  0.0000  0.0000
  451UNL      C 1984  -0.388   3.710   5.780  0.0000  0.0000  0.0000
  452UNL      C 1985  -0.378   3.472   5.793  0.0000  0.0000  0.0000
  453UNL      C 1986  -0.414   3.602   5.861  0.0000  0.0000  0.0000
  454UNL      C 1987  -0.266   3.397   5.869  0.0000  0.0000  0.0000
  454UNL      C 1988  -0.501   3.379   5.776  0.0000  0.0000  0.0000
  455UNL      S 1989  -0.424   3.859   5.857  0.0000  0.0000  0.0000
  455UNL      C 1990  -0.473   3.776   6.002  0.0000  0.0000  0.0000
  455UNL      C 1991  -0.462   3.639   5.987  0.0000  0.0000  0.0000
  456UNL      C 1992  -0.514   3.844   6.122  0.0000  0.0000  0.0000
  456UNL      C 1993  -0.556   3.773   6.233  0.0000  0.0000  0.0000
  456UNL      C 1994  -0.586   3.834   6.359  0.0000  0.0000  0.0000
  456UNL      C 1995  -0.580   3.971   6.377  0.0000  0.0000  0.0000
  456UNL      C 1996  -0.511   3.987   6.137  0.0000  0.0000  0.0000
  456UNL      C 1997  -0.544   4.048   6.262  0.0000  0.0000  0.0000
  457UNL      C 1998  -0.606   4.040   6.525  0.0000  0.0000  0.0000
  458UNL      N 1999  -0.476   4.075   6.042  0.0000  0.0000  0.0000
  458UNL      N 2000  -0.531   4.184   6.258  0.0000  0.0000  0.0000
  458UNL      S 2001  -0.485   4.221   6.110  0.0000  0.0000  0.0000
  459UNL      C 2002  -0.639   3.990   6.646  0.0000  0.0000  0.0000
  459UNL      S 2003  -0.666   3.825   6.698  0.0000  0.0000  0.0000
  459UNL      C 2004  -0.654   4.080   6.761  0.0000  0.0000  0.0000
  459UNL      O 2005  -0.640   4.201   6.759  0.0000  0.0000  0.0000
  459UNL      N 2006  -0.688   4.010   6.876  0.0000  0.0000  0.0000
  459UNL      C 2007  -0.699   3.873   6.864  0.0000  0.0000  0.0000
  459UNL      C 2008  -0.701   4.078   7.005  0.0000  0.0000  0.0000
  459UNL      C 2009  -0.569   4.087   7.074  0.0000  0.0000  0.0000
  459UNL      S 2010  -0.736   3.767   6.980  0.0000  0.0000  0.0000
  460UNL      C 2011  -0.617   3.441   5.705  0.0000  0.0000  0.0000
  460UNL      C 2012  -0.743   3.353   5.694  0.0000  0.0000  0.0000
  460UNL      C 2013  -0.811   3.325   5.829  0.0000  0.0000  0.0000
  460UNL      C 2014  -0.878   3.448   5.893  0.0000  0.0000  0.0000
  460UNL      C 2015  -0.956   3.433   6.025  0.0000  0.0000  0.0000
  460UNL      C 2016  -0.858   3.414   6.143  0.0000  0.0000  0.0000
  460UNL      C 2017  -0.940   3.393   6.270  0.0000  0.0000  0.0000
  460UNL      C 2018  -0.140   3.480   5.895  0.0000  0.0000  0.0000
  460UNL      C 2019  -0.039   3.422   5.990  0.0000  0.0000  0.0000
  460UNL      C 2020  -0.089   3.429   6.136  0.0000  0.0000  0.0000
  460UNL      C 2021   0.021   3.389   6.241  0.0000  0.0000  0.0000
  460UNL      C 2022  -0.040   3.399   6.383  0.0000  0.0000  0.0000
  460UNL      C 2023   0.069   3.371   6.488  0.0000  0.0000  0.0000
  460UNL      C 2024   0.019   3.403   6.635  0.0000  0.0000  0.0000
  461UNL      C 2025  -0.047   3.824   7.013  0.0000  0.0000  0.0000
  461UNL      C 2026  -0.033   3.929   6.910  0.0000  0.0000  0.0000
  461UNL      N 2027  -0.103   3.879   7.130  0.0000  0.0000  0.0000
  461UNL      S 2028  -0.088   4.081   6.972  0.0000  0.0000  0.0000
  461UNL      C 2029  -0.133   4.013   7.127  0.0000  0.0000  0.0000
  461UNL      C 2030  -0.125   3.792   7.246  0.0000  0.0000  0.0000
  461UNL      S 2031  -0.200   4.101   7.245  0.0000  0.0000  0.0000
  461UNL      O 2032  -0.015   3.708   7.004  0.0000  0.0000  0.0000
  461UNL      C 2033   0.013   3.894   6.787  0.0000  0.0000  0.0000
  462UNL      C 2034   0.040   3.975   6.670  0.0000  0.0000  0.0000
  462UNL      C 2035   0.039   4.112   6.663  0.0000  0.0000  0.0000
  462UNL      C 2036   0.073   3.907   6.550  0.0000  0.0000  0.0000
  462UNL      C 2037   0.066   4.182   6.545  0.0000  0.0000  0.0000
  462UNL      C 2038   0.098   4.121   6.401  0.0000  0.0000  0.0000
  462UNL      C 2039   0.102   3.977   6.406  0.0000  0.0000  0.0000
  462UNL      N 2040   0.083   3.772   6.536  0.0000  0.0000  0.0000
  462UNL      N 2041   0.133   3.895   6.302  0.0000  0.0000  0.0000
  462UNL      S 2042   0.126   3.744   6.359  0.0000  0.0000  0.0000
  463UNL      C 2043   0.130   4.196   6.282  0.0000  0.0000  0.0000
  463UNL      C 2044   0.135   4.334   6.269  0.0000  0.0000  0.0000
  463UNL      C 2045   0.177   4.374   6.141  0.0000  0.0000  0.0000
  463UNL      C 2046   0.202   4.269   6.058  0.0000  0.0000  0.0000
  463UNL      S 2047   0.175   4.118   6.132  0.0000  0.0000  0.0000
  464UNL      C 2048   0.253   4.314   5.930  0.0000  0.0000  0.0000
  464UNL      C 2049   0.258   4.455   5.937  0.0000  0.0000  0.0000
  465UNL      C 2050   0.206   4.507   6.073  0.0000  0.0000  0.0000
  466UNL      C 2051   0.305   4.528   5.831  0.0000  0.0000  0.0000
  467UNL      C 2052   0.079   4.592   6.052  0.0000  0.0000  0.0000
  467UNL      C 2053   0.314   4.587   6.147  0.0000  0.0000  0.0000
  467UNL      C 2054   0.440   4.514   6.181  0.0000  0.0000  0.0000
  467UNL      C 2055  -0.034   4.522   5.980  0.0000  0.0000  0.0000
  467UNL      C 2056   0.544   4.603   6.242  0.0000  0.0000  0.0000
  467UNL      C 2057   0.672   4.534   6.278  0.0000  0.0000  0.0000
  467UNL      C 2058   0.786   4.613   6.335  0.0000  0.0000  0.0000
  467UNL      C 2059   0.808   4.760   6.313  0.0000  0.0000  0.0000
  467UNL      C 2060   0.916   4.864   6.311  0.0000  0.0000  0.0000
  467UNL      C 2061   0.895   4.985   6.395  0.0000  0.0000  0.0000
  467UNL      C 2062  -0.159   4.602   5.956  0.0000  0.0000  0.0000
  467UNL      C 2063  -0.262   4.523   5.880  0.0000  0.0000  0.0000
  467UNL      C 2064  -0.397   4.588   5.859  0.0000  0.0000  0.0000
  467UNL      C 2065  -0.493   4.497   5.788  0.0000  0.0000  0.0000
  467UNL      C 2066  -0.625   4.566   5.764  0.0000  0.0000  0.0000
  467UNL      C 2067  -0.711   4.568   5.888  0.0000  0.0000  0.0000
  468UNL      C 2068   0.292   4.245   5.817  0.0000  0.0000  0.0000
  468UNL      C 2069   0.339   4.317   5.711  0.0000  0.0000  0.0000
  469UNL      C 2070  -0.000   3.787   7.333  0.0000  0.0000  0.0000
  470UNL      C 2071   0.345   4.459   5.717  0.0000  0.0000  0.0000
  471UNL      C 2072   0.399   4.503   5.588  0.0000  0.0000  0.0000
  472UNL      C 2073   0.389   4.264   5.576  0.0000  0.0000  0.0000
  473UNL      C 2074   0.425   4.395   5.508  0.0000  0.0000  0.0000
  474UNL      C 2075   0.277   4.189   5.500  0.0000  0.0000  0.0000
  474UNL      C 2076   0.512   4.171   5.593  0.0000  0.0000  0.0000
  475UNL      S 2077   0.435   4.651   5.512  0.0000  0.0000  0.0000
  475UNL      C 2078   0.485   4.568   5.366  0.0000  0.0000  0.0000
  475UNL      C 2079   0.474   4.431   5.382  0.0000  0.0000  0.0000
  476UNL      C 2080   0.525   4.637   5.246  0.0000  0.0000  0.0000
  476UNL      C 2081   0.567   4.565   5.135  0.0000  0.0000  0.0000
  476UNL      C 2082   0.597   4.627   5.010  0.0000  0.0000  0.0000
  476UNL      C 2083   0.591   4.763   4.991  0.0000  0.0000  0.0000
  476UNL      C 2084   0.522   4.779   5.231  0.0000  0.0000  0.0000
  476UNL      C 2085   0.555   4.841   5.107  0.0000  0.0000  0.0000
  477UNL      C 2086   0.617   4.832   4.867  0.0000  0.0000  0.0000
  478UNL      N 2087   0.487   4.868   5.327  0.0000  0.0000  0.0000
  478UNL      N 2088   0.542   4.976   5.110  0.0000  0.0000  0.0000
  478UNL      S 2089   0.497   5.013   5.259  0.0000  0.0000  0.0000
  479UNL      C 2090   0.650   4.782   4.746  0.0000  0.0000  0.0000
  479UNL      S 2091   0.677   4.618   4.694  0.0000  0.0000  0.0000
  479UNL      C 2092   0.664   4.873   4.631  0.0000  0.0000  0.0000
  479UNL      O 2093   0.651   4.993   4.633  0.0000  0.0000  0.0000
  479UNL      N 2094   0.699   4.802   4.516  0.0000  0.0000  0.0000
  479UNL      C 2095   0.710   4.665   4.528  0.0000  0.0000  0.0000
  479UNL      C 2096   0.712   4.871   4.388  0.0000  0.0000  0.0000
  479UNL      C 2097   0.580   4.879   4.318  0.0000  0.0000  0.0000
  479UNL      S 2098   0.747   4.560   4.412  0.0000  0.0000  0.0000
  480UNL      C 2099   0.628   4.233   5.663  0.0000  0.0000  0.0000
  480UNL      C 2100   0.754   4.145   5.675  0.0000  0.0000  0.0000
  480UNL      C 2101   0.822   4.118   5.540  0.0000  0.0000  0.0000
  480UNL      C 2102   0.889   4.240   5.475  0.0000  0.0000  0.0000
  480UNL      C 2103   0.967   4.225   5.343  0.0000  0.0000  0.0000
  480UNL      C 2104   0.869   4.207   5.226  0.0000  0.0000  0.0000
  480UNL      C 2105   0.952   4.185   5.098  0.0000  0.0000  0.0000
  480UNL      C 2106   0.151   4.272   5.474  0.0000  0.0000  0.0000
  480UNL      C 2107   0.050   4.214   5.379  0.0000  0.0000  0.0000
  480UNL      C 2108   0.100   4.221   5.233  0.0000  0.0000  0.0000
  480UNL      C 2109  -0.010   4.181   5.128  0.0000  0.0000  0.0000
  480UNL      C 2110   0.051   4.192   4.986  0.0000  0.0000  0.0000
  480UNL      C 2111  -0.058   4.163   4.880  0.0000  0.0000  0.0000
  480UNL      C 2112  -0.008   4.195   4.733  0.0000  0.0000  0.0000
  481UNL      C 2113   0.538   6.478   2.118  0.0000  0.0000  0.0000
  481UNL      C 2114   0.553   6.372   2.015  0.0000  0.0000  0.0000
  481UNL      N 2115   0.482   6.423   2.234  0.0000  0.0000  0.0000
  481UNL      S 2116   0.497   6.220   2.076  0.0000  0.0000  0.0000
  481UNL      C 2117   0.452   6.289   2.231  0.0000  0.0000  0.0000
  481UNL      C 2118   0.460   6.509   2.351  0.0000  0.0000  0.0000
  481UNL      S 2119   0.385   6.201   2.350  0.0000  0.0000  0.0000
  481UNL      O 2120   0.571   6.593   2.108  0.0000  0.0000  0.0000
  481UNL      C 2121   0.598   6.408   1.891  0.0000  0.0000  0.0000
  482UNL      C 2122   0.625   6.327   1.775  0.0000  0.0000  0.0000
  482UNL      C 2123   0.624   6.190   1.768  0.0000  0.0000  0.0000
  482UNL      C 2124   0.659   6.395   1.654  0.0000  0.0000  0.0000
  482UNL      C 2125   0.651   6.119   1.649  0.0000  0.0000  0.0000
  482UNL      C 2126   0.683   6.180   1.528  0.0000  0.0000  0.0000
  482UNL      C 2127   0.687   6.324   1.533  0.0000  0.0000  0.0000
  482UNL      N 2128   0.668   6.529   1.640  0.0000  0.0000  0.0000
  482UNL      N 2129   0.718   6.406   1.430  0.0000  0.0000  0.0000
  482UNL      S 2130   0.711   6.557   1.486  0.0000  0.0000  0.0000
  483UNL      C 2131   0.715   6.105   1.410  0.0000  0.0000  0.0000
  483UNL      C 2132   0.720   5.968   1.397  0.0000  0.0000  0.0000
  483UNL      C 2133   0.762   5.927   1.269  0.0000  0.0000  0.0000
  483UNL      C 2134   0.787   6.033   1.186  0.0000  0.0000  0.0000
  483UNL      S 2135   0.760   6.183   1.260  0.0000  0.0000  0.0000
  484UNL      C 2136   0.838   5.987   1.058  0.0000  0.0000  0.0000
  484UNL      C 2137   0.843   5.847   1.065  0.0000  0.0000  0.0000
  485UNL      C 2138   0.792   5.794   1.201  0.0000  0.0000  0.0000
  486UNL      C 2139   0.890   5.774   0.958  0.0000  0.0000  0.0000
  487UNL      C 2140   0.664   5.709   1.180  0.0000  0.0000  0.0000
  487UNL      C 2141   0.899   5.714   1.275  0.0000  0.0000  0.0000
  487UNL      C 2142   1.025   5.787   1.309  0.0000  0.0000  0.0000
  487UNL      C 2143   0.552   5.779   1.108  0.0000  0.0000  0.0000
  487UNL      C 2144   1.130   5.698   1.370  0.0000  0.0000  0.0000
  487UNL      C 2145   1.257   5.768   1.406  0.0000  0.0000  0.0000
  487UNL      C 2146   1.371   5.688   1.462  0.0000  0.0000  0.0000
  487UNL      C 2147   1.393   5.541   1.441  0.0000  0.0000  0.0000
  487UNL      C 2148   1.501   5.437   1.438  0.0000  0.0000  0.0000
  487UNL      C 2149   1.480   5.316   1.523  0.0000  0.0000  0.0000
  487UNL      C 2150   0.426   5.699   1.084  0.0000  0.0000  0.0000
  487UNL      C 2151   0.323   5.779   1.008  0.0000  0.0000  0.0000
  487UNL      C 2152   0.189   5.714   0.987  0.0000  0.0000  0.0000
  487UNL      C 2153   0.092   5.805   0.916  0.0000  0.0000  0.0000
  487UNL      C 2154  -0.039   5.735   0.892  0.0000  0.0000  0.0000
  487UNL      C 2155  -0.126   5.733   1.016  0.0000  0.0000  0.0000
  488UNL      C 2156   0.877   6.056   0.945  0.0000  0.0000  0.0000
  488UNL      C 2157   0.924   5.984   0.838  0.0000  0.0000  0.0000
  489UNL      C 2158   0.585   6.514   2.438  0.0000  0.0000  0.0000
  490UNL      C 2159   0.930   5.843   0.845  0.0000  0.0000  0.0000
  491UNL      C 2160   0.984   5.798   0.716  0.0000  0.0000  0.0000
  492UNL      C 2161   0.974   6.037   0.703  0.0000  0.0000  0.0000
  493UNL      C 2162   1.010   5.907   0.635  0.0000  0.0000  0.0000
  494UNL      C 2163   0.862   6.112   0.628  0.0000  0.0000  0.0000
  494UNL      C 2164   1.097   6.130   0.721  0.0000  0.0000  0.0000
  495UNL      S 2165   1.020   5.650   0.640  0.0000  0.0000  0.0000
  495UNL      C 2166   1.070   5.733   0.494  0.0000  0.0000  0.0000
  495UNL      C 2167   1.059   5.870   0.510  0.0000  0.0000  0.0000
  496UNL      C 2168   1.110   5.664   0.374  0.0000  0.0000  0.0000
  496UNL      C 2169   1.153   5.736   0.263  0.0000  0.0000  0.0000
  496UNL      C 2170   1.182   5.674   0.138  0.0000  0.0000  0.0000
  496UNL      C 2171   1.176   5.538   0.119  0.0000  0.0000  0.0000
  496UNL      C 2172   1.107   5.522   0.359  0.0000  0.0000  0.0000
  496UNL      C 2173   1.140   5.460   0.235  0.0000  0.0000  0.0000
  497UNL      C 2174   1.202   5.469  -0.029  0.0000  0.0000  0.0000
  498UNL      N 2175   1.072   5.433   0.454  0.0000  0.0000  0.0000
  498UNL      N 2176   1.127   5.325   0.238  0.0000  0.0000  0.0000
  498UNL      S 2177   1.082   5.288   0.387  0.0000  0.0000  0.0000
  499UNL      C 2178   1.235   5.519  -0.150  0.0000  0.0000  0.0000
  499UNL      S 2179   1.263   5.683  -0.201  0.0000  0.0000  0.0000
  499UNL      C 2180   1.250   5.429  -0.264  0.0000  0.0000  0.0000
  499UNL      O 2181   1.236   5.308  -0.263  0.0000  0.0000  0.0000
  499UNL      N 2182   1.285   5.499  -0.379  0.0000  0.0000  0.0000
  499UNL      C 2183   1.296   5.636  -0.368  0.0000  0.0000  0.0000
  499UNL      C 2184   1.297   5.431  -0.508  0.0000  0.0000  0.0000
  499UNL      C 2185   1.166   5.422  -0.578  0.0000  0.0000  0.0000
  499UNL      S 2186   1.332   5.742  -0.483  0.0000  0.0000  0.0000
  500UNL      C 2187   1.213   6.068   0.791  0.0000  0.0000  0.0000
  500UNL      C 2188   1.339   6.156   0.803  0.0000  0.0000  0.0000
  500UNL      C 2189   1.407   6.183   0.668  0.0000  0.0000  0.0000
  500UNL      C 2190   1.474   6.061   0.603  0.0000  0.0000  0.0000
  500UNL      C 2191   1.552   6.076   0.471  0.0000  0.0000  0.0000
  500UNL      C 2192   1.454   6.095   0.354  0.0000  0.0000  0.0000
  500UNL      C 2193   1.537   6.116   0.226  0.0000  0.0000  0.0000
  500UNL      C 2194   0.736   6.029   0.601  0.0000  0.0000  0.0000
  500UNL      C 2195   0.635   6.087   0.507  0.0000  0.0000  0.0000
  500UNL      C 2196   0.685   6.080   0.361  0.0000  0.0000  0.0000
  500UNL      C 2197   0.576   6.120   0.256  0.0000  0.0000  0.0000
  500UNL      C 2198   0.636   6.109   0.114  0.0000  0.0000  0.0000
  500UNL      C 2199   0.527   6.138   0.008  0.0000  0.0000  0.0000
  500UNL      C 2200   0.577   6.106  -0.139  0.0000  0.0000  0.0000
  501UNL      C 2201   0.643   5.685  -0.517  0.0000  0.0000  0.0000
  501UNL      C 2202   0.629   5.580  -0.414  0.0000  0.0000  0.0000
  501UNL      N 2203   0.699   5.630  -0.633  0.0000  0.0000  0.0000
  501UNL      S 2204   0.684   5.428  -0.475  0.0000  0.0000  0.0000
  501UNL      C 2205   0.729   5.496  -0.630  0.0000  0.0000  0.0000
  501UNL      C 2206   0.722   5.717  -0.750  0.0000  0.0000  0.0000
  501UNL      S 2207   0.796   5.408  -0.749  0.0000  0.0000  0.0000
  501UNL      O 2208   0.611   5.800  -0.507  0.0000  0.0000  0.0000
  501UNL      C 2209   0.583   5.615  -0.290  0.0000  0.0000  0.0000
  502UNL      C 2210   0.556   5.534  -0.174  0.0000  0.0000  0.0000
  502UNL      C 2211   0.558   5.397  -0.167  0.0000  0.0000  0.0000
  502UNL      C 2212   0.523   5.602  -0.054  0.0000  0.0000  0.0000
  502UNL      C 2213   0.530   5.327  -0.048  0.0000  0.0000  0.0000
  502UNL      C 2214   0.498   5.388   0.096  0.0000  0.0000  0.0000
  502UNL      C 2215   0.495   5.532   0.091  0.0000  0.0000  0.0000
  502UNL      N 2216   0.513   5.737  -0.039  0.0000  0.0000  0.0000
  502UNL      N 2217   0.463   5.613   0.194  0.0000  0.0000  0.0000
  502UNL      S 2218   0.470   5.765   0.138  0.0000  0.0000  0.0000
  503UNL      C 2219   0.467   5.312   0.214  0.0000  0.0000  0.0000
  503UNL      C 2220   0.461   5.175   0.227  0.0000  0.0000  0.0000
  503UNL      C 2221   0.419   5.134   0.355  0.0000  0.0000  0.0000
  503UNL      C 2222   0.394   5.240   0.438  0.0000  0.0000  0.0000
  503UNL      S 2223   0.421   5.391   0.364  0.0000  0.0000  0.0000
  504UNL      C 2224   0.344   5.195   0.567  0.0000  0.0000  0.0000
  504UNL      C 2225   0.338   5.054   0.559  0.0000  0.0000  0.0000
  505UNL      C 2226   0.390   5.002   0.423  0.0000  0.0000  0.0000
  506UNL      C 2227   0.291   4.981   0.666  0.0000  0.0000  0.0000
  507UNL      C 2228   0.517   4.917   0.444  0.0000  0.0000  0.0000
  507UNL      C 2229   0.282   4.922   0.349  0.0000  0.0000  0.0000
  507UNL      C 2230   0.156   4.995   0.315  0.0000  0.0000  0.0000
  507UNL      C 2231   0.630   4.987   0.516  0.0000  0.0000  0.0000
  507UNL      C 2232   0.052   4.906   0.255  0.0000  0.0000  0.0000
  507UNL      C 2233  -0.076   4.975   0.218  0.0000  0.0000  0.0000
  507UNL      C 2234  -0.190   4.895   0.162  0.0000  0.0000  0.0000
  507UNL      C 2235  -0.212   4.749   0.184  0.0000  0.0000  0.0000
  507UNL      C 2236  -0.320   4.645   0.186  0.0000  0.0000  0.0000
  507UNL      C 2237  -0.299   4.523   0.101  0.0000  0.0000  0.0000
  507UNL      C 2238   0.756   4.907   0.540  0.0000  0.0000  0.0000
  507UNL      C 2239   0.858   4.986   0.617  0.0000  0.0000  0.0000
  507UNL      C 2240   0.993   4.921   0.637  0.0000  0.0000  0.0000
  507UNL      C 2241   1.089   5.012   0.708  0.0000  0.0000  0.0000
  507UNL      C 2242   1.221   4.943   0.732  0.0000  0.0000  0.0000
  507UNL      C 2243   1.307   4.941   0.608  0.0000  0.0000  0.0000
  508UNL      C 2244   0.305   5.264   0.679  0.0000  0.0000  0.0000
  508UNL      C 2245   0.257   5.192   0.786  0.0000  0.0000  0.0000
  509UNL      C 2246   0.596   5.721  -0.837  0.0000  0.0000  0.0000
  510UNL      C 2247   0.251   5.050   0.780  0.0000  0.0000  0.0000
  511UNL      C 2248   0.197   5.006   0.908  0.0000  0.0000  0.0000
  512UNL      C 2249   0.207   5.245   0.921  0.0000  0.0000  0.0000
  513UNL      C 2250   0.171   5.114   0.989  0.0000  0.0000  0.0000
  514UNL      C 2251   0.319   5.320   0.996  0.0000  0.0000  0.0000
  514UNL      C 2252   0.084   5.338   0.903  0.0000  0.0000  0.0000
  515UNL      S 2253   0.162   4.858   0.984  0.0000  0.0000  0.0000
  515UNL      C 2254   0.112   4.941   1.130  0.0000  0.0000  0.0000
  515UNL      C 2255   0.123   5.078   1.115  0.0000  0.0000  0.0000
  516UNL      C 2256   0.071   4.872   1.250  0.0000  0.0000  0.0000
  516UNL      C 2257   0.029   4.944   1.361  0.0000  0.0000  0.0000
  516UNL      C 2258  -0.001   4.882   1.487  0.0000  0.0000  0.0000
  516UNL      C 2259   0.005   4.745   1.505  0.0000  0.0000  0.0000
  516UNL      C 2260   0.074   4.730   1.265  0.0000  0.0000  0.0000
  516UNL      C 2261   0.041   4.668   1.390  0.0000  0.0000  0.0000
  517UNL      C 2262  -0.021   4.676   1.629  0.0000  0.0000  0.0000
  518UNL      N 2263   0.109   4.641   1.170  0.0000  0.0000  0.0000
  518UNL      N 2264   0.054   4.533   1.386  0.0000  0.0000  0.0000
  518UNL      S 2265   0.100   4.496   1.237  0.0000  0.0000  0.0000
  519UNL      C 2266  -0.054   4.727   1.751  0.0000  0.0000  0.0000
  519UNL      S 2267  -0.081   4.891   1.802  0.0000  0.0000  0.0000
  519UNL      C 2268  -0.068   4.636   1.865  0.0000  0.0000  0.0000
  519UNL      O 2269  -0.055   4.516   1.864  0.0000  0.0000  0.0000
  519UNL      N 2270  -0.103   4.707   1.980  0.0000  0.0000  0.0000
  519UNL      C 2271  -0.114   4.844   1.969  0.0000  0.0000  0.0000
  519UNL      C 2272  -0.115   4.638   2.109  0.0000  0.0000  0.0000
  519UNL      C 2273   0.016   4.629   2.179  0.0000  0.0000  0.0000
  519UNL      S 2274  -0.151   4.949   2.084  0.0000  0.0000  0.0000
  520UNL      C 2275  -0.032   5.275   0.833  0.0000  0.0000  0.0000
  520UNL      C 2276  -0.158   5.364   0.822  0.0000  0.0000  0.0000
  520UNL      C 2277  -0.226   5.391   0.957  0.0000  0.0000  0.0000
  520UNL      C 2278  -0.293   5.268   1.021  0.0000  0.0000  0.0000
  520UNL      C 2279  -0.370   5.284   1.153  0.0000  0.0000  0.0000
  520UNL      C 2280  -0.273   5.302   1.270  0.0000  0.0000  0.0000
  520UNL      C 2281  -0.355   5.324   1.398  0.0000  0.0000  0.0000
  520UNL      C 2282   0.445   5.236   1.023  0.0000  0.0000  0.0000
  520UNL      C 2283   0.546   5.295   1.117  0.0000  0.0000  0.0000
  520UNL      C 2284   0.496   5.288   1.264  0.0000  0.0000  0.0000
  520UNL      C 2285   0.606   5.327   1.368  0.0000  0.0000  0.0000
  520UNL      C 2286   0.545   5.317   1.510  0.0000  0.0000  0.0000
  520UNL      C 2287   0.654   5.345   1.616  0.0000  0.0000  0.0000
  520UNL      C 2288   0.604   5.313   1.763  0.0000  0.0000  0.0000
  521UNL      C 2289   0.448   4.615   1.131  0.0000  0.0000  0.0000
  521UNL      C 2290   0.433   4.720   1.234  0.0000  0.0000  0.0000
  521UNL      N 2291   0.504   4.670   1.014  0.0000  0.0000  0.0000
  521UNL      S 2292   0.489   4.873   1.172  0.0000  0.0000  0.0000
  521UNL      C 2293   0.534   4.804   1.017  0.0000  0.0000  0.0000
  521UNL      C 2294   0.526   4.584   0.898  0.0000  0.0000  0.0000
  521UNL      S 2295   0.601   4.892   0.899  0.0000  0.0000  0.0000
  521UNL      O 2296   0.415   4.500   1.140  0.0000  0.0000  0.0000
  521UNL      C 2297   0.388   4.685   1.357  0.0000  0.0000  0.0000
  522UNL      C 2298   0.361   4.766   1.474  0.0000  0.0000  0.0000
  522UNL      C 2299   0.362   4.903   1.481  0.0000  0.0000  0.0000
  522UNL      C 2300   0.328   4.698   1.594  0.0000  0.0000  0.0000
  522UNL      C 2301   0.335   4.974   1.599  0.0000  0.0000  0.0000
  522UNL      C 2302   0.303   4.912   1.720  0.0000  0.0000  0.0000
  522UNL      C 2303   0.299   4.769   1.715  0.0000  0.0000  0.0000
  522UNL      N 2304   0.318   4.563   1.608  0.0000  0.0000  0.0000
  522UNL      N 2305   0.268   4.687   1.819  0.0000  0.0000  0.0000
  522UNL      S 2306   0.275   4.536   1.762  0.0000  0.0000  0.0000
  523UNL      C 2307   0.272   4.988   1.839  0.0000  0.0000  0.0000
  523UNL      C 2308   0.266   5.125   1.852  0.0000  0.0000  0.0000
  523UNL      C 2309   0.224   5.166   1.979  0.0000  0.0000  0.0000
  523UNL      C 2310   0.199   5.060   2.062  0.0000  0.0000  0.0000
  523UNL      S 2311   0.226   4.909   1.989  0.0000  0.0000  0.0000
  524UNL      C 2312   0.148   5.105   2.191  0.0000  0.0000  0.0000
  524UNL      C 2313   0.143   5.246   2.184  0.0000  0.0000  0.0000
  525UNL      C 2314   0.195   5.299   2.047  0.0000  0.0000  0.0000
  526UNL      C 2315   0.096   5.319   2.290  0.0000  0.0000  0.0000
  527UNL      C 2316   0.322   5.384   2.069  0.0000  0.0000  0.0000
  527UNL      C 2317   0.087   5.378   1.973  0.0000  0.0000  0.0000
  527UNL      C 2318  -0.039   5.306   1.939  0.0000  0.0000  0.0000
  527UNL      C 2319   0.435   5.314   2.141  0.0000  0.0000  0.0000
  527UNL      C 2320  -0.143   5.395   1.879  0.0000  0.0000  0.0000
  527UNL      C 2321  -0.271   5.325   1.842  0.0000  0.0000  0.0000
  527UNL      C 2322  -0.385   5.405   1.786  0.0000  0.0000  0.0000
  527UNL      C 2323  -0.407   5.552   1.808  0.0000  0.0000  0.0000
  527UNL      C 2324  -0.515   5.655   1.810  0.0000  0.0000  0.0000
  527UNL      C 2325  -0.494   5.777   1.725  0.0000  0.0000  0.0000
  527UNL      C 2326   0.561   5.394   2.164  0.0000  0.0000  0.0000
  527UNL      C 2327   0.663   5.314   2.241  0.0000  0.0000  0.0000
  527UNL      C 2328   0.798   5.379   2.261  0.0000  0.0000  0.0000
  527UNL      C 2329   0.894   5.288   2.332  0.0000  0.0000  0.0000
  527UNL      C 2330   1.026   5.358   2.356  0.0000  0.0000  0.0000
  527UNL      C 2331   1.112   5.359   2.233  0.0000  0.0000  0.0000
  528UNL      C 2332   0.109   5.036   2.303  0.0000  0.0000  0.0000
  528UNL      C 2333   0.062   5.108   2.410  0.0000  0.0000  0.0000
  529UNL      C 2334   0.401   4.579   0.811  0.0000  0.0000  0.0000
  530UNL      C 2335   0.056   5.250   2.404  0.0000  0.0000  0.0000
  531UNL      C 2336   0.002   5.294   2.532  0.0000  0.0000  0.0000
  532UNL      C 2337   0.012   5.056   2.545  0.0000  0.0000  0.0000
  533UNL      C 2338  -0.024   5.186   2.613  0.0000  0.0000  0.0000
  534UNL      C 2339   0.124   4.981   2.621  0.0000  0.0000  0.0000
  534UNL      C 2340  -0.111   4.963   2.528  0.0000  0.0000  0.0000
  535UNL      S 2341  -0.034   5.443   2.609  0.0000  0.0000  0.0000
  535UNL      C 2342  -0.083   5.360   2.754  0.0000  0.0000  0.0000
  535UNL      C 2343  -0.072   5.223   2.739  0.0000  0.0000  0.0000
  536UNL      C 2344  -0.124   5.428   2.874  0.0000  0.0000  0.0000
  536UNL      C 2345  -0.166   5.357   2.985  0.0000  0.0000  0.0000
  536UNL      C 2346  -0.196   5.418   3.111  0.0000  0.0000  0.0000
  536UNL      C 2347  -0.190   5.555   3.129  0.0000  0.0000  0.0000
  536UNL      C 2348  -0.121   5.571   2.889  0.0000  0.0000  0.0000
  536UNL      C 2349  -0.154   5.632   3.014  0.0000  0.0000  0.0000
  537UNL      C 2350  -0.216   5.624   3.277  0.0000  0.0000  0.0000
  538UNL      N 2351  -0.086   5.659   2.794  0.0000  0.0000  0.0000
  538UNL      N 2352  -0.141   5.768   3.010  0.0000  0.0000  0.0000
  538UNL      S 2353  -0.095   5.805   2.862  0.0000  0.0000  0.0000
  539UNL      C 2354  -0.249   5.574   3.398  0.0000  0.0000  0.0000
  539UNL      S 2355  -0.276   5.409   3.450  0.0000  0.0000  0.0000
  539UNL      C 2356  -0.264   5.664   3.513  0.0000  0.0000  0.0000
  539UNL      O 2357  -0.250   5.785   3.511  0.0000  0.0000  0.0000
  539UNL      N 2358  -0.298   5.594   3.628  0.0000  0.0000  0.0000
  539UNL      C 2359  -0.309   5.457   3.616  0.0000  0.0000  0.0000
  539UNL      C 2360  -0.311   5.662   3.757  0.0000  0.0000  0.0000
  539UNL      C 2361  -0.179   5.671   3.826  0.0000  0.0000  0.0000
  539UNL      S 2362  -0.346   5.351   3.732  0.0000  0.0000  0.0000
  540UNL      C 2363  -0.227   5.025   2.457  0.0000  0.0000  0.0000
  540UNL      C 2364  -0.353   4.937   2.446  0.0000  0.0000  0.0000
  540UNL      C 2365  -0.421   4.909   2.581  0.0000  0.0000  0.0000
  540UNL      C 2366  -0.488   5.032   2.645  0.0000  0.0000  0.0000
  540UNL      C 2367  -0.566   5.017   2.777  0.0000  0.0000  0.0000
  540UNL      C 2368  -0.468   4.998   2.895  0.0000  0.0000  0.0000
  540UNL      C 2369  -0.550   4.977   3.022  0.0000  0.0000  0.0000
  540UNL      C 2370   0.250   5.064   2.647  0.0000  0.0000  0.0000
  540UNL      C 2371   0.351   5.006   2.742  0.0000  0.0000  0.0000
  540UNL      C 2372   0.301   5.013   2.888  0.0000  0.0000  0.0000
  540UNL      C 2373   0.411   4.973   2.993  0.0000  0.0000  0.0000
  540UNL      C 2374   0.350   4.983   3.135  0.0000  0.0000  0.0000
  540UNL      C 2375   0.459   4.955   3.240  0.0000  0.0000  0.0000
  540UNL      C 2376   0.409   4.987   3.387  0.0000  0.0000  0.0000
  541UNL      C 2377   0.343   5.408   3.765  0.0000  0.0000  0.0000
  541UNL      C 2378   0.357   5.513   3.662  0.0000  0.0000  0.0000
  541UNL      N 2379   0.287   5.463   3.882  0.0000  0.0000  0.0000
  541UNL      S 2380   0.302   5.665   3.724  0.0000  0.0000  0.0000
  541UNL      C 2381   0.257   5.597   3.879  0.0000  0.0000  0.0000
  541UNL      C 2382   0.265   5.376   3.998  0.0000  0.0000  0.0000
  541UNL      S 2383   0.190   5.685   3.997  0.0000  0.0000  0.0000
  541UNL      O 2384   0.375   5.292   3.756  0.0000  0.0000  0.0000
  541UNL      C 2385   0.403   5.478   3.539  0.0000  0.0000  0.0000
  542UNL      C 2386   0.430   5.559   3.422  0.0000  0.0000  0.0000
  542UNL      C 2387   0.429   5.696   3.415  0.0000  0.0000  0.0000
  542UNL      C 2388   0.463   5.491   3.302  0.0000  0.0000  0.0000
  542UNL      C 2389   0.456   5.766   3.297  0.0000  0.0000  0.0000
  542UNL      C 2390   0.488   5.705   3.153  0.0000  0.0000  0.0000
  542UNL      C 2391   0.492   5.561   3.158  0.0000  0.0000  0.0000
  542UNL      N 2392   0.473   5.356   3.288  0.0000  0.0000  0.0000
  542UNL      N 2393   0.523   5.479   3.054  0.0000  0.0000  0.0000
  542UNL      S 2394   0.516   5.328   3.111  0.0000  0.0000  0.0000
  543UNL      C 2395   0.520   5.780   3.034  0.0000  0.0000  0.0000
  543UNL      C 2396   0.525   5.918   3.021  0.0000  0.0000  0.0000
  543UNL      C 2397   0.567   5.958   2.893  0.0000  0.0000  0.0000
  543UNL      C 2398   0.592   5.853   2.810  0.0000  0.0000  0.0000
  543UNL      S 2399   0.565   5.702   2.884  0.0000  0.0000  0.0000
  544UNL      C 2400   0.643   5.898   2.682  0.0000  0.0000  0.0000
  544UNL      C 2401   0.648   6.039   2.689  0.0000  0.0000  0.0000
  545UNL      C 2402   0.596   6.091   2.825  0.0000  0.0000  0.0000
  546UNL      C 2403   0.695   6.112   2.583  0.0000  0.0000  0.0000
  547UNL      C 2404   0.469   6.176   2.804  0.0000  0.0000  0.0000
  547UNL      C 2405   0.704   6.171   2.899  0.0000  0.0000  0.0000
  547UNL      C 2406   0.830   6.098   2.933  0.0000  0.0000  0.0000
  547UNL      C 2407   0.356   6.106   2.732  0.0000  0.0000  0.0000
  547UNL      C 2408   0.934   6.187   2.994  0.0000  0.0000  0.0000
  547UNL      C 2409   1.062   6.118   3.030  0.0000  0.0000  0.0000
  547UNL      C 2410   1.176   6.197   3.087  0.0000  0.0000  0.0000
  547UNL      C 2411   1.198   6.344   3.065  0.0000  0.0000  0.0000
  547UNL      C 2412   1.306   6.448   3.063  0.0000  0.0000  0.0000
  547UNL      C 2413   1.285   6.569   3.147  0.0000  0.0000  0.0000
  547UNL      C 2414   0.231   6.186   2.708  0.0000  0.0000  0.0000
  547UNL      C 2415   0.128   6.107   2.632  0.0000  0.0000  0.0000
  547UNL      C 2416  -0.007   6.172   2.611  0.0000  0.0000  0.0000
  547UNL      C 2417  -0.103   6.081   2.540  0.0000  0.0000  0.0000
  547UNL      C 2418  -0.235   6.150   2.516  0.0000  0.0000  0.0000
  547UNL      C 2419  -0.321   6.152   2.640  0.0000  0.0000  0.0000
  548UNL      C 2420   0.682   5.829   2.569  0.0000  0.0000  0.0000
  548UNL      C 2421   0.729   5.901   2.463  0.0000  0.0000  0.0000
  549UNL      C 2422   0.390   5.371   4.085  0.0000  0.0000  0.0000
  550UNL      C 2423   0.735   6.043   2.469  0.0000  0.0000  0.0000
  551UNL      C 2424   0.789   6.087   2.340  0.0000  0.0000  0.0000
  552UNL      C 2425   0.779   5.848   2.328  0.0000  0.0000  0.0000
  553UNL      C 2426   0.815   5.979   2.260  0.0000  0.0000  0.0000
  554UNL      C 2427   0.667   5.773   2.252  0.0000  0.0000  0.0000
  554UNL      C 2428   0.902   5.755   2.345  0.0000  0.0000  0.0000
  555UNL      S 2429   0.825   6.235   2.264  0.0000  0.0000  0.0000
  555UNL      C 2430   0.875   6.152   2.118  0.0000  0.0000  0.0000
  555UNL      C 2431   0.864   6.015   2.134  0.0000  0.0000  0.0000
  556UNL      C 2432   0.915   6.221   1.998  0.0000  0.0000  0.0000
  556UNL      C 2433   0.957   6.149   1.887  0.0000  0.0000  0.0000
  556UNL      C 2434   0.987   6.211   1.762  0.0000  0.0000  0.0000
  556UNL      C 2435   0.981   6.347   1.743  0.0000  0.0000  0.0000
  556UNL      C 2436   0.912   6.363   1.983  0.0000  0.0000  0.0000
  556UNL      C 2437   0.945   6.425   1.859  0.0000  0.0000  0.0000
  557UNL      C 2438   1.007   6.416   1.619  0.0000  0.0000  0.0000
  558UNL      N 2439   0.877   6.452   2.079  0.0000  0.0000  0.0000
  558UNL      N 2440   0.932   6.560   1.862  0.0000  0.0000  0.0000
  558UNL      S 2441   0.887   6.597   2.011  0.0000  0.0000  0.0000
  559UNL      C 2442   1.040   6.366   1.498  0.0000  0.0000  0.0000
  559UNL      S 2443   1.067   6.202   1.446  0.0000  0.0000  0.0000
  559UNL      C 2444   1.054   6.457   1.383  0.0000  0.0000  0.0000
  559UNL      O 2445   1.041   6.577   1.385  0.0000  0.0000  0.0000
  559UNL      N 2446   1.089   6.386   1.268  0.0000  0.0000  0.0000
  559UNL      C 2447   1.100   6.249   1.280  0.0000  0.0000  0.0000
  559UNL      C 2448   1.102   6.455   1.140  0.0000  0.0000  0.0000
  559UNL      C 2449   0.970   6.463   1.070  0.0000  0.0000  0.0000
  559UNL      S 2450   1.137   6.144   1.164  0.0000  0.0000  0.0000
  560UNL      C 2451   1.018   5.817   2.415  0.0000  0.0000  0.0000
  560UNL      C 2452   1.144   5.729   2.427  0.0000  0.0000  0.0000
  560UNL      C 2453   1.212   5.702   2.292  0.0000  0.0000  0.0000
  560UNL      C 2454   1.279   5.824   2.227  0.0000  0.0000  0.0000
  560UNL      C 2455   1.357   5.809   2.095  0.0000  0.0000  0.0000
  560UNL      C 2456   1.259   5.791   1.978  0.0000  0.0000  0.0000
  560UNL      C 2457   1.342   5.769   1.850  0.0000  0.0000  0.0000
  560UNL      C 2458   0.541   5.856   2.226  0.0000  0.0000  0.0000
  560UNL      C 2459   0.440   5.798   2.131  0.0000  0.0000  0.0000
  560UNL      C 2460   0.490   5.805   1.985  0.0000  0.0000  0.0000
  560UNL      C 2461   0.380   5.765   1.880  0.0000  0.0000  0.0000
  560UNL      C 2462   0.441   5.776   1.738  0.0000  0.0000  0.0000
  560UNL      C 2463   0.332   5.747   1.632  0.0000  0.0000  0.0000
  560UNL      C 2464   0.382   5.779   1.485  0.0000  0.0000  0.0000
  561UNL      C 2465   0.148   6.478   5.366  0.0000  0.0000  0.0000
  561UNL      C 2466   0.163   6.372   5.263  0.0000  0.0000  0.0000
  561UNL      N 2467   0.092   6.423   5.482  0.0000  0.0000  0.0000
  561UNL      S 2468   0.107   6.220   5.324  0.0000  0.0000  0.0000
  561UNL      C 2469   0.062   6.289   5.479  0.0000  0.0000  0.0000
  561UNL      C 2470   0.070   6.509   5.599  0.0000  0.0000  0.0000
  561UNL      S 2471  -0.005   6.201   5.598  0.0000  0.0000  0.0000
  561UNL      O 2472   0.181   6.593   5.356  0.0000  0.0000  0.0000
  561UNL      C 2473   0.208   6.408   5.139  0.0000  0.0000  0.0000
  562UNL      C 2474   0.235   6.327   5.023  0.0000  0.0000  0.0000
  562UNL      C 2475   0.234   6.190   5.016  0.0000  0.0000  0.0000
  562UNL      C 2476   0.269   6.395   4.902  0.0000  0.0000  0.0000
  562UNL      C 2477   0.261   6.119   4.897  0.0000  0.0000  0.0000
  562UNL      C 2478   0.293   6.180   4.776  0.0000  0.0000  0.0000
  562UNL      C 2479   0.297   6.324   4.781  0.0000  0.0000  0.0000
  562UNL      N 2480   0.278   6.529   4.888  0.0000  0.0000  0.0000
  562UNL      N 2481   0.328   6.406   4.678  0.0000  0.0000  0.0000
  562UNL      S 2482   0.321   6.557   4.734  0.0000  0.0000  0.0000
  563UNL      C 2483   0.325   6.105   4.658  0.0000  0.0000  0.0000
  563UNL      C 2484   0.330   5.968   4.645  0.0000  0.0000  0.0000
  563UNL      C 2485   0.372   5.927   4.517  0.0000  0.0000  0.0000
  563UNL      C 2486   0.397   6.033   4.434  0.0000  0.0000  0.0000
  563UNL      S 2487   0.370   6.183   4.508  0.0000  0.0000  0.0000
  564UNL      C 2488   0.448   5.987   4.306  0.0000  0.0000  0.0000
  564UNL      C 2489   0.453   5.847   4.313  0.0000  0.0000  0.0000
  565UNL      C 2490   0.402   5.794   4.449  0.0000  0.0000  0.0000
  566UNL      C 2491   0.500   5.774   4.206  0.0000  0.0000  0.0000
  567UNL      C 2492   0.274   5.709   4.428  0.0000  0.0000  0.0000
  567UNL      C 2493   0.509   5.714   4.523  0.0000  0.0000  0.0000
  567UNL      C 2494   0.635   5.787   4.557  0.0000  0.0000  0.0000
  567UNL      C 2495   0.162   5.779   4.356  0.0000  0.0000  0.0000
  567UNL      C 2496   0.740   5.698   4.618  0.0000  0.0000  0.0000
  567UNL      C 2497   0.867   5.768   4.654  0.0000  0.0000  0.0000
  567UNL      C 2498   0.981   5.688   4.710  0.0000  0.0000  0.0000
  567UNL      C 2499   1.003   5.541   4.689  0.0000  0.0000  0.0000
  567UNL      C 2500   1.111   5.437   4.686  0.0000  0.0000  0.0000
  567UNL      C 2501   1.090   5.316   4.771  0.0000  0.0000  0.0000
  567UNL      C 2502   0.036   5.699   4.332  0.0000  0.0000  0.0000
  567UNL      C 2503  -0.067   5.779   4.256  0.0000  0.0000  0.0000
  567UNL      C 2504  -0.201   5.714   4.235  0.0000  0.0000  0.0000
  567UNL      C 2505  -0.298   5.805   4.164  0.0000  0.0000  0.0000
  567UNL      C 2506  -0.429   5.735   4.140  0.0000  0.0000  0.0000
  567UNL      C 2507  -0.516   5.733   4.264  0.0000  0.0000  0.0000
  568UNL      C 2508   0.487   6.056   4.193  0.0000  0.0000  0.0000
  568UNL      C 2509   0.534   5.984   4.086  0.0000  0.0000  0.0000
  569UNL      C 2510   0.195   6.514   5.686  0.0000  0.0000  0.0000
  570UNL      C 2511   0.540   5.843   4.093  0.0000  0.0000  0.0000
  571UNL      C 2512   0.594   5.798   3.964  0.0000  0.0000  0.0000
  572UNL      C 2513   0.584   6.037   3.951  0.0000  0.0000  0.0000
  573UNL      C 2514   0.620   5.907   3.883  0.0000  0.0000  0.0000
  574UNL      C 2515   0.472   6.112   3.876  0.0000  0.0000  0.0000
  574UNL      C 2516   0.707   6.130   3.969  0.0000  0.0000  0.0000
  575UNL      S 2517   0.630   5.650   3.888  0.0000  0.0000  0.0000
  575UNL      C 2518   0.680   5.733   3.742  0.0000  0.0000  0.0000
  575UNL      C 2519   0.669   5.870   3.758  0.0000  0.0000  0.0000
  576UNL      C 2520   0.720   5.664   3.622  0.0000  0.0000  0.0000
  576UNL      C 2521   0.763   5.736   3.511  0.0000  0.0000  0.0000
  576UNL      C 2522   0.792   5.674   3.386  0.0000  0.0000  0.0000
  576UNL      C 2523   0.786   5.538   3.367  0.0000  0.0000  0.0000
  576UNL      C 2524   0.717   5.522   3.607  0.0000  0.0000  0.0000
  576UNL      C 2525   0.750   5.460   3.483  0.0000  0.0000  0.0000
  577UNL      C 2526   0.812   5.469   3.219  0.0000  0.0000  0.0000
  578UNL      N 2527   0.682   5.433   3.702  0.0000  0.0000  0.0000
  578UNL      N 2528   0.737   5.325   3.486  0.0000  0.0000  0.0000
  578UNL      S 2529   0.692   5.288   3.635  0.0000  0.0000  0.0000
  579UNL      C 2530   0.845   5.519   3.098  0.0000  0.0000  0.0000
  579UNL      S 2531   0.873   5.683   3.047  0.0000  0.0000  0.0000
  579UNL      C 2532   0.860   5.429   2.984  0.0000  0.0000  0.0000
  579UNL      O 2533   0.846   5.308   2.985  0.0000  0.0000  0.0000
  579UNL      N 2534   0.895   5.499   2.869  0.0000  0.0000  0.0000
  579UNL      C 2535   0.906   5.636   2.880  0.0000  0.0000  0.0000
  579UNL      C 2536   0.907   5.431   2.740  0.0000  0.0000  0.0000
  579UNL      C 2537   0.776   5.422   2.670  0.0000  0.0000  0.0000
  579UNL      S 2538   0.942   5.742   2.765  0.0000  0.0000  0.0000
  580UNL      C 2539   0.823   6.068   4.039  0.0000  0.0000  0.0000
  580UNL      C 2540   0.949   6.156   4.051  0.0000  0.0000  0.0000
  580UNL      C 2541   1.017   6.183   3.916  0.0000  0.0000  0.0000
  580UNL      C 2542   1.084   6.061   3.851  0.0000  0.0000  0.0000
  580UNL      C 2543   1.162   6.076   3.719  0.0000  0.0000  0.0000
  580UNL      C 2544   1.064   6.095   3.602  0.0000  0.0000  0.0000
  580UNL      C 2545   1.147   6.116   3.474  0.0000  0.0000  0.0000
  580UNL      C 2546   0.346   6.029   3.849  0.0000  0.0000  0.0000
  580UNL      C 2547   0.245   6.087   3.755  0.0000  0.0000  0.0000
  580UNL      C 2548   0.295   6.080   3.609  0.0000  0.0000  0.0000
  580UNL      C 2549   0.186   6.120   3.504  0.0000  0.0000  0.0000
  580UNL      C 2550   0.246   6.109   3.362  0.0000  0.0000  0.0000
  580UNL      C 2551   0.137   6.138   3.256  0.0000  0.0000  0.0000
  580UNL      C 2552   0.187   6.106   3.109  0.0000  0.0000  0.0000
  581UNL      C 2553   0.253   5.685   2.731  0.0000  0.0000  0.0000
  581UNL      C 2554   0.239   5.580   2.834  0.0000  0.0000  0.0000
  581UNL      N 2555   0.309   5.630   2.615  0.0000  0.0000  0.0000
  581UNL      S 2556   0.294   5.428   2.773  0.0000  0.0000  0.0000
  581UNL      C 2557   0.339   5.496   2.618  0.0000  0.0000  0.0000
  581UNL      C 2558   0.332   5.717   2.498  0.0000  0.0000  0.0000
  581UNL      S 2559   0.406   5.408   2.499  0.0000  0.0000  0.0000
  581UNL      O 2560   0.221   5.800   2.741  0.0000  0.0000  0.0000
  581UNL      C 2561   0.193   5.615   2.958  0.0000  0.0000  0.0000
  582UNL      C 2562   0.166   5.534   3.074  0.0000  0.0000  0.0000
  582UNL      C 2563   0.168   5.397   3.081  0.0000  0.0000  0.0000
  582UNL      C 2564   0.133   5.602   3.194  0.0000  0.0000  0.0000
  582UNL      C 2565   0.140   5.327   3.200  0.0000  0.0000  0.0000
  582UNL      C 2566   0.108   5.388   3.344  0.0000  0.0000  0.0000
  582UNL      C 2567   0.105   5.532   3.339  0.0000  0.0000  0.0000
  582UNL      N 2568   0.123   5.737   3.209  0.0000  0.0000  0.0000
  582UNL      N 2569   0.073   5.613   3.442  0.0000  0.0000  0.0000
  582UNL      S 2570   0.080   5.765   3.386  0.0000  0.0000  0.0000
  583UNL      C 2571   0.077   5.312   3.462  0.0000  0.0000  0.0000
  583UNL      C 2572   0.071   5.175   3.475  0.0000  0.0000  0.0000
  583UNL      C 2573   0.029   5.134   3.603  0.0000  0.0000  0.0000
  583UNL      C 2574   0.004   5.240   3.686  0.0000  0.0000  0.0000
  583UNL      S 2575   0.031   5.391   3.612  0.0000  0.0000  0.0000
  584UNL      C 2576  -0.046   5.195   3.815  0.0000  0.0000  0.0000
  584UNL      C 2577  -0.052   5.054   3.807  0.0000  0.0000  0.0000
  585UNL      C 2578  -0.000   5.002   3.671  0.0000  0.0000  0.0000
  586UNL      C 2579  -0.099   4.981   3.914  0.0000  0.0000  0.0000
  587UNL      C 2580   0.127   4.917   3.692  0.0000  0.0000  0.0000
  587UNL      C 2581  -0.108   4.922   3.597  0.0000  0.0000  0.0000
  587UNL      C 2582  -0.234   4.995   3.563  0.0000  0.0000  0.0000
  587UNL      C 2583   0.240   4.987   3.764  0.0000  0.0000  0.0000
  587UNL      C 2584  -0.338   4.906   3.503  0.0000  0.0000  0.0000
  587UNL      C 2585  -0.466   4.975   3.466  0.0000  0.0000  0.0000
  587UNL      C 2586  -0.580   4.895   3.410  0.0000  0.0000  0.0000
  587UNL      C 2587  -0.602   4.749   3.432  0.0000  0.0000  0.0000
  587UNL      C 2588  -0.710   4.645   3.434  0.0000  0.0000  0.0000
  587UNL      C 2589  -0.689   4.523   3.349  0.0000  0.0000  0.0000
  587UNL      C 2590   0.366   4.907   3.788  0.0000  0.0000  0.0000
  587UNL      C 2591   0.468   4.986   3.865  0.0000  0.0000  0.0000
  587UNL      C 2592   0.603   4.921   3.885  0.0000  0.0000  0.0000
  587UNL      C 2593   0.699   5.012   3.956  0.0000  0.0000  0.0000
  587UNL      C 2594   0.831   4.943   3.980  0.0000  0.0000  0.0000
  587UNL      C 2595   0.917   4.941   3.856  0.0000  0.0000  0.0000
  588UNL      C 2596  -0.085   5.264   3.927  0.0000  0.0000  0.0000
  588UNL      C 2597  -0.133   5.192   4.034  0.0000  0.0000  0.0000
  589UNL      C 2598   0.206   5.721   2.411  0.0000  0.0000  0.0000
  590UNL      C 2599  -0.139   5.050   4.028  0.0000  0.0000  0.0000
  591UNL      C 2600  -0.193   5.006   4.156  0.0000  0.0000  0.0000
  592UNL      C 2601  -0.183   5.245   4.169  0.0000  0.0000  0.0000
  593UNL      C 2602  -0.219   5.114   4.237  0.0000  0.0000  0.0000
  594UNL      C 2603  -0.071   5.320   4.244  0.0000  0.0000  0.0000
  594UNL      C 2604  -0.306   5.338   4.151  0.0000  0.0000  0.0000
  595UNL      S 2605  -0.228   4.858   4.232  0.0000  0.0000  0.0000
  595UNL      C 2606  -0.278   4.941   4.378  0.0000  0.0000  0.0000
  595UNL      C 2607  -0.267   5.078   4.363  0.0000  0.0000  0.0000
  596UNL      C 2608  -0.319   4.872   4.498  0.0000  0.0000  0.0000
  596UNL      C 2609  -0.361   4.944   4.609  0.0000  0.0000  0.0000
  596UNL      C 2610  -0.391   4.882   4.735  0.0000  0.0000  0.0000
  596UNL      C 2611  -0.385   4.745   4.753  0.0000  0.0000  0.0000
  596UNL      C 2612  -0.316   4.730   4.513  0.0000  0.0000  0.0000
  596UNL      C 2613  -0.349   4.668   4.638  0.0000  0.0000  0.0000
  597UNL      C 2614  -0.411   4.676   4.877  0.0000  0.0000  0.0000
  598UNL      N 2615  -0.281   4.641   4.418  0.0000  0.0000  0.0000
  598UNL      N 2616  -0.336   4.533   4.634  0.0000  0.0000  0.0000
  598UNL      S 2617  -0.290   4.496   4.485  0.0000  0.0000  0.0000
  599UNL      C 2618  -0.444   4.727   4.999  0.0000  0.0000  0.0000
  599UNL      S 2619  -0.471   4.891   5.050  0.0000  0.0000  0.0000
  599UNL      C 2620  -0.458   4.636   5.113  0.0000  0.0000  0.0000
  599UNL      O 2621  -0.445   4.516   5.112  0.0000  0.0000  0.0000
  599UNL      N 2622  -0.493   4.707   5.228  0.0000  0.0000  0.0000
  599UNL      C 2623  -0.504   4.844   5.217  0.0000  0.0000  0.0000
  599UNL      C 2624  -0.505   4.638   5.357  0.0000  0.0000  0.0000
  599UNL      C 2625  -0.374   4.629   5.427  0.0000  0.0000  0.0000
  599UNL      S 2626  -0.541   4.949   5.332  0.0000  0.0000  0.0000
  600UNL      C 2627  -0.422   5.275   4.081  0.0000  0.0000  0.0000
  600UNL      C 2628  -0.548   5.364   4.070  0.0000  0.0000  0.0000
  600UNL      C 2629  -0.616   5.391   4.205  0.0000  0.0000  0.0000
  600UNL      C 2630  -0.683   5.268   4.269  0.0000  0.0000  0.0000
  600UNL      C 2631  -0.760   5.284   4.401  0.0000  0.0000  0.0000
  600UNL      C 2632  -0.663   5.302   4.518  0.0000  0.0000  0.0000
  600UNL      C 2633  -0.745   5.324   4.646  0.0000  0.0000  0.0000
  600UNL      C 2634   0.055   5.236   4.271  0.0000  0.0000  0.0000
  600UNL      C 2635   0.156   5.295   4.365  0.0000  0.0000  0.0000
  600UNL      C 2636   0.106   5.288   4.512  0.0000  0.0000  0.0000
  600UNL      C 2637   0.216   5.327   4.616  0.0000  0.0000  0.0000
  600UNL      C 2638   0.155   5.317   4.758  0.0000  0.0000  0.0000
  600UNL      C 2639   0.264   5.345   4.864  0.0000  0.0000  0.0000
  600UNL      C 2640   0.214   5.313   5.011  0.0000  0.0000  0.0000
  601UNL      C 2641   0.058   4.615   4.379  0.0000  0.0000  0.0000
  601UNL      C 2642   0.043   4.720   4.482  0.0000  0.0000  0.0000
  601UNL      N 2643   0.114   4.670   4.262  0.0000  0.0000  0.0000
  601UNL      S 2644   0.099   4.873   4.420  0.0000  0.0000  0.0000
  601UNL      C 2645   0.144   4.804   4.265  0.0000  0.0000  0.0000
  601UNL      C 2646   0.136   4.584   4.146  0.0000  0.0000  0.0000
  601UNL      S 2647   0.211   4.892   4.147  0.0000  0.0000  0.0000
  601UNL      O 2648   0.025   4.500   4.388  0.0000  0.0000  0.0000
  601UNL      C 2649  -0.002   4.685   4.605  0.0000  0.0000  0.0000
  602UNL      C 2650  -0.029   4.766   4.722  0.0000  0.0000  0.0000
  602UNL      C 2651  -0.028   4.903   4.729  0.0000  0.0000  0.0000
  602UNL      C 2652  -0.062   4.698   4.842  0.0000  0.0000  0.0000
  602UNL      C 2653  -0.055   4.974   4.847  0.0000  0.0000  0.0000
  602UNL      C 2654  -0.087   4.912   4.968  0.0000  0.0000  0.0000
  602UNL      C 2655  -0.091   4.769   4.963  0.0000  0.0000  0.0000
  602UNL      N 2656  -0.072   4.563   4.856  0.0000  0.0000  0.0000
  602UNL      N 2657  -0.122   4.687   5.067  0.0000  0.0000  0.0000
  602UNL      S 2658  -0.115   4.536   5.010  0.0000  0.0000  0.0000
  603UNL      C 2659  -0.118   4.988   5.087  0.0000  0.0000  0.0000
  603UNL      C 2660  -0.124   5.125   5.100  0.0000  0.0000  0.0000
  603UNL      C 2661  -0.166   5.166   5.227  0.0000  0.0000  0.0000
  603UNL      C 2662  -0.191   5.060   5.310  0.0000  0.0000  0.0000
  603UNL      S 2663  -0.164   4.909   5.237  0.0000  0.0000  0.0000
  604UNL      C 2664  -0.242   5.105   5.439  0.0000  0.0000  0.0000
  604UNL      C 2665  -0.247   5.246   5.432  0.0000  0.0000  0.0000
  605UNL      C 2666  -0.195   5.299   5.295  0.0000  0.0000  0.0000
  606UNL      C 2667  -0.294   5.319   5.538  0.0000  0.0000  0.0000
  607UNL      C 2668  -0.068   5.384   5.317  0.0000  0.0000  0.0000
  607UNL      C 2669  -0.303   5.378   5.221  0.0000  0.0000  0.0000
  607UNL      C 2670  -0.429   5.306   5.187  0.0000  0.0000  0.0000
  607UNL      C 2671   0.045   5.314   5.389  0.0000  0.0000  0.0000
  607UNL      C 2672  -0.533   5.395   5.127  0.0000  0.0000  0.0000
  607UNL      C 2673  -0.661   5.325   5.090  0.0000  0.0000  0.0000
  607UNL      C 2674  -0.775   5.405   5.034  0.0000  0.0000  0.0000
  607UNL      C 2675  -0.797   5.552   5.056  0.0000  0.0000  0.0000
  607UNL      C 2676  -0.905   5.655   5.058  0.0000  0.0000  0.0000
  607UNL      C 2677  -0.884   5.777   4.973  0.0000  0.0000  0.0000
  607UNL      C 2678   0.171   5.394   5.412  0.0000  0.0000  0.0000
  607UNL      C 2679   0.273   5.314   5.489  0.0000  0.0000  0.0000
  607UNL      C 2680   0.408   5.379   5.509  0.0000  0.0000  0.0000
  607UNL      C 2681   0.504   5.288   5.580  0.0000  0.0000  0.0000
  607UNL      C 2682   0.636   5.358   5.604  0.0000  0.0000  0.0000
  607UNL      C 2683   0.722   5.359   5.481  0.0000  0.0000  0.0000
  608UNL      C 2684  -0.281   5.036   5.551  0.0000  0.0000  0.0000
  608UNL      C 2685  -0.328   5.108   5.658  0.0000  0.0000  0.0000
  609UNL      C 2686   0.011   4.579   4.059  0.0000  0.0000  0.0000
  610UNL      C 2687  -0.334   5.250   5.652  0.0000  0.0000  0.0000
  611UNL      C 2688  -0.388   5.294   5.780  0.0000  0.0000  0.0000
  612UNL      C 2689  -0.378   5.056   5.793  0.0000  0.0000  0.0000
  613UNL      C 2690  -0.414   5.186   5.861  0.0000  0.0000  0.0000
  614UNL      C 2691  -0.266   4.981   5.869  0.0000  0.0000  0.0000
  614UNL      C 2692  -0.501   4.963   5.776  0.0000  0.0000  0.0000
  615UNL      S 2693  -0.424   5.443   5.857  0.0000  0.0000  0.0000
  615UNL      C 2694  -0.473   5.360   6.002  0.0000  0.0000  0.0000
  615UNL      C 2695  -0.462   5.223   5.987  0.0000  0.0000  0.0000
  616UNL      C 2696  -0.514   5.428   6.122  0.0000  0.0000  0.0000
  616UNL      C 2697  -0.556   5.357   6.233  0.0000  0.0000  0.0000
  616UNL      C 2698  -0.586   5.418   6.359  0.0000  0.0000  0.0000
  616UNL      C 2699  -0.580   5.555   6.377  0.0000  0.0000  0.0000
  616UNL      C 2700  -0.511   5.571   6.137  0.0000  0.0000  0.0000
  616UNL      C 2701  -0.544   5.632   6.262  0.0000  0.0000  0.0000
  617UNL      C 2702  -0.606   5.624   6.525  0.0000  0.0000  0.0000
  618UNL      N 2703  -0.476   5.659   6.042  0.0000  0.0000  0.0000
  618UNL      N 2704  -0.531   5.768   6.258  0.0000  0.0000  0.0000
  618UNL      S 2705  -0.485   5.805   6.110  0.0000  0.0000  0.0000
  619UNL      C 2706  -0.639   5.574   6.646  0.0000  0.0000  0.0000
  619UNL      S 2707  -0.666   5.409   6.698  0.0000  0.0000  0.0000
  619UNL      C 2708  -0.654   5.664   6.761  0.0000  0.0000  0.0000
  619UNL      O 2709  -0.640   5.785   6.759  0.0000  0.0000  0.0000
  619UNL      N 2710  -0.688   5.594   6.876  0.0000  0.0000  0.0000
  619UNL      C 2711  -0.699   5.457   6.864  0.0000  0.0000  0.0000
  619UNL      C 2712  -0.701   5.662   7.005  0.0000  0.0000  0.0000
  619UNL      C 2713  -0.569   5.671   7.074  0.0000  0.0000  0.0000
  619UNL      S 2714  -0.736   5.351   6.980  0.0000  0.0000  0.0000
  620UNL      C 2715  -0.617   5.025   5.705  0.0000  0.0000  0.0000
  620UNL      C 2716  -0.743   4.937   5.694  0.0000  0.0000  0.0000
  620UNL      C 2717  -0.811   4.909   5.829  0.0000  0.0000  0.0000
  620UNL      C 2718  -0.878   5.032   5.893  0.0000  0.0000  0.0000
  620UNL      C 2719  -0.956   5.017   6.025  0.0000  0.0000  0.0000
  620UNL      C 2720  -0.858   4.998   6.143  0.0000  0.0000  0.0000
  620UNL      C 2721  -0.940   4.977   6.270  0.0000  0.0000  0.0000
  620UNL      C 2722  -0.140   5.064   5.895  0.0000  0.0000  0.0000
  620UNL      C 2723  -0.039   5.006   5.990  0.0000  0.0000  0.0000
  620UNL      C 2724  -0.089   5.013   6.136  0.0000  0.0000  0.0000
  620UNL      C 2725   0.021   4.973   6.241  0.0000  0.0000  0.0000
  620UNL      C 2726  -0.040   4.983   6.383  0.0000  0.0000  0.0000
  620UNL      C 2727   0.069   4.955   6.488  0.0000  0.0000  0.0000
  620UNL      C 2728   0.019   4.987   6.635  0.0000  0.0000  0.0000
  621UNL      C 2729  -0.047   5.408   7.013  0.0000  0.0000  0.0000
  621UNL      C 2730  -0.033   5.513   6.910  0.0000  0.0000  0.0000
  621UNL      N 2731  -0.103   5.463   7.130  0.0000  0.0000  0.0000
  621UNL      S 2732  -0.088   5.665   6.972  0.0000  0.0000  0.0000
  621UNL      C 2733  -0.133   5.597   7.127  0.0000  0.0000  0.0000
  621UNL      C 2734  -0.125   5.376   7.246  0.0000  0.0000  0.0000
  621UNL      S 2735  -0.200   5.685   7.245  0.0000  0.0000  0.0000
  621UNL      O 2736  -0.015   5.292   7.004  0.0000  0.0000  0.0000
  621UNL      C 2737   0.013   5.478   6.787  0.0000  0.0000  0.0000
  622UNL      C 2738   0.040   5.559   6.670  0.0000  0.0000  0.0000
  622UNL      C 2739   0.039   5.696   6.663  0.0000  0.0000  0.0000
  622UNL      C 2740   0.073   5.491   6.550  0.0000  0.0000  0.0000
  622UNL      C 2741   0.066   5.766   6.545  0.0000  0.0000  0.0000
  622UNL      C 2742   0.098   5.705   6.401  0.0000  0.0000  0.0000
  622UNL      C 2743   0.102   5.561   6.406  0.0000  0.0000  0.0000
  622UNL      N 2744   0.083   5.356   6.536  0.0000  0.0000  0.0000
  622UNL      N 2745   0.133   5.479   6.302  0.0000  0.0000  0.0000
  622UNL      S 2746   0.126   5.328   6.359  0.0000  0.0000  0.0000
  623UNL      C 2747   0.130   5.780   6.282  0.0000  0.0000  0.0000
  623UNL      C 2748   0.135   5.918   6.269  0.0000  0.0000  0.0000
  623UNL      C 2749   0.177   5.958   6.141  0.0000  0.0000  0.0000
  623UNL      C 2750   0.202   5.853   6.058  0.0000  0.0000  0.0000
  623UNL      S 2751   0.175   5.702   6.132  0.0000  0.0000  0.0000
  624UNL      C 2752   0.253   5.898   5.930  0.0000  0.0000  0.0000
  624UNL      C 2753   0.258   6.039   5.937  0.0000  0.0000  0.0000
  625UNL      C 2754   0.206   6.091   6.073  0.0000  0.0000  0.0000
  626UNL      C 2755   0.305   6.112   5.831  0.0000  0.0000  0.0000
  627UNL      C 2756   0.079   6.176   6.052  0.0000  0.0000  0.0000
  627UNL      C 2757   0.314   6.171   6.147  0.0000  0.0000  0.0000
  627UNL      C 2758   0.440   6.098   6.181  0.0000  0.0000  0.0000
  627UNL      C 2759  -0.034   6.106   5.980  0.0000  0.0000  0.0000
  627UNL      C 2760   0.544   6.187   6.242  0.0000  0.0000  0.0000
  627UNL      C 2761   0.672   6.118   6.278  0.0000  0.0000  0.0000
  627UNL      C 2762   0.786   6.197   6.335  0.0000  0.0000  0.0000
  627UNL      C 2763   0.808   6.344   6.313  0.0000  0.0000  0.0000
  627UNL      C 2764   0.916   6.448   6.311  0.0000  0.0000  0.0000
  627UNL      C 2765   0.895   6.569   6.395  0.0000  0.0000  0.0000
  627UNL      C 2766  -0.159   6.186   5.956  0.0000  0.0000  0.0000
  627UNL      C 2767  -0.262   6.107   5.880  0.0000  0.0000  0.0000
  627UNL      C 2768  -0.397   6.172   5.859  0.0000  0.0000  0.0000
  627UNL      C 2769  -0.493   6.081   5.788  0.0000  0.0000  0.0000
  627UNL      C 2770  -0.625   6.150   5.764  0.0000  0.0000  0.0000
  627UNL      C 2771  -0.711   6.152   5.888  0.0000  0.0000  0.0000
  628UNL      C 2772   0.292   5.829   5.817  0.0000  0.0000  0.0000
  628UNL      C 2773   0.339   5.901   5.711  0.0000  0.0000  0.0000
  629UNL      C 2774  -0.000   5.371   7.333  0.0000  0.0000  0.0000
  630UNL      C 2775   0.345   6.043   5.717  0.0000  0.0000  0.0000
  631UNL      C 2776   0.399   6.087   5.588  0.0000  0.0000  0.0000
  632UNL      C 2777   0.389   5.848   5.576  0.0000  0.0000  0.0000
  633UNL      C 2778   0.425   5.979   5.508  0.0000  0.0000  0.0000
  634UNL      C 2779   0.277   5.773   5.500  0.0000  0.0000  0.0000
  634UNL      C 2780   0.512   5.755   5.593  0.0000  0.0000  0.0000
  635UNL      S 2781   0.435   6.235   5.512  0.0000  0.0000  0.0000
  635UNL      C 2782   0.485   6.152   5.366  0.0000  0.0000  0.0000
  635UNL      C 2783   0.474   6.015   5.382  0.0000  0.0000  0.0000
  636UNL      C 2784   0.525   6.221   5.246  0.0000  0.0000  0.0000
  636UNL      C 2785   0.567   6.149   5.135  0.0000  0.0000  0.0000
  636UNL      C 2786   0.597   6.211   5.010  0.0000  0.0000  0.0000
  636UNL      C 2787   0.591   6.347   4.991  0.0000  0.0000  0.0000
  636UNL      C 2788   0.522   6.363   5.231  0.0000  0.0000  0.0000
  636UNL      C 2789   0.555   6.425   5.107  0.0000  0.0000  0.0000
  637UNL      C 2790   0.617   6.416   4.867  0.0000  0.0000  0.0000
  638UNL      N 2791   0.487   6.452   5.327  0.0000  0.0000  0.0000
  638UNL      N 2792   0.542   6.560   5.110  0.0000  0.0000  0.0000
  638UNL      S 2793   0.497   6.597   5.259  0.0000  0.0000  0.0000
  639UNL      C 2794   0.650   6.366   4.746  0.0000  0.0000  0.0000
  639UNL      S 2795   0.677   6.202   4.694  0.0000  0.0000  0.0000
  639UNL      C 2796   0.664   6.457   4.631  0.0000  0.0000  0.0000
  639UNL      O 2797   0.651   6.577   4.633  0.0000  0.0000  0.0000
  639UNL      N 2798   0.699   6.386   4.516  0.0000  0.0000  0.0000
  639UNL      C 2799   0.710   6.249   4.528  0.0000  0.0000  0.0000
  639UNL      C 2800   0.712   6.455   4.388  0.0000  0.0000  0.0000
  639UNL      C 2801   0.580   6.463   4.318  0.0000  0.0000  0.0000
  639UNL      S 2802   0.747   6.144   4.412  0.0000  0.0000  0.0000
  640UNL      C 2803   0.628   5.817   5.663  0.0000  0.0000  0.0000
  640UNL      C 2804   0.754   5.729   5.675  0.0000  0.0000  0.0000
  640UNL      C 2805   0.822   5.702   5.540  0.0000  0.0000  0.0000
  640UNL      C 2806   0.889   5.824   5.475  0.0000  0.0000  0.0000
  640UNL      C 2807   0.967   5.809   5.343  0.0000  0.0000  0.0000
  640UNL      C 2808   0.869   5.791   5.226  0.0000  0.0000  0.0000
  640UNL      C 2809   0.952   5.769   5.098  0.0000  0.0000  0.0000
  640UNL      C 2810   0.151   5.856   5.474  0.0000  0.0000  0.0000
  640UNL      C 2811   0.050   5.798   5.379  0.0000  0.0000  0.0000
  640UNL      C 2812   0.100   5.805   5.233  0.0000  0.0000  0.0000
  640UNL      C 2813  -0.010   5.765   5.128  0.0000  0.0000  0.0000
  640UNL      C 2814   0.051   5.776   4.986  0.0000  0.0000  0.0000
  640UNL      C 2815  -0.058   5.747   4.880  0.0000  0.0000  0.0000
  640UNL      C 2816  -0.008   5.779   4.733  0.0000  0.0000  0.0000
  641UNL      C 2817   1.914   1.724   2.118  0.0000  0.0000  0.0000
  641UNL      C 2818   1.929   1.618   2.015  0.0000  0.0000  0.0000
  641UNL      N 2819   1.858   1.669   2.234  0.0000  0.0000  0.0000
  641UNL      S 2820   1.873   1.466   2.076  0.0000  0.0000  0.0000
  641UNL      C 2821   1.828   1.535   2.231  0.0000  0.0000  0.0000
  641UNL      C 2822   1.836   1.755   2.351  0.0000  0.0000  0.0000
  641UNL      S 2823   1.761   1.447   2.350  0.0000  0.0000  0.0000
  641UNL      O 2824   1.947   1.839   2.108  0.0000  0.0000  0.0000
  641UNL      C 2825   1.974   1.654   1.891  0.0000  0.0000  0.0000
  642UNL      C 2826   2.001   1.573   1.775  0.0000  0.0000  0.0000
  642UNL      C 2827   2.000   1.436   1.768  0.0000  0.0000  0.0000
  642UNL      C 2828   2.035   1.641   1.654  0.0000  0.0000  0.0000
  642UNL      C 2829   2.027   1.365   1.649  0.0000  0.0000  0.0000
  642UNL      C 2830   2.059   1.426   1.528  0.0000  0.0000  0.0000
  642UNL      C 2831   2.063   1.570   1.533  0.0000  0.0000  0.0000
  642UNL      N 2832   2.044   1.775   1.640  0.0000  0.0000  0.0000
  642UNL      N 2833   2.094   1.652   1.430  0.0000  0.0000  0.0000
  642UNL      S 2834   2.087   1.803   1.486  0.0000  0.0000  0.0000
  643UNL      C 2835   2.091   1.351   1.410  0.0000  0.0000  0.0000
  643UNL      C 2836   2.096   1.214   1.397  0.0000  0.0000  0.0000
  643UNL      C 2837   2.138   1.173   1.269  0.0000  0.0000  0.0000
  643UNL      C 2838   2.163   1.279   1.186  0.0000  0.0000  0.0000
  643UNL      S 2839   2.136   1.429   1.260  0.0000  0.0000  0.0000
  644UNL      C 2840   2.214   1.233   1.058  0.0000  0.0000  0.0000
  644UNL      C 2841   2.219   1.093   1.065  0.0000  0.0000  0.0000
  645UNL      C 2842   2.168   1.040   1.201  0.0000  0.0000  0.0000
  646UNL      C 2843   2.266   1.020   0.958  0.0000  0.0000  0.0000
  647UNL      C 2844   2.040   0.955   1.180  0.0000  0.0000  0.0000
  647UNL      C 2845   2.275   0.960   1.275  0.0000  0.0000  0.0000
  647UNL      C 2846   2.401   1.033   1.309  0.0000  0.0000  0.0000
  647UNL      C 2847   1.928   1.025   1.108  0.0000  0.0000  0.0000
  647UNL      C 2848   2.506   0.944   1.370  0.0000  0.0000  0.0000
  647UNL      C 2849   2.633   1.014   1.406  0.0000  0.0000  0.0000
  647UNL      C 2850   2.747   0.934   1.462  0.0000  0.0000  0.0000
  647UNL      C 2851   2.769   0.787   1.441  0.0000  0.0000  0.0000
  647UNL      C 2852   2.877   0.683   1.438  0.0000  0.0000  0.0000
  647UNL      C 2853   2.856   0.562   1.523  0.0000  0.0000  0.0000
  647UNL      C 2854   1.802   0.945   1.084  0.0000  0.0000  0.0000
  647UNL      C 2855   1.699   1.025   1.008  0.0000  0.0000  0.0000
  647UNL      C 2856   1.565   0.960   0.987  0.0000  0.0000  0.0000
  647UNL      C 2857   1.468   1.051   0.916  0.0000  0.0000  0.0000
  647UNL      C 2858   1.337   0.981   0.892  0.0000  0.0000  0.0000
  647UNL      C 2859   1.250   0.979   1.016  0.0000  0.0000  0.0000
  648UNL      C 2860   2.253   1.302   0.945  0.0000  0.0000  0.0000
  648UNL      C 2861   2.300   1.230   0.838  0.0000  0.0000  0.0000
  649UNL      C 2862   1.961   1.760   2.438  0.0000  0.0000  0.0000
  650UNL      C 2863   2.306   1.089   0.845  0.0000  0.0000  0.0000
  651UNL      C 2864   2.360   1.044   0.716  0.0000  0.0000  0.0000
  652UNL      C 2865   2.350   1.283   0.703  0.0000  0.0000  0.0000
  653UNL      C 2866   2.386   1.153   0.635  0.0000  0.0000  0.0000
  654UNL      C 2867   2.238   1.358   0.628  0.0000  0.0000  0.0000
  654UNL      C 2868   2.473   1.376   0.721  0.0000  0.0000  0.0000
  655UNL      S 2869   2.396   0.896   0.640  0.0000  0.0000  0.0000
  655UNL      C 2870   2.446   0.979   0.494  0.0000  0.0000  0.0000
  655UNL      C 2871   2.435   1.116   0.510  0.0000  0.0000  0.0000
  656UNL      C 2872   2.486   0.910   0.374  0.0000  0.0000  0.0000
  656UNL      C 2873   2.529   0.982   0.263  0.0000  0.0000  0.0000
  656UNL      C 2874   2.558   0.920   0.138  0.0000  0.0000  0.0000
  656UNL      C 2875   2.552   0.784   0.119  0.0000  0.0000  0.0000
  656UNL      C 2876   2.483   0.768   0.359  0.0000  0.0000  0.0000
  656UNL      C 2877   2.516   0.706   0.235  0.0000  0.0000  0.0000
  657UNL      C 2878   2.578   0.715  -0.029  0.0000  0.0000  0.0000
  658UNL      N 2879   2.448   0.679   0.454  0.0000  0.0000  0.0000
  658UNL      N 2880   2.503   0.571   0.238  0.0000  0.0000  0.0000
  658UNL      S 2881   2.458   0.534   0.387  0.0000  0.0000  0.0000
  659UNL      C 2882   2.611   0.765  -0.150  0.0000  0.0000  0.0000
  659UNL      S 2883   2.639   0.929  -0.201  0.0000  0.0000  0.0000
  659UNL      C 2884   2.626   0.675  -0.264  0.0000  0.0000  0.0000
  659UNL      O 2885   2.612   0.554  -0.263  0.0000  0.0000  0.0000
  659UNL      N 2886   2.661   0.745  -0.379  0.0000  0.0000  0.0000
  659UNL      C 2887   2.672   0.882  -0.368  0.0000  0.0000  0.0000
  659UNL      C 2888   2.673   0.677  -0.508  0.0000  0.0000  0.0000
  659UNL      C 2889   2.542   0.668  -0.578  0.0000  0.0000  0.0000
  659UNL      S 2890   2.708   0.988  -0.483  0.0000  0.0000  0.0000
  660UNL      C 2891   2.589   1.314   0.791  0.0000  0.0000  0.0000
  660UNL      C 2892   2.715   1.402   0.803  0.0000  0.0000  0.0000
  660UNL      C 2893   2.783   1.429   0.668  0.0000  0.0000  0.0000
  660UNL      C 2894   2.850   1.307   0.603  0.0000  0.0000  0.0000
  660UNL      C 2895   2.928   1.322   0.471  0.0000  0.0000  0.0000
  660UNL      C 2896   2.830   1.341   0.354  0.0000  0.0000  0.0000
  660UNL      C 2897   2.913   1.362   0.226  0.0000  0.0000  0.0000
  660UNL      C 2898   2.112   1.275   0.601  0.0000  0.0000  0.0000
  660UNL      C 2899   2.011   1.333   0.507  0.0000  0.0000  0.0000
  660UNL      C 2900   2.061   1.326   0.361  0.0000  0.0000  0.0000
  660UNL      C 2901   1.952   1.366   0.256  0.0000  0.0000  0.0000
  660UNL      C 2902   2.012   1.355   0.114  0.0000  0.0000  0.0000
  660UNL      C 2903   1.903   1.384   0.008  0.0000  0.0000  0.0000
  660UNL      C 2904   1.953   1.352  -0.139  0.0000  0.0000  0.0000
  661UNL      C 2905   2.019   0.931  -0.517  0.0000  0.0000  0.0000
  661UNL      C 2906   2.005   0.826  -0.414  0.0000  0.0000  0.0000
  661UNL      N 2907   2.075   0.876  -0.633  0.0000  0.0000  0.0000
  661UNL      S 2908   2.060   0.674  -0.475  0.0000  0.0000  0.0000
  661UNL      C 2909   2.105   0.742  -0.630  0.0000  0.0000  0.0000
  661UNL      C 2910   2.098   0.963  -0.750  0.0000  0.0000  0.0000
  661UNL      S 2911   2.172   0.654  -0.749  0.0000  0.0000  0.0000
  661UNL      O 2912   1.987   1.046  -0.507  0.0000  0.0000  0.0000
  661UNL      C 2913   1.959   0.861  -0.290  0.0000  0.0000  0.0000
  662UNL      C 2914   1.932   0.780  -0.174  0.0000  0.0000  0.0000
  662UNL      C 2915   1.934   0.643  -0.167  0.0000  0.0000  0.0000
  662UNL      C 2916   1.899   0.848  -0.054  0.0000  0.0000  0.0000
  662UNL      C 2917   1.906   0.573  -0.048  0.0000  0.0000  0.0000
  662UNL      C 2918   1.874   0.634   0.096  0.0000  0.0000  0.0000
  662UNL      C 2919   1.871   0.778   0.091  0.0000  0.0000  0.0000
  662UNL      N 2920   1.889   0.983  -0.039  0.0000  0.0000  0.0000
  662UNL      N 2921   1.839   0.859   0.194  0.0000  0.0000  0.0000
  662UNL      S 2922   1.846   1.011   0.138  0.0000  0.0000  0.0000
  663UNL      C 2923   1.843   0.558   0.214  0.0000  0.0000  0.0000
  663UNL      C 2924   1.837   0.421   0.227  0.0000  0.0000  0.0000
  663UNL      C 2925   1.795   0.380   0.355  0.0000  0.0000  0.0000
  663UNL      C 2926   1.770   0.486   0.438  0.0000  0.0000  0.0000
  663UNL      S 2927   1.797   0.637   0.364  0.0000  0.0000  0.0000
  664UNL      C 2928   1.720   0.441   0.567  0.0000  0.0000  0.0000
  664UNL      C 2929   1.714   0.300   0.559  0.0000  0.0000  0.0000
  665UNL      C 2930   1.766   0.248   0.423  0.0000  0.0000  0.0000
  666UNL      C 2931   1.667   0.227   0.666  0.0000  0.0000  0.0000
  667UNL      C 2932   1.893   0.163   0.444  0.0000  0.0000  0.0000
  667UNL      C 2933   1.658   0.168   0.349  0.0000  0.0000  0.0000
  667UNL      C 2934   1.532   0.241   0.315  0.0000  0.0000  0.0000
  667UNL      C 2935   2.006   0.233   0.516  0.0000  0.0000  0.0000
  667UNL      C 2936   1.428   0.152   0.255  0.0000  0.0000  0.0000
  667UNL      C 2937   1.300   0.221   0.218  0.0000  0.0000  0.0000
  667UNL      C 2938   1.186   0.141   0.162  0.0000  0.0000  0.0000
  667UNL      C 2939   1.164  -0.005   0.184  0.0000  0.0000  0.0000
  667UNL      C 2940   1.056  -0.109   0.186  0.0000  0.0000  0.0000
  667UNL      C 2941   1.077  -0.231   0.101  0.0000  0.0000  0.0000
  667UNL      C 2942   2.132   0.153   0.540  0.0000  0.0000  0.0000
  667UNL      C 2943   2.234   0.232   0.617  0.0000  0.0000  0.0000
  667UNL      C 2944   2.369   0.167   0.637  0.0000  0.0000  0.0000
  667UNL      C 2945   2.465   0.258   0.708  0.0000  0.0000  0.0000
  667UNL      C 2946   2.597   0.189   0.732  0.0000  0.0000  0.0000
  667UNL      C 2947   2.683   0.187   0.608  0.0000  0.0000  0.0000
  668UNL      C 2948   1.681   0.510   0.679  0.0000  0.0000  0.0000
  668UNL      C 2949   1.633   0.438   0.786  0.0000  0.0000  0.0000
  669UNL      C 2950   1.972   0.967  -0.837  0.0000  0.0000  0.0000
  670UNL      C 2951   1.627   0.296   0.780  0.0000  0.0000  0.0000
  671UNL      C 2952   1.573   0.252   0.908  0.0000  0.0000  0.0000
  672UNL      C 2953   1.583   0.491   0.921  0.0000  0.0000  0.0000
  673UNL      C 2954   1.547   0.360   0.989  0.0000  0.0000  0.0000
  674UNL      C 2955   1.695   0.566   0.996  0.0000  0.0000  0.0000
  674UNL      C 2956   1.460   0.584   0.903  0.0000  0.0000  0.0000
  675UNL      S 2957   1.538   0.104   0.984  0.0000  0.0000  0.0000
  675UNL      C 2958   1.488   0.187   1.130  0.0000  0.0000  0.0000
  675UNL      C 2959   1.499   0.324   1.115  0.0000  0.0000  0.0000
  676UNL      C 2960   1.447   0.118   1.250  0.0000  0.0000  0.0000
  676UNL      C 2961   1.405   0.190   1.361  0.0000  0.0000  0.0000
  676UNL      C 2962   1.375   0.128   1.487  0.0000  0.0000  0.0000
  676UNL      C 2963   1.381  -0.009   1.505  0.0000  0.0000  0.0000
  676UNL      C 2964   1.450  -0.024   1.265  0.0000  0.0000  0.0000
  676UNL      C 2965   1.417  -0.086   1.390  0.0000  0.0000  0.0000
  677UNL      C 2966   1.355  -0.078   1.629  0.0000  0.0000  0.0000
  678UNL      N 2967   1.485  -0.113   1.170  0.0000  0.0000  0.0000
  678UNL      N 2968   1.430  -0.221   1.386  0.0000  0.0000  0.0000
  678UNL      S 2969   1.476  -0.258   1.237  0.0000  0.0000  0.0000
  679UNL      C 2970   1.322  -0.027   1.751  0.0000  0.0000  0.0000
  679UNL      S 2971   1.295   0.137   1.802  0.0000  0.0000  0.0000
  679UNL      C 2972   1.308  -0.118   1.865  0.0000  0.0000  0.0000
  679UNL      O 2973   1.321  -0.238   1.864  0.0000  0.0000  0.0000
  679UNL      N 2974   1.273  -0.047   1.980  0.0000  0.0000  0.0000
  679UNL      C 2975   1.262   0.090   1.969  0.0000  0.0000  0.0000
  679UNL      C 2976   1.261  -0.116   2.109  0.0000  0.0000  0.0000
  679UNL      C 2977   1.392  -0.125   2.179  0.0000  0.0000  0.0000
  679UNL      S 2978   1.225   0.195   2.084  0.0000  0.0000  0.0000
  680UNL      C 2979   1.344   0.521   0.833  0.0000  0.0000  0.0000
  680UNL      C 2980   1.218   0.610   0.822  0.0000  0.0000  0.0000
  680UNL      C 2981   1.150   0.637   0.957  0.0000  0.0000  0.0000
  680UNL      C 2982   1.083   0.514   1.021  0.0000  0.0000  0.0000
  680UNL      C 2983   1.006   0.530   1.153  0.0000  0.0000  0.0000
  680UNL      C 2984   1.103   0.548   1.270  0.0000  0.0000  0.0000
  680UNL      C 2985   1.021   0.570   1.398  0.0000  0.0000  0.0000
  680UNL      C 2986   1.821   0.482   1.023  0.0000  0.0000  0.0000
  680UNL      C 2987   1.922   0.541   1.117  0.0000  0.0000  0.0000
  680UNL      C 2988   1.872   0.534   1.264  0.0000  0.0000  0.0000
  680UNL      C 2989   1.982   0.573   1.368  0.0000  0.0000  0.0000
  680UNL      C 2990   1.921   0.563   1.510  0.0000  0.0000  0.0000
  680UNL      C 2991   2.030   0.591   1.616  0.0000  0.0000  0.0000
  680UNL      C 2992   1.980   0.559   1.763  0.0000  0.0000  0.0000
  681UNL      C 2993   1.824  -0.139   1.131  0.0000  0.0000  0.0000
  681UNL      C 2994   1.809  -0.034   1.234  0.0000  0.0000  0.0000
  681UNL      N 2995   1.880  -0.084   1.014  0.0000  0.0000  0.0000
  681UNL      S 2996   1.865   0.119   1.172  0.0000  0.0000  0.0000
  681UNL      C 2997   1.910   0.050   1.017  0.0000  0.0000  0.0000
  681UNL      C 2998   1.902  -0.170   0.898  0.0000  0.0000  0.0000
  681UNL      S 2999   1.977   0.138   0.899  0.0000  0.0000  0.0000
  681UNL      O 3000   1.791  -0.254   1.140  0.0000  0.0000  0.0000
  681UNL      C 3001   1.764  -0.069   1.357  0.0000  0.0000  0.0000
  682UNL      C 3002   1.737   0.012   1.474  0.0000  0.0000  0.0000
  682UNL      C 3003   1.738   0.149   1.481  0.0000  0.0000  0.0000
  682UNL      C 3004   1.704  -0.056   1.594  0.0000  0.0000  0.0000
  682UNL      C 3005   1.711   0.220   1.599  0.0000  0.0000  0.0000
  682UNL      C 3006   1.679   0.158   1.720  0.0000  0.0000  0.0000
  682UNL      C 3007   1.675   0.015   1.715  0.0000  0.0000  0.0000
  682UNL      N 3008   1.694  -0.191   1.608  0.0000  0.0000  0.0000
  682UNL      N 3009   1.644  -0.067   1.819  0.0000  0.0000  0.0000
  682UNL      S 3010   1.651  -0.218   1.762  0.0000  0.0000  0.0000
  683UNL      C 3011   1.648   0.234   1.839  0.0000  0.0000  0.0000
  683UNL      C 3012   1.642   0.371   1.852  0.0000  0.0000  0.0000
  683UNL      C 3013   1.600   0.412   1.979  0.0000  0.0000  0.0000
  683UNL      C 3014   1.575   0.306   2.062  0.0000  0.0000  0.0000
  683UNL      S 3015   1.602   0.155   1.989  0.0000  0.0000  0.0000
  684UNL      C 3016   1.524   0.351   2.191  0.0000  0.0000  0.0000
  684UNL      C 3017   1.519   0.492   2.184  0.0000  0.0000  0.0000
  685UNL      C 3018   1.571   0.545   2.047  0.0000  0.0000  0.0000
  686UNL      C 3019   1.472   0.565   2.290  0.0000  0.0000  0.0000
  687UNL      C 3020   1.698   0.630   2.069  0.0000  0.0000  0.0000
  687UNL      C 3021   1.463   0.624   1.973  0.0000  0.0000  0.0000
  687UNL      C 3022   1.337   0.552   1.939  0.0000  0.0000  0.0000
  687UNL      C 3023   1.811   0.560   2.141  0.0000  0.0000  0.0000
  687UNL      C 3024   1.233   0.641   1.879  0.0000  0.0000  0.0000
  687UNL      C 3025   1.105   0.571   1.842  0.0000  0.0000  0.0000
  687UNL      C 3026   0.991   0.651   1.786  0.0000  0.0000  0.0000
  687UNL      C 3027   0.969   0.798   1.808  0.0000  0.0000  0.0000
  687UNL      C 3028   0.861   0.901   1.810  0.0000  0.0000  0.0000
  687UNL      C 3029   0.882   1.023   1.725  0.0000  0.0000  0.0000
  687UNL      C 3030   1.937   0.640   2.164  0.0000  0.0000  0.0000
  687UNL      C 3031   2.039   0.560   2.241  0.0000  0.0000  0.0000
  687UNL      C 3032   2.174   0.625   2.261  0.0000  0.0000  0.0000
  687UNL      C 3033   2.270   0.534   2.332  0.0000  0.0000  0.0000
  687UNL      C 3034   2.402   0.604   2.356  0.0000  0.0000  0.0000
  687UNL      C 3035   2.488   0.605   2.233  0.0000  0.0000  0.0000
  688UNL      C 3036   1.485   0.282   2.303  0.0000  0.0000  0.0000
  688UNL      C 3037   1.438   0.354   2.410  0.0000  0.0000  0.0000
  689UNL      C 3038   1.777  -0.175   0.811  0.0000  0.0000  0.0000
  690UNL      C 3039   1.432   0.496   2.404  0.0000  0.0000  0.0000
  691UNL      C 3040   1.378   0.540   2.532  0.0000  0.0000  0.0000
  692UNL      C 3041   1.388   0.302   2.545  0.0000  0.0000  0.0000
  693UNL      C 3042   1.352   0.432   2.613  0.0000  0.0000  0.0000
  694UNL      C 3043   1.500   0.227   2.621  0.0000  0.0000  0.0000
  694UNL      C 3044   1.265   0.209   2.528  0.0000  0.0000  0.0000
  695UNL      S 3045   1.342   0.689   2.609  0.0000  0.0000  0.0000
  695UNL      C 3046   1.293   0.606   2.754  0.0000  0.0000  0.0000
  695UNL      C 3047   1.304   0.469   2.739  0.0000  0.0000  0.0000
  696UNL      C 3048   1.252   0.674   2.874  0.0000  0.0000  0.0000
  696UNL      C 3049   1.210   0.603   2.985  0.0000  0.0000  0.0000
  696UNL      C 3050   1.180   0.664   3.111  0.0000  0.0000  0.0000
  696UNL      C 3051   1.186   0.801   3.129  0.0000  0.0000  0.0000
  696UNL      C 3052   1.255   0.817   2.889  0.0000  0.0000  0.0000
  696UNL      C 3053   1.222   0.878   3.014  0.0000  0.0000  0.0000
  697UNL      C 3054   1.160   0.870   3.277  0.0000  0.0000  0.0000
  698UNL      N 3055   1.290   0.905   2.794  0.0000  0.0000  0.0000
  698UNL      N 3056   1.235   1.014   3.010  0.0000  0.0000  0.0000
  698UNL      S 3057   1.281   1.051   2.862  0.0000  0.0000  0.0000
  699UNL      C 3058   1.127   0.820   3.398  0.0000  0.0000  0.0000
  699UNL      S 3059   1.100   0.655   3.450  0.0000  0.0000  0.0000
  699UNL      C 3060   1.112   0.910   3.513  0.0000  0.0000  0.0000
  699UNL      O 3061   1.126   1.031   3.511  0.0000  0.0000  0.0000
  699UNL      N 3062   1.078   0.840   3.628  0.0000  0.0000  0.0000
  699UNL      C 3063   1.067   0.703   3.616  0.0000  0.0000  0.0000
  699UNL      C 3064   1.065   0.908   3.757  0.0000  0.0000  0.0000
  699UNL      C 3065   1.197   0.917   3.826  0.0000  0.0000  0.0000
  699UNL      S 3066   1.030   0.597   3.732  0.0000  0.0000  0.0000
  700UNL      C 3067   1.149   0.271   2.457  0.0000  0.0000  0.0000
  700UNL      C 3068   1.023   0.183   2.446  0.0000  0.0000  0.0000
  700UNL      C 3069   0.955   0.155   2.581  0.0000  0.0000  0.0000
  700UNL      C 3070   0.888   0.278   2.645  0.0000  0.0000  0.0000
  700UNL      C 3071   0.810   0.263   2.777  0.0000  0.0000  0.0000
  700UNL      C 3072   0.908   0.244   2.895  0.0000  0.0000  0.0000
  700UNL      C 3073   0.826   0.223   3.022  0.0000  0.0000  0.0000
  700UNL      C 3074   1.626   0.310   2.647  0.0000  0.0000  0.0000
  700UNL      C 3075   1.727   0.252   2.742  0.0000  0.0000  0.0000
  700UNL      C 3076   1.677   0.259   2.888  0.0000  0.0000  0.0000
  700UNL      C 3077   1.787   0.219   2.993  0.0000  0.0000  0.0000
  700UNL      C 3078   1.726   0.229   3.135  0.0000  0.0000  0.0000
  700UNL      C 3079   1.835   0.201   3.240  0.0000  0.0000  0.0000
  700UNL      C 3080   1.785   0.233   3.387  0.0000  0.0000  0.0000
  701UNL      C 3081   1.719   0.654   3.765  0.0000  0.0000  0.0000
  701UNL      C 3082   1.733   0.759   3.662  0.0000  0.0000  0.0000
  701UNL      N 3083   1.663   0.709   3.882  0.0000  0.0000  0.0000
  701UNL      S 3084   1.678   0.911   3.724  0.0000  0.0000  0.0000
  701UNL      C 3085   1.633   0.843   3.879  0.0000  0.0000  0.0000
  701UNL      C 3086   1.641   0.622   3.998  0.0000  0.0000  0.0000
  701UNL      S 3087   1.566   0.931   3.997  0.0000  0.0000  0.0000
  701UNL      O 3088   1.751   0.538   3.756  0.0000  0.0000  0.0000
  701UNL      C 3089   1.779   0.724   3.539  0.0000  0.0000  0.0000
  702UNL      C 3090   1.806   0.805   3.422  0.0000  0.0000  0.0000
  702UNL      C 3091   1.805   0.942   3.415  0.0000  0.0000  0.0000
  702UNL      C 3092   1.839   0.737   3.302  0.0000  0.0000  0.0000
  702UNL      C 3093   1.832   1.012   3.297  0.0000  0.0000  0.0000
  702UNL      C 3094   1.864   0.951   3.153  0.0000  0.0000  0.0000
  702UNL      C 3095   1.868   0.807   3.158  0.0000  0.0000  0.0000
  702UNL      N 3096   1.849   0.602   3.288  0.0000  0.0000  0.0000
  702UNL      N 3097   1.899   0.725   3.054  0.0000  0.0000  0.0000
  702UNL      S 3098   1.892   0.574   3.111  0.0000  0.0000  0.0000
  703UNL      C 3099   1.896   1.026   3.034  0.0000  0.0000  0.0000
  703UNL      C 3100   1.901   1.164   3.021  0.0000  0.0000  0.0000
  703UNL      C 3101   1.943   1.204   2.893  0.0000  0.0000  0.0000
  703UNL      C 3102   1.968   1.099   2.810  0.0000  0.0000  0.0000
  703UNL      S 3103   1.941   0.948   2.884  0.0000  0.0000  0.0000
  704UNL      C 3104   2.019   1.144   2.682  0.0000  0.0000  0.0000
  704UNL      C 3105   2.024   1.285   2.689  0.0000  0.0000  0.0000
  705UNL      C 3106   1.972   1.337   2.825  0.0000  0.0000  0.0000
  706UNL      C 3107   2.071   1.358   2.583  0.0000  0.0000  0.0000
  707UNL      C 3108   1.845   1.422   2.804  0.0000  0.0000  0.0000
  707UNL      C 3109   2.080   1.417   2.899  0.0000  0.0000  0.0000
  707UNL      C 3110   2.206   1.344   2.933  0.0000  0.0000  0.0000
  707UNL      C 3111   1.732   1.352   2.732  0.0000  0.0000  0.0000
  707UNL      C 3112   2.310   1.433   2.994  0.0000  0.0000  0.0000
  707UNL      C 3113   2.438   1.364   3.030  0.0000  0.0000  0.0000
  707UNL      C 3114   2.552   1.443   3.087  0.0000  0.0000  0.0000
  707UNL      C 3115   2.574   1.590   3.065  0.0000  0.0000  0.0000
  707UNL      C 3116   2.682   1.694   3.063  0.0000  0.0000  0.0000
  707UNL      C 3117   2.661   1.815   3.147  0.0000  0.0000  0.0000
  707UNL      C 3118   1.607   1.432   2.708  0.0000  0.0000  0.0000
  707UNL      C 3119   1.504   1.353   2.632  0.0000  0.0000  0.0000
  707UNL      C 3120   1.369   1.418   2.611  0.0000  0.0000  0.0000
  707UNL      C 3121   1.273   1.327   2.540  0.0000  0.0000  0.0000
  707UNL      C 3122   1.141   1.396   2.516  0.0000  0.0000  0.0000
  707UNL      C 3123   1.055   1.398   2.640  0.0000  0.0000  0.0000
  708UNL      C 3124   2.058   1.075   2.569  0.0000  0.0000  0.0000
  708UNL      C 3125   2.105   1.147   2.463  0.0000  0.0000  0.0000
  709UNL      C 3126   1.766   0.617   4.085  0.0000  0.0000  0.0000
  710UNL      C 3127   2.111   1.289   2.469  0.0000  0.0000  0.0000
  711UNL      C 3128   2.165   1.333   2.340  0.0000  0.0000  0.0000
  712UNL      C 3129   2.155   1.094   2.328  0.0000  0.0000  0.0000
  713UNL      C 3130   2.191   1.225   2.260  0.0000  0.0000  0.0000
  714UNL      C 3131   2.043   1.019   2.252  0.0000  0.0000  0.0000
  714UNL      C 3132   2.278   1.001   2.345  0.0000  0.0000  0.0000
  715UNL      S 3133   2.201   1.481   2.264  0.0000  0.0000  0.0000
  715UNL      C 3134   2.251   1.398   2.118  0.0000  0.0000  0.0000
  715UNL      C 3135   2.240   1.261   2.134  0.0000  0.0000  0.0000
  716UNL      C 3136   2.291   1.467   1.998  0.0000  0.0000  0.0000
  716UNL      C 3137   2.333   1.395   1.887  0.0000  0.0000  0.0000
  716UNL      C 3138   2.363   1.457   1.762  0.0000  0.0000  0.0000
  716UNL      C 3139   2.357   1.593   1.743  0.0000  0.0000  0.0000
  716UNL      C 3140   2.288   1.609   1.983  0.0000  0.0000  0.0000
  716UNL      C 3141   2.321   1.671   1.859  0.0000  0.0000  0.0000
  717UNL      C 3142   2.383   1.662   1.619  0.0000  0.0000  0.0000
  718UNL      N 3143   2.253   1.698   2.079  0.0000  0.0000  0.0000
  718UNL      N 3144   2.308   1.806   1.862  0.0000  0.0000  0.0000
  718UNL      S 3145   2.263   1.843   2.011  0.0000  0.0000  0.0000
  719UNL      C 3146   2.416   1.612   1.498  0.0000  0.0000  0.0000
  719UNL      S 3147   2.443   1.448   1.446  0.0000  0.0000  0.0000
  719UNL      C 3148   2.430   1.703   1.383  0.0000  0.0000  0.0000
  719UNL      O 3149   2.417   1.823   1.385  0.0000  0.0000  0.0000
  719UNL      N 3150   2.465   1.632   1.268  0.0000  0.0000  0.0000
  719UNL      C 3151   2.476   1.495   1.280  0.0000  0.0000  0.0000
  719UNL      C 3152   2.478   1.701   1.140  0.0000  0.0000  0.0000
  719UNL      C 3153   2.346   1.709   1.070  0.0000  0.0000  0.0000
  719UNL      S 3154   2.513   1.390   1.164  0.0000  0.0000  0.0000
  720UNL      C 3155   2.394   1.063   2.415  0.0000  0.0000  0.0000
  720UNL      C 3156   2.520   0.975   2.427  0.0000  0.0000  0.0000
  720UNL      C 3157   2.588   0.948   2.292  0.0000  0.0000  0.0000
  720UNL      C 3158   2.655   1.070   2.227  0.0000  0.0000  0.0000
  720UNL      C 3159   2.733   1.055   2.095  0.0000  0.0000  0.0000
  720UNL      C 3160   2.635   1.037   1.978  0.0000  0.0000  0.0000
  720UNL      C 3161   2.718   1.015   1.850  0.0000  0.0000  0.0000
  720UNL      C 3162   1.917   1.102   2.226  0.0000  0.0000  0.0000
  720UNL      C 3163   1.816   1.044   2.131  0.0000  0.0000  0.0000
  720UNL      C 3164   1.866   1.051   1.985  0.0000  0.0000  0.0000
  720UNL      C 3165   1.756   1.011   1.880  0.0000  0.0000  0.0000
  720UNL      C 3166   1.817   1.022   1.738  0.0000  0.0000  0.0000
  720UNL      C 3167   1.708   0.993   1.632  0.0000  0.0000  0.0000
  720UNL      C 3168   1.758   1.025   1.485  0.0000  0.0000  0.0000
  721UNL      C 3169   1.524   1.724   5.366  0.0000  0.0000  0.0000
  721UNL      C 3170   1.539   1.618   5.263  0.0000  0.0000  0.0000
  721UNL      N 3171   1.468   1.669   5.482  0.0000  0.0000  0.0000
  721UNL      S 3172   1.483   1.466   5.324  0.0000  0.0000  0.0000
  721UNL      C 3173   1.438   1.535   5.479  0.0000  0.0000  0.0000
  721UNL      C 3174   1.446   1.755   5.599  0.0000  0.0000  0.0000
  721UNL      S 3175   1.371   1.447   5.598  0.0000  0.0000  0.0000
  721UNL      O 3176   1.557   1.839   5.356  0.0000  0.0000  0.0000
  721UNL      C 3177   1.584   1.654   5.139  0.0000  0.0000  0.0000
  722UNL      C 3178   1.611   1.573   5.023  0.0000  0.0000  0.0000
  722UNL      C 3179   1.610   1.436   5.016  0.0000  0.0000  0.0000
  722UNL      C 3180   1.645   1.641   4.902  0.0000  0.0000  0.0000
  722UNL      C 3181   1.637   1.365   4.897  0.0000  0.0000  0.0000
  722UNL      C 3182   1.669   1.426   4.776  0.0000  0.0000  0.0000
  722UNL      C 3183   1.673   1.570   4.781  0.0000  0.0000  0.0000
  722UNL      N 3184   1.654   1.775   4.888  0.0000  0.0000  0.0000
  722UNL      N 3185   1.704   1.652   4.678  0.0000  0.0000  0.0000
  722UNL      S 3186   1.697   1.803   4.734  0.0000  0.0000  0.0000
  723UNL      C 3187   1.701   1.351   4.658  0.0000  0.0000  0.0000
  723UNL      C 3188   1.706   1.214   4.645  0.0000  0.0000  0.0000
  723UNL      C 3189   1.748   1.173   4.517  0.0000  0.0000  0.0000
  723UNL      C 3190   1.773   1.279   4.434  0.0000  0.0000  0.0000
  723UNL      S 3191   1.746   1.429   4.508  0.0000  0.0000  0.0000
  724UNL      C 3192   1.824   1.233   4.306  0.0000  0.0000  0.0000
  724UNL      C 3193   1.829   1.093   4.313  0.0000  0.0000  0.0000
  725UNL      C 3194   1.778   1.040   4.449  0.0000  0.0000  0.0000
  726UNL      C 3195   1.876   1.020   4.206  0.0000  0.0000  0.0000
  727UNL      C 3196   1.650   0.955   4.428  0.0000  0.0000  0.0000
  727UNL      C 3197   1.885   0.960   4.523  0.0000  0.0000  0.0000
  727UNL      C 3198   2.011   1.033   4.557  0.0000  0.0000  0.0000
  727UNL      C 3199   1.538   1.025   4.356  0.0000  0.0000  0.0000
  727UNL      C 3200   2.116   0.944   4.618  0.0000  0.0000  0.0000
  727UNL      C 3201   2.243   1.014   4.654  0.0000  0.0000  0.0000
  727UNL      C 3202   2.357   0.934   4.710  0.0000  0.0000  0.0000
  727UNL      C 3203   2.379   0.787   4.689  0.0000  0.0000  0.0000
  727UNL      C 3204   2.487   0.683   4.686  0.0000  0.0000  0.0000
  727UNL      C 3205   2.466   0.562   4.771  0.0000  0.0000  0.0000
  727UNL      C 3206   1.412   0.945   4.332  0.0000  0.0000  0.0000
  727UNL      C 3207   1.309   1.025   4.256  0.0000  0.0000  0.0000
  727UNL      C 3208   1.175   0.960   4.235  0.0000  0.0000  0.0000
  727UNL      C 3209   1.078   1.051   4.164  0.0000  0.0000  0.0000
  727UNL      C 3210   0.947   0.981   4.140  0.0000  0.0000  0.0000
  727UNL      C 3211   0.860   0.979   4.264  0.0000  0.0000  0.0000
  728UNL      C 3212   1.863   1.302   4.193  0.0000  0.0000  0.0000
  728UNL      C 3213   1.910   1.230   4.086  0.0000  0.0000  0.0000
  729UNL      C 3214   1.571   1.760   5.686  0.0000  0.0000  0.0000
  730UNL      C 3215   1.916   1.089   4.093  0.0000  0.0000  0.0000
  731UNL      C 3216   1.970   1.044   3.964  0.0000  0.0000  0.0000
  732UNL      C 3217   1.960   1.283   3.951  0.0000  0.0000  0.0000
  733UNL      C 3218   1.996   1.153   3.883  0.0000  0.0000  0.0000
  734UNL      C 3219   1.848   1.358   3.876  0.0000  0.0000  0.0000
  734UNL      C 3220   2.083   1.376   3.969  0.0000  0.0000  0.0000
  735UNL      S 3221   2.006   0.896   3.888  0.0000  0.0000  0.0000
  735UNL      C 3222   2.056   0.979   3.742  0.0000  0.0000  0.0000
  735UNL      C 3223   2.045   1.116   3.758  0.0000  0.0000  0.0000
  736UNL      C 3224   2.096   0.910   3.622  0.0000  0.0000  0.0000
  736UNL      C 3225   2.139   0.982   3.511  0.0000  0.0000  0.0000
  736UNL      C 3226   2.168   0.920   3.386  0.0000  0.0000  0.0000
  736UNL      C 3227   2.162   0.784   3.367  0.0000  0.0000  0.0000
  736UNL      C 3228   2.093   0.768   3.607  0.0000  0.0000  0.0000
  736UNL      C 3229   2.126   0.706   3.483  0.0000  0.0000  0.0000
  737UNL      C 3230   2.188   0.715   3.219  0.0000  0.0000  0.0000
  738UNL      N 3231   2.058   0.679   3.702  0.0000  0.0000  0.0000
  738UNL      N 3232   2.113   0.571   3.486  0.0000  0.0000  0.0000
  738UNL      S 3233   2.068   0.534   3.635  0.0000  0.0000  0.0000
  739UNL      C 3234   2.221   0.765   3.098  0.0000  0.0000  0.0000
  739UNL      S 3235   2.249   0.929   3.047  0.0000  0.0000  0.0000
  739UNL      C 3236   2.236   0.675   2.984  0.0000  0.0000  0.0000
  739UNL      O 3237   2.222   0.554   2.985  0.0000  0.0000  0.0000
  739UNL      N 3238   2.271   0.745   2.869  0.0000  0.0000  0.0000
  739UNL      C 3239   2.282   0.882   2.880  0.0000  0.0000  0.0000
  739UNL      C 3240   2.283   0.677   2.740  0.0000  0.0000  0.0000
  739UNL      C 3241   2.152   0.668   2.670  0.0000  0.0000  0.0000
  739UNL      S 3242   2.318   0.988   2.765  0.0000  0.0000  0.0000
  740UNL      C 3243   2.199   1.314   4.039  0.0000  0.0000  0.0000
  740UNL      C 3244   2.325   1.402   4.051  0.0000  0.0000  0.0000
  740UNL      C 3245   2.393   1.429   3.916  0.0000  0.0000  0.0000
  740UNL      C 3246   2.460   1.307   3.851  0.0000  0.0000  0.0000
  740UNL      C 3247   2.538   1.322   3.719  0.0000  0.0000  0.0000
  740UNL      C 3248   2.440   1.341   3.602  0.0000  0.0000  0.0000
  740UNL      C 3249   2.523   1.362   3.474  0.0000  0.0000  0.0000
  740UNL      C 3250   1.722   1.275   3.849  0.0000  0.0000  0.0000
  740UNL      C 3251   1.621   1.333   3.755  0.0000  0.0000  0.0000
  740UNL      C 3252   1.671   1.326   3.609  0.0000  0.0000  0.0000
  740UNL      C 3253   1.562   1.366   3.504  0.0000  0.0000  0.0000
  740UNL      C 3254   1.622   1.355   3.362  0.0000  0.0000  0.0000
  740UNL      C 3255   1.513   1.384   3.256  0.0000  0.0000  0.0000
  740UNL      C 3256   1.563   1.352   3.109  0.0000  0.0000  0.0000
  741UNL      C 3257   1.629   0.931   2.731  0.0000  0.0000  0.0000
  741UNL      C 3258   1.615   0.826   2.834  0.0000  0.0000  0.0000
  741UNL      N 3259   1.685   0.876   2.615  0.0000  0.0000  0.0000
  741UNL      S 3260   1.670   0.674   2.773  0.0000  0.0000  0.0000
  741UNL      C 3261   1.715   0.742   2.618  0.0000  0.0000  0.0000
  741UNL      C 3262   1.708   0.963   2.498  0.0000  0.0000  0.0000
  741UNL      S 3263   1.782   0.654   2.499  0.0000  0.0000  0.0000
  741UNL      O 3264   1.597   1.046   2.741  0.0000  0.0000  0.0000
  741UNL      C 3265   1.569   0.861   2.958  0.0000  0.0000  0.0000
  742UNL      C 3266   1.542   0.780   3.074  0.0000  0.0000  0.0000
  742UNL      C 3267   1.544   0.643   3.081  0.0000  0.0000  0.0000
  742UNL      C 3268   1.509   0.848   3.194  0.0000  0.0000  0.0000
  742UNL      C 3269   1.516   0.573   3.200  0.0000  0.0000  0.0000
  742UNL      C 3270   1.484   0.634   3.344  0.0000  0.0000  0.0000
  742UNL      C 3271   1.481   0.778   3.339  0.0000  0.0000  0.0000
  742UNL      N 3272   1.499   0.983   3.209  0.0000  0.0000  0.0000
  742UNL      N 3273   1.449   0.859   3.442  0.0000  0.0000  0.0000
  742UNL      S 3274   1.456   1.011   3.386  0.0000  0.0000  0.0000
  743UNL      C 3275   1.453   0.558   3.462  0.0000  0.0000  0.0000
  743UNL      C 3276   1.447   0.421   3.475  0.0000  0.0000  0.0000
  743UNL      C 3277   1.405   0.380   3.603  0.0000  0.0000  0.0000
  743UNL      C 3278   1.380   0.486   3.686  0.0000  0.0000  0.0000
  743UNL      S 3279   1.407   0.637   3.612  0.0000  0.0000  0.0000
  744UNL      C 3280   1.330   0.441   3.815  0.0000  0.0000  0.0000
  744UNL      C 3281   1.324   0.300   3.807  0.0000  0.0000  0.0000
  745UNL      C 3282   1.376   0.248   3.671  0.0000  0.0000  0.0000
  746UNL      C 3283   1.277   0.227   3.914  0.0000  0.0000  0.0000
  747UNL      C 3284   1.503   0.163   3.692  0.0000  0.0000  0.0000
  747UNL      C 3285   1.268   0.168   3.597  0.0000  0.0000  0.0000
  747UNL      C 3286   1.142   0.241   3.563  0.0000  0.0000  0.0000
  747UNL      C 3287   1.616   0.233   3.764  0.0000  0.0000  0.0000
  747UNL      C 3288   1.038   0.152   3.503  0.0000  0.0000  0.0000
  747UNL      C 3289   0.910   0.221   3.466  0.0000  0.0000  0.0000
  747UNL      C 3290   0.796   0.141   3.410  0.0000  0.0000  0.0000
  747UNL      C 3291   0.774  -0.005   3.432  0.0000  0.0000  0.0000
  747UNL      C 3292   0.666  -0.109   3.434  0.0000  0.0000  0.0000
  747UNL      C 3293   0.687  -0.231   3.349  0.0000  0.0000  0.0000
  747UNL      C 3294   1.742   0.153   3.788  0.0000  0.0000  0.0000
  747UNL      C 3295   1.844   0.232   3.865  0.0000  0.0000  0.0000
  747UNL      C 3296   1.979   0.167   3.885  0.0000  0.0000  0.0000
  747UNL      C 3297   2.075   0.258   3.956  0.0000  0.0000  0.0000
  747UNL      C 3298   2.207   0.189   3.980  0.0000  0.0000  0.0000
  747UNL      C 3299   2.293   0.187   3.856  0.0000  0.0000  0.0000
  748UNL      C 3300   1.291   0.510   3.927  0.0000  0.0000  0.0000
  748UNL      C 3301   1.243   0.438   4.034  0.0000  0.0000  0.0000
  749UNL      C 3302   1.582   0.967   2.411  0.0000  0.0000  0.0000
  750UNL      C 3303   1.237   0.296   4.028  0.0000  0.0000  0.0000
  751UNL      C 3304   1.183   0.252   4.156  0.0000  0.0000  0.0000
  752UNL      C 3305   1.193   0.491   4.169  0.0000  0.0000  0.0000
  753UNL      C 3306   1.157   0.360   4.237  0.0000  0.0000  0.0000
  754UNL      C 3307   1.305   0.566   4.244  0.0000  0.0000  0.0000
  754UNL      C 3308   1.070   0.584   4.151  0.0000  0.0000  0.0000
  755UNL      S 3309   1.148   0.104   4.232  0.0000  0.0000  0.0000
  755UNL      C 3310   1.098   0.187   4.378  0.0000  0.0000  0.0000
  755UNL      C 3311   1.109   0.324   4.363  0.0000  0.0000  0.0000
  756UNL      C 3312   1.057   0.118   4.498  0.0000  0.0000  0.0000
  756UNL      C 3313   1.015   0.190   4.609  0.0000  0.0000  0.0000
  756UNL      C 3314   0.985   0.128   4.735  0.0000  0.0000  0.0000
  756UNL      C 3315   0.991  -0.009   4.753  0.0000  0.0000  0.0000
  756UNL      C 3316   1.060  -0.024   4.513  0.0000  0.0000  0.0000
  756UNL      C 3317   1.027  -0.086   4.638  0.0000  0.0000  0.0000
  757UNL      C 3318   0.965  -0.078   4.877  0.0000  0.0000  0.0000
  758UNL      N 3319   1.095  -0.113   4.418  0.0000  0.0000  0.0000
  758UNL      N 3320   1.040  -0.221   4.634  0.0000  0.0000  0.0000
  758UNL      S 3321   1.086  -0.258   4.485  0.0000  0.0000  0.0000
  759UNL      C 3322   0.932  -0.027   4.999  0.0000  0.0000  0.0000
  759UNL      S 3323   0.905   0.137   5.050  0.0000  0.0000  0.0000
  759UNL      C 3324   0.918  -0.118   5.113  0.0000  0.0000  0.0000
  759UNL      O 3325   0.931  -0.238   5.112  0.0000  0.0000  0.0000
  759UNL      N 3326   0.883  -0.047   5.228  0.0000  0.0000  0.0000
  759UNL      C 3327   0.872   0.090   5.217  0.0000  0.0000  0.0000
  759UNL      C 3328   0.871  -0.116   5.357  0.0000  0.0000  0.0000
  759UNL      C 3329   1.002  -0.125   5.427  0.0000  0.0000  0.0000
  759UNL      S 3330   0.835   0.195   5.332  0.0000  0.0000  0.0000
  760UNL      C 3331   0.954   0.521   4.081  0.0000  0.0000  0.0000
  760UNL      C 3332   0.828   0.610   4.070  0.0000  0.0000  0.0000
  760UNL      C 3333   0.760   0.637   4.205  0.0000  0.0000  0.0000
  760UNL      C 3334   0.693   0.514   4.269  0.0000  0.0000  0.0000
  760UNL      C 3335   0.616   0.530   4.401  0.0000  0.0000  0.0000
  760UNL      C 3336   0.713   0.548   4.518  0.0000  0.0000  0.0000
  760UNL      C 3337   0.631   0.570   4.646  0.0000  0.0000  0.0000
  760UNL      C 3338   1.431   0.482   4.271  0.0000  0.0000  0.0000
  760UNL      C 3339   1.532   0.541   4.365  0.0000  0.0000  0.0000
  760UNL      C 3340   1.482   0.534   4.512  0.0000  0.0000  0.0000
  760UNL      C 3341   1.592   0.573   4.616  0.0000  0.0000  0.0000
  760UNL      C 3342   1.531   0.563   4.758  0.0000  0.0000  0.0000
  760UNL      C 3343   1.640   0.591   4.864  0.0000  0.0000  0.0000
  760UNL      C 3344   1.590   0.559   5.011  0.0000  0.0000  0.0000
  761UNL      C 3345   1.434  -0.139   4.379  0.0000  0.0000  0.0000
  761UNL      C 3346   1.419  -0.034   4.482  0.0000  0.0000  0.0000
  761UNL      N 3347   1.490  -0.084   4.262  0.0000  0.0000  0.0000
  761UNL      S 3348   1.475   0.119   4.420  0.0000  0.0000  0.0000
  761UNL      C 3349   1.520   0.050   4.265  0.0000  0.0000  0.0000
  761UNL      C 3350   1.512  -0.170   4.146  0.0000  0.0000  0.0000
  761UNL      S 3351   1.587   0.138   4.147  0.0000  0.0000  0.0000
  761UNL      O 3352   1.401  -0.254   4.388  0.0000  0.0000  0.0000
  761UNL      C 3353   1.374  -0.069   4.605  0.0000  0.0000  0.0000
  762UNL      C 3354   1.347   0.012   4.722  0.0000  0.0000  0.0000
  762UNL      C 3355   1.348   0.149   4.729  0.0000  0.0000  0.0000
  762UNL      C 3356   1.314  -0.056   4.842  0.0000  0.0000  0.0000
  762UNL      C 3357   1.321   0.220   4.847  0.0000  0.0000  0.0000
  762UNL      C 3358   1.289   0.158   4.968  0.0000  0.0000  0.0000
  762UNL      C 3359   1.285   0.015   4.963  0.0000  0.0000  0.0000
  762UNL      N 3360   1.304  -0.191   4.856  0.0000  0.0000  0.0000
  762UNL      N 3361   1.254  -0.067   5.067  0.0000  0.0000  0.0000
  762UNL      S 3362   1.261  -0.218   5.010  0.0000  0.0000  0.0000
  763UNL      C 3363   1.258   0.234   5.087  0.0000  0.0000  0.0000
  763UNL      C 3364   1.252   0.371   5.100  0.0000  0.0000  0.0000
  763UNL      C 3365   1.210   0.412   5.227  0.0000  0.0000  0.0000
  763UNL      C 3366   1.185   0.306   5.310  0.0000  0.0000  0.0000
  763UNL      S 3367   1.212   0.155   5.237  0.0000  0.0000  0.0000
  764UNL      C 3368   1.134   0.351   5.439  0.0000  0.0000  0.0000
  764UNL      C 3369   1.129   0.492   5.432  0.0000  0.0000  0.0000
  765UNL      C 3370   1.181   0.545   5.295  0.0000  0.0000  0.0000
  766UNL      C 3371   1.082   0.565   5.538  0.0000  0.0000  0.0000
  767UNL      C 3372   1.308   0.630   5.317  0.0000  0.0000  0.0000
  767UNL      C 3373   1.073   0.624   5.221  0.0000  0.0000  0.0000
  767UNL      C 3374   0.947   0.552   5.187  0.0000  0.0000  0.0000
  767UNL      C 3375   1.421   0.560   5.389  0.0000  0.0000  0.0000
  767UNL      C 3376   0.843   0.641   5.127  0.0000  0.0000  0.0000
  767UNL      C 3377   0.715   0.571   5.090  0.0000  0.0000  0.0000
  767UNL      C 3378   0.601   0.651   5.034  0.0000  0.0000  0.0000
  767UNL      C 3379   0.579   0.798   5.056  0.0000  0.0000  0.0000
  767UNL      C 3380   0.471   0.901   5.058  0.0000  0.0000  0.0000
  767UNL      C 3381   0.492   1.023   4.973  0.0000  0.0000  0.0000
  767UNL      C 3382   1.547   0.640   5.412  0.0000  0.0000  0.0000
  767UNL      C 3383   1.649   0.560   5.489  0.0000  0.0000  0.0000
  767UNL      C 3384   1.784   0.625   5.509  0.0000  0.0000  0.0000
  767UNL      C 3385   1.880   0.534   5.580  0.0000  0.0000  0.0000
  767UNL      C 3386   2.012   0.604   5.604  0.0000  0.0000  0.0000
  767UNL      C 3387   2.098   0.605   5.481  0.0000  0.0000  0.0000
  768UNL      C 3388   1.095   0.282   5.551  0.0000  0.0000  0.0000
  768UNL      C 3389   1.048   0.354   5.658  0.0000  0.0000  0.0000
  769UNL      C 3390   1.387  -0.175   4.059  0.0000  0.0000  0.0000
  770UNL      C 3391   1.042   0.496   5.652  0.0000  0.0000  0.0000
  771UNL      C 3392   0.988   0.540   5.780  0.0000  0.0000  0.0000
  772UNL      C 3393   0.998   0.302   5.793  0.0000  0.0000  0.0000
  773UNL      C 3394   0.962   0.432   5.861  0.0000  0.0000  0.0000
  774UNL      C 3395   1.110   0.227   5.869  0.0000  0.0000  0.0000
  774UNL      C 3396   0.875   0.209   5.776  0.0000  0.0000  0.0000
  775UNL      S 3397   0.952   0.689   5.857  0.0000  0.0000  0.0000
  775UNL      C 3398   0.903   0.606   6.002  0.0000  0.0000  0.0000
  775UNL      C 3399   0.914   0.469   5.987  0.0000  0.0000  0.0000
  776UNL      C 3400   0.862   0.674   6.122  0.0000  0.0000  0.0000
  776UNL      C 3401   0.820   0.603   6.233  0.0000  0.0000  0.0000
  776UNL      C 3402   0.790   0.664   6.359  0.0000  0.0000  0.0000
  776UNL      C 3403   0.796   0.801   6.377  0.0000  0.0000  0.0000
  776UNL      C 3404   0.865   0.817   6.137  0.0000  0.0000  0.0000
  776UNL      C 3405   0.832   0.878   6.262  0.0000  0.0000  0.0000
  777UNL      C 3406   0.770   0.870   6.525  0.0000  0.0000  0.0000
  778UNL      N 3407   0.900   0.905   6.042  0.0000  0.0000  0.0000
  778UNL      N 3408   0.845   1.014   6.258  0.0000  0.0000  0.0000
  778UNL      S 3409   0.891   1.051   6.110  0.0000  0.0000  0.0000
  779UNL      C 3410   0.737   0.820   6.646  0.0000  0.0000  0.0000
  779UNL      S 3411   0.710   0.655   6.698  0.0000  0.0000  0.0000
  779UNL      C 3412   0.722   0.910   6.761  0.0000  0.0000  0.0000
  779UNL      O 3413   0.736   1.031   6.759  0.0000  0.0000  0.0000
  779UNL      N 3414   0.688   0.840   6.876  0.0000  0.0000  0.0000
  779UNL      C 3415   0.677   0.703   6.864  0.0000  0.0000  0.0000
  779UNL      C 3416   0.675   0.908   7.005  0.0000  0.0000  0.0000
  779UNL      C 3417   0.807   0.917   7.074  0.0000  0.0000  0.0000
  779UNL      S 3418   0.640   0.597   6.980  0.0000  0.0000  0.0000
  780UNL      C 3419   0.759   0.271   5.705  0.0000  0.0000  0.0000
  780UNL      C 3420   0.633   0.183   5.694  0.0000  0.0000  0.0000
  780UNL      C 3421   0.565   0.155   5.829  0.0000  0.0000  0.0000
  780UNL      C 3422   0.498   0.278   5.893  0.0000  0.0000  0.0000
  780UNL      C 3423   0.420   0.263   6.025  0.0000  0.0000  0.0000
  780UNL      C 3424   0.518   0.244   6.143  0.0000  0.0000  0.0000
  780UNL      C 3425   0.436   0.223   6.270  0.0000  0.0000  0.0000
  780UNL      C 3426   1.236   0.310   5.895  0.0000  0.0000  0.0000
  780UNL      C 3427   1.337   0.252   5.990  0.0000  0.0000  0.0000
  780UNL      C 3428   1.287   0.259   6.136  0.0000  0.0000  0.0000
  780UNL      C 3429   1.397   0.219   6.241  0.0000  0.0000  0.0000
  780UNL      C 3430   1.336   0.229   6.383  0.0000  0.0000  0.0000
  780UNL      C 3431   1.445   0.201   6.488  0.0000  0.0000  0.0000
  780UNL      C 3432   1.395   0.233   6.635  0.0000  0.0000  0.0000
  781UNL      C 3433   1.329   0.654   7.013  0.0000  0.0000  0.0000
  781UNL      C 3434   1.343   0.759   6.910  0.0000  0.0000  0.0000
  781UNL      N 3435   1.273   0.709   7.130  0.0000  0.0000  0.0000
  781UNL      S 3436   1.288   0.911   6.972  0.0000  0.0000  0.0000
  781UNL      C 3437   1.243   0.843   7.127  0.0000  0.0000  0.0000
  781UNL      C 3438   1.251   0.622   7.246  0.0000  0.0000  0.0000
  781UNL      S 3439   1.176   0.931   7.245  0.0000  0.0000  0.0000
  781UNL      O 3440   1.361   0.538   7.004  0.0000  0.0000  0.0000
  781UNL      C 3441   1.389   0.724   6.787  0.0000  0.0000  0.0000
  782UNL      C 3442   1.416   0.805   6.670  0.0000  0.0000  0.0000
  782UNL      C 3443   1.415   0.942   6.663  0.0000  0.0000  0.0000
  782UNL      C 3444   1.449   0.737   6.550  0.0000  0.0000  0.0000
  782UNL      C 3445   1.442   1.012   6.545  0.0000  0.0000  0.0000
  782UNL      C 3446   1.474   0.951   6.401  0.0000  0.0000  0.0000
  782UNL      C 3447   1.478   0.807   6.406  0.0000  0.0000  0.0000
  782UNL      N 3448   1.459   0.602   6.536  0.0000  0.0000  0.0000
  782UNL      N 3449   1.509   0.725   6.302  0.0000  0.0000  0.0000
  782UNL      S 3450   1.502   0.574   6.359  0.0000  0.0000  0.0000
  783UNL      C 3451   1.506   1.026   6.282  0.0000  0.0000  0.0000
  783UNL      C 3452   1.511   1.164   6.269  0.0000  0.0000  0.0000
  783UNL      C 3453   1.553   1.204   6.141  0.0000  0.0000  0.0000
  783UNL      C 3454   1.578   1.099   6.058  0.0000  0.0000  0.0000
  783UNL      S 3455   1.551   0.948   6.132  0.0000  0.0000  0.0000
  784UNL      C 3456   1.629   1.144   5.930  0.0000  0.0000  0.0000
  784UNL      C 3457   1.634   1.285   5.937  0.0000  0.0000  0.0000
  785UNL      C 3458   1.582   1.337   6.073  0.0000  0.0000  0.0000
  786UNL      C 3459   1.681   1.358   5.831  0.0000  0.0000  0.0000
  787UNL      C 3460   1.455   1.422   6.052  0.0000  0.0000  0.0000
  787UNL      C 3461   1.690   1.417   6.147  0.0000  0.0000  0.0000
  787UNL      C 3462   1.816   1.344   6.181  0.0000  0.0000  0.0000
  787UNL      C 3463   1.342   1.352   5.980  0.0000  0.0000  0.0000
  787UNL      C 3464   1.920   1.433   6.242  0.0000  0.0000  0.0000
  787UNL      C 3465   2.048   1.364   6.278  0.0000  0.0000  0.0000
  787UNL      C 3466   2.162   1.443   6.335  0.0000  0.0000  0.0000
  787UNL      C 3467   2.184   1.590   6.313  0.0000  0.0000  0.0000
  787UNL      C 3468   2.292   1.694   6.311  0.0000  0.0000  0.0000
  787UNL      C 3469   2.271   1.815   6.395  0.0000  0.0000  0.0000
  787UNL      C 3470   1.217   1.432   5.956  0.0000  0.0000  0.0000
  787UNL      C 3471   1.114   1.353   5.880  0.0000  0.0000  0.0000
  787UNL      C 3472   0.979   1.418   5.859  0.0000  0.0000  0.0000
  787UNL      C 3473   0.883   1.327   5.788  0.0000  0.0000  0.0000
  787UNL      C 3474   0.751   1.396   5.764  0.0000  0.0000  0.0000
  787UNL      C 3475   0.665   1.398   5.888  0.0000  0.0000  0.0000
  788UNL      C 3476   1.668   1.075   5.817  0.0000  0.0000  0.0000
  788UNL      C 3477   1.715   1.147   5.711  0.0000  0.0000  0.0000
  789UNL      C 3478   1.376   0.617   7.333  0.0000  0.0000  0.0000
  790UNL      C 3479   1.721   1.289   5.717  0.0000  0.0000  0.0000
  791UNL      C 3480   1.775   1.333   5.588  0.0000  0.0000  0.0000
  792UNL      C 3481   1.765   1.094   5.576  0.0000  0.0000  0.0000
  793UNL      C 3482   1.801   1.225   5.508  0.0000  0.0000  0.0000
  794UNL      C 3483   1.653   1.019   5.500  0.0000  0.0000  0.0000
  794UNL      C 3484   1.888   1.001   5.593  0.0000  0.0000  0.0000
  795UNL      S 3485   1.811   1.481   5.512  0.0000  0.0000  0.0000
  795UNL      C 3486   1.861   1.398   5.366  0.0000  0.0000  0.0000
  795UNL      C 3487   1.850   1.261   5.382  0.0000  0.0000  0.0000
  796UNL      C 3488   1.901   1.467   5.246  0.0000  0.0000  0.0000
  796UNL      C 3489   1.943   1.395   5.135  0.0000  0.0000  0.0000
  796UNL      C 3490   1.973   1.457   5.010  0.0000  0.0000  0.0000
  796UNL      C 3491   1.967   1.593   4.991  0.0000  0.0000  0.0000
  796UNL      C 3492   1.898   1.609   5.231  0.0000  0.0000  0.0000
  796UNL      C 3493   1.931   1.671   5.107  0.0000  0.0000  0.0000
  797UNL      C 3494   1.993   1.662   4.867  0.0000  0.0000  0.0000
  798UNL      N 3495   1.863   1.698   5.327  0.0000  0.0000  0.0000
  798UNL      N 3496   1.918   1.806   5.110  0.0000  0.0000  0.0000
  798UNL      S 3497   1.873   1.843   5.259  0.0000  0.0000  0.0000
  799UNL      C 3498   2.026   1.612   4.746  0.0000  0.0000  0.0000
  799UNL      S 3499   2.053   1.448   4.694  0.0000  0.0000  0.0000
  799UNL      C 3500   2.040   1.703   4.631  0.0000  0.0000  0.0000
  799UNL      O 3501   2.027   1.823   4.633  0.0000  0.0000  0.0000
  799UNL      N 3502   2.075   1.632   4.516  0.0000  0.0000  0.0000
  799UNL      C 3503   2.086   1.495   4.528  0.0000  0.0000  0.0000
  799UNL      C 3504   2.088   1.701   4.388  0.0000  0.0000  0.0000
  799UNL      C 3505   1.956   1.709   4.318  0.0000  0.0000  0.0000
  799UNL      S 3506   2.123   1.390   4.412  0.0000  0.0000  0.0000
  800UNL      C 3507   2.004   1.063   5.663  0.0000  0.0000  0.0000
  800UNL      C 3508   2.130   0.975   5.675  0.0000  0.0000  0.0000
  800UNL      C 3509   2.198   0.948   5.540  0.0000  0.0000  0.0000
  800UNL      C 3510   2.265   1.070   5.475  0.0000  0.0000  0.0000
  800UNL      C 3511   2.343   1.055   5.343  0.0000  0.0000  0.0000
  800UNL      C 3512   2.245   1.037   5.226  0.0000  0.0000  0.0000
  800UNL      C 3513   2.328   1.015   5.098  0.0000  0.0000  0.0000
  800UNL      C 3514   1.527   1.102   5.474  0.0000  0.0000  0.0000
  800UNL      C 3515   1.426   1.044   5.379  0.0000  0.0000  0.0000
  800UNL      C 3516   1.476   1.051   5.233  0.0000  0.0000  0.0000
  800UNL      C 3517   1.366   1.011   5.128  0.0000  0.0000  0.0000
  800UNL      C 3518   1.427   1.022   4.986  0.0000  0.0000  0.0000
  800UNL      C 3519   1.318   0.993   4.880  0.0000  0.0000  0.0000
  800UNL      C 3520   1.368   1.025   4.733  0.0000  0.0000  0.0000
  801UNL      C 3521   1.914   3.309   2.118  0.0000  0.0000  0.0000
  801UNL      C 3522   1.929   3.203   2.015  0.0000  0.0000  0.0000
  801UNL      N 3523   1.858   3.254   2.234  0.0000  0.0000  0.0000
  801UNL      S 3524   1.873   3.051   2.076  0.0000  0.0000  0.0000
  801UNL      C 3525   1.828   3.120   2.231  0.0000  0.0000  0.0000
  801UNL      C 3526   1.836   3.340   2.351  0.0000  0.0000  0.0000
  801UNL      S 3527   1.761   3.032   2.350  0.0000  0.0000  0.0000
  801UNL      O 3528   1.947   3.424   2.108  0.0000  0.0000  0.0000
  801UNL      C 3529   1.974   3.239   1.891  0.0000  0.0000  0.0000
  802UNL      C 3530   2.001   3.158   1.775  0.0000  0.0000  0.0000
  802UNL      C 3531   2.000   3.021   1.768  0.0000  0.0000  0.0000
  802UNL      C 3532   2.035   3.226   1.654  0.0000  0.0000  0.0000
  802UNL      C 3533   2.027   2.950   1.649  0.0000  0.0000  0.0000
  802UNL      C 3534   2.059   3.011   1.528  0.0000  0.0000  0.0000
  802UNL      C 3535   2.063   3.155   1.533  0.0000  0.0000  0.0000
  802UNL      N 3536   2.044   3.360   1.640  0.0000  0.0000  0.0000
  802UNL      N 3537   2.094   3.237   1.430  0.0000  0.0000  0.0000
  802UNL      S 3538   2.087   3.388   1.486  0.0000  0.0000  0.0000
  803UNL      C 3539   2.091   2.936   1.410  0.0000  0.0000  0.0000
  803UNL      C 3540   2.096   2.799   1.397  0.0000  0.0000  0.0000
  803UNL      C 3541   2.138   2.758   1.269  0.0000  0.0000  0.0000
  803UNL      C 3542   2.163   2.864   1.186  0.0000  0.0000  0.0000
  803UNL      S 3543   2.136   3.014   1.260  0.0000  0.0000  0.0000
  804UNL      C 3544   2.214   2.818   1.058  0.0000  0.0000  0.0000
  804UNL      C 3545   2.219   2.678   1.065  0.0000  0.0000  0.0000
  805UNL      C 3546   2.168   2.625   1.201  0.0000  0.0000  0.0000
  806UNL      C 3547   2.266   2.605   0.958  0.0000  0.0000  0.0000
  807UNL      C 3548   2.040   2.540   1.180  0.0000  0.0000  0.0000
  807UNL      C 3549   2.275   2.545   1.275  0.0000  0.0000  0.0000
  807UNL      C 3550   2.401   2.618   1.309  0.0000  0.0000  0.0000
  807UNL      C 3551   1.928   2.610   1.108  0.0000  0.0000  0.0000
  807UNL      C 3552   2.506   2.529   1.370  0.0000  0.0000  0.0000
  807UNL      C 3553   2.633   2.599   1.406  0.0000  0.0000  0.0000
  807UNL      C 3554   2.747   2.519   1.462  0.0000  0.0000  0.0000
  807UNL      C 3555   2.769   2.372   1.441  0.0000  0.0000  0.0000
  807UNL      C 3556   2.877   2.268   1.438  0.0000  0.0000  0.0000
  807UNL      C 3557   2.856   2.147   1.523  0.0000  0.0000  0.0000
  807UNL      C 3558   1.802   2.530   1.084  0.0000  0.0000  0.0000
  807UNL      C 3559   1.699   2.610   1.008  0.0000  0.0000  0.0000
  807UNL      C 3560   1.565   2.545   0.987  0.0000  0.0000  0.0000
  807UNL      C 3561   1.468   2.636   0.916  0.0000  0.0000  0.0000
  807UNL      C 3562   1.337   2.566   0.892  0.0000  0.0000  0.0000
  807UNL      C 3563   1.250   2.564   1.016  0.0000  0.0000  0.0000
  808UNL      C 3564   2.253   2.887   0.945  0.0000  0.0000  0.0000
  808UNL      C 3565   2.300   2.815   0.838  0.0000  0.0000  0.0000
  809UNL      C 3566   1.961   3.345   2.438  0.0000  0.0000  0.0000
  810UNL      C 3567   2.306   2.674   0.845  0.0000  0.0000  0.0000
  811UNL      C 3568   2.360   2.629   0.716  0.0000  0.0000  0.0000
  812UNL      C 3569   2.350   2.868   0.703  0.0000  0.0000  0.0000
  813UNL      C 3570   2.386   2.738   0.635  0.0000  0.0000  0.0000
  814UNL      C 3571   2.238   2.943   0.628  0.0000  0.0000  0.0000
  814UNL      C 3572   2.473   2.961   0.721  0.0000  0.0000  0.0000
  815UNL      S 3573   2.396   2.481   0.640  0.0000  0.0000  0.0000
  815UNL      C 3574   2.446   2.564   0.494  0.0000  0.0000  0.0000
  815UNL      C 3575   2.435   2.701   0.510  0.0000  0.0000  0.0000
  816UNL      C 3576   2.486   2.495   0.374  0.0000  0.0000  0.0000
  816UNL      C 3577   2.529   2.567   0.263  0.0000  0.0000  0.0000
  816UNL      C 3578   2.558   2.505   0.138  0.0000  0.0000  0.0000
  816UNL      C 3579   2.552   2.369   0.119  0.0000  0.0000  0.0000
  816UNL      C 3580   2.483   2.353   0.359  0.0000  0.0000  0.0000
  816UNL      C 3581   2.516   2.291   0.235  0.0000  0.0000  0.0000
  817UNL      C 3582   2.578   2.300  -0.029  0.0000  0.0000  0.0000
  818UNL      N 3583   2.448   2.264   0.454  0.0000  0.0000  0.0000
  818UNL      N 3584   2.503   2.156   0.238  0.0000  0.0000  0.0000
  818UNL      S 3585   2.458   2.119   0.387  0.0000  0.0000  0.0000
  819UNL      C 3586   2.611   2.350  -0.150  0.0000  0.0000  0.0000
  819UNL      S 3587   2.639   2.514  -0.201  0.0000  0.0000  0.0000
  819UNL      C 3588   2.626   2.260  -0.264  0.0000  0.0000  0.0000
  819UNL      O 3589   2.612   2.139  -0.263  0.0000  0.0000  0.0000
  819UNL      N 3590   2.661   2.330  -0.379  0.0000  0.0000  0.0000
  819UNL      C 3591   2.672   2.467  -0.368  0.0000  0.0000  0.0000
  819UNL      C 3592   2.673   2.262  -0.508  0.0000  0.0000  0.0000
  819UNL      C 3593   2.542   2.253  -0.578  0.0000  0.0000  0.0000
  819UNL      S 3594   2.708   2.573  -0.483  0.0000  0.0000  0.0000
  820UNL      C 3595   2.589   2.899   0.791  0.0000  0.0000  0.0000
  820UNL      C 3596   2.715   2.987   0.803  0.0000  0.0000  0.0000
  820UNL      C 3597   2.783   3.014   0.668  0.0000  0.0000  0.0000
  820UNL      C 3598   2.850   2.892   0.603  0.0000  0.0000  0.0000
  820UNL      C 3599   2.928   2.907   0.471  0.0000  0.0000  0.0000
  820UNL      C 3600   2.830   2.926   0.354  0.0000  0.0000  0.0000
  820UNL      C 3601   2.913   2.947   0.226  0.0000  0.0000  0.0000
  820UNL      C 3602   2.112   2.860   0.601  0.0000  0.0000  0.0000
  820UNL      C 3603   2.011   2.918   0.507  0.0000  0.0000  0.0000
  820UNL      C 3604   2.061   2.911   0.361  0.0000  0.0000  0.0000
  820UNL      C 3605   1.952   2.951   0.256  0.0000  0.0000  0.0000
  820UNL      C 3606   2.012   2.940   0.114  0.0000  0.0000  0.0000
  820UNL      C 3607   1.903   2.969   0.008  0.0000  0.0000  0.0000
  820UNL      C 3608   1.953   2.937  -0.139  0.0000  0.0000  0.0000
  821UNL      C 3609   2.019   2.516  -0.517  0.0000  0.0000  0.0000
  821UNL      C 3610   2.005   2.411  -0.414  0.0000  0.0000  0.0000
  821UNL      N 3611   2.075   2.461  -0.633  0.0000  0.0000  0.0000
  821UNL      S 3612   2.060   2.259  -0.475  0.0000  0.0000  0.0000
  821UNL      C 3613   2.105   2.327  -0.630  0.0000  0.0000  0.0000
  821UNL      C 3614   2.098   2.548  -0.750  0.0000  0.0000  0.0000
  821UNL      S 3615   2.172   2.239  -0.749  0.0000  0.0000  0.0000
  821UNL      O 3616   1.987   2.631  -0.507  0.0000  0.0000  0.0000
  821UNL      C 3617   1.959   2.446  -0.290  0.0000  0.0000  0.0000
  822UNL      C 3618   1.932   2.365  -0.174  0.0000  0.0000  0.0000
  822UNL      C 3619   1.934   2.228  -0.167  0.0000  0.0000  0.0000
  822UNL      C 3620   1.899   2.433  -0.054  0.0000  0.0000  0.0000
  822UNL      C 3621   1.906   2.158  -0.048  0.0000  0.0000  0.0000
  822UNL      C 3622   1.874   2.219   0.096  0.0000  0.0000  0.0000
  822UNL      C 3623   1.871   2.363   0.091  0.0000  0.0000  0.0000
  822UNL      N 3624   1.889   2.568  -0.039  0.0000  0.0000  0.0000
  822UNL      N 3625   1.839   2.444   0.194  0.0000  0.0000  0.0000
  822UNL      S 3626   1.846   2.596   0.138  0.0000  0.0000  0.0000
  823UNL      C 3627   1.843   2.143   0.214  0.0000  0.0000  0.0000
  823UNL      C 3628   1.837   2.006   0.227  0.0000  0.0000  0.0000
  823UNL      C 3629   1.795   1.965   0.355  0.0000  0.0000  0.0000
  823UNL      C 3630   1.770   2.071   0.438  0.0000  0.0000  0.0000
  823UNL      S 3631   1.797   2.222   0.364  0.0000  0.0000  0.0000
  824UNL      C 3632   1.720   2.026   0.567  0.0000  0.0000  0.0000
  824UNL      C 3633   1.714   1.885   0.559  0.0000  0.0000  0.0000
  825UNL      C 3634   1.766   1.833   0.423  0.0000  0.0000  0.0000
  826UNL      C 3635   1.667   1.812   0.666  0.0000  0.0000  0.0000
  827UNL      C 3636   1.893   1.748   0.444  0.0000  0.0000  0.0000
  827UNL      C 3637   1.658   1.753   0.349  0.0000  0.0000  0.0000
  827UNL      C 3638   1.532   1.826   0.315  0.0000  0.0000  0.0000
  827UNL      C 3639   2.006   1.818   0.516  0.0000  0.0000  0.0000
  827UNL      C 3640   1.428   1.737   0.255  0.0000  0.0000  0.0000
  827UNL      C 3641   1.300   1.806   0.218  0.0000  0.0000  0.0000
  827UNL      C 3642   1.186   1.726   0.162  0.0000  0.0000  0.0000
  827UNL      C 3643   1.164   1.580   0.184  0.0000  0.0000  0.0000
  827UNL      C 3644   1.056   1.476   0.186  0.0000  0.0000  0.0000
  827UNL      C 3645   1.077   1.354   0.101  0.0000  0.0000  0.0000
  827UNL      C 3646   2.132   1.738   0.540  0.0000  0.0000  0.0000
  827UNL      C 3647   2.234   1.817   0.617  0.0000  0.0000  0.0000
  827UNL      C 3648   2.369   1.752   0.637  0.0000  0.0000  0.0000
  827UNL      C 3649   2.465   1.843   0.708  0.0000  0.0000  0.0000
  827UNL      C 3650   2.597   1.774   0.732  0.0000  0.0000  0.0000
  827UNL      C 3651   2.683   1.772   0.608  0.0000  0.0000  0.0000
  828UNL      C 3652   1.681   2.095   0.679  0.0000  0.0000  0.0000
  828UNL      C 3653   1.633   2.023   0.786  0.0000  0.0000  0.0000
  829UNL      C 3654   1.972   2.552  -0.837  0.0000  0.0000  0.0000
  830UNL      C 3655   1.627   1.881   0.780  0.0000  0.0000  0.0000
  831UNL      C 3656   1.573   1.837   0.908  0.0000  0.0000  0.0000
  832UNL      C 3657   1.583   2.076   0.921  0.0000  0.0000  0.0000
  833UNL      C 3658   1.547   1.945   0.989  0.0000  0.0000  0.0000
  834UNL      C 3659   1.695   2.151   0.996  0.0000  0.0000  0.0000
  834UNL      C 3660   1.460   2.169   0.903  0.0000  0.0000  0.0000
  835UNL      S 3661   1.538   1.689   0.984  0.0000  0.0000  0.0000
  835UNL      C 3662   1.488   1.772   1.130  0.0000  0.0000  0.0000
  835UNL      C 3663   1.499   1.909   1.115  0.0000  0.0000  0.0000
  836UNL      C 3664   1.447   1.703   1.250  0.0000  0.0000  0.0000
  836UNL      C 3665   1.405   1.775   1.361  0.0000  0.0000  0.0000
  836UNL      C 3666   1.375   1.713   1.487  0.0000  0.0000  0.0000
  836UNL      C 3667   1.381   1.576   1.505  0.0000  0.0000  0.0000
  836UNL      C 3668   1.450   1.561   1.265  0.0000  0.0000  0.0000
  836UNL      C 3669   1.417   1.499   1.390  0.0000  0.0000  0.0000
  837UNL      C 3670   1.355   1.507   1.629  0.0000  0.0000  0.0000
  838UNL      N 3671   1.485   1.472   1.170  0.0000  0.0000  0.0000
  838UNL      N 3672   1.430   1.364   1.386  0.0000  0.0000  0.0000
  838UNL      S 3673   1.476   1.327   1.237  0.0000  0.0000  0.0000
  839UNL      C 3674   1.322   1.558   1.751  0.0000  0.0000  0.0000
  839UNL      S 3675   1.295   1.722   1.802  0.0000  0.0000  0.0000
  839UNL      C 3676   1.308   1.467   1.865  0.0000  0.0000  0.0000
  839UNL      O 3677   1.321   1.347   1.864  0.0000  0.0000  0.0000
  839UNL      N 3678   1.273   1.538   1.980  0.0000  0.0000  0.0000
  839UNL      C 3679   1.262   1.675   1.969  0.0000  0.0000  0.0000
  839UNL      C 3680   1.261   1.469   2.109  0.0000  0.0000  0.0000
  839UNL      C 3681   1.392   1.460   2.179  0.0000  0.0000  0.0000
  839UNL      S 3682   1.225   1.780   2.084  0.0000  0.0000  0.0000
  840UNL      C 3683   1.344   2.106   0.833  0.0000  0.0000  0.0000
  840UNL      C 3684   1.218   2.195   0.822  0.0000  0.0000  0.0000
  840UNL      C 3685   1.150   2.222   0.957  0.0000  0.0000  0.0000
  840UNL      C 3686   1.083   2.099   1.021  0.0000  0.0000  0.0000
  840UNL      C 3687   1.006   2.115   1.153  0.0000  0.0000  0.0000
  840UNL      C 3688   1.103   2.133   1.270  0.0000  0.0000  0.0000
  840UNL      C 3689   1.021   2.155   1.398  0.0000  0.0000  0.0000
  840UNL      C 3690   1.821   2.067   1.023  0.0000  0.0000  0.0000
  840UNL      C 3691   1.922   2.126   1.117  0.0000  0.0000  0.0000
  840UNL      C 3692   1.872   2.119   1.264  0.0000  0.0000  0.0000
  840UNL      C 3693   1.982   2.158   1.368  0.0000  0.0000  0.0000
  840UNL      C 3694   1.921   2.148   1.510  0.0000  0.0000  0.0000
  840UNL      C 3695   2.030   2.176   1.616  0.0000  0.0000  0.0000
  840UNL      C 3696   1.980   2.144   1.763  0.0000  0.0000  0.0000
  841UNL      C 3697   1.824   1.446   1.131  0.0000  0.0000  0.0000
  841UNL      C 3698   1.809   1.551   1.234  0.0000  0.0000  0.0000
  841UNL      N 3699   1.880   1.501   1.014  0.0000  0.0000  0.0000
  841UNL      S 3700   1.865   1.704   1.172  0.0000  0.0000  0.0000
  841UNL      C 3701   1.910   1.635   1.017  0.0000  0.0000  0.0000
  841UNL      C 3702   1.902   1.415   0.898  0.0000  0.0000  0.0000
  841UNL      S 3703   1.977   1.723   0.899  0.0000  0.0000  0.0000
  841UNL      O 3704   1.791   1.331   1.140  0.0000  0.0000  0.0000
  841UNL      C 3705   1.764   1.516   1.357  0.0000  0.0000  0.0000
  842UNL      C 3706   1.737   1.597   1.474  0.0000  0.0000  0.0000
  842UNL      C 3707   1.738   1.734   1.481  0.0000  0.0000  0.0000
  842UNL      C 3708   1.704   1.529   1.594  0.0000  0.0000  0.0000
  842UNL      C 3709   1.711   1.805   1.599  0.0000  0.0000  0.0000
  842UNL      C 3710   1.679   1.743   1.720  0.0000  0.0000  0.0000
  842UNL      C 3711   1.675   1.600   1.715  0.0000  0.0000  0.0000
  842UNL      N 3712   1.694   1.394   1.608  0.0000  0.0000  0.0000
  842UNL      N 3713   1.644   1.518   1.819  0.0000  0.0000  0.0000
  842UNL      S 3714   1.651   1.367   1.762  0.0000  0.0000  0.0000
  843UNL      C 3715   1.648   1.819   1.839  0.0000  0.0000  0.0000
  843UNL      C 3716   1.642   1.956   1.852  0.0000  0.0000  0.0000
  843UNL      C 3717   1.600   1.997   1.979  0.0000  0.0000  0.0000
  843UNL      C 3718   1.575   1.891   2.062  0.0000  0.0000  0.0000
  843UNL      S 3719   1.602   1.740   1.989  0.0000  0.0000  0.0000
  844UNL      C 3720   1.524   1.936   2.191  0.0000  0.0000  0.0000
  844UNL      C 3721   1.519   2.077   2.184  0.0000  0.0000  0.0000
  845UNL      C 3722   1.571   2.130   2.047  0.0000  0.0000  0.0000
  846UNL      C 3723   1.472   2.150   2.290  0.0000  0.0000  0.0000
  847UNL      C 3724   1.698   2.215   2.069  0.0000  0.0000  0.0000
  847UNL      C 3725   1.463   2.209   1.973  0.0000  0.0000  0.0000
  847UNL      C 3726   1.337   2.137   1.939  0.0000  0.0000  0.0000
  847UNL      C 3727   1.811   2.145   2.141  0.0000  0.0000  0.0000
  847UNL      C 3728   1.233   2.226   1.879  0.0000  0.0000  0.0000
  847UNL      C 3729   1.105   2.156   1.842  0.0000  0.0000  0.0000
  847UNL      C 3730   0.991   2.236   1.786  0.0000  0.0000  0.0000
  847UNL      C 3731   0.969   2.383   1.808  0.0000  0.0000  0.0000
  847UNL      C 3732   0.861   2.486   1.810  0.0000  0.0000  0.0000
  847UNL      C 3733   0.882   2.608   1.725  0.0000  0.0000  0.0000
  847UNL      C 3734   1.937   2.225   2.164  0.0000  0.0000  0.0000
  847UNL      C 3735   2.039   2.145   2.241  0.0000  0.0000  0.0000
  847UNL      C 3736   2.174   2.210   2.261  0.0000  0.0000  0.0000
  847UNL      C 3737   2.270   2.119   2.332  0.0000  0.0000  0.0000
  847UNL      C 3738   2.402   2.189   2.356  0.0000  0.0000  0.0000
  847UNL      C 3739   2.488   2.190   2.233  0.0000  0.0000  0.0000
  848UNL      C 3740   1.485   1.867   2.303  0.0000  0.0000  0.0000
  848UNL      C 3741   1.438   1.939   2.410  0.0000  0.0000  0.0000
  849UNL      C 3742   1.777   1.410   0.811  0.0000  0.0000  0.0000
  850UNL      C 3743   1.432   2.081   2.404  0.0000  0.0000  0.0000
  851UNL      C 3744   1.378   2.125   2.532  0.0000  0.0000  0.0000
  852UNL      C 3745   1.388   1.887   2.545  0.0000  0.0000  0.0000
  853UNL      C 3746   1.352   2.017   2.613  0.0000  0.0000  0.0000
  854UNL      C 3747   1.500   1.812   2.621  0.0000  0.0000  0.0000
  854UNL      C 3748   1.265   1.794   2.528  0.0000  0.0000  0.0000
  855UNL      S 3749   1.342   2.274   2.609  0.0000  0.0000  0.0000
  855UNL      C 3750   1.293   2.191   2.754  0.0000  0.0000  0.0000
  855UNL      C 3751   1.304   2.054   2.739  0.0000  0.0000  0.0000
  856UNL      C 3752   1.252   2.259   2.874  0.0000  0.0000  0.0000
  856UNL      C 3753   1.210   2.188   2.985  0.0000  0.0000  0.0000
  856UNL      C 3754   1.180   2.249   3.111  0.0000  0.0000  0.0000
  856UNL      C 3755   1.186   2.386   3.129  0.0000  0.0000  0.0000
  856UNL      C 3756   1.255   2.402   2.889  0.0000  0.0000  0.0000
  856UNL      C 3757   1.222   2.463   3.014  0.0000  0.0000  0.0000
  857UNL      C 3758   1.160   2.455   3.277  0.0000  0.0000  0.0000
  858UNL      N 3759   1.290   2.490   2.794  0.0000  0.0000  0.0000
  858UNL      N 3760   1.235   2.599   3.010  0.0000  0.0000  0.0000
  858UNL      S 3761   1.281   2.636   2.862  0.0000  0.0000  0.0000
  859UNL      C 3762   1.127   2.405   3.398  0.0000  0.0000  0.0000
  859UNL      S 3763   1.100   2.240   3.450  0.0000  0.0000  0.0000
  859UNL      C 3764   1.112   2.495   3.513  0.0000  0.0000  0.0000
  859UNL      O 3765   1.126   2.616   3.511  0.0000  0.0000  0.0000
  859UNL      N 3766   1.078   2.425   3.628  0.0000  0.0000  0.0000
  859UNL      C 3767   1.067   2.288   3.616  0.0000  0.0000  0.0000
  859UNL      C 3768   1.065   2.493   3.757  0.0000  0.0000  0.0000
  859UNL      C 3769   1.197   2.502   3.826  0.0000  0.0000  0.0000
  859UNL      S 3770   1.030   2.182   3.732  0.0000  0.0000  0.0000
  860UNL      C 3771   1.149   1.856   2.457  0.0000  0.0000  0.0000
  860UNL      C 3772   1.023   1.768   2.446  0.0000  0.0000  0.0000
  860UNL      C 3773   0.955   1.740   2.581  0.0000  0.0000  0.0000
  860UNL      C 3774   0.888   1.863   2.645  0.0000  0.0000  0.0000
  860UNL      C 3775   0.810   1.848   2.777  0.0000  0.0000  0.0000
  860UNL      C 3776   0.908   1.829   2.895  0.0000  0.0000  0.0000
  860UNL      C 3777   0.826   1.808   3.022  0.0000  0.0000  0.0000
  860UNL      C 3778   1.626   1.895   2.647  0.0000  0.0000  0.0000
  860UNL      C 3779   1.727   1.837   2.742  0.0000  0.0000  0.0000
  860UNL      C 3780   1.677   1.844   2.888  0.0000  0.0000  0.0000
  860UNL      C 3781   1.787   1.804   2.993  0.0000  0.0000  0.0000
  860UNL      C 3782   1.726   1.814   3.135  0.0000  0.0000  0.0000
  860UNL      C 3783   1.835   1.786   3.240  0.0000  0.0000  0.0000
  860UNL      C 3784   1.785   1.818   3.387  0.0000  0.0000  0.0000
  861UNL      C 3785   1.719   2.239   3.765  0.0000  0.0000  0.0000
  861UNL      C 3786   1.733   2.344   3.662  0.0000  0.0000  0.0000
  861UNL      N 3787   1.663   2.294   3.882  0.0000  0.0000  0.0000
  861UNL      S 3788   1.678   2.496   3.724  0.0000  0.0000  0.0000
  861UNL      C 3789   1.633   2.428   3.879  0.0000  0.0000  0.0000
  861UNL      C 3790   1.641   2.207   3.998  0.0000  0.0000  0.0000
  861UNL      S 3791   1.566   2.516   3.997  0.0000  0.0000  0.0000
  861UNL      O 3792   1.751   2.123   3.756  0.0000  0.0000  0.0000
  861UNL      C 3793   1.779   2.309   3.539  0.0000  0.0000  0.0000
  862UNL      C 3794   1.806   2.390   3.422  0.0000  0.0000  0.0000
  862UNL      C 3795   1.805   2.527   3.415  0.0000  0.0000  0.0000
  862UNL      C 3796   1.839   2.322   3.302  0.0000  0.0000  0.0000
  862UNL      C 3797   1.832   2.597   3.297  0.0000  0.0000  0.0000
  862UNL      C 3798   1.864   2.536   3.153  0.0000  0.0000  0.0000
  862UNL      C 3799   1.868   2.392   3.158  0.0000  0.0000  0.0000
  862UNL      N 3800   1.849   2.187   3.288  0.0000  0.0000  0.0000
  862UNL      N 3801   1.899   2.310   3.054  0.0000  0.0000  0.0000
  862UNL      S 3802   1.892   2.159   3.111  0.0000  0.0000  0.0000
  863UNL      C 3803   1.896   2.611   3.034  0.0000  0.0000  0.0000
  863UNL      C 3804   1.901   2.749   3.021  0.0000  0.0000  0.0000
  863UNL      C 3805   1.943   2.789   2.893  0.0000  0.0000  0.0000
  863UNL      C 3806   1.968   2.684   2.810  0.0000  0.0000  0.0000
  863UNL      S 3807   1.941   2.533   2.884  0.0000  0.0000  0.0000
  864UNL      C 3808   2.019   2.729   2.682  0.0000  0.0000  0.0000
  864UNL      C 3809   2.024   2.870   2.689  0.0000  0.0000  0.0000
  865UNL      C 3810   1.972   2.922   2.825  0.0000  0.0000  0.0000
  866UNL      C 3811   2.071   2.943   2.583  0.0000  0.0000  0.0000
  867UNL      C 3812   1.845   3.007   2.804  0.0000  0.0000  0.0000
  867UNL      C 3813   2.080   3.002   2.899  0.0000  0.0000  0.0000
  867UNL      C 3814   2.206   2.929   2.933  0.0000  0.0000  0.0000
  867UNL      C 3815   1.732   2.937   2.732  0.0000  0.0000  0.0000
  867UNL      C 3816   2.310   3.018   2.994  0.0000  0.0000  0.0000
  867UNL      C 3817   2.438   2.949   3.030  0.0000  0.0000  0.0000
  867UNL      C 3818   2.552   3.028   3.087  0.0000  0.0000  0.0000
  867UNL      C 3819   2.574   3.175   3.065  0.0000  0.0000  0.0000
  867UNL      C 3820   2.682   3.279   3.063  0.0000  0.0000  0.0000
  867UNL      C 3821   2.661   3.400   3.147  0.0000  0.0000  0.0000
  867UNL      C 3822   1.607   3.017   2.708  0.0000  0.0000  0.0000
  867UNL      C 3823   1.504   2.938   2.632  0.0000  0.0000  0.0000
  867UNL      C 3824   1.369   3.003   2.611  0.0000  0.0000  0.0000
  867UNL      C 3825   1.273   2.912   2.540  0.0000  0.0000  0.0000
  867UNL      C 3826   1.141   2.981   2.516  0.0000  0.0000  0.0000
  867UNL      C 3827   1.055   2.983   2.640  0.0000  0.0000  0.0000
  868UNL      C 3828   2.058   2.660   2.569  0.0000  0.0000  0.0000
  868UNL      C 3829   2.105   2.732   2.463  0.0000  0.0000  0.0000
  869UNL      C 3830   1.766   2.202   4.085  0.0000  0.0000  0.0000
  870UNL      C 3831   2.111   2.874   2.469  0.0000  0.0000  0.0000
  871UNL      C 3832   2.165   2.918   2.340  0.0000  0.0000  0.0000
  872UNL      C 3833   2.155   2.679   2.328  0.0000  0.0000  0.0000
  873UNL      C 3834   2.191   2.810   2.260  0.0000  0.0000  0.0000
  874UNL      C 3835   2.043   2.604   2.252  0.0000  0.0000  0.0000
  874UNL      C 3836   2.278   2.586   2.345  0.0000  0.0000  0.0000
  875UNL      S 3837   2.201   3.066   2.264  0.0000  0.0000  0.0000
  875UNL      C 3838   2.251   2.983   2.118  0.0000  0.0000  0.0000
  875UNL      C 3839   2.240   2.846   2.134  0.0000  0.0000  0.0000
  876UNL      C 3840   2.291   3.052   1.998  0.0000  0.0000  0.0000
  876UNL      C 3841   2.333   2.980   1.887  0.0000  0.0000  0.0000
  876UNL      C 3842   2.363   3.042   1.762  0.0000  0.0000  0.0000
  876UNL      C 3843   2.357   3.178   1.743  0.0000  0.0000  0.0000
  876UNL      C 3844   2.288   3.194   1.983  0.0000  0.0000  0.0000
  876UNL      C 3845   2.321   3.256   1.859  0.0000  0.0000  0.0000
  877UNL      C 3846   2.383   3.247   1.619  0.0000  0.0000  0.0000
  878UNL      N 3847   2.253   3.283   2.079  0.0000  0.0000  0.0000
  878UNL      N 3848   2.308   3.391   1.862  0.0000  0.0000  0.0000
  878UNL      S 3849   2.263   3.428   2.011  0.0000  0.0000  0.0000
  879UNL      C 3850   2.416   3.197   1.498  0.0000  0.0000  0.0000
  879UNL      S 3851   2.443   3.033   1.446  0.0000  0.0000  0.0000
  879UNL      C 3852   2.430   3.288   1.383  0.0000  0.0000  0.0000
  879UNL      O 3853   2.417   3.408   1.385  0.0000  0.0000  0.0000
  879UNL      N 3854   2.465   3.217   1.268  0.0000  0.0000  0.0000
  879UNL      C 3855   2.476   3.080   1.280  0.0000  0.0000  0.0000
  879UNL      C 3856   2.478   3.286   1.140  0.0000  0.0000  0.0000
  879UNL      C 3857   2.346   3.294   1.070  0.0000  0.0000  0.0000
  879UNL      S 3858   2.513   2.975   1.164  0.0000  0.0000  0.0000
  880UNL      C 3859   2.394   2.648   2.415  0.0000  0.0000  0.0000
  880UNL      C 3860   2.520   2.560   2.427  0.0000  0.0000  0.0000
  880UNL      C 3861   2.588   2.533   2.292  0.0000  0.0000  0.0000
  880UNL      C 3862   2.655   2.655   2.227  0.0000  0.0000  0.0000
  880UNL      C 3863   2.733   2.640   2.095  0.0000  0.0000  0.0000
  880UNL      C 3864   2.635   2.622   1.978  0.0000  0.0000  0.0000
  880UNL      C 3865   2.718   2.600   1.850  0.0000  0.0000  0.0000
  880UNL      C 3866   1.917   2.687   2.226  0.0000  0.0000  0.0000
  880UNL      C 3867   1.816   2.629   2.131  0.0000  0.0000  0.0000
  880UNL      C 3868   1.866   2.636   1.985  0.0000  0.0000  0.0000
  880UNL      C 3869   1.756   2.596   1.880  0.0000  0.0000  0.0000
  880UNL      C 3870   1.817   2.607   1.738  0.0000  0.0000  0.0000
  880UNL      C 3871   1.708   2.578   1.632  0.0000  0.0000  0.0000
  880UNL      C 3872   1.758   2.610   1.485  0.0000  0.0000  0.0000
  881UNL      C 3873   1.524   3.309   5.366  0.0000  0.0000  0.0000
  881UNL      C 3874   1.539   3.203   5.263  0.0000  0.0000  0.0000
  881UNL      N 3875   1.468   3.254   5.482  0.0000  0.0000  0.0000
  881UNL      S 3876   1.483   3.051   5.324  0.0000  0.0000  0.0000
  881UNL      C 3877   1.438   3.120   5.479  0.0000  0.0000  0.0000
  881UNL      C 3878   1.446   3.340   5.599  0.0000  0.0000  0.0000
  881UNL      S 3879   1.371   3.032   5.598  0.0000  0.0000  0.0000
  881UNL      O 3880   1.557   3.424   5.356  0.0000  0.0000  0.0000
  881UNL      C 3881   1.584   3.239   5.139  0.0000  0.0000  0.0000
  882UNL      C 3882   1.611   3.158   5.023  0.0000  0.0000  0.0000
  882UNL      C 3883   1.610   3.021   5.016  0.0000  0.0000  0.0000
  882UNL      C 3884   1.645   3.226   4.902  0.0000  0.0000  0.0000
  882UNL      C 3885   1.637   2.950   4.897  0.0000  0.0000  0.0000
  882UNL      C 3886   1.669   3.011   4.776  0.0000  0.0000  0.0000
  882UNL      C 3887   1.673   3.155   4.781  0.0000  0.0000  0.0000
  882UNL      N 3888   1.654   3.360   4.888  0.0000  0.0000  0.0000
  882UNL      N 3889   1.704   3.237   4.678  0.0000  0.0000  0.0000
  882UNL      S 3890   1.697   3.388   4.734  0.0000  0.0000  0.0000
  883UNL      C 3891   1.701   2.936   4.658  0.0000  0.0000  0.0000
  883UNL      C 3892   1.706   2.799   4.645  0.0000  0.0000  0.0000
  883UNL      C 3893   1.748   2.758   4.517  0.0000  0.0000  0.0000
  883UNL      C 3894   1.773   2.864   4.434  0.0000  0.0000  0.0000
  883UNL      S 3895   1.746   3.014   4.508  0.0000  0.0000  0.0000
  884UNL      C 3896   1.824   2.818   4.306  0.0000  0.0000  0.0000
  884UNL      C 3897   1.829   2.678   4.313  0.0000  0.0000  0.0000
  885UNL      C 3898   1.778   2.625   4.449  0.0000  0.0000  0.0000
  886UNL      C 3899   1.876   2.605   4.206  0.0000  0.0000  0.0000
  887UNL      C 3900   1.650   2.540   4.428  0.0000  0.0000  0.0000
  887UNL      C 3901   1.885   2.545   4.523  0.0000  0.0000  0.0000
  887UNL      C 3902   2.011   2.618   4.557  0.0000  0.0000  0.0000
  887UNL      C 3903   1.538   2.610   4.356  0.0000  0.0000  0.0000
  887UNL      C 3904   2.116   2.529   4.618  0.0000  0.0000  0.0000
  887UNL      C 3905   2.243   2.599   4.654  0.0000  0.0000  0.0000
  887UNL      C 3906   2.357   2.519   4.710  0.0000  0.0000  0.0000
  887UNL      C 3907   2.379   2.372   4.689  0.0000  0.0000  0.0000
  887UNL      C 3908   2.487   2.268   4.686  0.0000  0.0000  0.0000
  887UNL      C 3909   2.466   2.147   4.771  0.0000  0.0000  0.0000
  887UNL      C 3910   1.412   2.530   4.332  0.0000  0.0000  0.0000
  887UNL      C 3911   1.309   2.610   4.256  0.0000  0.0000  0.0000
  887UNL      C 3912   1.175   2.545   4.235  0.0000  0.0000  0.0000
  887UNL      C 3913   1.078   2.636   4.164  0.0000  0.0000  0.0000
  887UNL      C 3914   0.947   2.566   4.140  0.0000  0.0000  0.0000
  887UNL      C 3915   0.860   2.564   4.264  0.0000  0.0000  0.0000
  888UNL      C 3916   1.863   2.887   4.193  0.0000  0.0000  0.0000
  888UNL      C 3917   1.910   2.815   4.086  0.0000  0.0000  0.0000
  889UNL      C 3918   1.571   3.345   5.686  0.0000  0.0000  0.0000
  890UNL      C 3919   1.916   2.674   4.093  0.0000  0.0000  0.0000
  891UNL      C 3920   1.970   2.629   3.964  0.0000  0.0000  0.0000
  892UNL      C 3921   1.960   2.868   3.951  0.0000  0.0000  0.0000
  893UNL      C 3922   1.996   2.738   3.883  0.0000  0.0000  0.0000
  894UNL      C 3923   1.848   2.943   3.876  0.0000  0.0000  0.0000
  894UNL      C 3924   2.083   2.961   3.969  0.0000  0.0000  0.0000
  895UNL      S 3925   2.006   2.481   3.888  0.0000  0.0000  0.0000
  895UNL      C 3926   2.056   2.564   3.742  0.0000  0.0000  0.0000
  895UNL      C 3927   2.045   2.701   3.758  0.0000  0.0000  0.0000
  896UNL      C 3928   2.096   2.495   3.622  0.0000  0.0000  0.0000
  896UNL      C 3929   2.139   2.567   3.511  0.0000  0.0000  0.0000
  896UNL      C 3930   2.168   2.505   3.386  0.0000  0.0000  0.0000
  896UNL      C 3931   2.162   2.369   3.367  0.0000  0.0000  0.0000
  896UNL      C 3932   2.093   2.353   3.607  0.0000  0.0000  0.0000
  896UNL      C 3933   2.126   2.291   3.483  0.0000  0.0000  0.0000
  897UNL      C 3934   2.188   2.300   3.219  0.0000  0.0000  0.0000
  898UNL      N 3935   2.058   2.264   3.702  0.0000  0.0000  0.0000
  898UNL      N 3936   2.113   2.156   3.486  0.0000  0.0000  0.0000
  898UNL      S 3937   2.068   2.119   3.635  0.0000  0.0000  0.0000
  899UNL      C 3938   2.221   2.350   3.098  0.0000  0.0000  0.0000
  899UNL      S 3939   2.249   2.514   3.047  0.0000  0.0000  0.0000
  899UNL      C 3940   2.236   2.260   2.984  0.0000  0.0000  0.0000
  899UNL      O 3941   2.222   2.139   2.985  0.0000  0.0000  0.0000
  899UNL      N 3942   2.271   2.330   2.869  0.0000  0.0000  0.0000
  899UNL      C 3943   2.282   2.467   2.880  0.0000  0.0000  0.0000
  899UNL      C 3944   2.283   2.262   2.740  0.0000  0.0000  0.0000
  899UNL      C 3945   2.152   2.253   2.670  0.0000  0.0000  0.0000
  899UNL      S 3946   2.318   2.573   2.765  0.0000  0.0000  0.0000
  900UNL      C 3947   2.199   2.899   4.039  0.0000  0.0000  0.0000
  900UNL      C 3948   2.325   2.987   4.051  0.0000  0.0000  0.0000
  900UNL      C 3949   2.393   3.014   3.916  0.0000  0.0000  0.0000
  900UNL      C 3950   2.460   2.892   3.851  0.0000  0.0000  0.0000
  900UNL      C 3951   2.538   2.907   3.719  0.0000  0.0000  0.0000
  900UNL      C 3952   2.440   2.926   3.602  0.0000  0.0000  0.0000
  900UNL      C 3953   2.523   2.947   3.474  0.0000  0.0000  0.0000
  900UNL      C 3954   1.722   2.860   3.849  0.0000  0.0000  0.0000
  900UNL      C 3955   1.621   2.918   3.755  0.0000  0.0000  0.0000
  900UNL      C 3956   1.671   2.911   3.609  0.0000  0.0000  0.0000
  900UNL      C 3957   1.562   2.951   3.504  0.0000  0.0000  0.0000
  900UNL      C 3958   1.622   2.940   3.362  0.0000  0.0000  0.0000
  900UNL      C 3959   1.513   2.969   3.256  0.0000  0.0000  0.0000
  900UNL      C 3960   1.563   2.937   3.109  0.0000  0.0000  0.0000
  901UNL      C 3961   1.629   2.516   2.731  0.0000  0.0000  0.0000
  901UNL      C 3962   1.615   2.411   2.834  0.0000  0.0000  0.0000
  901UNL      N 3963   1.685   2.461   2.615  0.0000  0.0000  0.0000
  901UNL      S 3964   1.670   2.259   2.773  0.0000  0.0000  0.0000
  901UNL      C 3965   1.715   2.327   2.618  0.0000  0.0000  0.0000
  901UNL      C 3966   1.708   2.548   2.498  0.0000  0.0000  0.0000
  901UNL      S 3967   1.782   2.239   2.499  0.0000  0.0000  0.0000
  901UNL      O 3968   1.597   2.631   2.741  0.0000  0.0000  0.0000
  901UNL      C 3969   1.569   2.446   2.958  0.0000  0.0000  0.0000
  902UNL      C 3970   1.542   2.365   3.074  0.0000  0.0000  0.0000
  902UNL      C 3971   1.544   2.228   3.081  0.0000  0.0000  0.0000
  902UNL      C 3972   1.509   2.433   3.194  0.0000  0.0000  0.0000
  902UNL      C 3973   1.516   2.158   3.200  0.0000  0.0000  0.0000
  902UNL      C 3974   1.484   2.219   3.344  0.0000  0.0000  0.0000
  902UNL      C 3975   1.481   2.363   3.339  0.0000  0.0000  0.0000
  902UNL      N 3976   1.499   2.568   3.209  0.0000  0.0000  0.0000
  902UNL      N 3977   1.449   2.444   3.442  0.0000  0.0000  0.0000
  902UNL      S 3978   1.456   2.596   3.386  0.0000  0.0000  0.0000
  903UNL      C 3979   1.453   2.143   3.462  0.0000  0.0000  0.0000
  903UNL      C 3980   1.447   2.006   3.475  0.0000  0.0000  0.0000
  903UNL      C 3981   1.405   1.965   3.603  0.0000  0.0000  0.0000
  903UNL      C 3982   1.380   2.071   3.686  0.0000  0.0000  0.0000
  903UNL      S 3983   1.407   2.222   3.612  0.0000  0.0000  0.0000
  904UNL      C 3984   1.330   2.026   3.815  0.0000  0.0000  0.0000
  904UNL      C 3985   1.324   1.885   3.807  0.0000  0.0000  0.0000
  905UNL      C 3986   1.376   1.833   3.671  0.0000  0.0000  0.0000
  906UNL      C 3987   1.277   1.812   3.914  0.0000  0.0000  0.0000
  907UNL      C 3988   1.503   1.748   3.692  0.0000  0.0000  0.0000
  907UNL      C 3989   1.268   1.753   3.597  0.0000  0.0000  0.0000
  907UNL      C 3990   1.142   1.826   3.563  0.0000  0.0000  0.0000
  907UNL      C 3991   1.616   1.818   3.764  0.0000  0.0000  0.0000
  907UNL      C 3992   1.038   1.737   3.503  0.0000  0.0000  0.0000
  907UNL      C 3993   0.910   1.806   3.466  0.0000  0.0000  0.0000
  907UNL      C 3994   0.796   1.726   3.410  0.0000  0.0000  0.0000
  907UNL      C 3995   0.774   1.580   3.432  0.0000  0.0000  0.0000
  907UNL      C 3996   0.666   1.476   3.434  0.0000  0.0000  0.0000
  907UNL      C 3997   0.687   1.354   3.349  0.0000  0.0000  0.0000
  907UNL      C 3998   1.742   1.738   3.788  0.0000  0.0000  0.0000
  907UNL      C 3999   1.844   1.817   3.865  0.0000  0.0000  0.0000
  907UNL      C 4000   1.979   1.752   3.885  0.0000  0.0000  0.0000
  907UNL      C 4001   2.075   1.843   3.956  0.0000  0.0000  0.0000
  907UNL      C 4002   2.207   1.774   3.980  0.0000  0.0000  0.0000
  907UNL      C 4003   2.293   1.772   3.856  0.0000  0.0000  0.0000
  908UNL      C 4004   1.291   2.095   3.927  0.0000  0.0000  0.0000
  908UNL      C 4005   1.243   2.023   4.034  0.0000  0.0000  0.0000
  909UNL      C 4006   1.582   2.552   2.411  0.0000  0.0000  0.0000
  910UNL      C 4007   1.237   1.881   4.028  0.0000  0.0000  0.0000
  911UNL      C 4008   1.183   1.837   4.156  0.0000  0.0000  0.0000
  912UNL      C 4009   1.193   2.076   4.169  0.0000  0.0000  0.0000
  913UNL      C 4010   1.157   1.945   4.237  0.0000  0.0000  0.0000
  914UNL      C 4011   1.305   2.151   4.244  0.0000  0.0000  0.0000
  914UNL      C 4012   1.070   2.169   4.151  0.0000  0.0000  0.0000
  915UNL      S 4013   1.148   1.689   4.232  0.0000  0.0000  0.0000
  915UNL      C 4014   1.098   1.772   4.378  0.0000  0.0000  0.0000
  915UNL      C 4015   1.109   1.909   4.363  0.0000  0.0000  0.0000
  916UNL      C 4016   1.057   1.703   4.498  0.0000  0.0000  0.0000
  916UNL      C 4017   1.015   1.775   4.609  0.0000  0.0000  0.0000
  916UNL      C 4018   0.985   1.713   4.735  0.0000  0.0000  0.0000
  916UNL      C 4019   0.991   1.576   4.753  0.0000  0.0000  0.0000
  916UNL      C 4020   1.060   1.561   4.513  0.0000  0.0000  0.0000
  916UNL      C 4021   1.027   1.499   4.638  0.0000  0.0000  0.0000
  917UNL      C 4022   0.965   1.507   4.877  0.0000  0.0000  0.0000
  918UNL      N 4023   1.095   1.472   4.418  0.0000  0.0000  0.0000
  918UNL      N 4024   1.040   1.364   4.634  0.0000  0.0000  0.0000
  918UNL      S 4025   1.086   1.327   4.485  0.0000  0.0000  0.0000
  919UNL      C 4026   0.932   1.558   4.999  0.0000  0.0000  0.0000
  919UNL      S 4027   0.905   1.722   5.050  0.0000  0.0000  0.0000
  919UNL      C 4028   0.918   1.467   5.113  0.0000  0.0000  0.0000
  919UNL      O 4029   0.931   1.347   5.112  0.0000  0.0000  0.0000
  919UNL      N 4030   0.883   1.538   5.228  0.0000  0.0000  0.0000
  919UNL      C 4031   0.872   1.675   5.217  0.0000  0.0000  0.0000
  919UNL      C 4032   0.871   1.469   5.357  0.0000  0.0000  0.0000
  919UNL      C 4033   1.002   1.460   5.427  0.0000  0.0000  0.0000
  919UNL      S 4034   0.835   1.780   5.332  0.0000  0.0000  0.0000
  920UNL      C 4035   0.954   2.106   4.081  0.0000  0.0000  0.0000
  920UNL      C 4036   0.828   2.195   4.070  0.0000  0.0000  0.0000
  920UNL      C 4037   0.760   2.222   4.205  0.0000  0.0000  0.0000
  920UNL      C 4038   0.693   2.099   4.269  0.0000  0.0000  0.0000
  920UNL      C 4039   0.616   2.115   4.401  0.0000  0.0000  0.0000
  920UNL      C 4040   0.713   2.133   4.518  0.0000  0.0000  0.0000
  920UNL      C 4041   0.631   2.155   4.646  0.0000  0.0000  0.0000
  920UNL      C 4042   1.431   2.067   4.271  0.0000  0.0000  0.0000
  920UNL      C 4043   1.532   2.126   4.365  0.0000  0.0000  0.0000
  920UNL      C 4044   1.482   2.119   4.512  0.0000  0.0000  0.0000
  920UNL      C 4045   1.592   2.158   4.616  0.0000  0.0000  0.0000
  920UNL      C 4046   1.531   2.148   4.758  0.0000  0.0000  0.0000
  920UNL      C 4047   1.640   2.176   4.864  0.0000  0.0000  0.0000
  920UNL      C 4048   1.590   2.144   5.011  0.0000  0.0000  0.0000
  921UNL      C 4049   1.434   1.446   4.379  0.0000  0.0000  0.0000
  921UNL      C 4050   1.419   1.551   4.482  0.0000  0.0000  0.0000
  921UNL      N 4051   1.490   1.501   4.262  0.0000  0.0000  0.0000
  921UNL      S 4052   1.475   1.704   4.420  0.0000  0.0000  0.0000
  921UNL      C 4053   1.520   1.635   4.265  0.0000  0.0000  0.0000
  921UNL      C 4054   1.512   1.415   4.146  0.0000  0.0000  0.0000
  921UNL      S 4055   1.587   1.723   4.147  0.0000  0.0000  0.0000
  921UNL      O 4056   1.401   1.331   4.388  0.0000  0.0000  0.0000
  921UNL      C 4057   1.374   1.516   4.605  0.0000  0.0000  0.0000
  922UNL      C 4058   1.347   1.597   4.722  0.0000  0.0000  0.0000
  922UNL      C 4059   1.348   1.734   4.729  0.0000  0.0000  0.0000
  922UNL      C 4060   1.314   1.529   4.842  0.0000  0.0000  0.0000
  922UNL      C 4061   1.321   1.805   4.847  0.0000  0.0000  0.0000
  922UNL      C 4062   1.289   1.743   4.968  0.0000  0.0000  0.0000
  922UNL      C 4063   1.285   1.600   4.963  0.0000  0.0000  0.0000
  922UNL      N 4064   1.304   1.394   4.856  0.0000  0.0000  0.0000
  922UNL      N 4065   1.254   1.518   5.067  0.0000  0.0000  0.0000
  922UNL      S 4066   1.261   1.367   5.010  0.0000  0.0000  0.0000
  923UNL      C 4067   1.258   1.819   5.087  0.0000  0.0000  0.0000
  923UNL      C 4068   1.252   1.956   5.100  0.0000  0.0000  0.0000
  923UNL      C 4069   1.210   1.997   5.227  0.0000  0.0000  0.0000
  923UNL      C 4070   1.185   1.891   5.310  0.0000  0.0000  0.0000
  923UNL      S 4071   1.212   1.740   5.237  0.0000  0.0000  0.0000
  924UNL      C 4072   1.134   1.936   5.439  0.0000  0.0000  0.0000
  924UNL      C 4073   1.129   2.077   5.432  0.0000  0.0000  0.0000
  925UNL      C 4074   1.181   2.130   5.295  0.0000  0.0000  0.0000
  926UNL      C 4075   1.082   2.150   5.538  0.0000  0.0000  0.0000
  927UNL      C 4076   1.308   2.215   5.317  0.0000  0.0000  0.0000
  927UNL      C 4077   1.073   2.209   5.221  0.0000  0.0000  0.0000
  927UNL      C 4078   0.947   2.137   5.187  0.0000  0.0000  0.0000
  927UNL      C 4079   1.421   2.145   5.389  0.0000  0.0000  0.0000
  927UNL      C 4080   0.843   2.226   5.127  0.0000  0.0000  0.0000
  927UNL      C 4081   0.715   2.156   5.090  0.0000  0.0000  0.0000
  927UNL      C 4082   0.601   2.236   5.034  0.0000  0.0000  0.0000
  927UNL      C 4083   0.579   2.383   5.056  0.0000  0.0000  0.0000
  927UNL      C 4084   0.471   2.486   5.058  0.0000  0.0000  0.0000
  927UNL      C 4085   0.492   2.608   4.973  0.0000  0.0000  0.0000
  927UNL      C 4086   1.547   2.225   5.412  0.0000  0.0000  0.0000
  927UNL      C 4087   1.649   2.145   5.489  0.0000  0.0000  0.0000
  927UNL      C 4088   1.784   2.210   5.509  0.0000  0.0000  0.0000
  927UNL      C 4089   1.880   2.119   5.580  0.0000  0.0000  0.0000
  927UNL      C 4090   2.012   2.189   5.604  0.0000  0.0000  0.0000
  927UNL      C 4091   2.098   2.190   5.481  0.0000  0.0000  0.0000
  928UNL      C 4092   1.095   1.867   5.551  0.0000  0.0000  0.0000
  928UNL      C 4093   1.048   1.939   5.658  0.0000  0.0000  0.0000
  929UNL      C 4094   1.387   1.410   4.059  0.0000  0.0000  0.0000
  930UNL      C 4095   1.042   2.081   5.652  0.0000  0.0000  0.0000
  931UNL      C 4096   0.988   2.125   5.780  0.0000  0.0000  0.0000
  932UNL      C 4097   0.998   1.887   5.793  0.0000  0.0000  0.0000
  933UNL      C 4098   0.962   2.017   5.861  0.0000  0.0000  0.0000
  934UNL      C 4099   1.110   1.812   5.869  0.0000  0.0000  0.0000
  934UNL      C 4100   0.875   1.794   5.776  0.0000  0.0000  0.0000
  935UNL      S 4101   0.952   2.274   5.857  0.0000  0.0000  0.0000
  935UNL      C 4102   0.903   2.191   6.002  0.0000  0.0000  0.0000
  935UNL      C 4103   0.914   2.054   5.987  0.0000  0.0000  0.0000
  936UNL      C 4104   0.862   2.259   6.122  0.0000  0.0000  0.0000
  936UNL      C 4105   0.820   2.188   6.233  0.0000  0.0000  0.0000
  936UNL      C 4106   0.790   2.249   6.359  0.0000  0.0000  0.0000
  936UNL      C 4107   0.796   2.386   6.377  0.0000  0.0000  0.0000
  936UNL      C 4108   0.865   2.402   6.137  0.0000  0.0000  0.0000
  936UNL      C 4109   0.832   2.463   6.262  0.0000  0.0000  0.0000
  937UNL      C 4110   0.770   2.455   6.525  0.0000  0.0000  0.0000
  938UNL      N 4111   0.900   2.490   6.042  0.0000  0.0000  0.0000
  938UNL      N 4112   0.845   2.599   6.258  0.0000  0.0000  0.0000
  938UNL      S 4113   0.891   2.636   6.110  0.0000  0.0000  0.0000
  939UNL      C 4114   0.737   2.405   6.646  0.0000  0.0000  0.0000
  939UNL      S 4115   0.710   2.240   6.698  0.0000  0.0000  0.0000
  939UNL      C 4116   0.722   2.495   6.761  0.0000  0.0000  0.0000
  939UNL      O 4117   0.736   2.616   6.759  0.0000  0.0000  0.0000
  939UNL      N 4118   0.688   2.425   6.876  0.0000  0.0000  0.0000
  939UNL      C 4119   0.677   2.288   6.864  0.0000  0.0000  0.0000
  939UNL      C 4120   0.675   2.493   7.005  0.0000  0.0000  0.0000
  939UNL      C 4121   0.807   2.502   7.074  0.0000  0.0000  0.0000
  939UNL      S 4122   0.640   2.182   6.980  0.0000  0.0000  0.0000
  940UNL      C 4123   0.759   1.856   5.705  0.0000  0.0000  0.0000
  940UNL      C 4124   0.633   1.768   5.694  0.0000  0.0000  0.0000
  940UNL      C 4125   0.565   1.740   5.829  0.0000  0.0000  0.0000
  940UNL      C 4126   0.498   1.863   5.893  0.0000  0.0000  0.0000
  940UNL      C 4127   0.420   1.848   6.025  0.0000  0.0000  0.0000
  940UNL      C 4128   0.518   1.829   6.143  0.0000  0.0000  0.0000
  940UNL      C 4129   0.436   1.808   6.270  0.0000  0.0000  0.0000
  940UNL      C 4130   1.236   1.895   5.895  0.0000  0.0000  0.0000
  940UNL      C 4131   1.337   1.837   5.990  0.0000  0.0000  0.0000
  940UNL      C 4132   1.287   1.844   6.136  0.0000  0.0000  0.0000
  940UNL      C 4133   1.397   1.804   6.241  0.0000  0.0000  0.0000
  940UNL      C 4134   1.336   1.814   6.383  0.0000  0.0000  0.0000
  940UNL      C 4135   1.445   1.786   6.488  0.0000  0.0000  0.0000
  940UNL      C 4136   1.395   1.818   6.635  0.0000  0.0000  0.0000
  941UNL      C 4137   1.329   2.239   7.013  0.0000  0.0000  0.0000
  941UNL      C 4138   1.343   2.344   6.910  0.0000  0.0000  0.0000
  941UNL      N 4139   1.273   2.294   7.130  0.0000  0.0000  0.0000
  941UNL      S 4140   1.288   2.496   6.972  0.0000  0.0000  0.0000
  941UNL      C 4141   1.243   2.428   7.127  0.0000  0.0000  0.0000
  941UNL      C 4142   1.251   2.207   7.246  0.0000  0.0000  0.0000
  941UNL      S 4143   1.176   2.516   7.245  0.0000  0.0000  0.0000
  941UNL      O 4144   1.361   2.123   7.004  0.0000  0.0000  0.0000
  941UNL      C 4145   1.389   2.309   6.787  0.0000  0.0000  0.0000
  942UNL      C 4146   1.416   2.390   6.670  0.0000  0.0000  0.0000
  942UNL      C 4147   1.415   2.527   6.663  0.0000  0.0000  0.0000
  942UNL      C 4148   1.449   2.322   6.550  0.0000  0.0000  0.0000
  942UNL      C 4149   1.442   2.597   6.545  0.0000  0.0000  0.0000
  942UNL      C 4150   1.474   2.536   6.401  0.0000  0.0000  0.0000
  942UNL      C 4151   1.478   2.392   6.406  0.0000  0.0000  0.0000
  942UNL      N 4152   1.459   2.187   6.536  0.0000  0.0000  0.0000
  942UNL      N 4153   1.509   2.310   6.302  0.0000  0.0000  0.0000
  942UNL      S 4154   1.502   2.159   6.359  0.0000  0.0000  0.0000
  943UNL      C 4155   1.506   2.611   6.282  0.0000  0.0000  0.0000
  943UNL      C 4156   1.511   2.749   6.269  0.0000  0.0000  0.0000
  943UNL      C 4157   1.553   2.789   6.141  0.0000  0.0000  0.0000
  943UNL      C 4158   1.578   2.684   6.058  0.0000  0.0000  0.0000
  943UNL      S 4159   1.551   2.533   6.132  0.0000  0.0000  0.0000
  944UNL      C 4160   1.629   2.729   5.930  0.0000  0.0000  0.0000
  944UNL      C 4161   1.634   2.870   5.937  0.0000  0.0000  0.0000
  945UNL      C 4162   1.582   2.922   6.073  0.0000  0.0000  0.0000
  946UNL      C 4163   1.681   2.943   5.831  0.0000  0.0000  0.0000
  947UNL      C 4164   1.455   3.007   6.052  0.0000  0.0000  0.0000
  947UNL      C 4165   1.690   3.002   6.147  0.0000  0.0000  0.0000
  947UNL      C 4166   1.816   2.929   6.181  0.0000  0.0000  0.0000
  947UNL      C 4167   1.342   2.937   5.980  0.0000  0.0000  0.0000
  947UNL      C 4168   1.920   3.018   6.242  0.0000  0.0000  0.0000
  947UNL      C 4169   2.048   2.949   6.278  0.0000  0.0000  0.0000
  947UNL      C 4170   2.162   3.028   6.335  0.0000  0.0000  0.0000
  947UNL      C 4171   2.184   3.175   6.313  0.0000  0.0000  0.0000
  947UNL      C 4172   2.292   3.279   6.311  0.0000  0.0000  0.0000
  947UNL      C 4173   2.271   3.400   6.395  0.0000  0.0000  0.0000
  947UNL      C 4174   1.217   3.017   5.956  0.0000  0.0000  0.0000
  947UNL      C 4175   1.114   2.938   5.880  0.0000  0.0000  0.0000
  947UNL      C 4176   0.979   3.003   5.859  0.0000  0.0000  0.0000
  947UNL      C 4177   0.883   2.912   5.788  0.0000  0.0000  0.0000
  947UNL      C 4178   0.751   2.981   5.764  0.0000  0.0000  0.0000
  947UNL      C 4179   0.665   2.983   5.888  0.0000  0.0000  0.0000
  948UNL      C 4180   1.668   2.660   5.817  0.0000  0.0000  0.0000
  948UNL      C 4181   1.715   2.732   5.711  0.0000  0.0000  0.0000
  949UNL      C 4182   1.376   2.202   7.333  0.0000  0.0000  0.0000
  950UNL      C 4183   1.721   2.874   5.717  0.0000  0.0000  0.0000
  951UNL      C 4184   1.775   2.918   5.588  0.0000  0.0000  0.0000
  952UNL      C 4185   1.765   2.679   5.576  0.0000  0.0000  0.0000
  953UNL      C 4186   1.801   2.810   5.508  0.0000  0.0000  0.0000
  954UNL      C 4187   1.653   2.604   5.500  0.0000  0.0000  0.0000
  954UNL      C 4188   1.888   2.586   5.593  0.0000  0.0000  0.0000
  955UNL      S 4189   1.811   3.066   5.512  0.0000  0.0000  0.0000
  955UNL      C 4190   1.861   2.983   5.366  0.0000  0.0000  0.0000
  955UNL      C 4191   1.850   2.846   5.382  0.0000  0.0000  0.0000
  956UNL      C 4192   1.901   3.052   5.246  0.0000  0.0000  0.0000
  956UNL      C 4193   1.943   2.980   5.135  0.0000  0.0000  0.0000
  956UNL      C 4194   1.973   3.042   5.010  0.0000  0.0000  0.0000
  956UNL      C 4195   1.967   3.178   4.991  0.0000  0.0000  0.0000
  956UNL      C 4196   1.898   3.194   5.231  0.0000  0.0000  0.0000
  956UNL      C 4197   1.931   3.256   5.107  0.0000  0.0000  0.0000
  957UNL      C 4198   1.993   3.247   4.867  0.0000  0.0000  0.0000
  958UNL      N 4199   1.863   3.283   5.327  0.0000  0.0000  0.0000
  958UNL      N 4200   1.918   3.391   5.110  0.0000  0.0000  0.0000
  958UNL      S 4201   1.873   3.428   5.259  0.0000  0.0000  0.0000
  959UNL      C 4202   2.026   3.197   4.746  0.0000  0.0000  0.0000
  959UNL      S 4203   2.053   3.033   4.694  0.0000  0.0000  0.0000
  959UNL      C 4204   2.040   3.288   4.631  0.0000  0.0000  0.0000
  959UNL      O 4205   2.027   3.408   4.633  0.0000  0.0000  0.0000
  959UNL      N 4206   2.075   3.217   4.516  0.0000  0.0000  0.0000
  959UNL      C 4207   2.086   3.080   4.528  0.0000  0.0000  0.0000
  959UNL      C 4208   2.088   3.286   4.388  0.0000  0.0000  0.0000
  959UNL      C 4209   1.956   3.294   4.318  0.0000  0.0000  0.0000
  959UNL      S 4210   2.123   2.975   4.412  0.0000  0.0000  0.0000
  960UNL      C 4211   2.004   2.648   5.663  0.0000  0.0000  0.0000
  960UNL      C 4212   2.130   2.560   5.675  0.0000  0.0000  0.0000
  960UNL      C 4213   2.198   2.533   5.540  0.0000  0.0000  0.0000
  960UNL      C 4214   2.265   2.655   5.475  0.0000  0.0000  0.0000
  960UNL      C 4215   2.343   2.640   5.343  0.0000  0.0000  0.0000
  960UNL      C 4216   2.245   2.622   5.226  0.0000  0.0000  0.0000
  960UNL      C 4217   2.328   2.600   5.098  0.0000  0.0000  0.0000
  960UNL      C 4218   1.527   2.687   5.474  0.0000  0.0000  0.0000
  960UNL      C 4219   1.426   2.629   5.379  0.0000  0.0000  0.0000
  960UNL      C 4220   1.476   2.636   5.233  0.0000  0.0000  0.0000
  960UNL      C 4221   1.366   2.596   5.128  0.0000  0.0000  0.0000
  960UNL      C 4222   1.427   2.607   4.986  0.0000  0.0000  0.0000
  960UNL      C 4223   1.318   2.578   4.880  0.0000  0.0000  0.0000
  960UNL      C 4224   1.368   2.610   4.733  0.0000  0.0000  0.0000
  961UNL      C 4225   1.914   4.894   2.118  0.0000  0.0000  0.0000
  961UNL      C 4226   1.929   4.788   2.015  0.0000  0.0000  0.0000
  961UNL      N 4227   1.858   4.839   2.234  0.0000  0.0000  0.0000
  961UNL      S 4228   1.873   4.636   2.076  0.0000  0.0000  0.0000
  961UNL      C 4229   1.828   4.705   2.231  0.0000  0.0000  0.0000
  961UNL      C 4230   1.836   4.925   2.351  0.0000  0.0000  0.0000
  961UNL      S 4231   1.761   4.617   2.350  0.0000  0.0000  0.0000
  961UNL      O 4232   1.947   5.009   2.108  0.0000  0.0000  0.0000
  961UNL      C 4233   1.974   4.824   1.891  0.0000  0.0000  0.0000
  962UNL      C 4234   2.001   4.743   1.775  0.0000  0.0000  0.0000
  962UNL      C 4235   2.000   4.606   1.768  0.0000  0.0000  0.0000
  962UNL      C 4236   2.035   4.811   1.654  0.0000  0.0000  0.0000
  962UNL      C 4237   2.027   4.535   1.649  0.0000  0.0000  0.0000
  962UNL      C 4238   2.059   4.596   1.528  0.0000  0.0000  0.0000
  962UNL      C 4239   2.063   4.740   1.533  0.0000  0.0000  0.0000
  962UNL      N 4240   2.044   4.945   1.640  0.0000  0.0000  0.0000
  962UNL      N 4241   2.094   4.822   1.430  0.0000  0.0000  0.0000
  962UNL      S 4242   2.087   4.973   1.486  0.0000  0.0000  0.0000
  963UNL      C 4243   2.091   4.521   1.410  0.0000  0.0000  0.0000
  963UNL      C 4244   2.096   4.384   1.397  0.0000  0.0000  0.0000
  963UNL      C 4245   2.138   4.343   1.269  0.0000  0.0000  0.0000
  963UNL      C 4246   2.163   4.449   1.186  0.0000  0.0000  0.0000
  963UNL      S 4247   2.136   4.599   1.260  0.0000  0.0000  0.0000
  964UNL      C 4248   2.214   4.403   1.058  0.0000  0.0000  0.0000
  964UNL      C 4249   2.219   4.263   1.065  0.0000  0.0000  0.0000
  965UNL      C 4250   2.168   4.210   1.201  0.0000  0.0000  0.0000
  966UNL      C 4251   2.266   4.190   0.958  0.0000  0.0000  0.0000
  967UNL      C 4252   2.040   4.125   1.180  0.0000  0.0000  0.0000
  967UNL      C 4253   2.275   4.130   1.275  0.0000  0.0000  0.0000
  967UNL      C 4254   2.401   4.203   1.309  0.0000  0.0000  0.0000
  967UNL      C 4255   1.928   4.195   1.108  0.0000  0.0000  0.0000
  967UNL      C 4256   2.506   4.114   1.370  0.0000  0.0000  0.0000
  967UNL      C 4257   2.633   4.184   1.406  0.0000  0.0000  0.0000
  967UNL      C 4258   2.747   4.104   1.462  0.0000  0.0000  0.0000
  967UNL      C 4259   2.769   3.957   1.441  0.0000  0.0000  0.0000
  967UNL      C 4260   2.877   3.853   1.438  0.0000  0.0000  0.0000
  967UNL      C 4261   2.856   3.732   1.523  0.0000  0.0000  0.0000
  967UNL      C 4262   1.802   4.115   1.084  0.0000  0.0000  0.0000
  967UNL      C 4263   1.699   4.195   1.008  0.0000  0.0000  0.0000
  967UNL      C 4264   1.565   4.130   0.987  0.0000  0.0000  0.0000
  967UNL      C 4265   1.468   4.221   0.916  0.0000  0.0000  0.0000
  967UNL      C 4266   1.337   4.151   0.892  0.0000  0.0000  0.0000
  967UNL      C 4267   1.250   4.149   1.016  0.0000  0.0000  0.0000
  968UNL      C 4268   2.253   4.472   0.945  0.0000  0.0000  0.0000
  968UNL      C 4269   2.300   4.400   0.838  0.0000  0.0000  0.0000
  969UNL      C 4270   1.961   4.930   2.438  0.0000  0.0000  0.0000
  970UNL      C 4271   2.306   4.259   0.845  0.0000  0.0000  0.0000
  971UNL      C 4272   2.360   4.214   0.716  0.0000  0.0000  0.0000
  972UNL      C 4273   2.350   4.453   0.703  0.0000  0.0000  0.0000
  973UNL      C 4274   2.386   4.323   0.635  0.0000  0.0000  0.0000
  974UNL      C 4275   2.238   4.528   0.628  0.0000  0.0000  0.0000
  974UNL      C 4276   2.473   4.546   0.721  0.0000  0.0000  0.0000
  975UNL      S 4277   2.396   4.066   0.640  0.0000  0.0000  0.0000
  975UNL      C 4278   2.446   4.149   0.494  0.0000  0.0000  0.0000
  975UNL      C 4279   2.435   4.286   0.510  0.0000  0.0000  0.0000
  976UNL      C 4280   2.486   4.080   0.374  0.0000  0.0000  0.0000
  976UNL      C 4281   2.529   4.152   0.263  0.0000  0.0000  0.0000
  976UNL      C 4282   2.558   4.090   0.138  0.0000  0.0000  0.0000
  976UNL      C 4283   2.552   3.954   0.119  0.0000  0.0000  0.0000
  976UNL      C 4284   2.483   3.938   0.359  0.0000  0.0000  0.0000
  976UNL      C 4285   2.516   3.876   0.235  0.0000  0.0000  0.0000
  977UNL      C 4286   2.578   3.885  -0.029  0.0000  0.0000  0.0000
  978UNL      N 4287   2.448   3.849   0.454  0.0000  0.0000  0.0000
  978UNL      N 4288   2.503   3.741   0.238  0.0000  0.0000  0.0000
  978UNL      S 4289   2.458   3.704   0.387  0.0000  0.0000  0.0000
  979UNL      C 4290   2.611   3.935  -0.150  0.0000  0.0000  0.0000
  979UNL      S 4291   2.639   4.099  -0.201  0.0000  0.0000  0.0000
  979UNL      C 4292   2.626   3.845  -0.264  0.0000  0.0000  0.0000
  979UNL      O 4293   2.612   3.724  -0.263  0.0000  0.0000  0.0000
  979UNL      N 4294   2.661   3.915  -0.379  0.0000  0.0000  0.0000
  979UNL      C 4295   2.672   4.052  -0.368  0.0000  0.0000  0.0000
  979UNL      C 4296   2.673   3.847  -0.508  0.0000  0.0000  0.0000
  979UNL      C 4297   2.542   3.838  -0.578  0.0000  0.0000  0.0000
  979UNL      S 4298   2.708   4.158  -0.483  0.0000  0.0000  0.0000
  980UNL      C 4299   2.589   4.484   0.791  0.0000  0.0000  0.0000
  980UNL      C 4300   2.715   4.572   0.803  0.0000  0.0000  0.0000
  980UNL      C 4301   2.783   4.599   0.668  0.0000  0.0000  0.0000
  980UNL      C 4302   2.850   4.477   0.603  0.0000  0.0000  0.0000
  980UNL      C 4303   2.928   4.492   0.471  0.0000  0.0000  0.0000
  980UNL      C 4304   2.830   4.511   0.354  0.0000  0.0000  0.0000
  980UNL      C 4305   2.913   4.532   0.226  0.0000  0.0000  0.0000
  980UNL      C 4306   2.112   4.445   0.601  0.0000  0.0000  0.0000
  980UNL      C 4307   2.011   4.503   0.507  0.0000  0.0000  0.0000
  980UNL      C 4308   2.061   4.496   0.361  0.0000  0.0000  0.0000
  980UNL      C 4309   1.952   4.536   0.256  0.0000  0.0000  0.0000
  980UNL      C 4310   2.012   4.525   0.114  0.0000  0.0000  0.0000
  980UNL      C 4311   1.903   4.554   0.008  0.0000  0.0000  0.0000
  980UNL      C 4312   1.953   4.522  -0.139  0.0000  0.0000  0.0000
  981UNL      C 4313   2.019   4.101  -0.517  0.0000  0.0000  0.0000
  981UNL      C 4314   2.005   3.996  -0.414  0.0000  0.0000  0.0000
  981UNL      N 4315   2.075   4.046  -0.633  0.0000  0.0000  0.0000
  981UNL      S 4316   2.060   3.844  -0.475  0.0000  0.0000  0.0000
  981UNL      C 4317   2.105   3.912  -0.630  0.0000  0.0000  0.0000
  981UNL      C 4318   2.098   4.133  -0.750  0.0000  0.0000  0.0000
  981UNL      S 4319   2.172   3.824  -0.749  0.0000  0.0000  0.0000
  981UNL      O 4320   1.987   4.216  -0.507  0.0000  0.0000  0.0000
  981UNL      C 4321   1.959   4.031  -0.290  0.0000  0.0000  0.0000
  982UNL      C 4322   1.932   3.950  -0.174  0.0000  0.0000  0.0000
  982UNL      C 4323   1.934   3.813  -0.167  0.0000  0.0000  0.0000
  982UNL      C 4324   1.899   4.018  -0.054  0.0000  0.0000  0.0000
  982UNL      C 4325   1.906   3.743  -0.048  0.0000  0.0000  0.0000
  982UNL      C 4326   1.874   3.804   0.096  0.0000  0.0000  0.0000
  982UNL      C 4327   1.871   3.948   0.091  0.0000  0.0000  0.0000
  982UNL      N 4328   1.889   4.153  -0.039  0.0000  0.0000  0.0000
  982UNL      N 4329   1.839   4.029   0.194  0.0000  0.0000  0.0000
  982UNL      S 4330   1.846   4.181   0.138  0.0000  0.0000  0.0000
  983UNL      C 4331   1.843   3.728   0.214  0.0000  0.0000  0.0000
  983UNL      C 4332   1.837   3.591   0.227  0.0000  0.0000  0.0000
  983UNL      C 4333   1.795   3.550   0.355  0.0000  0.0000  0.0000
  983UNL      C 4334   1.770   3.656   0.438  0.0000  0.0000  0.0000
  983UNL      S 4335   1.797   3.807   0.364  0.0000  0.0000  0.0000
  984UNL      C 4336   1.720   3.611   0.567  0.0000  0.0000  0.0000
  984UNL      C 4337   1.714   3.470   0.559  0.0000  0.0000  0.0000
  985UNL      C 4338   1.766   3.418   0.423  0.0000  0.0000  0.0000
  986UNL      C 4339   1.667   3.397   0.666  0.0000  0.0000  0.0000
  987UNL      C 4340   1.893   3.333   0.444  0.0000  0.0000  0.0000
  987UNL      C 4341   1.658   3.338   0.349  0.0000  0.0000  0.0000
  987UNL      C 4342   1.532   3.411   0.315  0.0000  0.0000  0.0000
  987UNL      C 4343   2.006   3.403   0.516  0.0000  0.0000  0.0000
  987UNL      C 4344   1.428   3.322   0.255  0.0000  0.0000  0.0000
  987UNL      C 4345   1.300   3.391   0.218  0.0000  0.0000  0.0000
  987UNL      C 4346   1.186   3.311   0.162  0.0000  0.0000  0.0000
  987UNL      C 4347   1.164   3.165   0.184  0.0000  0.0000  0.0000
  987UNL      C 4348   1.056   3.061   0.186  0.0000  0.0000  0.0000
  987UNL      C 4349   1.077   2.939   0.101  0.0000  0.0000  0.0000
  987UNL      C 4350   2.132   3.323   0.540  0.0000  0.0000  0.0000
  987UNL      C 4351   2.234   3.402   0.617  0.0000  0.0000  0.0000
  987UNL      C 4352   2.369   3.337   0.637  0.0000  0.0000  0.0000
  987UNL      C 4353   2.465   3.428   0.708  0.0000  0.0000  0.0000
  987UNL      C 4354   2.597   3.359   0.732  0.0000  0.0000  0.0000
  987UNL      C 4355   2.683   3.357   0.608  0.0000  0.0000  0.0000
  988UNL      C 4356   1.681   3.680   0.679  0.0000  0.0000  0.0000
  988UNL      C 4357   1.633   3.608   0.786  0.0000  0.0000  0.0000
  989UNL      C 4358   1.972   4.137  -0.837  0.0000  0.0000  0.0000
  990UNL      C 4359   1.627   3.466   0.780  0.0000  0.0000  0.0000
  991UNL      C 4360   1.573   3.422   0.908  0.0000  0.0000  0.0000
  992UNL      C 4361   1.583   3.661   0.921  0.0000  0.0000  0.0000
  993UNL      C 4362   1.547   3.530   0.989  0.0000  0.0000  0.0000
  994UNL      C 4363   1.695   3.736   0.996  0.0000  0.0000  0.0000
  994UNL      C 4364   1.460   3.754   0.903  0.0000  0.0000  0.0000
  995UNL      S 4365   1.538   3.274   0.984  0.0000  0.0000  0.0000
  995UNL      C 4366   1.488   3.357   1.130  0.0000  0.0000  0.0000
  995UNL      C 4367   1.499   3.494   1.115  0.0000  0.0000  0.0000
  996UNL      C 4368   1.447   3.288   1.250  0.0000  0.0000  0.0000
  996UNL      C 4369   1.405   3.360   1.361  0.0000  0.0000  0.0000
  996UNL      C 4370   1.375   3.298   1.487  0.0000  0.0000  0.0000
  996UNL      C 4371   1.381   3.161   1.505  0.0000  0.0000  0.0000
  996UNL      C 4372   1.450   3.146   1.265  0.0000  0.0000  0.0000
  996UNL      C 4373   1.417   3.084   1.390  0.0000  0.0000  0.0000
  997UNL      C 4374   1.355   3.092   1.629  0.0000  0.0000  0.0000
  998UNL      N 4375   1.485   3.057   1.170  0.0000  0.0000  0.0000
  998UNL      N 4376   1.430   2.949   1.386  0.0000  0.0000  0.0000
  998UNL      S 4377   1.476   2.912   1.237  0.0000  0.0000  0.0000
  999UNL      C 4378   1.322   3.143   1.751  0.0000  0.0000  0.0000
  999UNL      S 4379   1.295   3.307   1.802  0.0000  0.0000  0.0000
  999UNL      C 4380   1.308   3.052   1.865  0.0000  0.0000  0.0000
  999UNL      O 4381   1.321   2.932   1.864  0.0000  0.0000  0.0000
  999UNL      N 4382   1.273   3.123   1.980  0.0000  0.0000  0.0000
  999UNL      C 4383   1.262   3.260   1.969  0.0000  0.0000  0.0000
  999UNL      C 4384   1.261   3.054   2.109  0.0000  0.0000  0.0000
  999UNL      C 4385   1.392   3.045   2.179  0.0000  0.0000  0.0000
  999UNL      S 4386   1.225   3.365   2.084  0.0000  0.0000  0.0000
 1000UNL      C 4387   1.344   3.691   0.833  0.0000  0.0000  0.0000
 1000UNL      C 4388   1.218   3.780   0.822  0.0000  0.0000  0.0000
 1000UNL      C 4389   1.150   3.807   0.957  0.0000  0.0000  0.0000
 1000UNL      C 4390   1.083   3.684   1.021  0.0000  0.0000  0.0000
 1000UNL      C 4391   1.006   3.700   1.153  0.0000  0.0000  0.0000
 1000UNL      C 4392   1.103   3.718   1.270  0.0000  0.0000  0.0000
 1000UNL      C 4393   1.021   3.740   1.398  0.0000  0.0000  0.0000
 1000UNL      C 4394   1.821   3.652   1.023  0.0000  0.0000  0.0000
 1000UNL      C 4395   1.922   3.711   1.117  0.0000  0.0000  0.0000
 1000UNL      C 4396   1.872   3.704   1.264  0.0000  0.0000  0.0000
 1000UNL      C 4397   1.982   3.743   1.368  0.0000  0.0000  0.0000
 1000UNL      C 4398   1.921   3.733   1.510  0.0000  0.0000  0.0000
 1000UNL      C 4399   2.030   3.761   1.616  0.0000  0.0000  0.0000
 1000UNL      C 4400   1.980   3.729   1.763  0.0000  0.0000  0.0000
 1001UNL      C 4401   1.824   3.031   1.131  0.0000  0.0000  0.0000
 1001UNL      C 4402   1.809   3.136   1.234  0.0000  0.0000  0.0000
 1001UNL      N 4403   1.880   3.086   1.014  0.0000  0.0000  0.0000
 1001UNL      S 4404   1.865   3.289   1.172  0.0000  0.0000  0.0000
 1001UNL      C 4405   1.910   3.220   1.017  0.0000  0.0000  0.0000
 1001UNL      C 4406   1.902   3.000   0.898  0.0000  0.0000  0.0000
 1001UNL      S 4407   1.977   3.308   0.899  0.0000  0.0000  0.0000
 1001UNL      O 4408   1.791   2.916   1.140  0.0000  0.0000  0.0000
 1001UNL      C 4409   1.764   3.101   1.357  0.0000  0.0000  0.0000
 1002UNL      C 4410   1.737   3.182   1.474  0.0000  0.0000  0.0000
 1002UNL      C 4411   1.738   3.319   1.481  0.0000  0.0000  0.0000
 1002UNL      C 4412   1.704   3.114   1.594  0.0000  0.0000  0.0000
 1002UNL      C 4413   1.711   3.390   1.599  0.0000  0.0000  0.0000
 1002UNL      C 4414   1.679   3.328   1.720  0.0000  0.0000  0.0000
 1002UNL      C 4415   1.675   3.185   1.715  0.0000  0.0000  0.0000
 1002UNL      N 4416   1.694   2.979   1.608  0.0000  0.0000  0.0000
 1002UNL      N 4417   1.644   3.103   1.819  0.0000  0.0000  0.0000
 1002UNL      S 4418   1.651   2.952   1.762  0.0000  0.0000  0.0000
 1003UNL      C 4419   1.648   3.404   1.839  0.0000  0.0000  0.0000
 1003UNL      C 4420   1.642   3.541   1.852  0.0000  0.0000  0.0000
 1003UNL      C 4421   1.600   3.582   1.979  0.0000  0.0000  0.0000
 1003UNL      C 4422   1.575   3.476   2.062  0.0000  0.0000  0.0000
 1003UNL      S 4423   1.602   3.325   1.989  0.0000  0.0000  0.0000
 1004UNL      C 4424   1.524   3.521   2.191  0.0000  0.0000  0.0000
 1004UNL      C 4425   1.519   3.662   2.184  0.0000  0.0000  0.0000
 1005UNL      C 4426   1.571   3.715   2.047  0.0000  0.0000  0.0000
 1006UNL      C 4427   1.472   3.735   2.290  0.0000  0.0000  0.0000
 1007UNL      C 4428   1.698   3.800   2.069  0.0000  0.0000  0.0000
 1007UNL      C 4429   1.463   3.794   1.973  0.0000  0.0000  0.0000
 1007UNL      C 4430   1.337   3.722   1.939  0.0000  0.0000  0.0000
 1007UNL      C 4431   1.811   3.730   2.141  0.0000  0.0000  0.0000
 1007UNL      C 4432   1.233   3.811   1.879  0.0000  0.0000  0.0000
 1007UNL      C 4433   1.105   3.741   1.842  0.0000  0.0000  0.0000
 1007UNL      C 4434   0.991   3.821   1.786  0.0000  0.0000  0.0000
 1007UNL      C 4435   0.969   3.968   1.808  0.0000  0.0000  0.0000
 1007UNL      C 4436   0.861   4.071   1.810  0.0000  0.0000  0.0000
 1007UNL      C 4437   0.882   4.193   1.725  0.0000  0.0000  0.0000
 1007UNL      C 4438   1.937   3.810   2.164  0.0000  0.0000  0.0000
 1007UNL      C 4439   2.039   3.730   2.241  0.0000  0.0000  0.0000
 1007UNL      C 4440   2.174   3.795   2.261  0.0000  0.0000  0.0000
 1007UNL      C 4441   2.270   3.704   2.332  0.0000  0.0000  0.0000
 1007UNL      C 4442   2.402   3.774   2.356  0.0000  0.0000  0.0000
 1007UNL      C 4443   2.488   3.775   2.233  0.0000  0.0000  0.0000
 1008UNL      C 4444   1.485   3.452   2.303  0.0000  0.0000  0.0000
 1008UNL      C 4445   1.438   3.524   2.410  0.0000  0.0000  0.0000
 1009UNL      C 4446   1.777   2.995   0.811  0.0000  0.0000  0.0000
 1010UNL      C 4447   1.432   3.666   2.404  0.0000  0.0000  0.0000
 1011UNL      C 4448   1.378   3.710   2.532  0.0000  0.0000  0.0000
 1012UNL      C 4449   1.388   3.472   2.545  0.0000  0.0000  0.0000
 1013UNL      C 4450   1.352   3.602   2.613  0.0000  0.0000  0.0000
 1014UNL      C 4451   1.500   3.397   2.621  0.0000  0.0000  0.0000
 1014UNL      C 4452   1.265   3.379   2.528  0.0000  0.0000  0.0000
 1015UNL      S 4453   1.342   3.859   2.609  0.0000  0.0000  0.0000
 1015UNL      C 4454   1.293   3.776   2.754  0.0000  0.0000  0.0000
 1015UNL      C 4455   1.304   3.639   2.739  0.0000  0.0000  0.0000
 1016UNL      C 4456   1.252   3.844   2.874  0.0000  0.0000  0.0000
 1016UNL      C 4457   1.210   3.773   2.985  0.0000  0.0000  0.0000
 1016UNL      C 4458   1.180   3.834   3.111  0.0000  0.0000  0.0000
 1016UNL      C 4459   1.186   3.971   3.129  0.0000  0.0000  0.0000
 1016UNL      C 4460   1.255   3.987   2.889  0.0000  0.0000  0.0000
 1016UNL      C 4461   1.222   4.048   3.014  0.0000  0.0000  0.0000
 1017UNL      C 4462   1.160   4.040   3.277  0.0000  0.0000  0.0000
 1018UNL      N 4463   1.290   4.075   2.794  0.0000  0.0000  0.0000
 1018UNL      N 4464   1.235   4.184   3.010  0.0000  0.0000  0.0000
 1018UNL      S 4465   1.281   4.221   2.862  0.0000  0.0000  0.0000
 1019UNL      C 4466   1.127   3.990   3.398  0.0000  0.0000  0.0000
 1019UNL      S 4467   1.100   3.825   3.450  0.0000  0.0000  0.0000
 1019UNL      C 4468   1.112   4.080   3.513  0.0000  0.0000  0.0000
 1019UNL      O 4469   1.126   4.201   3.511  0.0000  0.0000  0.0000
 1019UNL      N 4470   1.078   4.010   3.628  0.0000  0.0000  0.0000
 1019UNL      C 4471   1.067   3.873   3.616  0.0000  0.0000  0.0000
 1019UNL      C 4472   1.065   4.078   3.757  0.0000  0.0000  0.0000
 1019UNL      C 4473   1.197   4.087   3.826  0.0000  0.0000  0.0000
 1019UNL      S 4474   1.030   3.767   3.732  0.0000  0.0000  0.0000
 1020UNL      C 4475   1.149   3.441   2.457  0.0000  0.0000  0.0000
 1020UNL      C 4476   1.023   3.353   2.446  0.0000  0.0000  0.0000
 1020UNL      C 4477   0.955   3.325   2.581  0.0000  0.0000  0.0000
 1020UNL      C 4478   0.888   3.448   2.645  0.0000  0.0000  0.0000
 1020UNL      C 4479   0.810   3.433   2.777  0.0000  0.0000  0.0000
 1020UNL      C 4480   0.908   3.414   2.895  0.0000  0.0000  0.0000
 1020UNL      C 4481   0.826   3.393   3.022  0.0000  0.0000  0.0000
 1020UNL      C 4482   1.626   3.480   2.647  0.0000  0.0000  0.0000
 1020UNL      C 4483   1.727   3.422   2.742  0.0000  0.0000  0.0000
 1020UNL      C 4484   1.677   3.429   2.888  0.0000  0.0000  0.0000
 1020UNL      C 4485   1.787   3.389   2.993  0.0000  0.0000  0.0000
 1020UNL      C 4486   1.726   3.399   3.135  0.0000  0.0000  0.0000
 1020UNL      C 4487   1.835   3.371   3.240  0.0000  0.0000  0.0000
 1020UNL      C 4488   1.785   3.403   3.387  0.0000  0.0000  0.0000
 1021UNL      C 4489   1.719   3.824   3.765  0.0000  0.0000  0.0000
 1021UNL      C 4490   1.733   3.929   3.662  0.0000  0.0000  0.0000
 1021UNL      N 4491   1.663   3.879   3.882  0.0000  0.0000  0.0000
 1021UNL      S 4492   1.678   4.081   3.724  0.0000  0.0000  0.0000
 1021UNL      C 4493   1.633   4.013   3.879  0.0000  0.0000  0.0000
 1021UNL      C 4494   1.641   3.792   3.998  0.0000  0.0000  0.0000
 1021UNL      S 4495   1.566   4.101   3.997  0.0000  0.0000  0.0000
 1021UNL      O 4496   1.751   3.708   3.756  0.0000  0.0000  0.0000
 1021UNL      C 4497   1.779   3.894   3.539  0.0000  0.0000  0.0000
 1022UNL      C 4498   1.806   3.975   3.422  0.0000  0.0000  0.0000
 1022UNL      C 4499   1.805   4.112   3.415  0.0000  0.0000  0.0000
 1022UNL      C 4500   1.839   3.907   3.302  0.0000  0.0000  0.0000
 1022UNL      C 4501   1.832   4.182   3.297  0.0000  0.0000  0.0000
 1022UNL      C 4502   1.864   4.121   3.153  0.0000  0.0000  0.0000
 1022UNL      C 4503   1.868   3.977   3.158  0.0000  0.0000  0.0000
 1022UNL      N 4504   1.849   3.772   3.288  0.0000  0.0000  0.0000
 1022UNL      N 4505   1.899   3.895   3.054  0.0000  0.0000  0.0000
 1022UNL      S 4506   1.892   3.744   3.111  0.0000  0.0000  0.0000
 1023UNL      C 4507   1.896   4.196   3.034  0.0000  0.0000  0.0000
 1023UNL      C 4508   1.901   4.334   3.021  0.0000  0.0000  0.0000
 1023UNL      C 4509   1.943   4.374   2.893  0.0000  0.0000  0.0000
 1023UNL      C 4510   1.968   4.269   2.810  0.0000  0.0000  0.0000
 1023UNL      S 4511   1.941   4.118   2.884  0.0000  0.0000  0.0000
 1024UNL      C 4512   2.019   4.314   2.682  0.0000  0.0000  0.0000
 1024UNL      C 4513   2.024   4.455   2.689  0.0000  0.0000  0.0000
 1025UNL      C 4514   1.972   4.507   2.825  0.0000  0.0000  0.0000
 1026UNL      C 4515   2.071   4.528   2.583  0.0000  0.0000  0.0000
 1027UNL      C 4516   1.845   4.592   2.804  0.0000  0.0000  0.0000
 1027UNL      C 4517   2.080   4.587   2.899  0.0000  0.0000  0.0000
 1027UNL      C 4518   2.206   4.514   2.933  0.0000  0.0000  0.0000
 1027UNL      C 4519   1.732   4.522   2.732  0.0000  0.0000  0.0000
 1027UNL      C 4520   2.310   4.603   2.994  0.0000  0.0000  0.0000
 1027UNL      C 4521   2.438   4.534   3.030  0.0000  0.0000  0.0000
 1027UNL      C 4522   2.552   4.613   3.087  0.0000  0.0000  0.0000
 1027UNL      C 4523   2.574   4.760   3.065  0.0000  0.0000  0.0000
 1027UNL      C 4524   2.682   4.864   3.063  0.0000  0.0000  0.0000
 1027UNL      C 4525   2.661   4.985   3.147  0.0000  0.0000  0.0000
 1027UNL      C 4526   1.607   4.602   2.708  0.0000  0.0000  0.0000
 1027UNL      C 4527   1.504   4.523   2.632  0.0000  0.0000  0.0000
 1027UNL      C 4528   1.369   4.588   2.611  0.0000  0.0000  0.0000
 1027UNL      C 4529   1.273   4.497   2.540  0.0000  0.0000  0.0000
 1027UNL      C 4530   1.141   4.566   2.516  0.0000  0.0000  0.0000
 1027UNL      C 4531   1.055   4.568   2.640  0.0000  0.0000  0.0000
 1028UNL      C 4532   2.058   4.245   2.569  0.0000  0.0000  0.0000
 1028UNL      C 4533   2.105   4.317   2.463  0.0000  0.0000  0.0000
 1029UNL      C 4534   1.766   3.787   4.085  0.0000  0.0000  0.0000
 1030UNL      C 4535   2.111   4.459   2.469  0.0000  0.0000  0.0000
 1031UNL      C 4536   2.165   4.503   2.340  0.0000  0.0000  0.0000
 1032UNL      C 4537   2.155   4.264   2.328  0.0000  0.0000  0.0000
 1033UNL      C 4538   2.191   4.395   2.260  0.0000  0.0000  0.0000
 1034UNL      C 4539   2.043   4.189   2.252  0.0000  0.0000  0.0000
 1034UNL      C 4540   2.278   4.171   2.345  0.0000  0.0000  0.0000
 1035UNL      S 4541   2.201   4.651   2.264  0.0000  0.0000  0.0000
 1035UNL      C 4542   2.251   4.568   2.118  0.0000  0.0000  0.0000
 1035UNL      C 4543   2.240   4.431   2.134  0.0000  0.0000  0.0000
 1036UNL      C 4544   2.291   4.637   1.998  0.0000  0.0000  0.0000
 1036UNL      C 4545   2.333   4.565   1.887  0.0000  0.0000  0.0000
 1036UNL      C 4546   2.363   4.627   1.762  0.0000  0.0000  0.0000
 1036UNL      C 4547   2.357   4.763   1.743  0.0000  0.0000  0.0000
 1036UNL      C 4548   2.288   4.779   1.983  0.0000  0.0000  0.0000
 1036UNL      C 4549   2.321   4.841   1.859  0.0000  0.0000  0.0000
 1037UNL      C 4550   2.383   4.832   1.619  0.0000  0.0000  0.0000
 1038UNL      N 4551   2.253   4.868   2.079  0.0000  0.0000  0.0000
 1038UNL      N 4552   2.308   4.976   1.862  0.0000  0.0000  0.0000
 1038UNL      S 4553   2.263   5.013   2.011  0.0000  0.0000  0.0000
 1039UNL      C 4554   2.416   4.782   1.498  0.0000  0.0000  0.0000
 1039UNL      S 4555   2.443   4.618   1.446  0.0000  0.0000  0.0000
 1039UNL      C 4556   2.430   4.873   1.383  0.0000  0.0000  0.0000
 1039UNL      O 4557   2.417   4.993   1.385  0.0000  0.0000  0.0000
 1039UNL      N 4558   2.465   4.802   1.268  0.0000  0.0000  0.0000
 1039UNL      C 4559   2.476   4.665   1.280  0.0000  0.0000  0.0000
 1039UNL      C 4560   2.478   4.871   1.140  0.0000  0.0000  0.0000
 1039UNL      C 4561   2.346   4.879   1.070  0.0000  0.0000  0.0000
 1039UNL      S 4562   2.513   4.560   1.164  0.0000  0.0000  0.0000
 1040UNL      C 4563   2.394   4.233   2.415  0.0000  0.0000  0.0000
 1040UNL      C 4564   2.520   4.145   2.427  0.0000  0.0000  0.0000
 1040UNL      C 4565   2.588   4.118   2.292  0.0000  0.0000  0.0000
 1040UNL      C 4566   2.655   4.240   2.227  0.0000  0.0000  0.0000
 1040UNL      C 4567   2.733   4.225   2.095  0.0000  0.0000  0.0000
 1040UNL      C 4568   2.635   4.207   1.978  0.0000  0.0000  0.0000
 1040UNL      C 4569   2.718   4.185   1.850  0.0000  0.0000  0.0000
 1040UNL      C 4570   1.917   4.272   2.226  0.0000  0.0000  0.0000
 1040UNL      C 4571   1.816   4.214   2.131  0.0000  0.0000  0.0000
 1040UNL      C 4572   1.866   4.221   1.985  0.0000  0.0000  0.0000
 1040UNL      C 4573   1.756   4.181   1.880  0.0000  0.0000  0.0000
 1040UNL      C 4574   1.817   4.192   1.738  0.0000  0.0000  0.0000
 1040UNL      C 4575   1.708   4.163   1.632  0.0000  0.0000  0.0000
 1040UNL      C 4576   1.758   4.195   1.485  0.0000  0.0000  0.0000
 1041UNL      C 4577   1.524   4.894   5.366  0.0000  0.0000  0.0000
 1041UNL      C 4578   1.539   4.788   5.263  0.0000  0.0000  0.0000
 1041UNL      N 4579   1.468   4.839   5.482  0.0000  0.0000  0.0000
 1041UNL      S 4580   1.483   4.636   5.324  0.0000  0.0000  0.0000
 1041UNL      C 4581   1.438   4.705   5.479  0.0000  0.0000  0.0000
 1041UNL      C 4582   1.446   4.925   5.599  0.0000  0.0000  0.0000
 1041UNL      S 4583   1.371   4.617   5.598  0.0000  0.0000  0.0000
 1041UNL      O 4584   1.557   5.009   5.356  0.0000  0.0000  0.0000
 1041UNL      C 4585   1.584   4.824   5.139  0.0000  0.0000  0.0000
 1042UNL      C 4586   1.611   4.743   5.023  0.0000  0.0000  0.0000
 1042UNL      C 4587   1.610   4.606   5.016  0.0000  0.0000  0.0000
 1042UNL      C 4588   1.645   4.811   4.902  0.0000  0.0000  0.0000
 1042UNL      C 4589   1.637   4.535   4.897  0.0000  0.0000  0.0000
 1042UNL      C 4590   1.669   4.596   4.776  0.0000  0.0000  0.0000
 1042UNL      C 4591   1.673   4.740   4.781  0.0000  0.0000  0.0000
 1042UNL      N 4592   1.654   4.945   4.888  0.0000  0.0000  0.0000
 1042UNL      N 4593   1.704   4.822   4.678  0.0000  0.0000  0.0000
 1042UNL      S 4594   1.697   4.973   4.734  0.0000  0.0000  0.0000
 1043UNL      C 4595   1.701   4.521   4.658  0.0000  0.0000  0.0000
 1043UNL      C 4596   1.706   4.384   4.645  0.0000  0.0000  0.0000
 1043UNL      C 4597   1.748   4.343   4.517  0.0000  0.0000  0.0000
 1043UNL      C 4598   1.773   4.449   4.434  0.0000  0.0000  0.0000
 1043UNL      S 4599   1.746   4.599   4.508  0.0000  0.0000  0.0000
 1044UNL      C 4600   1.824   4.403   4.306  0.0000  0.0000  0.0000
 1044UNL      C 4601   1.829   4.263   4.313  0.0000  0.0000  0.0000
 1045UNL      C 4602   1.778   4.210   4.449  0.0000  0.0000  0.0000
 1046UNL      C 4603   1.876   4.190   4.206  0.0000  0.0000  0.0000
 1047UNL      C 4604   1.650   4.125   4.428  0.0000  0.0000  0.0000
 1047UNL      C 4605   1.885   4.130   4.523  0.0000  0.0000  0.0000
 1047UNL      C 4606   2.011   4.203   4.557  0.0000  0.0000  0.0000
 1047UNL      C 4607   1.538   4.195   4.356  0.0000  0.0000  0.0000
 1047UNL      C 4608   2.116   4.114   4.618  0.0000  0.0000  0.0000
 1047UNL      C 4609   2.243   4.184   4.654  0.0000  0.0000  0.0000
 1047UNL      C 4610   2.357   4.104   4.710  0.0000  0.0000  0.0000
 1047UNL      C 4611   2.379   3.957   4.689  0.0000  0.0000  0.0000
 1047UNL      C 4612   2.487   3.853   4.686  0.0000  0.0000  0.0000
 1047UNL      C 4613   2.466   3.732   4.771  0.0000  0.0000  0.0000
 1047UNL      C 4614   1.412   4.115   4.332  0.0000  0.0000  0.0000
 1047UNL      C 4615   1.309   4.195   4.256  0.0000  0.0000  0.0000
 1047UNL      C 4616   1.175   4.130   4.235  0.0000  0.0000  0.0000
 1047UNL      C 4617   1.078   4.221   4.164  0.0000  0.0000  0.0000
 1047UNL      C 4618   0.947   4.151   4.140  0.0000  0.0000  0.0000
 1047UNL      C 4619   0.860   4.149   4.264  0.0000  0.0000  0.0000
 1048UNL      C 4620   1.863   4.472   4.193  0.0000  0.0000  0.0000
 1048UNL      C 4621   1.910   4.400   4.086  0.0000  0.0000  0.0000
 1049UNL      C 4622   1.571   4.930   5.686  0.0000  0.0000  0.0000
 1050UNL      C 4623   1.916   4.259   4.093  0.0000  0.0000  0.0000
 1051UNL      C 4624   1.970   4.214   3.964  0.0000  0.0000  0.0000
 1052UNL      C 4625   1.960   4.453   3.951  0.0000  0.0000  0.0000
 1053UNL      C 4626   1.996   4.323   3.883  0.0000  0.0000  0.0000
 1054UNL      C 4627   1.848   4.528   3.876  0.0000  0.0000  0.0000
 1054UNL      C 4628   2.083   4.546   3.969  0.0000  0.0000  0.0000
 1055UNL      S 4629   2.006   4.066   3.888  0.0000  0.0000  0.0000
 1055UNL      C 4630   2.056   4.149   3.742  0.0000  0.0000  0.0000
 1055UNL      C 4631   2.045   4.286   3.758  0.0000  0.0000  0.0000
 1056UNL      C 4632   2.096   4.080   3.622  0.0000  0.0000  0.0000
 1056UNL      C 4633   2.139   4.152   3.511  0.0000  0.0000  0.0000
 1056UNL      C 4634   2.168   4.090   3.386  0.0000  0.0000  0.0000
 1056UNL      C 4635   2.162   3.954   3.367  0.0000  0.0000  0.0000
 1056UNL      C 4636   2.093   3.938   3.607  0.0000  0.0000  0.0000
 1056UNL      C 4637   2.126   3.876   3.483  0.0000  0.0000  0.0000
 1057UNL      C 4638   2.188   3.885   3.219  0.0000  0.0000  0.0000
 1058UNL      N 4639   2.058   3.849   3.702  0.0000  0.0000  0.0000
 1058UNL      N 4640   2.113   3.741   3.486  0.0000  0.0000  0.0000
 1058UNL      S 4641   2.068   3.704   3.635  0.0000  0.0000  0.0000
 1059UNL      C 4642   2.221   3.935   3.098  0.0000  0.0000  0.0000
 1059UNL      S 4643   2.249   4.099   3.047  0.0000  0.0000  0.0000
 1059UNL      C 4644   2.236   3.845   2.984  0.0000  0.0000  0.0000
 1059UNL      O 4645   2.222   3.724   2.985  0.0000  0.0000  0.0000
 1059UNL      N 4646   2.271   3.915   2.869  0.0000  0.0000  0.0000
 1059UNL      C 4647   2.282   4.052   2.880  0.0000  0.0000  0.0000
 1059UNL      C 4648   2.283   3.847   2.740  0.0000  0.0000  0.0000
 1059UNL      C 4649   2.152   3.838   2.670  0.0000  0.0000  0.0000
 1059UNL      S 4650   2.318   4.158   2.765  0.0000  0.0000  0.0000
 1060UNL      C 4651   2.199   4.484   4.039  0.0000  0.0000  0.0000
 1060UNL      C 4652   2.325   4.572   4.051  0.0000  0.0000  0.0000
 1060UNL      C 4653   2.393   4.599   3.916  0.0000  0.0000  0.0000
 1060UNL      C 4654   2.460   4.477   3.851  0.0000  0.0000  0.0000
 1060UNL      C 4655   2.538   4.492   3.719  0.0000  0.0000  0.0000
 1060UNL      C 4656   2.440   4.511   3.602  0.0000  0.0000  0.0000
 1060UNL      C 4657   2.523   4.532   3.474  0.0000  0.0000  0.0000
 1060UNL      C 4658   1.722   4.445   3.849  0.0000  0.0000  0.0000
 1060UNL      C 4659   1.621   4.503   3.755  0.0000  0.0000  0.0000
 1060UNL      C 4660   1.671   4.496   3.609  0.0000  0.0000  0.0000
 1060UNL      C 4661   1.562   4.536   3.504  0.0000  0.0000  0.0000
 1060UNL      C 4662   1.622   4.525   3.362  0.0000  0.0000  0.0000
 1060UNL      C 4663   1.513   4.554   3.256  0.0000  0.0000  0.0000
 1060UNL      C 4664   1.563   4.522   3.109  0.0000  0.0000  0.0000
 1061UNL      C 4665   1.629   4.101   2.731  0.0000  0.0000  0.0000
 1061UNL      C 4666   1.615   3.996   2.834  0.0000  0.0000  0.0000
 1061UNL      N 4667   1.685   4.046   2.615  0.0000  0.0000  0.0000
 1061UNL      S 4668   1.670   3.844   2.773  0.0000  0.0000  0.0000
 1061UNL      C 4669   1.715   3.912   2.618  0.0000  0.0000  0.0000
 1061UNL      C 4670   1.708   4.133   2.498  0.0000  0.0000  0.0000
 1061UNL      S 4671   1.782   3.824   2.499  0.0000  0.0000  0.0000
 1061UNL      O 4672   1.597   4.216   2.741  0.0000  0.0000  0.0000
 1061UNL      C 4673   1.569   4.031   2.958  0.0000  0.0000  0.0000
 1062UNL      C 4674   1.542   3.950   3.074  0.0000  0.0000  0.0000
 1062UNL      C 4675   1.544   3.813   3.081  0.0000  0.0000  0.0000
 1062UNL      C 4676   1.509   4.018   3.194  0.0000  0.0000  0.0000
 1062UNL      C 4677   1.516   3.743   3.200  0.0000  0.0000  0.0000
 1062UNL      C 4678   1.484   3.804   3.344  0.0000  0.0000  0.0000
 1062UNL      C 4679   1.481   3.948   3.339  0.0000  0.0000  0.0000
 1062UNL      N 4680   1.499   4.153   3.209  0.0000  0.0000  0.0000
 1062UNL      N 4681   1.449   4.029   3.442  0.0000  0.0000  0.0000
 1062UNL      S 4682   1.456   4.181   3.386  0.0000  0.0000  0.0000
 1063UNL      C 4683   1.453   3.728   3.462  0.0000  0.0000  0.0000
 1063UNL      C 4684   1.447   3.591   3.475  0.0000  0.0000  0.0000
 1063UNL      C 4685   1.405   3.550   3.603  0.0000  0.0000  0.0000
 1063UNL      C 4686   1.380   3.656   3.686  0.0000  0.0000  0.0000
 1063UNL      S 4687   1.407   3.807   3.612  0.0000  0.0000  0.0000
 1064UNL      C 4688   1.330   3.611   3.815  0.0000  0.0000  0.0000
 1064UNL      C 4689   1.324   3.470   3.807  0.0000  0.0000  0.0000
 1065UNL      C 4690   1.376   3.418   3.671  0.0000  0.0000  0.0000
 1066UNL      C 4691   1.277   3.397   3.914  0.0000  0.0000  0.0000
 1067UNL      C 4692   1.503   3.333   3.692  0.0000  0.0000  0.0000
 1067UNL      C 4693   1.268   3.338   3.597  0.0000  0.0000  0.0000
 1067UNL      C 4694   1.142   3.411   3.563  0.0000  0.0000  0.0000
 1067UNL      C 4695   1.616   3.403   3.764  0.0000  0.0000  0.0000
 1067UNL      C 4696   1.038   3.322   3.503  0.0000  0.0000  0.0000
 1067UNL      C 4697   0.910   3.391   3.466  0.0000  0.0000  0.0000
 1067UNL      C 4698   0.796   3.311   3.410  0.0000  0.0000  0.0000
 1067UNL      C 4699   0.774   3.165   3.432  0.0000  0.0000  0.0000
 1067UNL      C 4700   0.666   3.061   3.434  0.0000  0.0000  0.0000
 1067UNL      C 4701   0.687   2.939   3.349  0.0000  0.0000  0.0000
 1067UNL      C 4702   1.742   3.323   3.788  0.0000  0.0000  0.0000
 1067UNL      C 4703   1.844   3.402   3.865  0.0000  0.0000  0.0000
 1067UNL      C 4704   1.979   3.337   3.885  0.0000  0.0000  0.0000
 1067UNL      C 4705   2.075   3.428   3.956  0.0000  0.0000  0.0000
 1067UNL      C 4706   2.207   3.359   3.980  0.0000  0.0000  0.0000
 1067UNL      C 4707   2.293   3.357   3.856  0.0000  0.0000  0.0000
 1068UNL      C 4708   1.291   3.680   3.927  0.0000  0.0000  0.0000
 1068UNL      C 4709   1.243   3.608   4.034  0.0000  0.0000  0.0000
 1069UNL      C 4710   1.582   4.137   2.411  0.0000  0.0000  0.0000
 1070UNL      C 4711   1.237   3.466   4.028  0.0000  0.0000  0.0000
 1071UNL      C 4712   1.183   3.422   4.156  0.0000  0.0000  0.0000
 1072UNL      C 4713   1.193   3.661   4.169  0.0000  0.0000  0.0000
 1073UNL      C 4714   1.157   3.530   4.237  0.0000  0.0000  0.0000
 1074UNL      C 4715   1.305   3.736   4.244  0.0000  0.0000  0.0000
 1074UNL      C 4716   1.070   3.754   4.151  0.0000  0.0000  0.0000
 1075UNL      S 4717   1.148   3.274   4.232  0.0000  0.0000  0.0000
 1075UNL      C 4718   1.098   3.357   4.378  0.0000  0.0000  0.0000
 1075UNL      C 4719   1.109   3.494   4.363  0.0000  0.0000  0.0000
 1076UNL      C 4720   1.057   3.288   4.498  0.0000  0.0000  0.0000
 1076UNL      C 4721   1.015   3.360   4.609  0.0000  0.0000  0.0000
 1076UNL      C 4722   0.985   3.298   4.735  0.0000  0.0000  0.0000
 1076UNL      C 4723   0.991   3.161   4.753  0.0000  0.0000  0.0000
 1076UNL      C 4724   1.060   3.146   4.513  0.0000  0.0000  0.0000
 1076UNL      C 4725   1.027   3.084   4.638  0.0000  0.0000  0.0000
 1077UNL      C 4726   0.965   3.092   4.877  0.0000  0.0000  0.0000
 1078UNL      N 4727   1.095   3.057   4.418  0.0000  0.0000  0.0000
 1078UNL      N 4728   1.040   2.949   4.634  0.0000  0.0000  0.0000
 1078UNL      S 4729   1.086   2.912   4.485  0.0000  0.0000  0.0000
 1079UNL      C 4730   0.932   3.143   4.999  0.0000  0.0000  0.0000
 1079UNL      S 4731   0.905   3.307   5.050  0.0000  0.0000  0.0000
 1079UNL      C 4732   0.918   3.052   5.113  0.0000  0.0000  0.0000
 1079UNL      O 4733   0.931   2.932   5.112  0.0000  0.0000  0.0000
 1079UNL      N 4734   0.883   3.123   5.228  0.0000  0.0000  0.0000
 1079UNL      C 4735   0.872   3.260   5.217  0.0000  0.0000  0.0000
 1079UNL      C 4736   0.871   3.054   5.357  0.0000  0.0000  0.0000
 1079UNL      C 4737   1.002   3.045   5.427  0.0000  0.0000  0.0000
 1079UNL      S 4738   0.835   3.365   5.332  0.0000  0.0000  0.0000
 1080UNL      C 4739   0.954   3.691   4.081  0.0000  0.0000  0.0000
 1080UNL      C 4740   0.828   3.780   4.070  0.0000  0.0000  0.0000
 1080UNL      C 4741   0.760   3.807   4.205  0.0000  0.0000  0.0000
 1080UNL      C 4742   0.693   3.684   4.269  0.0000  0.0000  0.0000
 1080UNL      C 4743   0.616   3.700   4.401  0.0000  0.0000  0.0000
 1080UNL      C 4744   0.713   3.718   4.518  0.0000  0.0000  0.0000
 1080UNL      C 4745   0.631   3.740   4.646  0.0000  0.0000  0.0000
 1080UNL      C 4746   1.431   3.652   4.271  0.0000  0.0000  0.0000
 1080UNL      C 4747   1.532   3.711   4.365  0.0000  0.0000  0.0000
 1080UNL      C 4748   1.482   3.704   4.512  0.0000  0.0000  0.0000
 1080UNL      C 4749   1.592   3.743   4.616  0.0000  0.0000  0.0000
 1080UNL      C 4750   1.531   3.733   4.758  0.0000  0.0000  0.0000
 1080UNL      C 4751   1.640   3.761   4.864  0.0000  0.0000  0.0000
 1080UNL      C 4752   1.590   3.729   5.011  0.0000  0.0000  0.0000
 1081UNL      C 4753   1.434   3.031   4.379  0.0000  0.0000  0.0000
 1081UNL      C 4754   1.419   3.136   4.482  0.0000  0.0000  0.0000
 1081UNL      N 4755   1.490   3.086   4.262  0.0000  0.0000  0.0000
 1081UNL      S 4756   1.475   3.289   4.420  0.0000  0.0000  0.0000
 1081UNL      C 4757   1.520   3.220   4.265  0.0000  0.0000  0.0000
 1081UNL      C 4758   1.512   3.000   4.146  0.0000  0.0000  0.0000
 1081UNL      S 4759   1.587   3.308   4.147  0.0000  0.0000  0.0000
 1081UNL      O 4760   1.401   2.916   4.388  0.0000  0.0000  0.0000
 1081UNL      C 4761   1.374   3.101   4.605  0.0000  0.0000  0.0000
 1082UNL      C 4762   1.347   3.182   4.722  0.0000  0.0000  0.0000
 1082UNL      C 4763   1.348   3.319   4.729  0.0000  0.0000  0.0000
 1082UNL      C 4764   1.314   3.114   4.842  0.0000  0.0000  0.0000
 1082UNL      C 4765   1.321   3.390   4.847  0.0000  0.0000  0.0000
 1082UNL      C 4766   1.289   3.328   4.968  0.0000  0.0000  0.0000
 1082UNL      C 4767   1.285   3.185   4.963  0.0000  0.0000  0.0000
 1082UNL      N 4768   1.304   2.979   4.856  0.0000  0.0000  0.0000
 1082UNL      N 4769   1.254   3.103   5.067  0.0000  0.0000  0.0000
 1082UNL      S 4770   1.261   2.952   5.010  0.0000  0.0000  0.0000
 1083UNL      C 4771   1.258   3.404   5.087  0.0000  0.0000  0.0000
 1083UNL      C 4772   1.252   3.541   5.100  0.0000  0.0000  0.0000
 1083UNL      C 4773   1.210   3.582   5.227  0.0000  0.0000  0.0000
 1083UNL      C 4774   1.185   3.476   5.310  0.0000  0.0000  0.0000
 1083UNL      S 4775   1.212   3.325   5.237  0.0000  0.0000  0.0000
 1084UNL      C 4776   1.134   3.521   5.439  0.0000  0.0000  0.0000
 1084UNL      C 4777   1.129   3.662   5.432  0.0000  0.0000  0.0000
 1085UNL      C 4778   1.181   3.715   5.295  0.0000  0.0000  0.0000
 1086UNL      C 4779   1.082   3.735   5.538  0.0000  0.0000  0.0000
 1087UNL      C 4780   1.308   3.800   5.317  0.0000  0.0000  0.0000
 1087UNL      C 4781   1.073   3.794   5.221  0.0000  0.0000  0.0000
 1087UNL      C 4782   0.947   3.722   5.187  0.0000  0.0000  0.0000
 1087UNL      C 4783   1.421   3.730   5.389  0.0000  0.0000  0.0000
 1087UNL      C 4784   0.843   3.811   5.127  0.0000  0.0000  0.0000
 1087UNL      C 4785   0.715   3.741   5.090  0.0000  0.0000  0.0000
 1087UNL      C 4786   0.601   3.821   5.034  0.0000  0.0000  0.0000
 1087UNL      C 4787   0.579   3.968   5.056  0.0000  0.0000  0.0000
 1087UNL      C 4788   0.471   4.071   5.058  0.0000  0.0000  0.0000
 1087UNL      C 4789   0.492   4.193   4.973  0.0000  0.0000  0.0000
 1087UNL      C 4790   1.547   3.810   5.412  0.0000  0.0000  0.0000
 1087UNL      C 4791   1.649   3.730   5.489  0.0000  0.0000  0.0000
 1087UNL      C 4792   1.784   3.795   5.509  0.0000  0.0000  0.0000
 1087UNL      C 4793   1.880   3.704   5.580  0.0000  0.0000  0.0000
 1087UNL      C 4794   2.012   3.774   5.604  0.0000  0.0000  0.0000
 1087UNL      C 4795   2.098   3.775   5.481  0.0000  0.0000  0.0000
 1088UNL      C 4796   1.095   3.452   5.551  0.0000  0.0000  0.0000
 1088UNL      C 4797   1.048   3.524   5.658  0.0000  0.0000  0.0000
 1089UNL      C 4798   1.387   2.995   4.059  0.0000  0.0000  0.0000
 1090UNL      C 4799   1.042   3.666   5.652  0.0000  0.0000  0.0000
 1091UNL      C 4800   0.988   3.710   5.780  0.0000  0.0000  0.0000
 1092UNL      C 4801   0.998   3.472   5.793  0.0000  0.0000  0.0000
 1093UNL      C 4802   0.962   3.602   5.861  0.0000  0.0000  0.0000
 1094UNL      C 4803   1.110   3.397   5.869  0.0000  0.0000  0.0000
 1094UNL      C 4804   0.875   3.379   5.776  0.0000  0.0000  0.0000
 1095UNL      S 4805   0.952   3.859   5.857  0.0000  0.0000  0.0000
 1095UNL      C 4806   0.903   3.776   6.002  0.0000  0.0000  0.0000
 1095UNL      C 4807   0.914   3.639   5.987  0.0000  0.0000  0.0000
 1096UNL      C 4808   0.862   3.844   6.122  0.0000  0.0000  0.0000
 1096UNL      C 4809   0.820   3.773   6.233  0.0000  0.0000  0.0000
 1096UNL      C 4810   0.790   3.834   6.359  0.0000  0.0000  0.0000
 1096UNL      C 4811   0.796   3.971   6.377  0.0000  0.0000  0.0000
 1096UNL      C 4812   0.865   3.987   6.137  0.0000  0.0000  0.0000
 1096UNL      C 4813   0.832   4.048   6.262  0.0000  0.0000  0.0000
 1097UNL      C 4814   0.770   4.040   6.525  0.0000  0.0000  0.0000
 1098UNL      N 4815   0.900   4.075   6.042  0.0000  0.0000  0.0000
 1098UNL      N 4816   0.845   4.184   6.258  0.0000  0.0000  0.0000
 1098UNL      S 4817   0.891   4.221   6.110  0.0000  0.0000  0.0000
 1099UNL      C 4818   0.737   3.990   6.646  0.0000  0.0000  0.0000
 1099UNL      S 4819   0.710   3.825   6.698  0.0000  0.0000  0.0000
 1099UNL      C 4820   0.722   4.080   6.761  0.0000  0.0000  0.0000
 1099UNL      O 4821   0.736   4.201   6.759  0.0000  0.0000  0.0000
 1099UNL      N 4822   0.688   4.010   6.876  0.0000  0.0000  0.0000
 1099UNL      C 4823   0.677   3.873   6.864  0.0000  0.0000  0.0000
 1099UNL      C 4824   0.675   4.078   7.005  0.0000  0.0000  0.0000
 1099UNL      C 4825   0.807   4.087   7.074  0.0000  0.0000  0.0000
 1099UNL      S 4826   0.640   3.767   6.980  0.0000  0.0000  0.0000
 1100UNL      C 4827   0.759   3.441   5.705  0.0000  0.0000  0.0000
 1100UNL      C 4828   0.633   3.353   5.694  0.0000  0.0000  0.0000
 1100UNL      C 4829   0.565   3.325   5.829  0.0000  0.0000  0.0000
 1100UNL      C 4830   0.498   3.448   5.893  0.0000  0.0000  0.0000
 1100UNL      C 4831   0.420   3.433   6.025  0.0000  0.0000  0.0000
 1100UNL      C 4832   0.518   3.414   6.143  0.0000  0.0000  0.0000
 1100UNL      C 4833   0.436   3.393   6.270  0.0000  0.0000  0.0000
 1100UNL      C 4834   1.236   3.480   5.895  0.0000  0.0000  0.0000
 1100UNL      C 4835   1.337   3.422   5.990  0.0000  0.0000  0.0000
 1100UNL      C 4836   1.287   3.429   6.136  0.0000  0.0000  0.0000
 1100UNL      C 4837   1.397   3.389   6.241  0.0000  0.0000  0.0000
 1100UNL      C 4838   1.336   3.399   6.383  0.0000  0.0000  0.0000
 1100UNL      C 4839   1.445   3.371   6.488  0.0000  0.0000  0.0000
 1100UNL      C 4840   1.395   3.403   6.635  0.0000  0.0000  0.0000
 1101UNL      C 4841   1.329   3.824   7.013  0.0000  0.0000  0.0000
 1101UNL      C 4842   1.343   3.929   6.910  0.0000  0.0000  0.0000
 1101UNL      N 4843   1.273   3.879   7.130  0.0000  0.0000  0.0000
 1101UNL      S 4844   1.288   4.081   6.972  0.0000  0.0000  0.0000
 1101UNL      C 4845   1.243   4.013   7.127  0.0000  0.0000  0.0000
 1101UNL      C 4846   1.251   3.792   7.246  0.0000  0.0000  0.0000
 1101UNL      S 4847   1.176   4.101   7.245  0.0000  0.0000  0.0000
 1101UNL      O 4848   1.361   3.708   7.004  0.0000  0.0000  0.0000
 1101UNL      C 4849   1.389   3.894   6.787  0.0000  0.0000  0.0000
 1102UNL      C 4850   1.416   3.975   6.670  0.0000  0.0000  0.0000
 1102UNL      C 4851   1.415   4.112   6.663  0.0000  0.0000  0.0000
 1102UNL      C 4852   1.449   3.907   6.550  0.0000  0.0000  0.0000
 1102UNL      C 4853   1.442   4.182   6.545  0.0000  0.0000  0.0000
 1102UNL      C 4854   1.474   4.121   6.401  0.0000  0.0000  0.0000
 1102UNL      C 4855   1.478   3.977   6.406  0.0000  0.0000  0.0000
 1102UNL      N 4856   1.459   3.772   6.536  0.0000  0.0000  0.0000
 1102UNL      N 4857   1.509   3.895   6.302  0.0000  0.0000  0.0000
 1102UNL      S 4858   1.502   3.744   6.359  0.0000  0.0000  0.0000
 1103UNL      C 4859   1.506   4.196   6.282  0.0000  0.0000  0.0000
 1103UNL      C 4860   1.511   4.334   6.269  0.0000  0.0000  0.0000
 1103UNL      C 4861   1.553   4.374   6.141  0.0000  0.0000  0.0000
 1103UNL      C 4862   1.578   4.269   6.058  0.0000  0.0000  0.0000
 1103UNL      S 4863   1.551   4.118   6.132  0.0000  0.0000  0.0000
 1104UNL      C 4864   1.629   4.314   5.930  0.0000  0.0000  0.0000
 1104UNL      C 4865   1.634   4.455   5.937  0.0000  0.0000  0.0000
 1105UNL      C 4866   1.582   4.507   6.073  0.0000  0.0000  0.0000
 1106UNL      C 4867   1.681   4.528   5.831  0.0000  0.0000  0.0000
 1107UNL      C 4868   1.455   4.592   6.052  0.0000  0.0000  0.0000
 1107UNL      C 4869   1.690   4.587   6.147  0.0000  0.0000  0.0000
 1107UNL      C 4870   1.816   4.514   6.181  0.0000  0.0000  0.0000
 1107UNL      C 4871   1.342   4.522   5.980  0.0000  0.0000  0.0000
 1107UNL      C 4872   1.920   4.603   6.242  0.0000  0.0000  0.0000
 1107UNL      C 4873   2.048   4.534   6.278  0.0000  0.0000  0.0000
 1107UNL      C 4874   2.162   4.613   6.335  0.0000  0.0000  0.0000
 1107UNL      C 4875   2.184   4.760   6.313  0.0000  0.0000  0.0000
 1107UNL      C 4876   2.292   4.864   6.311  0.0000  0.0000  0.0000
 1107UNL      C 4877   2.271   4.985   6.395  0.0000  0.0000  0.0000
 1107UNL      C 4878   1.217   4.602   5.956  0.0000  0.0000  0.0000
 1107UNL      C 4879   1.114   4.523   5.880  0.0000  0.0000  0.0000
 1107UNL      C 4880   0.979   4.588   5.859  0.0000  0.0000  0.0000
 1107UNL      C 4881   0.883   4.497   5.788  0.0000  0.0000  0.0000
 1107UNL      C 4882   0.751   4.566   5.764  0.0000  0.0000  0.0000
 1107UNL      C 4883   0.665   4.568   5.888  0.0000  0.0000  0.0000
 1108UNL      C 4884   1.668   4.245   5.817  0.0000  0.0000  0.0000
 1108UNL      C 4885   1.715   4.317   5.711  0.0000  0.0000  0.0000
 1109UNL      C 4886   1.376   3.787   7.333  0.0000  0.0000  0.0000
 1110UNL      C 4887   1.721   4.459   5.717  0.0000  0.0000  0.0000
 1111UNL      C 4888   1.775   4.503   5.588  0.0000  0.0000  0.0000
 1112UNL      C 4889   1.765   4.264   5.576  0.0000  0.0000  0.0000
 1113UNL      C 4890   1.801   4.395   5.508  0.0000  0.0000  0.0000
 1114UNL      C 4891   1.653   4.189   5.500  0.0000  0.0000  0.0000
 1114UNL      C 4892   1.888   4.171   5.593  0.0000  0.0000  0.0000
 1115UNL      S 4893   1.811   4.651   5.512  0.0000  0.0000  0.0000
 1115UNL      C 4894   1.861   4.568   5.366  0.0000  0.0000  0.0000
 1115UNL      C 4895   1.850   4.431   5.382  0.0000  0.0000  0.0000
 1116UNL      C 4896   1.901   4.637   5.246  0.0000  0.0000  0.0000
 1116UNL      C 4897   1.943   4.565   5.135  0.0000  0.0000  0.0000
 1116UNL      C 4898   1.973   4.627   5.010  0.0000  0.0000  0.0000
 1116UNL      C 4899   1.967   4.763   4.991  0.0000  0.0000  0.0000
 1116UNL      C 4900   1.898   4.779   5.231  0.0000  0.0000  0.0000
 1116UNL      C 4901   1.931   4.841   5.107  0.0000  0.0000  0.0000
 1117UNL      C 4902   1.993   4.832   4.867  0.0000  0.0000  0.0000
 1118UNL      N 4903   1.863   4.868   5.327  0.0000  0.0000  0.0000
 1118UNL      N 4904   1.918   4.976   5.110  0.0000  0.0000  0.0000
 1118UNL      S 4905   1.873   5.013   5.259  0.0000  0.0000  0.0000
 1119UNL      C 4906   2.026   4.782   4.746  0.0000  0.0000  0.0000
 1119UNL      S 4907   2.053   4.618   4.694  0.0000  0.0000  0.0000
 1119UNL      C 4908   2.040   4.873   4.631  0.0000  0.0000  0.0000
 1119UNL      O 4909   2.027   4.993   4.633  0.0000  0.0000  0.0000
 1119UNL      N 4910   2.075   4.802   4.516  0.0000  0.0000  0.0000
 1119UNL      C 4911   2.086   4.665   4.528  0.0000  0.0000  0.0000
 1119UNL      C 4912   2.088   4.871   4.388  0.0000  0.0000  0.0000
 1119UNL      C 4913   1.956   4.879   4.318  0.0000  0.0000  0.0000
 1119UNL      S 4914   2.123   4.560   4.412  0.0000  0.0000  0.0000
 1120UNL      C 4915   2.004   4.233   5.663  0.0000  0.0000  0.0000
 1120UNL      C 4916   2.130   4.145   5.675  0.0000  0.0000  0.0000
 1120UNL      C 4917   2.198   4.118   5.540  0.0000  0.0000  0.0000
 1120UNL      C 4918   2.265   4.240   5.475  0.0000  0.0000  0.0000
 1120UNL      C 4919   2.343   4.225   5.343  0.0000  0.0000  0.0000
 1120UNL      C 4920   2.245   4.207   5.226  0.0000  0.0000  0.0000
 1120UNL      C 4921   2.328   4.185   5.098  0.0000  0.0000  0.0000
 1120UNL      C 4922   1.527   4.272   5.474  0.0000  0.0000  0.0000
 1120UNL      C 4923   1.426   4.214   5.379  0.0000  0.0000  0.0000
 1120UNL      C 4924   1.476   4.221   5.233  0.0000  0.0000  0.0000
 1120UNL      C 4925   1.366   4.181   5.128  0.0000  0.0000  0.0000
 1120UNL      C 4926   1.427   4.192   4.986  0.0000  0.0000  0.0000
 1120UNL      C 4927   1.318   4.163   4.880  0.0000  0.0000  0.0000
 1120UNL      C 4928   1.368   4.195   4.733  0.0000  0.0000  0.0000
 1121UNL      C 4929   1.914   6.478   2.118  0.0000  0.0000  0.0000
 1121UNL      C 4930   1.929   6.372   2.015  0.0000  0.0000  0.0000
 1121UNL      N 4931   1.858   6.423   2.234  0.0000  0.0000  0.0000
 1121UNL      S 4932   1.873   6.220   2.076  0.0000  0.0000  0.0000
 1121UNL      C 4933   1.828   6.289   2.231  0.0000  0.0000  0.0000
 1121UNL      C 4934   1.836   6.509   2.351  0.0000  0.0000  0.0000
 1121UNL      S 4935   1.761   6.201   2.350  0.0000  0.0000  0.0000
 1121UNL      O 4936   1.947   6.593   2.108  0.0000  0.0000  0.0000
 1121UNL      C 4937   1.974   6.408   1.891  0.0000  0.0000  0.0000
 1122UNL      C 4938   2.001   6.327   1.775  0.0000  0.0000  0.0000
 1122UNL      C 4939   2.000   6.190   1.768  0.0000  0.0000  0.0000
 1122UNL      C 4940   2.035   6.395   1.654  0.0000  0.0000  0.0000
 1122UNL      C 4941   2.027   6.119   1.649  0.0000  0.0000  0.0000
 1122UNL      C 4942   2.059   6.180   1.528  0.0000  0.0000  0.0000
 1122UNL      C 4943   2.063   6.324   1.533  0.0000  0.0000  0.0000
 1122UNL      N 4944   2.044   6.529   1.640  0.0000  0.0000  0.0000
 1122UNL      N 4945   2.094   6.406   1.430  0.0000  0.0000  0.0000
 1122UNL      S 4946   2.087   6.557   1.486  0.0000  0.0000  0.0000
 1123UNL      C 4947   2.091   6.105   1.410  0.0000  0.0000  0.0000
 1123UNL      C 4948   2.096   5.968   1.397  0.0000  0.0000  0.0000
 1123UNL      C 4949   2.138   5.927   1.269  0.0000  0.0000  0.0000
 1123UNL      C 4950   2.163   6.033   1.186  0.0000  0.0000  0.0000
 1123UNL      S 4951   2.136   6.183   1.260  0.0000  0.0000  0.0000
 1124UNL      C 4952   2.214   5.987   1.058  0.0000  0.0000  0.0000
 1124UNL      C 4953   2.219   5.847   1.065  0.0000  0.0000  0.0000
 1125UNL      C 4954   2.168   5.794   1.201  0.0000  0.0000  0.0000
 1126UNL      C 4955   2.266   5.774   0.958  0.0000  0.0000  0.0000
 1127UNL      C 4956   2.040   5.709   1.180  0.0000  0.0000  0.0000
 1127UNL      C 4957   2.275   5.714   1.275  0.0000  0.0000  0.0000
 1127UNL      C 4958   2.401   5.787   1.309  0.0000  0.0000  0.0000
 1127UNL      C 4959   1.928   5.779   1.108  0.0000  0.0000  0.0000
 1127UNL      C 4960   2.506   5.698   1.370  0.0000  0.0000  0.0000
 1127UNL      C 4961   2.633   5.768   1.406  0.0000  0.0000  0.0000
 1127UNL      C 4962   2.747   5.688   1.462  0.0000  0.0000  0.0000
 1127UNL      C 4963   2.769   5.541   1.441  0.0000  0.0000  0.0000
 1127UNL      C 4964   2.877   5.437   1.438  0.0000  0.0000  0.0000
 1127UNL      C 4965   2.856   5.316   1.523  0.0000  0.0000  0.0000
 1127UNL      C 4966   1.802   5.699   1.084  0.0000  0.0000  0.0000
 1127UNL      C 4967   1.699   5.779   1.008  0.0000  0.0000  0.0000
 1127UNL      C 4968   1.565   5.714   0.987  0.0000  0.0000  0.0000
 1127UNL      C 4969   1.468   5.805   0.916  0.0000  0.0000  0.0000
 1127UNL      C 4970   1.337   5.735   0.892  0.0000  0.0000  0.0000
 1127UNL      C 4971   1.250   5.733   1.016  0.0000  0.0000  0.0000
 1128UNL      C 4972   2.253   6.056   0.945  0.0000  0.0000  0.0000
 1128UNL      C 4973   2.300   5.984   0.838  0.0000  0.0000  0.0000
 1129UNL      C 4974   1.961   6.514   2.438  0.0000  0.0000  0.0000
 1130UNL      C 4975   2.306   5.843   0.845  0.0000  0.0000  0.0000
 1131UNL      C 4976   2.360   5.798   0.716  0.0000  0.0000  0.0000
 1132UNL      C 4977   2.350   6.037   0.703  0.0000  0.0000  0.0000
 1133UNL      C 4978   2.386   5.907   0.635  0.0000  0.0000  0.0000
 1134UNL      C 4979   2.238   6.112   0.628  0.0000  0.0000  0.0000
 1134UNL      C 4980   2.473   6.130   0.721  0.0000  0.0000  0.0000
 1135UNL      S 4981   2.396   5.650   0.640  0.0000  0.0000  0.0000
 1135UNL      C 4982   2.446   5.733   0.494  0.0000  0.0000  0.0000
 1135UNL      C 4983   2.435   5.870   0.510  0.0000  0.0000  0.0000
 1136UNL      C 4984   2.486   5.664   0.374  0.0000  0.0000  0.0000
 1136UNL      C 4985   2.529   5.736   0.263  0.0000  0.0000  0.0000
 1136UNL      C 4986   2.558   5.674   0.138  0.0000  0.0000  0.0000
 1136UNL      C 4987   2.552   5.538   0.119  0.0000  0.0000  0.0000
 1136UNL      C 4988   2.483   5.522   0.359  0.0000  0.0000  0.0000
 1136UNL      C 4989   2.516   5.460   0.235  0.0000  0.0000  0.0000
 1137UNL      C 4990   2.578   5.469  -0.029  0.0000  0.0000  0.0000
 1138UNL      N 4991   2.448   5.433   0.454  0.0000  0.0000  0.0000
 1138UNL      N 4992   2.503   5.325   0.238  0.0000  0.0000  0.0000
 1138UNL      S 4993   2.458   5.288   0.387  0.0000  0.0000  0.0000
 1139UNL      C 4994   2.611   5.519  -0.150  0.0000  0.0000  0.0000
 1139UNL      S 4995   2.639   5.683  -0.201  0.0000  0.0000  0.0000
 1139UNL      C 4996   2.626   5.429  -0.264  0.0000  0.0000  0.0000
 1139UNL      O 4997   2.612   5.308  -0.263  0.0000  0.0000  0.0000
 1139UNL      N 4998   2.661   5.499  -0.379  0.0000  0.0000  0.0000
 1139UNL      C 4999   2.672   5.636  -0.368  0.0000  0.0000  0.0000
 1139UNL      C 5000   2.673   5.431  -0.508  0.0000  0.0000  0.0000
 1139UNL      C 5001   2.542   5.422  -0.578  0.0000  0.0000  0.0000
 1139UNL      S 5002   2.708   5.742  -0.483  0.0000  0.0000  0.0000
 1140UNL      C 5003   2.589   6.068   0.791  0.0000  0.0000  0.0000
 1140UNL      C 5004   2.715   6.156   0.803  0.0000  0.0000  0.0000
 1140UNL      C 5005   2.783   6.183   0.668  0.0000  0.0000  0.0000
 1140UNL      C 5006   2.850   6.061   0.603  0.0000  0.0000  0.0000
 1140UNL      C 5007   2.928   6.076   0.471  0.0000  0.0000  0.0000
 1140UNL      C 5008   2.830   6.095   0.354  0.0000  0.0000  0.0000
 1140UNL      C 5009   2.913   6.116   0.226  0.0000  0.0000  0.0000
 1140UNL      C 5010   2.112   6.029   0.601  0.0000  0.0000  0.0000
 1140UNL      C 5011   2.011   6.087   0.507  0.0000  0.0000  0.0000
 1140UNL      C 5012   2.061   6.080   0.361  0.0000  0.0000  0.0000
 1140UNL      C 5013   1.952   6.120   0.256  0.0000  0.0000  0.0000
 1140UNL      C 5014   2.012   6.109   0.114  0.0000  0.0000  0.0000
 1140UNL      C 5015   1.903   6.138   0.008  0.0000  0.0000  0.0000
 1140UNL      C 5016   1.953   6.106  -0.139  0.0000  0.0000  0.0000
 1141UNL      C 5017   2.019   5.685  -0.517  0.0000  0.0000  0.0000
 1141UNL      C 5018   2.005   5.580  -0.414  0.0000  0.0000  0.0000
 1141UNL      N 5019   2.075   5.630  -0.633  0.0000  0.0000  0.0000
 1141UNL      S 5020   2.060   5.428  -0.475  0.0000  0.0000  0.0000
 1141UNL      C 5021   2.105   5.496  -0.630  0.0000  0.0000  0.0000
 1141UNL      C 5022   2.098   5.717  -0.750  0.0000  0.0000  0.0000
 1141UNL      S 5023   2.172   5.408  -0.749  0.0000  0.0000  0.0000
 1141UNL      O 5024   1.987   5.800  -0.507  0.0000  0.0000  0.0000
 1141UNL      C 5025   1.959   5.615  -0.290  0.0000  0.0000  0.0000
 1142UNL      C 5026   1.932   5.534  -0.174  0.0000  0.0000  0.0000
 1142UNL      C 5027   1.934   5.397  -0.167  0.0000  0.0000  0.0000
 1142UNL      C 5028   1.899   5.602  -0.054  0.0000  0.0000  0.0000
 1142UNL      C 5029   1.906   5.327  -0.048  0.0000  0.0000  0.0000
 1142UNL      C 5030   1.874   5.388   0.096  0.0000  0.0000  0.0000
 1142UNL      C 5031   1.871   5.532   0.091  0.0000  0.0000  0.0000
 1142UNL      N 5032   1.889   5.737  -0.039  0.0000  0.0000  0.0000
 1142UNL      N 5033   1.839   5.613   0.194  0.0000  0.0000  0.0000
 1142UNL      S 5034   1.846   5.765   0.138  0.0000  0.0000  0.0000
 1143UNL      C 5035   1.843   5.312   0.214  0.0000  0.0000  0.0000
 1143UNL      C 5036   1.837   5.175   0.227  0.0000  0.0000  0.0000
 1143UNL      C 5037   1.795   5.134   0.355  0.0000  0.0000  0.0000
 1143UNL      C 5038   1.770   5.240   0.438  0.0000  0.0000  0.0000
 1143UNL      S 5039   1.797   5.391   0.364  0.0000  0.0000  0.0000
 1144UNL      C 5040   1.720   5.195   0.567  0.0000  0.0000  0.0000
 1144UNL      C 5041   1.714   5.054   0.559  0.0000  0.0000  0.0000
 1145UNL      C 5042   1.766   5.002   0.423  0.0000  0.0000  0.0000
 1146UNL      C 5043   1.667   4.981   0.666  0.0000  0.0000  0.0000
 1147UNL      C 5044   1.893   4.917   0.444  0.0000  0.0000  0.0000
 1147UNL      C 5045   1.658   4.922   0.349  0.0000  0.0000  0.0000
 1147UNL      C 5046   1.532   4.995   0.315  0.0000  0.0000  0.0000
 1147UNL      C 5047   2.006   4.987   0.516  0.0000  0.0000  0.0000
 1147UNL      C 5048   1.428   4.906   0.255  0.0000  0.0000  0.0000
 1147UNL      C 5049   1.300   4.975   0.218  0.0000  0.0000  0.0000
 1147UNL      C 5050   1.186   4.895   0.162  0.0000  0.0000  0.0000
 1147UNL      C 5051   1.164   4.749   0.184  0.0000  0.0000  0.0000
 1147UNL      C 5052   1.056   4.645   0.186  0.0000  0.0000  0.0000
 1147UNL      C 5053   1.077   4.523   0.101  0.0000  0.0000  0.0000
 1147UNL      C 5054   2.132   4.907   0.540  0.0000  0.0000  0.0000
 1147UNL      C 5055   2.234   4.986   0.617  0.0000  0.0000  0.0000
 1147UNL      C 5056   2.369   4.921   0.637  0.0000  0.0000  0.0000
 1147UNL      C 5057   2.465   5.012   0.708  0.0000  0.0000  0.0000
 1147UNL      C 5058   2.597   4.943   0.732  0.0000  0.0000  0.0000
 1147UNL      C 5059   2.683   4.941   0.608  0.0000  0.0000  0.0000
 1148UNL      C 5060   1.681   5.264   0.679  0.0000  0.0000  0.0000
 1148UNL      C 5061   1.633   5.192   0.786  0.0000  0.0000  0.0000
 1149UNL      C 5062   1.972   5.721  -0.837  0.0000  0.0000  0.0000
 1150UNL      C 5063   1.627   5.050   0.780  0.0000  0.0000  0.0000
 1151UNL      C 5064   1.573   5.006   0.908  0.0000  0.0000  0.0000
 1152UNL      C 5065   1.583   5.245   0.921  0.0000  0.0000  0.0000
 1153UNL      C 5066   1.547   5.114   0.989  0.0000  0.0000  0.0000
 1154UNL      C 5067   1.695   5.320   0.996  0.0000  0.0000  0.0000
 1154UNL      C 5068   1.460   5.338   0.903  0.0000  0.0000  0.0000
 1155UNL      S 5069   1.538   4.858   0.984  0.0000  0.0000  0.0000
 1155UNL      C 5070   1.488   4.941   1.130  0.0000  0.0000  0.0000
 1155UNL      C 5071   1.499   5.078   1.115  0.0000  0.0000  0.0000
 1156UNL      C 5072   1.447   4.872   1.250  0.0000  0.0000  0.0000
 1156UNL      C 5073   1.405   4.944   1.361  0.0000  0.0000  0.0000
 1156UNL      C 5074   1.375   4.882   1.487  0.0000  0.0000  0.0000
 1156UNL      C 5075   1.381   4.745   1.505  0.0000  0.0000  0.0000
 1156UNL      C 5076   1.450   4.730   1.265  0.0000  0.0000  0.0000
 1156UNL      C 5077   1.417   4.668   1.390  0.0000  0.0000  0.0000
 1157UNL      C 5078   1.355   4.676   1.629  0.0000  0.0000  0.0000
 1158UNL      N 5079   1.485   4.641   1.170  0.0000  0.0000  0.0000
 1158UNL      N 5080   1.430   4.533   1.386  0.0000  0.0000  0.0000
 1158UNL      S 5081   1.476   4.496   1.237  0.0000  0.0000  0.0000
 1159UNL      C 5082   1.322   4.727   1.751  0.0000  0.0000  0.0000
 1159UNL      S 5083   1.295   4.891   1.802  0.0000  0.0000  0.0000
 1159UNL      C 5084   1.308   4.636   1.865  0.0000  0.0000  0.0000
 1159UNL      O 5085   1.321   4.516   1.864  0.0000  0.0000  0.0000
 1159UNL      N 5086   1.273   4.707   1.980  0.0000  0.0000  0.0000
 1159UNL      C 5087   1.262   4.844   1.969  0.0000  0.0000  0.0000
 1159UNL      C 5088   1.261   4.638   2.109  0.0000  0.0000  0.0000
 1159UNL      C 5089   1.392   4.629   2.179  0.0000  0.0000  0.0000
 1159UNL      S 5090   1.225   4.949   2.084  0.0000  0.0000  0.0000
 1160UNL      C 5091   1.344   5.275   0.833  0.0000  0.0000  0.0000
 1160UNL      C 5092   1.218   5.364   0.822  0.0000  0.0000  0.0000
 1160UNL      C 5093   1.150   5.391   0.957  0.0000  0.0000  0.0000
 1160UNL      C 5094   1.083   5.268   1.021  0.0000  0.0000  0.0000
 1160UNL      C 5095   1.006   5.284   1.153  0.0000  0.0000  0.0000
 1160UNL      C 5096   1.103   5.302   1.270  0.0000  0.0000  0.0000
 1160UNL      C 5097   1.021   5.324   1.398  0.0000  0.0000  0.0000
 1160UNL      C 5098   1.821   5.236   1.023  0.0000  0.0000  0.0000
 1160UNL      C 5099   1.922   5.295   1.117  0.0000  0.0000  0.0000
 1160UNL      C 5100   1.872   5.288   1.264  0.0000  0.0000  0.0000
 1160UNL      C 5101   1.982   5.327   1.368  0.0000  0.0000  0.0000
 1160UNL      C 5102   1.921   5.317   1.510  0.0000  0.0000  0.0000
 1160UNL      C 5103   2.030   5.345   1.616  0.0000  0.0000  0.0000
 1160UNL      C 5104   1.980   5.313   1.763  0.0000  0.0000  0.0000
 1161UNL      C 5105   1.824   4.615   1.131  0.0000  0.0000  0.0000
 1161UNL      C 5106   1.809   4.720   1.234  0.0000  0.0000  0.0000
 1161UNL      N 5107   1.880   4.670   1.014  0.0000  0.0000  0.0000
 1161UNL      S 5108   1.865   4.873   1.172  0.0000  0.0000  0.0000
 1161UNL      C 5109   1.910   4.804   1.017  0.0000  0.0000  0.0000
 1161UNL      C 5110   1.902   4.584   0.898  0.0000  0.0000  0.0000
 1161UNL      S 5111   1.977   4.892   0.899  0.0000  0.0000  0.0000
 1161UNL      O 5112   1.791   4.500   1.140  0.0000  0.0000  0.0000
 1161UNL      C 5113   1.764   4.685   1.357  0.0000  0.0000  0.0000
 1162UNL      C 5114   1.737   4.766   1.474  0.0000  0.0000  0.0000
 1162UNL      C 5115   1.738   4.903   1.481  0.0000  0.0000  0.0000
 1162UNL      C 5116   1.704   4.698   1.594  0.0000  0.0000  0.0000
 1162UNL      C 5117   1.711   4.974   1.599  0.0000  0.0000  0.0000
 1162UNL      C 5118   1.679   4.912   1.720  0.0000  0.0000  0.0000
 1162UNL      C 5119   1.675   4.769   1.715  0.0000  0.0000  0.0000
 1162UNL      N 5120   1.694   4.563   1.608  0.0000  0.0000  0.0000
 1162UNL      N 5121   1.644   4.687   1.819  0.0000  0.0000  0.0000
 1162UNL      S 5122   1.651   4.536   1.762  0.0000  0.0000  0.0000
 1163UNL      C 5123   1.648   4.988   1.839  0.0000  0.0000  0.0000
 1163UNL      C 5124   1.642   5.125   1.852  0.0000  0.0000  0.0000
 1163UNL      C 5125   1.600   5.166   1.979  0.0000  0.0000  0.0000
 1163UNL      C 5126   1.575   5.060   2.062  0.0000  0.0000  0.0000
 1163UNL      S 5127   1.602   4.909   1.989  0.0000  0.0000  0.0000
 1164UNL      C 5128   1.524   5.105   2.191  0.0000  0.0000  0.0000
 1164UNL      C 5129   1.519   5.246   2.184  0.0000  0.0000  0.0000
 1165UNL      C 5130   1.571   5.299   2.047  0.0000  0.0000  0.0000
 1166UNL      C 5131   1.472   5.319   2.290  0.0000  0.0000  0.0000
 1167UNL      C 5132   1.698   5.384   2.069  0.0000  0.0000  0.0000
 1167UNL      C 5133   1.463   5.378   1.973  0.0000  0.0000  0.0000
 1167UNL      C 5134   1.337   5.306   1.939  0.0000  0.0000  0.0000
 1167UNL      C 5135   1.811   5.314   2.141  0.0000  0.0000  0.0000
 1167UNL      C 5136   1.233   5.395   1.879  0.0000  0.0000  0.0000
 1167UNL      C 5137   1.105   5.325   1.842  0.0000  0.0000  0.0000
 1167UNL      C 5138   0.991   5.405   1.786  0.0000  0.0000  0.0000
 1167UNL      C 5139   0.969   5.552   1.808  0.0000  0.0000  0.0000
 1167UNL      C 5140   0.861   5.655   1.810  0.0000  0.0000  0.0000
 1167UNL      C 5141   0.882   5.777   1.725  0.0000  0.0000  0.0000
 1167UNL      C 5142   1.937   5.394   2.164  0.0000  0.0000  0.0000
 1167UNL      C 5143   2.039   5.314   2.241  0.0000  0.0000  0.0000
 1167UNL      C 5144   2.174   5.379   2.261  0.0000  0.0000  0.0000
 1167UNL      C 5145   2.270   5.288   2.332  0.0000  0.0000  0.0000
 1167UNL      C 5146   2.402   5.358   2.356  0.0000  0.0000  0.0000
 1167UNL      C 5147   2.488   5.359   2.233  0.0000  0.0000  0.0000
 1168UNL      C 5148   1.485   5.036   2.303  0.0000  0.0000  0.0000
 1168UNL      C 5149   1.438   5.108   2.410  0.0000  0.0000  0.0000
 1169UNL      C 5150   1.777   4.579   0.811  0.0000  0.0000  0.0000
 1170UNL      C 5151   1.432   5.250   2.404  0.0000  0.0000  0.0000
 1171UNL      C 5152   1.378   5.294   2.532  0.0000  0.0000  0.0000
 1172UNL      C 5153   1.388   5.056   2.545  0.0000  0.0000  0.0000
 1173UNL      C 5154   1.352   5.186   2.613  0.0000  0.0000  0.0000
 1174UNL      C 5155   1.500   4.981   2.621  0.0000  0.0000  0.0000
 1174UNL      C 5156   1.265   4.963   2.528  0.0000  0.0000  0.0000
 1175UNL      S 5157   1.342   5.443   2.609  0.0000  0.0000  0.0000
 1175UNL      C 5158   1.293   5.360   2.754  0.0000  0.0000  0.0000
 1175UNL      C 5159   1.304   5.223   2.739  0.0000  0.0000  0.0000
 1176UNL      C 5160   1.252   5.428   2.874  0.0000  0.0000  0.0000
 1176UNL      C 5161   1.210   5.357   2.985  0.0000  0.0000  0.0000
 1176UNL      C 5162   1.180   5.418   3.111  0.0000  0.0000  0.0000
 1176UNL      C 5163   1.186   5.555   3.129  0.0000  0.0000  0.0000
 1176UNL      C 5164   1.255   5.571   2.889  0.0000  0.0000  0.0000
 1176UNL      C 5165   1.222   5.632   3.014  0.0000  0.0000  0.0000
 1177UNL      C 5166   1.160   5.624   3.277  0.0000  0.0000  0.0000
 1178UNL      N 5167   1.290   5.659   2.794  0.0000  0.0000  0.0000
 1178UNL      N 5168   1.235   5.768   3.010  0.0000  0.0000  0.0000
 1178UNL      S 5169   1.281   5.805   2.862  0.0000  0.0000  0.0000
 1179UNL      C 5170   1.127   5.574   3.398  0.0000  0.0000  0.0000
 1179UNL      S 5171   1.100   5.409   3.450  0.0000  0.0000  0.0000
 1179UNL      C 5172   1.112   5.664   3.513  0.0000  0.0000  0.0000
 1179UNL      O 5173   1.126   5.785   3.511  0.0000  0.0000  0.0000
 1179UNL      N 5174   1.078   5.594   3.628  0.0000  0.0000  0.0000
 1179UNL      C 5175   1.067   5.457   3.616  0.0000  0.0000  0.0000
 1179UNL      C 5176   1.065   5.662   3.757  0.0000  0.0000  0.0000
 1179UNL      C 5177   1.197   5.671   3.826  0.0000  0.0000  0.0000
 1179UNL      S 5178   1.030   5.351   3.732  0.0000  0.0000  0.0000
 1180UNL      C 5179   1.149   5.025   2.457  0.0000  0.0000  0.0000
 1180UNL      C 5180   1.023   4.937   2.446  0.0000  0.0000  0.0000
 1180UNL      C 5181   0.955   4.909   2.581  0.0000  0.0000  0.0000
 1180UNL      C 5182   0.888   5.032   2.645  0.0000  0.0000  0.0000
 1180UNL      C 5183   0.810   5.017   2.777  0.0000  0.0000  0.0000
 1180UNL      C 5184   0.908   4.998   2.895  0.0000  0.0000  0.0000
 1180UNL      C 5185   0.826   4.977   3.022  0.0000  0.0000  0.0000
 1180UNL      C 5186   1.626   5.064   2.647  0.0000  0.0000  0.0000
 1180UNL      C 5187   1.727   5.006   2.742  0.0000  0.0000  0.0000
 1180UNL      C 5188   1.677   5.013   2.888  0.0000  0.0000  0.0000
 1180UNL      C 5189   1.787   4.973   2.993  0.0000  0.0000  0.0000
 1180UNL      C 5190   1.726   4.983   3.135  0.0000  0.0000  0.0000
 1180UNL      C 5191   1.835   4.955   3.240  0.0000  0.0000  0.0000
 1180UNL      C 5192   1.785   4.987   3.387  0.0000  0.0000  0.0000
 1181UNL      C 5193   1.719   5.408   3.765  0.0000  0.0000  0.0000
 1181UNL      C 5194   1.733   5.513   3.662  0.0000  0.0000  0.0000
 1181UNL      N 5195   1.663   5.463   3.882  0.0000  0.0000  0.0000
 1181UNL      S 5196   1.678   5.665   3.724  0.0000  0.0000  0.0000
 1181UNL      C 5197   1.633   5.597   3.879  0.0000  0.0000  0.0000
 1181UNL      C 5198   1.641   5.376   3.998  0.0000  0.0000  0.0000
 1181UNL      S 5199   1.566   5.685   3.997  0.0000  0.0000  0.0000
 1181UNL      O 5200   1.751   5.292   3.756  0.0000  0.0000  0.0000
 1181UNL      C 5201   1.779   5.478   3.539  0.0000  0.0000  0.0000
 1182UNL      C 5202   1.806   5.559   3.422  0.0000  0.0000  0.0000
 1182UNL      C 5203   1.805   5.696   3.415  0.0000  0.0000  0.0000
 1182UNL      C 5204   1.839   5.491   3.302  0.0000  0.0000  0.0000
 1182UNL      C 5205   1.832   5.766   3.297  0.0000  0.0000  0.0000
 1182UNL      C 5206   1.864   5.705   3.153  0.0000  0.0000  0.0000
 1182UNL      C 5207   1.868   5.561   3.158  0.0000  0.0000  0.0000
 1182UNL      N 5208   1.849   5.356   3.288  0.0000  0.0000  0.0000
 1182UNL      N 5209   1.899   5.479   3.054  0.0000  0.0000  0.0000
 1182UNL      S 5210   1.892   5.328   3.111  0.0000  0.0000  0.0000
 1183UNL      C 5211   1.896   5.780   3.034  0.0000  0.0000  0.0000
 1183UNL      C 5212   1.901   5.918   3.021  0.0000  0.0000  0.0000
 1183UNL      C 5213   1.943   5.958   2.893  0.0000  0.0000  0.0000
 1183UNL      C 5214   1.968   5.853   2.810  0.0000  0.0000  0.0000
 1183UNL      S 5215   1.941   5.702   2.884  0.0000  0.0000  0.0000
 1184UNL      C 5216   2.019   5.898   2.682  0.0000  0.0000  0.0000
 1184UNL      C 5217   2.024   6.039   2.689  0.0000  0.0000  0.0000
 1185UNL      C 5218   1.972   6.091   2.825  0.0000  0.0000  0.0000
 1186UNL      C 5219   2.071   6.112   2.583  0.0000  0.0000  0.0000
 1187UNL      C 5220   1.845   6.176   2.804  0.0000  0.0000  0.0000
 1187UNL      C 5221   2.080   6.171   2.899  0.0000  0.0000  0.0000
 1187UNL      C 5222   2.206   6.098   2.933  0.0000  0.0000  0.0000
 1187UNL      C 5223   1.732   6.106   2.732  0.0000  0.0000  0.0000
 1187UNL      C 5224   2.310   6.187   2.994  0.0000  0.0000  0.0000
 1187UNL      C 5225   2.438   6.118   3.030  0.0000  0.0000  0.0000
 1187UNL      C 5226   2.552   6.197   3.087  0.0000  0.0000  0.0000
 1187UNL      C 5227   2.574   6.344   3.065  0.0000  0.0000  0.0000
 1187UNL      C 5228   2.682   6.448   3.063  0.0000  0.0000  0.0000
 1187UNL      C 5229   2.661   6.569   3.147  0.0000  0.0000  0.0000
 1187UNL      C 5230   1.607   6.186   2.708  0.0000  0.0000  0.0000
 1187UNL      C 5231   1.504   6.107   2.632  0.0000  0.0000  0.0000
 1187UNL      C 5232   1.369   6.172   2.611  0.0000  0.0000  0.0000
 1187UNL      C 5233   1.273   6.081   2.540  0.0000  0.0000  0.0000
 1187UNL      C 5234   1.141   6.150   2.516  0.0000  0.0000  0.0000
 1187UNL      C 5235   1.055   6.152   2.640  0.0000  0.0000  0.0000
 1188UNL      C 5236   2.058   5.829   2.569  0.0000  0.0000  0.0000
 1188UNL      C 5237   2.105   5.901   2.463  0.0000  0.0000  0.0000
 1189UNL      C 5238   1.766   5.371   4.085  0.0000  0.0000  0.0000
 1190UNL      C 5239   2.111   6.043   2.469  0.0000  0.0000  0.0000
 1191UNL      C 5240   2.165   6.087   2.340  0.0000  0.0000  0.0000
 1192UNL      C 5241   2.155   5.848   2.328  0.0000  0.0000  0.0000
 1193UNL      C 5242   2.191   5.979   2.260  0.0000  0.0000  0.0000
 1194UNL      C 5243   2.043   5.773   2.252  0.0000  0.0000  0.0000
 1194UNL      C 5244   2.278   5.755   2.345  0.0000  0.0000  0.0000
 1195UNL      S 5245   2.201   6.235   2.264  0.0000  0.0000  0.0000
 1195UNL      C 5246   2.251   6.152   2.118  0.0000  0.0000  0.0000
 1195UNL      C 5247   2.240   6.015   2.134  0.0000  0.0000  0.0000
 1196UNL      C 5248   2.291   6.221   1.998  0.0000  0.0000  0.0000
 1196UNL      C 5249   2.333   6.149   1.887  0.0000  0.0000  0.0000
 1196UNL      C 5250   2.363   6.211   1.762  0.0000  0.0000  0.0000
 1196UNL      C 5251   2.357   6.347   1.743  0.0000  0.0000  0.0000
 1196UNL      C 5252   2.288   6.363   1.983  0.0000  0.0000  0.0000
 1196UNL      C 5253   2.321   6.425   1.859  0.0000  0.0000  0.0000
 1197UNL      C 5254   2.383   6.416   1.619  0.0000  0.0000  0.0000
 1198UNL      N 5255   2.253   6.452   2.079  0.0000  0.0000  0.0000
 1198UNL      N 5256   2.308   6.560   1.862  0.0000  0.0000  0.0000
 1198UNL      S 5257   2.263   6.597   2.011  0.0000  0.0000  0.0000
 1199UNL      C 5258   2.416   6.366   1.498  0.0000  0.0000  0.0000
 1199UNL      S 5259   2.443   6.202   1.446  0.0000  0.0000  0.0000
 1199UNL      C 5260   2.430   6.457   1.383  0.0000  0.0000  0.0000
 1199UNL      O 5261   2.417   6.577   1.385  0.0000  0.0000  0.0000
 1199UNL      N 5262   2.465   6.386   1.268  0.0000  0.0000  0.0000
 1199UNL      C 5263   2.476   6.249   1.280  0.0000  0.0000  0.0000
 1199UNL      C 5264   2.478   6.455   1.140  0.0000  0.0000  0.0000
 1199UNL      C 5265   2.346   6.463   1.070  0.0000  0.0000  0.0000
 1199UNL      S 5266   2.513   6.144   1.164  0.0000  0.0000  0.0000
 1200UNL      C 5267   2.394   5.817   2.415  0.0000  0.0000  0.0000
 1200UNL      C 5268   2.520   5.729   2.427  0.0000  0.0000  0.0000
 1200UNL      C 5269   2.588   5.702   2.292  0.0000  0.0000  0.0000
 1200UNL      C 5270   2.655   5.824   2.227  0.0000  0.0000  0.0000
 1200UNL      C 5271   2.733   5.809   2.095  0.0000  0.0000  0.0000
 1200UNL      C 5272   2.635   5.791   1.978  0.0000  0.0000  0.0000
 1200UNL      C 5273   2.718   5.769   1.850  0.0000  0.0000  0.0000
 1200UNL      C 5274   1.917   5.856   2.226  0.0000  0.0000  0.0000
 1200UNL      C 5275   1.816   5.798   2.131  0.0000  0.0000  0.0000
 1200UNL      C 5276   1.866   5.805   1.985  0.0000  0.0000  0.0000
 1200UNL      C 5277   1.756   5.765   1.880  0.0000  0.0000  0.0000
 1200UNL      C 5278   1.817   5.776   1.738  0.0000  0.0000  0.0000
 1200UNL      C 5279   1.708   5.747   1.632  0.0000  0.0000  0.0000
 1200UNL      C 5280   1.758   5.779   1.485  0.0000  0.0000  0.0000
 1201UNL      C 5281   1.524   6.478   5.366  0.0000  0.0000  0.0000
 1201UNL      C 5282   1.539   6.372   5.263  0.0000  0.0000  0.0000
 1201UNL      N 5283   1.468   6.423   5.482  0.0000  0.0000  0.0000
 1201UNL      S 5284   1.483   6.220   5.324  0.0000  0.0000  0.0000
 1201UNL      C 5285   1.438   6.289   5.479  0.0000  0.0000  0.0000
 1201UNL      C 5286   1.446   6.509   5.599  0.0000  0.0000  0.0000
 1201UNL      S 5287   1.371   6.201   5.598  0.0000  0.0000  0.0000
 1201UNL      O 5288   1.557   6.593   5.356  0.0000  0.0000  0.0000
 1201UNL      C 5289   1.584   6.408   5.139  0.0000  0.0000  0.0000
 1202UNL      C 5290   1.611   6.327   5.023  0.0000  0.0000  0.0000
 1202UNL      C 5291   1.610   6.190   5.016  0.0000  0.0000  0.0000
 1202UNL      C 5292   1.645   6.395   4.902  0.0000  0.0000  0.0000
 1202UNL      C 5293   1.637   6.119   4.897  0.0000  0.0000  0.0000
 1202UNL      C 5294   1.669   6.180   4.776  0.0000  0.0000  0.0000
 1202UNL      C 5295   1.673   6.324   4.781  0.0000  0.0000  0.0000
 1202UNL      N 5296   1.654   6.529   4.888  0.0000  0.0000  0.0000
 1202UNL      N 5297   1.704   6.406   4.678  0.0000  0.0000  0.0000
 1202UNL      S 5298   1.697   6.557   4.734  0.0000  0.0000  0.0000
 1203UNL      C 5299   1.701   6.105   4.658  0.0000  0.0000  0.0000
 1203UNL      C 5300   1.706   5.968   4.645  0.0000  0.0000  0.0000
 1203UNL      C 5301   1.748   5.927   4.517  0.0000  0.0000  0.0000
 1203UNL      C 5302   1.773   6.033   4.434  0.0000  0.0000  0.0000
 1203UNL      S 5303   1.746   6.183   4.508  0.0000  0.0000  0.0000
 1204UNL      C 5304   1.824   5.987   4.306  0.0000  0.0000  0.0000
 1204UNL      C 5305   1.829   5.847   4.313  0.0000  0.0000  0.0000
 1205UNL      C 5306   1.778   5.794   4.449  0.0000  0.0000  0.0000
 1206UNL      C 5307   1.876   5.774   4.206  0.0000  0.0000  0.0000
 1207UNL      C 5308   1.650   5.709   4.428  0.0000  0.0000  0.0000
 1207UNL      C 5309   1.885   5.714   4.523  0.0000  0.0000  0.0000
 1207UNL      C 5310   2.011   5.787   4.557  0.0000  0.0000  0.0000
 1207UNL      C 5311   1.538   5.779   4.356  0.0000  0.0000  0.0000
 1207UNL      C 5312   2.116   5.698   4.618  0.0000  0.0000  0.0000
 1207UNL      C 5313   2.243   5.768   4.654  0.0000  0.0000  0.0000
 1207UNL      C 5314   2.357   5.688   4.710  0.0000  0.0000  0.0000
 1207UNL      C 5315   2.379   5.541   4.689  0.0000  0.0000  0.0000
 1207UNL      C 5316   2.487   5.437   4.686  0.0000  0.0000  0.0000
 1207UNL      C 5317   2.466   5.316   4.771  0.0000  0.0000  0.0000
 1207UNL      C 5318   1.412   5.699   4.332  0.0000  0.0000  0.0000
 1207UNL      C 5319   1.309   5.779   4.256  0.0000  0.0000  0.0000
 1207UNL      C 5320   1.175   5.714   4.235  0.0000  0.0000  0.0000
 1207UNL      C 5321   1.078   5.805   4.164  0.0000  0.0000  0.0000
 1207UNL      C 5322   0.947   5.735   4.140  0.0000  0.0000  0.0000
 1207UNL      C 5323   0.860   5.733   4.264  0.0000  0.0000  0.0000
 1208UNL      C 5324   1.863   6.056   4.193  0.0000  0.0000  0.0000
 1208UNL      C 5325   1.910   5.984   4.086  0.0000  0.0000  0.0000
 1209UNL      C 5326   1.571   6.514   5.686  0.0000  0.0000  0.0000
 1210UNL      C 5327   1.916   5.843   4.093  0.0000  0.0000  0.0000
 1211UNL      C 5328   1.970   5.798   3.964  0.0000  0.0000  0.0000
 1212UNL      C 5329   1.960   6.037   3.951  0.0000  0.0000  0.0000
 1213UNL      C 5330   1.996   5.907   3.883  0.0000  0.0000  0.0000
 1214UNL      C 5331   1.848   6.112   3.876  0.0000  0.0000  0.0000
 1214UNL      C 5332   2.083   6.130   3.969  0.0000  0.0000  0.0000
 1215UNL      S 5333   2.006   5.650   3.888  0.0000  0.0000  0.0000
 1215UNL      C 5334   2.056   5.733   3.742  0.0000  0.0000  0.0000
 1215UNL      C 5335   2.045   5.870   3.758  0.0000  0.0000  0.0000
 1216UNL      C 5336   2.096   5.664   3.622  0.0000  0.0000  0.0000
 1216UNL      C 5337   2.139   5.736   3.511  0.0000  0.0000  0.0000
 1216UNL      C 5338   2.168   5.674   3.386  0.0000  0.0000  0.0000
 1216UNL      C 5339   2.162   5.538   3.367  0.0000  0.0000  0.0000
 1216UNL      C 5340   2.093   5.522   3.607  0.0000  0.0000  0.0000
 1216UNL      C 5341   2.126   5.460   3.483  0.0000  0.0000  0.0000
 1217UNL      C 5342   2.188   5.469   3.219  0.0000  0.0000  0.0000
 1218UNL      N 5343   2.058   5.433   3.702  0.0000  0.0000  0.0000
 1218UNL      N 5344   2.113   5.325   3.486  0.0000  0.0000  0.0000
 1218UNL      S 5345   2.068   5.288   3.635  0.0000  0.0000  0.0000
 1219UNL      C 5346   2.221   5.519   3.098  0.0000  0.0000  0.0000
 1219UNL      S 5347   2.249   5.683   3.047  0.0000  0.0000  0.0000
 1219UNL      C 5348   2.236   5.429   2.984  0.0000  0.0000  0.0000
 1219UNL      O 5349   2.222   5.308   2.985  0.0000  0.0000  0.0000
 1219UNL      N 5350   2.271   5.499   2.869  0.0000  0.0000  0.0000
 1219UNL      C 5351   2.282   5.636   2.880  0.0000  0.0000  0.0000
 1219UNL      C 5352   2.283   5.431   2.740  0.0000  0.0000  0.0000
 1219UNL      C 5353   2.152   5.422   2.670  0.0000  0.0000  0.0000
 1219UNL      S 5354   2.318   5.742   2.765  0.0000  0.0000  0.0000
 1220UNL      C 5355   2.199   6.068   4.039  0.0000  0.0000  0.0000
 1220UNL      C 5356   2.325   6.156   4.051  0.0000  0.0000  0.0000
 1220UNL      C 5357   2.393   6.183   3.916  0.0000  0.0000  0.0000
 1220UNL      C 5358   2.460   6.061   3.851  0.0000  0.0000  0.0000
 1220UNL      C 5359   2.538   6.076   3.719  0.0000  0.0000  0.0000
 1220UNL      C 5360   2.440   6.095   3.602  0.0000  0.0000  0.0000
 1220UNL      C 5361   2.523   6.116   3.474  0.0000  0.0000  0.0000
 1220UNL      C 5362   1.722   6.029   3.849  0.0000  0.0000  0.0000
 1220UNL      C 5363   1.621   6.087   3.755  0.0000  0.0000  0.0000
 1220UNL      C 5364   1.671   6.080   3.609  0.0000  0.0000  0.0000
 1220UNL      C 5365   1.562   6.120   3.504  0.0000  0.0000  0.0000
 1220UNL      C 5366   1.622   6.109   3.362  0.0000  0.0000  0.0000
 1220UNL      C 5367   1.513   6.138   3.256  0.0000  0.0000  0.0000
 1220UNL      C 5368   1.563   6.106   3.109  0.0000  0.0000  0.0000
 1221UNL      C 5369   1.629   5.685   2.731  0.0000  0.0000  0.0000
 1221UNL      C 5370   1.615   5.580   2.834  0.0000  0.0000  0.0000
 1221UNL      N 5371   1.685   5.630   2.615  0.0000  0.0000  0.0000
 1221UNL      S 5372   1.670   5.428   2.773  0.0000  0.0000  0.0000
 1221UNL      C 5373   1.715   5.496   2.618  0.0000  0.0000  0.0000
 1221UNL      C 5374   1.708   5.717   2.498  0.0000  0.0000  0.0000
 1221UNL      S 5375   1.782   5.408   2.499  0.0000  0.0000  0.0000
 1221UNL      O 5376   1.597   5.800   2.741  0.0000  0.0000  0.0000
 1221UNL      C 5377   1.569   5.615   2.958  0.0000  0.0000  0.0000
 1222UNL      C 5378   1.542   5.534   3.074  0.0000  0.0000  0.0000
 1222UNL      C 5379   1.544   5.397   3.081  0.0000  0.0000  0.0000
 1222UNL      C 5380   1.509   5.602   3.194  0.0000  0.0000  0.0000
 1222UNL      C 5381   1.516   5.327   3.200  0.0000  0.0000  0.0000
 1222UNL      C 5382   1.484   5.388   3.344  0.0000  0.0000  0.0000
 1222UNL      C 5383   1.481   5.532   3.339  0.0000  0.0000  0.0000
 1222UNL      N 5384   1.499   5.737   3.209  0.0000  0.0000  0.0000
 1222UNL      N 5385   1.449   5.613   3.442  0.0000  0.0000  0.0000
 1222UNL      S 5386   1.456   5.765   3.386  0.0000  0.0000  0.0000
 1223UNL      C 5387   1.453   5.312   3.462  0.0000  0.0000  0.0000
 1223UNL      C 5388   1.447   5.175   3.475  0.0000  0.0000  0.0000
 1223UNL      C 5389   1.405   5.134   3.603  0.0000  0.0000  0.0000
 1223UNL      C 5390   1.380   5.240   3.686  0.0000  0.0000  0.0000
 1223UNL      S 5391   1.407   5.391   3.612  0.0000  0.0000  0.0000
 1224UNL      C 5392   1.330   5.195   3.815  0.0000  0.0000  0.0000
 1224UNL      C 5393   1.324   5.054   3.807  0.0000  0.0000  0.0000
 1225UNL      C 5394   1.376   5.002   3.671  0.0000  0.0000  0.0000
 1226UNL      C 5395   1.277   4.981   3.914  0.0000  0.0000  0.0000
 1227UNL      C 5396   1.503   4.917   3.692  0.0000  0.0000  0.0000
 1227UNL      C 5397   1.268   4.922   3.597  0.0000  0.0000  0.0000
 1227UNL      C 5398   1.142   4.995   3.563  0.0000  0.0000  0.0000
 1227UNL      C 5399   1.616   4.987   3.764  0.0000  0.0000  0.0000
 1227UNL      C 5400   1.038   4.906   3.503  0.0000  0.0000  0.0000
 1227UNL      C 5401   0.910   4.975   3.466  0.0000  0.0000  0.0000
 1227UNL      C 5402   0.796   4.895   3.410  0.0000  0.0000  0.0000
 1227UNL      C 5403   0.774   4.749   3.432  0.0000  0.0000  0.0000
 1227UNL      C 5404   0.666   4.645   3.434  0.0000  0.0000  0.0000
 1227UNL      C 5405   0.687   4.523   3.349  0.0000  0.0000  0.0000
 1227UNL      C 5406   1.742   4.907   3.788  0.0000  0.0000  0.0000
 1227UNL      C 5407   1.844   4.986   3.865  0.0000  0.0000  0.0000
 1227UNL      C 5408   1.979   4.921   3.885  0.0000  0.0000  0.0000
 1227UNL      C 5409   2.075   5.012   3.956  0.0000  0.0000  0.0000
 1227UNL      C 5410   2.207   4.943   3.980  0.0000  0.0000  0.0000
 1227UNL      C 5411   2.293   4.941   3.856  0.0000  0.0000  0.0000
 1228UNL      C 5412   1.291   5.264   3.927  0.0000  0.0000  0.0000
 1228UNL      C 5413   1.243   5.192   4.034  0.0000  0.0000  0.0000
 1229UNL      C 5414   1.582   5.721   2.411  0.0000  0.0000  0.0000
 1230UNL      C 5415   1.237   5.050   4.028  0.0000  0.0000  0.0000
 1231UNL      C 5416   1.183   5.006   4.156  0.0000  0.0000  0.0000
 1232UNL      C 5417   1.193   5.245   4.169  0.0000  0.0000  0.0000
 1233UNL      C 5418   1.157   5.114   4.237  0.0000  0.0000  0.0000
 1234UNL      C 5419   1.305   5.320   4.244  0.0000  0.0000  0.0000
 1234UNL      C 5420   1.070   5.338   4.151  0.0000  0.0000  0.0000
 1235UNL      S 5421   1.148   4.858   4.232  0.0000  0.0000  0.0000
 1235UNL      C 5422   1.098   4.941   4.378  0.0000  0.0000  0.0000
 1235UNL      C 5423   1.109   5.078   4.363  0.0000  0.0000  0.0000
 1236UNL      C 5424   1.057   4.872   4.498  0.0000  0.0000  0.0000
 1236UNL      C 5425   1.015   4.944   4.609  0.0000  0.0000  0.0000
 1236UNL      C 5426   0.985   4.882   4.735  0.0000  0.0000  0.0000
 1236UNL      C 5427   0.991   4.745   4.753  0.0000  0.0000  0.0000
 1236UNL      C 5428   1.060   4.730   4.513  0.0000  0.0000  0.0000
 1236UNL      C 5429   1.027   4.668   4.638  0.0000  0.0000  0.0000
 1237UNL      C 5430   0.965   4.676   4.877  0.0000  0.0000  0.0000
 1238UNL      N 5431   1.095   4.641   4.418  0.0000  0.0000  0.0000
 1238UNL      N 5432   1.040   4.533   4.634  0.0000  0.0000  0.0000
 1238UNL      S 5433   1.086   4.496   4.485  0.0000  0.0000  0.0000
 1239UNL      C 5434   0.932   4.727   4.999  0.0000  0.0000  0.0000
 1239UNL      S 5435   0.905   4.891   5.050  0.0000  0.0000  0.0000
 1239UNL      C 5436   0.918   4.636   5.113  0.0000  0.0000  0.0000
 1239UNL      O 5437   0.931   4.516   5.112  0.0000  0.0000  0.0000
 1239UNL      N 5438   0.883   4.707   5.228  0.0000  0.0000  0.0000
 1239UNL      C 5439   0.872   4.844   5.217  0.0000  0.0000  0.0000
 1239UNL      C 5440   0.871   4.638   5.357  0.0000  0.0000  0.0000
 1239UNL      C 5441   1.002   4.629   5.427  0.0000  0.0000  0.0000
 1239UNL      S 5442   0.835   4.949   5.332  0.0000  0.0000  0.0000
 1240UNL      C 5443   0.954   5.275   4.081  0.0000  0.0000  0.0000
 1240UNL      C 5444   0.828   5.364   4.070  0.0000  0.0000  0.0000
 1240UNL      C 5445   0.760   5.391   4.205  0.0000  0.0000  0.0000
 1240UNL      C 5446   0.693   5.268   4.269  0.0000  0.0000  0.0000
 1240UNL      C 5447   0.616   5.284   4.401  0.0000  0.0000  0.0000
 1240UNL      C 5448   0.713   5.302   4.518  0.0000  0.0000  0.0000
 1240UNL      C 5449   0.631   5.324   4.646  0.0000  0.0000  0.0000
 1240UNL      C 5450   1.431   5.236   4.271  0.0000  0.0000  0.0000
 1240UNL      C 5451   1.532   5.295   4.365  0.0000  0.0000  0.0000
 1240UNL      C 5452   1.482   5.288   4.512  0.0000  0.0000  0.0000
 1240UNL      C 5453   1.592   5.327   4.616  0.0000  0.0000  0.0000
 1240UNL      C 5454   1.531   5.317   4.758  0.0000  0.0000  0.0000
 1240UNL      C 5455   1.640   5.345   4.864  0.0000  0.0000  0.0000
 1240UNL      C 5456   1.590   5.313   5.011  0.0000  0.0000  0.0000
 1241UNL      C 5457   1.434   4.615   4.379  0.0000  0.0000  0.0000
 1241UNL      C 5458   1.419   4.720   4.482  0.0000  0.0000  0.0000
 1241UNL      N 5459   1.490   4.670   4.262  0.0000  0.0000  0.0000
 1241UNL      S 5460   1.475   4.873   4.420  0.0000  0.0000  0.0000
 1241UNL      C 5461   1.520   4.804   4.265  0.0000  0.0000  0.0000
 1241UNL      C 5462   1.512   4.584   4.146  0.0000  0.0000  0.0000
 1241UNL      S 5463   1.587   4.892   4.147  0.0000  0.0000  0.0000
 1241UNL      O 5464   1.401   4.500   4.388  0.0000  0.0000  0.0000
 1241UNL      C 5465   1.374   4.685   4.605  0.0000  0.0000  0.0000
 1242UNL      C 5466   1.347   4.766   4.722  0.0000  0.0000  0.0000
 1242UNL      C 5467   1.348   4.903   4.729  0.0000  0.0000  0.0000
 1242UNL      C 5468   1.314   4.698   4.842  0.0000  0.0000  0.0000
 1242UNL      C 5469   1.321   4.974   4.847  0.0000  0.0000  0.0000
 1242UNL      C 5470   1.289   4.912   4.968  0.0000  0.0000  0.0000
 1242UNL      C 5471   1.285   4.769   4.963  0.0000  0.0000  0.0000
 1242UNL      N 5472   1.304   4.563   4.856  0.0000  0.0000  0.0000
 1242UNL      N 5473   1.254   4.687   5.067  0.0000  0.0000  0.0000
 1242UNL      S 5474   1.261   4.536   5.010  0.0000  0.0000  0.0000
 1243UNL      C 5475   1.258   4.988   5.087  0.0000  0.0000  0.0000
 1243UNL      C 5476   1.252   5.125   5.100  0.0000  0.0000  0.0000
 1243UNL      C 5477   1.210   5.166   5.227  0.0000  0.0000  0.0000
 1243UNL      C 5478   1.185   5.060   5.310  0.0000  0.0000  0.0000
 1243UNL      S 5479   1.212   4.909   5.237  0.0000  0.0000  0.0000
 1244UNL      C 5480   1.134   5.105   5.439  0.0000  0.0000  0.0000
 1244UNL      C 5481   1.129   5.246   5.432  0.0000  0.0000  0.0000
 1245UNL      C 5482   1.181   5.299   5.295  0.0000  0.0000  0.0000
 1246UNL      C 5483   1.082   5.319   5.538  0.0000  0.0000  0.0000
 1247UNL      C 5484   1.308   5.384   5.317  0.0000  0.0000  0.0000
 1247UNL      C 5485   1.073   5.378   5.221  0.0000  0.0000  0.0000
 1247UNL      C 5486   0.947   5.306   5.187  0.0000  0.0000  0.0000
 1247UNL      C 5487   1.421   5.314   5.389  0.0000  0.0000  0.0000
 1247UNL      C 5488   0.843   5.395   5.127  0.0000  0.0000  0.0000
 1247UNL      C 5489   0.715   5.325   5.090  0.0000  0.0000  0.0000
 1247UNL      C 5490   0.601   5.405   5.034  0.0000  0.0000  0.0000
 1247UNL      C 5491   0.579   5.552   5.056  0.0000  0.0000  0.0000
 1247UNL      C 5492   0.471   5.655   5.058  0.0000  0.0000  0.0000
 1247UNL      C 5493   0.492   5.777   4.973  0.0000  0.0000  0.0000
 1247UNL      C 5494   1.547   5.394   5.412  0.0000  0.0000  0.0000
 1247UNL      C 5495   1.649   5.314   5.489  0.0000  0.0000  0.0000
 1247UNL      C 5496   1.784   5.379   5.509  0.0000  0.0000  0.0000
 1247UNL      C 5497   1.880   5.288   5.580  0.0000  0.0000  0.0000
 1247UNL      C 5498   2.012   5.358   5.604  0.0000  0.0000  0.0000
 1247UNL      C 5499   2.098   5.359   5.481  0.0000  0.0000  0.0000
 1248UNL      C 5500   1.095   5.036   5.551  0.0000  0.0000  0.0000
 1248UNL      C 5501   1.048   5.108   5.658  0.0000  0.0000  0.0000
 1249UNL      C 5502   1.387   4.579   4.059  0.0000  0.0000  0.0000
 1250UNL      C 5503   1.042   5.250   5.652  0.0000  0.0000  0.0000
 1251UNL      C 5504   0.988   5.294   5.780  0.0000  0.0000  0.0000
 1252UNL      C 5505   0.998   5.056   5.793  0.0000  0.0000  0.0000
 1253UNL      C 5506   0.962   5.186   5.861  0.0000  0.0000  0.0000
 1254UNL      C 5507   1.110   4.981   5.869  0.0000  0.0000  0.0000
 1254UNL      C 5508   0.875   4.963   5.776  0.0000  0.0000  0.0000
 1255UNL      S 5509   0.952   5.443   5.857  0.0000  0.0000  0.0000
 1255UNL      C 5510   0.903   5.360   6.002  0.0000  0.0000  0.0000
 1255UNL      C 5511   0.914   5.223   5.987  0.0000  0.0000  0.0000
 1256UNL      C 5512   0.862   5.428   6.122  0.0000  0.0000  0.0000
 1256UNL      C 5513   0.820   5.357   6.233  0.0000  0.0000  0.0000
 1256UNL      C 5514   0.790   5.418   6.359  0.0000  0.0000  0.0000
 1256UNL      C 5515   0.796   5.555   6.377  0.0000  0.0000  0.0000
 1256UNL      C 5516   0.865   5.571   6.137  0.0000  0.0000  0.0000
 1256UNL      C 5517   0.832   5.632   6.262  0.0000  0.0000  0.0000
 1257UNL      C 5518   0.770   5.624   6.525  0.0000  0.0000  0.0000
 1258UNL      N 5519   0.900   5.659   6.042  0.0000  0.0000  0.0000
 1258UNL      N 5520   0.845   5.768   6.258  0.0000  0.0000  0.0000
 1258UNL      S 5521   0.891   5.805   6.110  0.0000  0.0000  0.0000
 1259UNL      C 5522   0.737   5.574   6.646  0.0000  0.0000  0.0000
 1259UNL      S 5523   0.710   5.409   6.698  0.0000  0.0000  0.0000
 1259UNL      C 5524   0.722   5.664   6.761  0.0000  0.0000  0.0000
 1259UNL      O 5525   0.736   5.785   6.759  0.0000  0.0000  0.0000
 1259UNL      N 5526   0.688   5.594   6.876  0.0000  0.0000  0.0000
 1259UNL      C 5527   0.677   5.457   6.864  0.0000  0.0000  0.0000
 1259UNL      C 5528   0.675   5.662   7.005  0.0000  0.0000  0.0000
 1259UNL      C 5529   0.807   5.671   7.074  0.0000  0.0000  0.0000
 1259UNL      S 5530   0.640   5.351   6.980  0.0000  0.0000  0.0000
 1260UNL      C 5531   0.759   5.025   5.705  0.0000  0.0000  0.0000
 1260UNL      C 5532   0.633   4.937   5.694  0.0000  0.0000  0.0000
 1260UNL      C 5533   0.565   4.909   5.829  0.0000  0.0000  0.0000
 1260UNL      C 5534   0.498   5.032   5.893  0.0000  0.0000  0.0000
 1260UNL      C 5535   0.420   5.017   6.025  0.0000  0.0000  0.0000
 1260UNL      C 5536   0.518   4.998   6.143  0.0000  0.0000  0.0000
 1260UNL      C 5537   0.436   4.977   6.270  0.0000  0.0000  0.0000
 1260UNL      C 5538   1.236   5.064   5.895  0.0000  0.0000  0.0000
 1260UNL      C 5539   1.337   5.006   5.990  0.0000  0.0000  0.0000
 1260UNL      C 5540   1.287   5.013   6.136  0.0000  0.0000  0.0000
 1260UNL      C 5541   1.397   4.973   6.241  0.0000  0.0000  0.0000
 1260UNL      C 5542   1.336   4.983   6.383  0.0000  0.0000  0.0000
 1260UNL      C 5543   1.445   4.955   6.488  0.0000  0.0000  0.0000
 1260UNL      C 5544   1.395   4.987   6.635  0.0000  0.0000  0.0000
 1261UNL      C 5545   1.329   5.408   7.013  0.0000  0.0000  0.0000
 1261UNL      C 5546   1.343   5.513   6.910  0.0000  0.0000  0.0000
 1261UNL      N 5547   1.273   5.463   7.130  0.0000  0.0000  0.0000
 1261UNL      S 5548   1.288   5.665   6.972  0.0000  0.0000  0.0000
 1261UNL      C 5549   1.243   5.597   7.127  0.0000  0.0000  0.0000
 1261UNL      C 5550   1.251   5.376   7.246  0.0000  0.0000  0.0000
 1261UNL      S 5551   1.176   5.685   7.245  0.0000  0.0000  0.0000
 1261UNL      O 5552   1.361   5.292   7.004  0.0000  0.0000  0.0000
 1261UNL      C 5553   1.389   5.478   6.787  0.0000  0.0000  0.0000
 1262UNL      C 5554   1.416   5.559   6.670  0.0000  0.0000  0.0000
 1262UNL      C 5555   1.415   5.696   6.663  0.0000  0.0000  0.0000
 1262UNL      C 5556   1.449   5.491   6.550  0.0000  0.0000  0.0000
 1262UNL      C 5557   1.442   5.766   6.545  0.0000  0.0000  0.0000
 1262UNL      C 5558   1.474   5.705   6.401  0.0000  0.0000  0.0000
 1262UNL      C 5559   1.478   5.561   6.406  0.0000  0.0000  0.0000
 1262UNL      N 5560   1.459   5.356   6.536  0.0000  0.0000  0.0000
 1262UNL      N 5561   1.509   5.479   6.302  0.0000  0.0000  0.0000
 1262UNL      S 5562   1.502   5.328   6.359  0.0000  0.0000  0.0000
 1263UNL      C 5563   1.506   5.780   6.282  0.0000  0.0000  0.0000
 1263UNL      C 5564   1.511   5.918   6.269  0.0000  0.0000  0.0000
 1263UNL      C 5565   1.553   5.958   6.141  0.0000  0.0000  0.0000
 1263UNL      C 5566   1.578   5.853   6.058  0.0000  0.0000  0.0000
 1263UNL      S 5567   1.551   5.702   6.132  0.0000  0.0000  0.0000
 1264UNL      C 5568   1.629   5.898   5.930  0.0000  0.0000  0.0000
 1264UNL      C 5569   1.634   6.039   5.937  0.0000  0.0000  0.0000
 1265UNL      C 5570   1.582   6.091   6.073  0.0000  0.0000  0.0000
 1266UNL      C 5571   1.681   6.112   5.831  0.0000  0.0000  0.0000
 1267UNL      C 5572   1.455   6.176   6.052  0.0000  0.0000  0.0000
 1267UNL      C 5573   1.690   6.171   6.147  0.0000  0.0000  0.0000
 1267UNL      C 5574   1.816   6.098   6.181  0.0000  0.0000  0.0000
 1267UNL      C 5575   1.342   6.106   5.980  0.0000  0.0000  0.0000
 1267UNL      C 5576   1.920   6.187   6.242  0.0000  0.0000  0.0000
 1267UNL      C 5577   2.048   6.118   6.278  0.0000  0.0000  0.0000
 1267UNL      C 5578   2.162   6.197   6.335  0.0000  0.0000  0.0000
 1267UNL      C 5579   2.184   6.344   6.313  0.0000  0.0000  0.0000
 1267UNL      C 5580   2.292   6.448   6.311  0.0000  0.0000  0.0000
 1267UNL      C 5581   2.271   6.569   6.395  0.0000  0.0000  0.0000
 1267UNL      C 5582   1.217   6.186   5.956  0.0000  0.0000  0.0000
 1267UNL      C 5583   1.114   6.107   5.880  0.0000  0.0000  0.0000
 1267UNL      C 5584   0.979   6.172   5.859  0.0000  0.0000  0.0000
 1267UNL      C 5585   0.883   6.081   5.788  0.0000  0.0000  0.0000
 1267UNL      C 5586   0.751   6.150   5.764  0.0000  0.0000  0.0000
 1267UNL      C 5587   0.665   6.152   5.888  0.0000  0.0000  0.0000
 1268UNL      C 5588   1.668   5.829   5.817  0.0000  0.0000  0.0000
 1268UNL      C 5589   1.715   5.901   5.711  0.0000  0.0000  0.0000
 1269UNL      C 5590   1.376   5.371   7.333  0.0000  0.0000  0.0000
 1270UNL      C 5591   1.721   6.043   5.717  0.0000  0.0000  0.0000
 1271UNL      C 5592   1.775   6.087   5.588  0.0000  0.0000  0.0000
 1272UNL      C 5593   1.765   5.848   5.576  0.0000  0.0000  0.0000
 1273UNL      C 5594   1.801   5.979   5.508  0.0000  0.0000  0.0000
 1274UNL      C 5595   1.653   5.773   5.500  0.0000  0.0000  0.0000
 1274UNL      C 5596   1.888   5.755   5.593  0.0000  0.0000  0.0000
 1275UNL      S 5597   1.811   6.235   5.512  0.0000  0.0000  0.0000
 1275UNL      C 5598   1.861   6.152   5.366  0.0000  0.0000  0.0000
 1275UNL      C 5599   1.850   6.015   5.382  0.0000  0.0000  0.0000
 1276UNL      C 5600   1.901   6.221   5.246  0.0000  0.0000  0.0000
 1276UNL      C 5601   1.943   6.149   5.135  0.0000  0.0000  0.0000
 1276UNL      C 5602   1.973   6.211   5.010  0.0000  0.0000  0.0000
 1276UNL      C 5603   1.967   6.347   4.991  0.0000  0.0000  0.0000
 1276UNL      C 5604   1.898   6.363   5.231  0.0000  0.0000  0.0000
 1276UNL      C 5605   1.931   6.425   5.107  0.0000  0.0000  0.0000
 1277UNL      C 5606   1.993   6.416   4.867  0.0000  0.0000  0.0000
 1278UNL      N 5607   1.863   6.452   5.327  0.0000  0.0000  0.0000
 1278UNL      N 5608   1.918   6.560   5.110  0.0000  0.0000  0.0000
 1278UNL      S 5609   1.873   6.597   5.259  0.0000  0.0000  0.0000
 1279UNL      C 5610   2.026   6.366   4.746  0.0000  0.0000  0.0000
 1279UNL      S 5611   2.053   6.202   4.694  0.0000  0.0000  0.0000
 1279UNL      C 5612   2.040   6.457   4.631  0.0000  0.0000  0.0000
 1279UNL      O 5613   2.027   6.577   4.633  0.0000  0.0000  0.0000
 1279UNL      N 5614   2.075   6.386   4.516  0.0000  0.0000  0.0000
 1279UNL      C 5615   2.086   6.249   4.528  0.0000  0.0000  0.0000
 1279UNL      C 5616   2.088   6.455   4.388  0.0000  0.0000  0.0000
 1279UNL      C 5617   1.956   6.463   4.318  0.0000  0.0000  0.0000
 1279UNL      S 5618   2.123   6.144   4.412  0.0000  0.0000  0.0000
 1280UNL      C 5619   2.004   5.817   5.663  0.0000  0.0000  0.0000
 1280UNL      C 5620   2.130   5.729   5.675  0.0000  0.0000  0.0000
 1280UNL      C 5621   2.198   5.702   5.540  0.0000  0.0000  0.0000
 1280UNL      C 5622   2.265   5.824   5.475  0.0000  0.0000  0.0000
 1280UNL      C 5623   2.343   5.809   5.343  0.0000  0.0000  0.0000
 1280UNL      C 5624   2.245   5.791   5.226  0.0000  0.0000  0.0000
 1280UNL      C 5625   2.328   5.769   5.098  0.0000  0.0000  0.0000
 1280UNL      C 5626   1.527   5.856   5.474  0.0000  0.0000  0.0000
 1280UNL      C 5627   1.426   5.798   5.379  0.0000  0.0000  0.0000
 1280UNL      C 5628   1.476   5.805   5.233  0.0000  0.0000  0.0000
 1280UNL      C 5629   1.366   5.765   5.128  0.0000  0.0000  0.0000
 1280UNL      C 5630   1.427   5.776   4.986  0.0000  0.0000  0.0000
 1280UNL      C 5631   1.318   5.747   4.880  0.0000  0.0000  0.0000
 1280UNL      C 5632   1.368   5.779   4.733  0.0000  0.0000  0.0000
 1281UNL      C 5633   3.291   1.724   2.118  0.0000  0.0000  0.0000
 1281UNL      C 5634   3.306   1.618   2.015  0.0000  0.0000  0.0000
 1281UNL      N 5635   3.235   1.669   2.234  0.0000  0.0000  0.0000
 1281UNL      S 5636   3.250   1.466   2.076  0.0000  0.0000  0.0000
 1281UNL      C 5637   3.205   1.535   2.231  0.0000  0.0000  0.0000
 1281UNL      C 5638   3.213   1.755   2.351  0.0000  0.0000  0.0000
 1281UNL      S 5639   3.138   1.447   2.350  0.0000  0.0000  0.0000
 1281UNL      O 5640   3.324   1.839   2.108  0.0000  0.0000  0.0000
 1281UNL      C 5641   3.351   1.654   1.891  0.0000  0.0000  0.0000
 1282UNL      C 5642   3.378   1.573   1.775  0.0000  0.0000  0.0000
 1282UNL      C 5643   3.377   1.436   1.768  0.0000  0.0000  0.0000
 1282UNL      C 5644   3.412   1.641   1.654  0.0000  0.0000  0.0000
 1282UNL      C 5645   3.404   1.365   1.649  0.0000  0.0000  0.0000
 1282UNL      C 5646   3.436   1.426   1.528  0.0000  0.0000  0.0000
 1282UNL      C 5647   3.440   1.570   1.533  0.0000  0.0000  0.0000
 1282UNL      N 5648   3.421   1.775   1.640  0.0000  0.0000  0.0000
 1282UNL      N 5649   3.471   1.652   1.430  0.0000  0.0000  0.0000
 1282UNL      S 5650   3.464   1.803   1.486  0.0000  0.0000  0.0000
 1283UNL      C 5651   3.468   1.351   1.410  0.0000  0.0000  0.0000
 1283UNL      C 5652   3.473   1.214   1.397  0.0000  0.0000  0.0000
 1283UNL      C 5653   3.515   1.173   1.269  0.0000  0.0000  0.0000
 1283UNL      C 5654   3.540   1.279   1.186  0.0000  0.0000  0.0000
 1283UNL      S 5655   3.513   1.429   1.260  0.0000  0.0000  0.0000
 1284UNL      C 5656   3.591   1.233   1.058  0.0000  0.0000  0.0000
 1284UNL      C 5657   3.596   1.093   1.065  0.0000  0.0000  0.0000
 1285UNL      C 5658   3.545   1.040   1.201  0.0000  0.0000  0.0000
 1286UNL      C 5659   3.643   1.020   0.958  0.0000  0.0000  0.0000
 1287UNL      C 5660   3.417   0.955   1.180  0.0000  0.0000  0.0000
 1287UNL      C 5661   3.652   0.960   1.275  0.0000  0.0000  0.0000
 1287UNL      C 5662   3.778   1.033   1.309  0.0000  0.0000  0.0000
 1287UNL      C 5663   3.305   1.025   1.108  0.0000  0.0000  0.0000
 1287UNL      C 5664   3.883   0.944   1.370  0.0000  0.0000  0.0000
 1287UNL      C 5665   4.010   1.014   1.406  0.0000  0.0000  0.0000
 1287UNL      C 5666   4.124   0.934   1.462  0.0000  0.0000  0.0000
 1287UNL      C 5667   4.146   0.787   1.441  0.0000  0.0000  0.0000
 1287UNL      C 5668   4.254   0.683   1.438  0.0000  0.0000  0.0000
 1287UNL      C 5669   4.233   0.562   1.523  0.0000  0.0000  0.0000
 1287UNL      C 5670   3.179   0.945   1.084  0.0000  0.0000  0.0000
 1287UNL      C 5671   3.076   1.025   1.008  0.0000  0.0000  0.0000
 1287UNL      C 5672   2.942   0.960   0.987  0.0000  0.0000  0.0000
 1287UNL      C 5673   2.845   1.051   0.916  0.0000  0.0000  0.0000
 1287UNL      C 5674   2.714   0.981   0.892  0.0000  0.0000  0.0000
 1287UNL      C 5675   2.627   0.979   1.016  0.0000  0.0000  0.0000
 1288UNL      C 5676   3.630   1.302   0.945  0.0000  0.0000  0.0000
 1288UNL      C 5677   3.677   1.230   0.838  0.0000  0.0000  0.0000
 1289UNL      C 5678   3.338   1.760   2.438  0.0000  0.0000  0.0000
 1290UNL      C 5679   3.683   1.089   0.845  0.0000  0.0000  0.0000
 1291UNL      C 5680   3.737   1.044   0.716  0.0000  0.0000  0.0000
 1292UNL      C 5681   3.727   1.283   0.703  0.0000  0.0000  0.0000
 1293UNL      C 5682   3.763   1.153   0.635  0.0000  0.0000  0.0000
 1294UNL      C 5683   3.615   1.358   0.628  0.0000  0.0000  0.0000
 1294UNL      C 5684   3.850   1.376   0.721  0.0000  0.0000  0.0000
 1295UNL      S 5685   3.773   0.896   0.640  0.0000  0.0000  0.0000
 1295UNL      C 5686   3.823   0.979   0.494  0.0000  0.0000  0.0000
 1295UNL      C 5687   3.812   1.116   0.510  0.0000  0.0000  0.0000
 1296UNL      C 5688   3.863   0.910   0.374  0.0000  0.0000  0.0000
 1296UNL      C 5689   3.906   0.982   0.263  0.0000  0.0000  0.0000
 1296UNL      C 5690   3.935   0.920   0.138  0.0000  0.0000  0.0000
 1296UNL      C 5691   3.929   0.784   0.119  0.0000  0.0000  0.0000
 1296UNL      C 5692   3.860   0.768   0.359  0.0000  0.0000  0.0000
 1296UNL      C 5693   3.893   0.706   0.235  0.0000  0.0000  0.0000
 1297UNL      C 5694   3.955   0.715  -0.029  0.0000  0.0000  0.0000
 1298UNL      N 5695   3.825   0.679   0.454  0.0000  0.0000  0.0000
 1298UNL      N 5696   3.880   0.571   0.238  0.0000  0.0000  0.0000
 1298UNL      S 5697   3.835   0.534   0.387  0.0000  0.0000  0.0000
 1299UNL      C 5698   3.988   0.765  -0.150  0.0000  0.0000  0.0000
 1299UNL      S 5699   4.016   0.929  -0.201  0.0000  0.0000  0.0000
 1299UNL      C 5700   4.003   0.675  -0.264  0.0000  0.0000  0.0000
 1299UNL      O 5701   3.989   0.554  -0.263  0.0000  0.0000  0.0000
 1299UNL      N 5702   4.038   0.745  -0.379  0.0000  0.0000  0.0000
 1299UNL      C 5703   4.049   0.882  -0.368  0.0000  0.0000  0.0000
 1299UNL      C 5704   4.050   0.677  -0.508  0.0000  0.0000  0.0000
 1299UNL      C 5705   3.919   0.668  -0.578  0.0000  0.0000  0.0000
 1299UNL      S 5706   4.085   0.988  -0.483  0.0000  0.0000  0.0000
 1300UNL      C 5707   3.966   1.314   0.791  0.0000  0.0000  0.0000
 1300UNL      C 5708   4.092   1.402   0.803  0.0000  0.0000  0.0000
 1300UNL      C 5709   4.160   1.429   0.668  0.0000  0.0000  0.0000
 1300UNL      C 5710   4.227   1.307   0.603  0.0000  0.0000  0.0000
 1300UNL      C 5711   4.305   1.322   0.471  0.0000  0.0000  0.0000
 1300UNL      C 5712   4.207   1.341   0.354  0.0000  0.0000  0.0000
 1300UNL      C 5713   4.290   1.362   0.226  0.0000  0.0000  0.0000
 1300UNL      C 5714   3.489   1.275   0.601  0.0000  0.0000  0.0000
 1300UNL      C 5715   3.388   1.333   0.507  0.0000  0.0000  0.0000
 1300UNL      C 5716   3.438   1.326   0.361  0.0000  0.0000  0.0000
 1300UNL      C 5717   3.329   1.366   0.256  0.0000  0.0000  0.0000
 1300UNL      C 5718   3.389   1.355   0.114  0.0000  0.0000  0.0000
 1300UNL      C 5719   3.280   1.384   0.008  0.0000  0.0000  0.0000
 1300UNL      C 5720   3.330   1.352  -0.139  0.0000  0.0000  0.0000
 1301UNL      C 5721   3.396   0.931  -0.517  0.0000  0.0000  0.0000
 1301UNL      C 5722   3.382   0.826  -0.414  0.0000  0.0000  0.0000
 1301UNL      N 5723   3.452   0.876  -0.633  0.0000  0.0000  0.0000
 1301UNL      S 5724   3.437   0.674  -0.475  0.0000  0.0000  0.0000
 1301UNL      C 5725   3.482   0.742  -0.630  0.0000  0.0000  0.0000
 1301UNL      C 5726   3.475   0.963  -0.750  0.0000  0.0000  0.0000
 1301UNL      S 5727   3.549   0.654  -0.749  0.0000  0.0000  0.0000
 1301UNL      O 5728   3.364   1.046  -0.507  0.0000  0.0000  0.0000
 1301UNL      C 5729   3.336   0.861  -0.290  0.0000  0.0000  0.0000
 1302UNL      C 5730   3.309   0.780  -0.174  0.0000  0.0000  0.0000
 1302UNL      C 5731   3.311   0.643  -0.167  0.0000  0.0000  0.0000
 1302UNL      C 5732   3.276   0.848  -0.054  0.0000  0.0000  0.0000
 1302UNL      C 5733   3.283   0.573  -0.048  0.0000  0.0000  0.0000
 1302UNL      C 5734   3.251   0.634   0.096  0.0000  0.0000  0.0000
 1302UNL      C 5735   3.248   0.778   0.091  0.0000  0.0000  0.0000
 1302UNL      N 5736   3.266   0.983  -0.039  0.0000  0.0000  0.0000
 1302UNL      N 5737   3.216   0.859   0.194  0.0000  0.0000  0.0000
 1302UNL      S 5738   3.223   1.011   0.138  0.0000  0.0000  0.0000
 1303UNL      C 5739   3.220   0.558   0.214  0.0000  0.0000  0.0000
 1303UNL      C 5740   3.214   0.421   0.227  0.0000  0.0000  0.0000
 1303UNL      C 5741   3.172   0.380   0.355  0.0000  0.0000  0.0000
 1303UNL      C 5742   3.147   0.486   0.438  0.0000  0.0000  0.0000
 1303UNL      S 5743   3.174   0.637   0.364  0.0000  0.0000  0.0000
 1304UNL      C 5744   3.097   0.441   0.567  0.0000  0.0000  0.0000
 1304UNL      C 5745   3.091   0.300   0.559  0.0000  0.0000  0.0000
 1305UNL      C 5746   3.143   0.248   0.423  0.0000  0.0000  0.0000
 1306UNL      C 5747   3.044   0.227   0.666  0.0000  0.0000  0.0000
 1307UNL      C 5748   3.270   0.163   0.444  0.0000  0.0000  0.0000
 1307UNL      C 5749   3.035   0.168   0.349  0.0000  0.0000  0.0000
 1307UNL      C 5750   2.909   0.241   0.315  0.0000  0.0000  0.0000
 1307UNL      C 5751   3.383   0.233   0.516  0.0000  0.0000  0.0000
 1307UNL      C 5752   2.805   0.152   0.255  0.0000  0.0000  0.0000
 1307UNL      C 5753   2.677   0.221   0.218  0.0000  0.0000  0.0000
 1307UNL      C 5754   2.563   0.141   0.162  0.0000  0.0000  0.0000
 1307UNL      C 5755   2.541  -0.005   0.184  0.0000  0.0000  0.0000
 1307UNL      C 5756   2.433  -0.109   0.186  0.0000  0.0000  0.0000
 1307UNL      C 5757   2.454  -0.231   0.101  0.0000  0.0000  0.0000
 1307UNL      C 5758   3.509   0.153   0.540  0.0000  0.0000  0.0000
 1307UNL      C 5759   3.611   0.232   0.617  0.0000  0.0000  0.0000
 1307UNL      C 5760   3.746   0.167   0.637  0.0000  0.0000  0.0000
 1307UNL      C 5761   3.842   0.258   0.708  0.0000  0.0000  0.0000
 1307UNL      C 5762   3.974   0.189   0.732  0.0000  0.0000  0.0000
 1307UNL      C 5763   4.060   0.187   0.608  0.0000  0.0000  0.0000
 1308UNL      C 5764   3.058   0.510   0.679  0.0000  0.0000  0.0000
 1308UNL      C 5765   3.010   0.438   0.786  0.0000  0.0000  0.0000
 1309UNL      C 5766   3.349   0.967  -0.837  0.0000  0.0000  0.0000
 1310UNL      C 5767   3.004   0.296   0.780  0.0000  0.0000  0.0000
 1311UNL      C 5768   2.950   0.252   0.908  0.0000  0.0000  0.0000
 1312UNL      C 5769   2.960   0.491   0.921  0.0000  0.0000  0.0000
 1313UNL      C 5770   2.924   0.360   0.989  0.0000  0.0000  0.0000
 1314UNL      C 5771   3.072   0.566   0.996  0.0000  0.0000  0.0000
 1314UNL      C 5772   2.837   0.584   0.903  0.0000  0.0000  0.0000
 1315UNL      S 5773   2.915   0.104   0.984  0.0000  0.0000  0.0000
 1315UNL      C 5774   2.865   0.187   1.130  0.0000  0.0000  0.0000
 1315UNL      C 5775   2.876   0.324   1.115  0.0000  0.0000  0.0000
 1316UNL      C 5776   2.824   0.118   1.250  0.0000  0.0000  0.0000
 1316UNL      C 5777   2.782   0.190   1.361  0.0000  0.0000  0.0000
 1316UNL      C 5778   2.752   0.128   1.487  0.0000  0.0000  0.0000
 1316UNL      C 5779   2.758  -0.009   1.505  0.0000  0.0000  0.0000
 1316UNL      C 5780   2.827  -0.024   1.265  0.0000  0.0000  0.0000
 1316UNL      C 5781   2.794  -0.086   1.390  0.0000  0.0000  0.0000
 1317UNL      C 5782   2.732  -0.078   1.629  0.0000  0.0000  0.0000
 1318UNL      N 5783   2.862  -0.113   1.170  0.0000  0.0000  0.0000
 1318UNL      N 5784   2.807  -0.221   1.386  0.0000  0.0000  0.0000
 1318UNL      S 5785   2.853  -0.258   1.237  0.0000  0.0000  0.0000
 1319UNL      C 5786   2.699  -0.027   1.751  0.0000  0.0000  0.0000
 1319UNL      S 5787   2.672   0.137   1.802  0.0000  0.0000  0.0000
 1319UNL      C 5788   2.685  -0.118   1.865  0.0000  0.0000  0.0000
 1319UNL      O 5789   2.698  -0.238   1.864  0.0000  0.0000  0.0000
 1319UNL      N 5790   2.650  -0.047   1.980  0.0000  0.0000  0.0000
 1319UNL      C 5791   2.639   0.090   1.969  0.0000  0.0000  0.0000
 1319UNL      C 5792   2.638  -0.116   2.109  0.0000  0.0000  0.0000
 1319UNL      C 5793   2.769  -0.125   2.179  0.0000  0.0000  0.0000
 1319UNL      S 5794   2.602   0.195   2.084  0.0000  0.0000  0.0000
 1320UNL      C 5795   2.721   0.521   0.833  0.0000  0.0000  0.0000
 1320UNL      C 5796   2.595   0.610   0.822  0.0000  0.0000  0.0000
 1320UNL      C 5797   2.527   0.637   0.957  0.0000  0.0000  0.0000
 1320UNL      C 5798   2.460   0.514   1.021  0.0000  0.0000  0.0000
 1320UNL      C 5799   2.383   0.530   1.153  0.0000  0.0000  0.0000
 1320UNL      C 5800   2.480   0.548   1.270  0.0000  0.0000  0.0000
 1320UNL      C 5801   2.398   0.570   1.398  0.0000  0.0000  0.0000
 1320UNL      C 5802   3.198   0.482   1.023  0.0000  0.0000  0.0000
 1320UNL      C 5803   3.299   0.541   1.117  0.0000  0.0000  0.0000
 1320UNL      C 5804   3.249   0.534   1.264  0.0000  0.0000  0.0000
 1320UNL      C 5805   3.359   0.573   1.368  0.0000  0.0000  0.0000
 1320UNL      C 5806   3.298   0.563   1.510  0.0000  0.0000  0.0000
 1320UNL      C 5807   3.407   0.591   1.616  0.0000  0.0000  0.0000
 1320UNL      C 5808   3.357   0.559   1.763  0.0000  0.0000  0.0000
 1321UNL      C 5809   3.201  -0.139   1.131  0.0000  0.0000  0.0000
 1321UNL      C 5810   3.186  -0.034   1.234  0.0000  0.0000  0.0000
 1321UNL      N 5811   3.257  -0.084   1.014  0.0000  0.0000  0.0000
 1321UNL      S 5812   3.242   0.119   1.172  0.0000  0.0000  0.0000
 1321UNL      C 5813   3.287   0.050   1.017  0.0000  0.0000  0.0000
 1321UNL      C 5814   3.279  -0.170   0.898  0.0000  0.0000  0.0000
 1321UNL      S 5815   3.354   0.138   0.899  0.0000  0.0000  0.0000
 1321UNL      O 5816   3.168  -0.254   1.140  0.0000  0.0000  0.0000
 1321UNL      C 5817   3.141  -0.069   1.357  0.0000  0.0000  0.0000
 1322UNL      C 5818   3.114   0.012   1.474  0.0000  0.0000  0.0000
 1322UNL      C 5819   3.115   0.149   1.481  0.0000  0.0000  0.0000
 1322UNL      C 5820   3.081  -0.056   1.594  0.0000  0.0000  0.0000
 1322UNL      C 5821   3.088   0.220   1.599  0.0000  0.0000  0.0000
 1322UNL      C 5822   3.056   0.158   1.720  0.0000  0.0000  0.0000
 1322UNL      C 5823   3.052   0.015   1.715  0.0000  0.0000  0.0000
 1322UNL      N 5824   3.071  -0.191   1.608  0.0000  0.0000  0.0000
 1322UNL      N 5825   3.021  -0.067   1.819  0.0000  0.0000  0.0000
 1322UNL      S 5826   3.028  -0.218   1.762  0.0000  0.0000  0.0000
 1323UNL      C 5827   3.025   0.234   1.839  0.0000  0.0000  0.0000
 1323UNL      C 5828   3.019   0.371   1.852  0.0000  0.0000  0.0000
 1323UNL      C 5829   2.977   0.412   1.979  0.0000  0.0000  0.0000
 1323UNL      C 5830   2.952   0.306   2.062  0.0000  0.0000  0.0000
 1323UNL      S 5831   2.979   0.155   1.989  0.0000  0.0000  0.0000
 1324UNL      C 5832   2.901   0.351   2.191  0.0000  0.0000  0.0000
 1324UNL      C 5833   2.896   0.492   2.184  0.0000  0.0000  0.0000
 1325UNL      C 5834   2.948   0.545   2.047  0.0000  0.0000  0.0000
 1326UNL      C 5835   2.849   0.565   2.290  0.0000  0.0000  0.0000
 1327UNL      C 5836   3.075   0.630   2.069  0.0000  0.0000  0.0000
 1327UNL      C 5837   2.840   0.624   1.973  0.0000  0.0000  0.0000
 1327UNL      C 5838   2.714   0.552   1.939  0.0000  0.0000  0.0000
 1327UNL      C 5839   3.188   0.560   2.141  0.0000  0.0000  0.0000
 1327UNL      C 5840   2.610   0.641   1.879  0.0000  0.0000  0.0000
 1327UNL      C 5841   2.482   0.571   1.842  0.0000  0.0000  0.0000
 1327UNL      C 5842   2.368   0.651   1.786  0.0000  0.0000  0.0000
 1327UNL      C 5843   2.346   0.798   1.808  0.0000  0.0000  0.0000
 1327UNL      C 5844   2.238   0.901   1.810  0.0000  0.0000  0.0000
 1327UNL      C 5845   2.259   1.023   1.725  0.0000  0.0000  0.0000
 1327UNL      C 5846   3.314   0.640   2.164  0.0000  0.0000  0.0000
 1327UNL      C 5847   3.416   0.560   2.241  0.0000  0.0000  0.0000
 1327UNL      C 5848   3.551   0.625   2.261  0.0000  0.0000  0.0000
 1327UNL      C 5849   3.647   0.534   2.332  0.0000  0.0000  0.0000
 1327UNL      C 5850   3.779   0.604   2.356  0.0000  0.0000  0.0000
 1327UNL      C 5851   3.865   0.605   2.233  0.0000  0.0000  0.0000
 1328UNL      C 5852   2.862   0.282   2.303  0.0000  0.0000  0.0000
 1328UNL      C 5853   2.815   0.354   2.410  0.0000  0.0000  0.0000
 1329UNL      C 5854   3.154  -0.175   0.811  0.0000  0.0000  0.0000
 1330UNL      C 5855   2.809   0.496   2.404  0.0000  0.0000  0.0000
 1331UNL      C 5856   2.755   0.540   2.532  0.0000  0.0000  0.0000
 1332UNL      C 5857   2.765   0.302   2.545  0.0000  0.0000  0.0000
 1333UNL      C 5858   2.729   0.432   2.613  0.0000  0.0000  0.0000
 1334UNL      C 5859   2.877   0.227   2.621  0.0000  0.0000  0.0000
 1334UNL      C 5860   2.642   0.209   2.528  0.0000  0.0000  0.0000
 1335UNL      S 5861   2.719   0.689   2.609  0.0000  0.0000  0.0000
 1335UNL      C 5862   2.670   0.606   2.754  0.0000  0.0000  0.0000
 1335UNL      C 5863   2.681   0.469   2.739  0.0000  0.0000  0.0000
 1336UNL      C 5864   2.629   0.674   2.874  0.0000  0.0000  0.0000
 1336UNL      C 5865   2.587   0.603   2.985  0.0000  0.0000  0.0000
 1336UNL      C 5866   2.557   0.664   3.111  0.0000  0.0000  0.0000
 1336UNL      C 5867   2.563   0.801   3.129  0.0000  0.0000  0.0000
 1336UNL      C 5868   2.632   0.817   2.889  0.0000  0.0000  0.0000
 1336UNL      C 5869   2.599   0.878   3.014  0.0000  0.0000  0.0000
 1337UNL      C 5870   2.537   0.870   3.277  0.0000  0.0000  0.0000
 1338UNL      N 5871   2.667   0.905   2.794  0.0000  0.0000  0.0000
 1338UNL      N 5872   2.612   1.014   3.010  0.0000  0.0000  0.0000
 1338UNL      S 5873   2.658   1.051   2.862  0.0000  0.0000  0.0000
 1339UNL      C 5874   2.504   0.820   3.398  0.0000  0.0000  0.0000
 1339UNL      S 5875   2.477   0.655   3.450  0.0000  0.0000  0.0000
 1339UNL      C 5876   2.489   0.910   3.513  0.0000  0.0000  0.0000
 1339UNL      O 5877   2.503   1.031   3.511  0.0000  0.0000  0.0000
 1339UNL      N 5878   2.455   0.840   3.628  0.0000  0.0000  0.0000
 1339UNL      C 5879   2.444   0.703   3.616  0.0000  0.0000  0.0000
 1339UNL      C 5880   2.442   0.908   3.757  0.0000  0.0000  0.0000
 1339UNL      C 5881   2.574   0.917   3.826  0.0000  0.0000  0.0000
 1339UNL      S 5882   2.407   0.597   3.732  0.0000  0.0000  0.0000
 1340UNL      C 5883   2.526   0.271   2.457  0.0000  0.0000  0.0000
 1340UNL      C 5884   2.400   0.183   2.446  0.0000  0.0000  0.0000
 1340UNL      C 5885   2.332   0.155   2.581  0.0000  0.0000  0.0000
 1340UNL      C 5886   2.265   0.278   2.645  0.0000  0.0000  0.0000
 1340UNL      C 5887   2.187   0.263   2.777  0.0000  0.0000  0.0000
 1340UNL      C 5888   2.285   0.244   2.895  0.0000  0.0000  0.0000
 1340UNL      C 5889   2.203   0.223   3.022  0.0000  0.0000  0.0000
 1340UNL      C 5890   3.003   0.310   2.647  0.0000  0.0000  0.0000
 1340UNL      C 5891   3.104   0.252   2.742  0.0000  0.0000  0.0000
 1340UNL      C 5892   3.054   0.259   2.888  0.0000  0.0000  0.0000
 1340UNL      C 5893   3.164   0.219   2.993  0.0000  0.0000  0.0000
 1340UNL      C 5894   3.103   0.229   3.135  0.0000  0.0000  0.0000
 1340UNL      C 5895   3.212   0.201   3.240  0.0000  0.0000  0.0000
 1340UNL      C 5896   3.162   0.233   3.387  0.0000  0.0000  0.0000
 1341UNL      C 5897   3.096   0.654   3.765  0.0000  0.0000  0.0000
 1341UNL      C 5898   3.110   0.759   3.662  0.0000  0.0000  0.0000
 1341UNL      N 5899   3.040   0.709   3.882  0.0000  0.0000  0.0000
 1341UNL      S 5900   3.055   0.911   3.724  0.0000  0.0000  0.0000
 1341UNL      C 5901   3.010   0.843   3.879  0.0000  0.0000  0.0000
 1341UNL      C 5902   3.018   0.622   3.998  0.0000  0.0000  0.0000
 1341UNL      S 5903   2.943   0.931   3.997  0.0000  0.0000  0.0000
 1341UNL      O 5904   3.128   0.538   3.756  0.0000  0.0000  0.0000
 1341UNL      C 5905   3.156   0.724   3.539  0.0000  0.0000  0.0000
 1342UNL      C 5906   3.183   0.805   3.422  0.0000  0.0000  0.0000
 1342UNL      C 5907   3.182   0.942   3.415  0.0000  0.0000  0.0000
 1342UNL      C 5908   3.216   0.737   3.302  0.0000  0.0000  0.0000
 1342UNL      C 5909   3.209   1.012   3.297  0.0000  0.0000  0.0000
 1342UNL      C 5910   3.241   0.951   3.153  0.0000  0.0000  0.0000
 1342UNL      C 5911   3.245   0.807   3.158  0.0000  0.0000  0.0000
 1342UNL      N 5912   3.226   0.602   3.288  0.0000  0.0000  0.0000
 1342UNL      N 5913   3.276   0.725   3.054  0.0000  0.0000  0.0000
 1342UNL      S 5914   3.269   0.574   3.111  0.0000  0.0000  0.0000
 1343UNL      C 5915   3.273   1.026   3.034  0.0000  0.0000  0.0000
 1343UNL      C 5916   3.278   1.164   3.021  0.0000  0.0000  0.0000
 1343UNL      C 5917   3.320   1.204   2.893  0.0000  0.0000  0.0000
 1343UNL      C 5918   3.345   1.099   2.810  0.0000  0.0000  0.0000
 1343UNL      S 5919   3.318   0.948   2.884  0.0000  0.0000  0.0000
 1344UNL      C 5920   3.396   1.144   2.682  0.0000  0.0000  0.0000
 1344UNL      C 5921   3.401   1.285   2.689  0.0000  0.0000  0.0000
 1345UNL      C 5922   3.349   1.337   2.825  0.0000  0.0000  0.0000
 1346UNL      C 5923   3.448   1.358   2.583  0.0000  0.0000  0.0000
 1347UNL      C 5924   3.222   1.422   2.804  0.0000  0.0000  0.0000
 1347UNL      C 5925   3.457   1.417   2.899  0.0000  0.0000  0.0000
 1347UNL      C 5926   3.583   1.344   2.933  0.0000  0.0000  0.0000
 1347UNL      C 5927   3.109   1.352   2.732  0.0000  0.0000  0.0000
 1347UNL      C 5928   3.687   1.433   2.994  0.0000  0.0000  0.0000
 1347UNL      C 5929   3.815   1.364   3.030  0.0000  0.0000  0.0000
 1347UNL      C 5930   3.929   1.443   3.087  0.0000  0.0000  0.0000
 1347UNL      C 5931   3.951   1.590   3.065  0.0000  0.0000  0.0000
 1347UNL      C 5932   4.059   1.694   3.063  0.0000  0.0000  0.0000
 1347UNL      C 5933   4.038   1.815   3.147  0.0000  0.0000  0.0000
 1347UNL      C 5934   2.984   1.432   2.708  0.0000  0.0000  0.0000
 1347UNL      C 5935   2.881   1.353   2.632  0.0000  0.0000  0.0000
 1347UNL      C 5936   2.746   1.418   2.611  0.0000  0.0000  0.0000
 1347UNL      C 5937   2.650   1.327   2.540  0.0000  0.0000  0.0000
 1347UNL      C 5938   2.518   1.396   2.516  0.0000  0.0000  0.0000
 1347UNL      C 5939   2.432   1.398   2.640  0.0000  0.0000  0.0000
 1348UNL      C 5940   3.435   1.075   2.569  0.0000  0.0000  0.0000
 1348UNL      C 5941   3.482   1.147   2.463  0.0000  0.0000  0.0000
 1349UNL      C 5942   3.143   0.617   4.085  0.0000  0.0000  0.0000
 1350UNL      C 5943   3.488   1.289   2.469  0.0000  0.0000  0.0000
 1351UNL      C 5944   3.542   1.333   2.340  0.0000  0.0000  0.0000
 1352UNL      C 5945   3.532   1.094   2.328  0.0000  0.0000  0.0000
 1353UNL      C 5946   3.568   1.225   2.260  0.0000  0.0000  0.0000
 1354UNL      C 5947   3.420   1.019   2.252  0.0000  0.0000  0.0000
 1354UNL      C 5948   3.655   1.001   2.345  0.0000  0.0000  0.0000
 1355UNL      S 5949   3.578   1.481   2.264  0.0000  0.0000  0.0000
 1355UNL      C 5950   3.628   1.398   2.118  0.0000  0.0000  0.0000
 1355UNL      C 5951   3.617   1.261   2.134  0.0000  0.0000  0.0000
 1356UNL      C 5952   3.668   1.467   1.998  0.0000  0.0000  0.0000
 1356UNL      C 5953   3.710   1.395   1.887  0.0000  0.0000  0.0000
 1356UNL      C 5954   3.740   1.457   1.762  0.0000  0.0000  0.0000
 1356UNL      C 5955   3.734   1.593   1.743  0.0000  0.0000  0.0000
 1356UNL      C 5956   3.665   1.609   1.983  0.0000  0.0000  0.0000
 1356UNL      C 5957   3.698   1.671   1.859  0.0000  0.0000  0.0000
 1357UNL      C 5958   3.760   1.662   1.619  0.0000  0.0000  0.0000
 1358UNL      N 5959   3.630   1.698   2.079  0.0000  0.0000  0.0000
 1358UNL      N 5960   3.685   1.806   1.862  0.0000  0.0000  0.0000
 1358UNL      S 5961   3.640   1.843   2.011  0.0000  0.0000  0.0000
 1359UNL      C 5962   3.793   1.612   1.498  0.0000  0.0000  0.0000
 1359UNL      S 5963   3.820   1.448   1.446  0.0000  0.0000  0.0000
 1359UNL      C 5964   3.807   1.703   1.383  0.0000  0.0000  0.0000
 1359UNL      O 5965   3.794   1.823   1.385  0.0000  0.0000  0.0000
 1359UNL      N 5966   3.842   1.632   1.268  0.0000  0.0000  0.0000
 1359UNL      C 5967   3.853   1.495   1.280  0.0000  0.0000  0.0000
 1359UNL      C 5968   3.855   1.701   1.140  0.0000  0.0000  0.0000
 1359UNL      C 5969   3.723   1.709   1.070  0.0000  0.0000  0.0000
 1359UNL      S 5970   3.890   1.390   1.164  0.0000  0.0000  0.0000
 1360UNL      C 5971   3.771   1.063   2.415  0.0000  0.0000  0.0000
 1360UNL      C 5972   3.897   0.975   2.427  0.0000  0.0000  0.0000
 1360UNL      C 5973   3.965   0.948   2.292  0.0000  0.0000  0.0000
 1360UNL      C 5974   4.032   1.070   2.227  0.0000  0.0000  0.0000
 1360UNL      C 5975   4.110   1.055   2.095  0.0000  0.0000  0.0000
 1360UNL      C 5976   4.012   1.037   1.978  0.0000  0.0000  0.0000
 1360UNL      C 5977   4.095   1.015   1.850  0.0000  0.0000  0.0000
 1360UNL      C 5978   3.294   1.102   2.226  0.0000  0.0000  0.0000
 1360UNL      C 5979   3.193   1.044   2.131  0.0000  0.0000  0.0000
 1360UNL      C 5980   3.243   1.051   1.985  0.0000  0.0000  0.0000
 1360UNL      C 5981   3.133   1.011   1.880  0.0000  0.0000  0.0000
 1360UNL      C 5982   3.194   1.022   1.738  0.0000  0.0000  0.0000
 1360UNL      C 5983   3.085   0.993   1.632  0.0000  0.0000  0.0000
 1360UNL      C 5984   3.135   1.025   1.485  0.0000  0.0000  0.0000
 1361UNL      C 5985   2.901   1.724   5.366  0.0000  0.0000  0.0000
 1361UNL      C 5986   2.916   1.618   5.263  0.0000  0.0000  0.0000
 1361UNL      N 5987   2.845   1.669   5.482  0.0000  0.0000  0.0000
 1361UNL      S 5988   2.860   1.466   5.324  0.0000  0.0000  0.0000
 1361UNL      C 5989   2.815   1.535   5.479  0.0000  0.0000  0.0000
 1361UNL      C 5990   2.823   1.755   5.599  0.0000  0.0000  0.0000
 1361UNL      S 5991   2.748   1.447   5.598  0.0000  0.0000  0.0000
 1361UNL      O 5992   2.934   1.839   5.356  0.0000  0.0000  0.0000
 1361UNL      C 5993   2.961   1.654   5.139  0.0000  0.0000  0.0000
 1362UNL      C 5994   2.988   1.573   5.023  0.0000  0.0000  0.0000
 1362UNL      C 5995   2.987   1.436   5.016  0.0000  0.0000  0.0000
 1362UNL      C 5996   3.022   1.641   4.902  0.0000  0.0000  0.0000
 1362UNL      C 5997   3.014   1.365   4.897  0.0000  0.0000  0.0000
 1362UNL      C 5998   3.046   1.426   4.776  0.0000  0.0000  0.0000
 1362UNL      C 5999   3.050   1.570   4.781  0.0000  0.0000  0.0000
 1362UNL      N 6000   3.031   1.775   4.888  0.0000  0.0000  0.0000
 1362UNL      N 6001   3.081   1.652   4.678  0.0000  0.0000  0.0000
 1362UNL      S 6002   3.074   1.803   4.734  0.0000  0.0000  0.0000
 1363UNL      C 6003   3.078   1.351   4.658  0.0000  0.0000  0.0000
 1363UNL      C 6004   3.083   1.214   4.645  0.0000  0.0000  0.0000
 1363UNL      C 6005   3.125   1.173   4.517  0.0000  0.0000  0.0000
 1363UNL      C 6006   3.150   1.279   4.434  0.0000  0.0000  0.0000
 1363UNL      S 6007   3.123   1.429   4.508  0.0000  0.0000  0.0000
 1364UNL      C 6008   3.201   1.233   4.306  0.0000  0.0000  0.0000
 1364UNL      C 6009   3.206   1.093   4.313  0.0000  0.0000  0.0000
 1365UNL      C 6010   3.155   1.040   4.449  0.0000  0.0000  0.0000
 1366UNL      C 6011   3.253   1.020   4.206  0.0000  0.0000  0.0000
 1367UNL      C 6012   3.027   0.955   4.428  0.0000  0.0000  0.0000
 1367UNL      C 6013   3.262   0.960   4.523  0.0000  0.0000  0.0000
 1367UNL      C 6014   3.388   1.033   4.557  0.0000  0.0000  0.0000
 1367UNL      C 6015   2.915   1.025   4.356  0.0000  0.0000  0.0000
 1367UNL      C 6016   3.493   0.944   4.618  0.0000  0.0000  0.0000
 1367UNL      C 6017   3.620   1.014   4.654  0.0000  0.0000  0.0000
 1367UNL      C 6018   3.734   0.934   4.710  0.0000  0.0000  0.0000
 1367UNL      C 6019   3.756   0.787   4.689  0.0000  0.0000  0.0000
 1367UNL      C 6020   3.864   0.683   4.686  0.0000  0.0000  0.0000
 1367UNL      C 6021   3.843   0.562   4.771  0.0000  0.0000  0.0000
 1367UNL      C 6022   2.789   0.945   4.332  0.0000  0.0000  0.0000
 1367UNL      C 6023   2.686   1.025   4.256  0.0000  0.0000  0.0000
 1367UNL      C 6024   2.552   0.960   4.235  0.0000  0.0000  0.0000
 1367UNL      C 6025   2.455   1.051   4.164  0.0000  0.0000  0.0000
 1367UNL      C 6026   2.324   0.981   4.140  0.0000  0.0000  0.0000
 1367UNL      C 6027   2.237   0.979   4.264  0.0000  0.0000  0.0000
 1368UNL      C 6028   3.240   1.302   4.193  0.0000  0.0000  0.0000
 1368UNL      C 6029   3.287   1.230   4.086  0.0000  0.0000  0.0000
 1369UNL      C 6030   2.948   1.760   5.686  0.0000  0.0000  0.0000
 1370UNL      C 6031   3.293   1.089   4.093  0.0000  0.0000  0.0000
 1371UNL      C 6032   3.347   1.044   3.964  0.0000  0.0000  0.0000
 1372UNL      C 6033   3.337   1.283   3.951  0.0000  0.0000  0.0000
 1373UNL      C 6034   3.373   1.153   3.883  0.0000  0.0000  0.0000
 1374UNL      C 6035   3.225   1.358   3.876  0.0000  0.0000  0.0000
 1374UNL      C 6036   3.460   1.376   3.969  0.0000  0.0000  0.0000
 1375UNL      S 6037   3.383   0.896   3.888  0.0000  0.0000  0.0000
 1375UNL      C 6038   3.433   0.979   3.742  0.0000  0.0000  0.0000
 1375UNL      C 6039   3.422   1.116   3.758  0.0000  0.0000  0.0000
 1376UNL      C 6040   3.473   0.910   3.622  0.0000  0.0000  0.0000
 1376UNL      C 6041   3.516   0.982   3.511  0.0000  0.0000  0.0000
 1376UNL      C 6042   3.545   0.920   3.386  0.0000  0.0000  0.0000
 1376UNL      C 6043   3.539   0.784   3.367  0.0000  0.0000  0.0000
 1376UNL      C 6044   3.470   0.768   3.607  0.0000  0.0000  0.0000
 1376UNL      C 6045   3.503   0.706   3.483  0.0000  0.0000  0.0000
 1377UNL      C 6046   3.565   0.715   3.219  0.0000  0.0000  0.0000
 1378UNL      N 6047   3.435   0.679   3.702  0.0000  0.0000  0.0000
 1378UNL      N 6048   3.490   0.571   3.486  0.0000  0.0000  0.0000
 1378UNL      S 6049   3.445   0.534   3.635  0.0000  0.0000  0.0000
 1379UNL      C 6050   3.598   0.765   3.098  0.0000  0.0000  0.0000
 1379UNL      S 6051   3.626   0.929   3.047  0.0000  0.0000  0.0000
 1379UNL      C 6052   3.613   0.675   2.984  0.0000  0.0000  0.0000
 1379UNL      O 6053   3.599   0.554   2.985  0.0000  0.0000  0.0000
 1379UNL      N 6054   3.648   0.745   2.869  0.0000  0.0000  0.0000
 1379UNL      C 6055   3.659   0.882   2.880  0.0000  0.0000  0.0000
 1379UNL      C 6056   3.660   0.677   2.740  0.0000  0.0000  0.0000
 1379UNL      C 6057   3.529   0.668   2.670  0.0000  0.0000  0.0000
 1379UNL      S 6058   3.695   0.988   2.765  0.0000  0.0000  0.0000
 1380UNL      C 6059   3.576   1.314   4.039  0.0000  0.0000  0.0000
 1380UNL      C 6060   3.702   1.402   4.051  0.0000  0.0000  0.0000
 1380UNL      C 6061   3.770   1.429   3.916  0.0000  0.0000  0.0000
 1380UNL      C 6062   3.837   1.307   3.851  0.0000  0.0000  0.0000
 1380UNL      C 6063   3.915   1.322   3.719  0.0000  0.0000  0.0000
 1380UNL      C 6064   3.817   1.341   3.602  0.0000  0.0000  0.0000
 1380UNL      C 6065   3.900   1.362   3.474  0.0000  0.0000  0.0000
 1380UNL      C 6066   3.099   1.275   3.849  0.0000  0.0000  0.0000
 1380UNL      C 6067   2.998   1.333   3.755  0.0000  0.0000  0.0000
 1380UNL      C 6068   3.048   1.326   3.609  0.0000  0.0000  0.0000
 1380UNL      C 6069   2.939   1.366   3.504  0.0000  0.0000  0.0000
 1380UNL      C 6070   2.999   1.355   3.362  0.0000  0.0000  0.0000
 1380UNL      C 6071   2.890   1.384   3.256  0.0000  0.0000  0.0000
 1380UNL      C 6072   2.940   1.352   3.109  0.0000  0.0000  0.0000
 1381UNL      C 6073   3.006   0.931   2.731  0.0000  0.0000  0.0000
 1381UNL      C 6074   2.992   0.826   2.834  0.0000  0.0000  0.0000
 1381UNL      N 6075   3.062   0.876   2.615  0.0000  0.0000  0.0000
 1381UNL      S 6076   3.047   0.674   2.773  0.0000  0.0000  0.0000
 1381UNL      C 6077   3.092   0.742   2.618  0.0000  0.0000  0.0000
 1381UNL      C 6078   3.085   0.963   2.498  0.0000  0.0000  0.0000
 1381UNL      S 6079   3.159   0.654   2.499  0.0000  0.0000  0.0000
 1381UNL      O 6080   2.974   1.046   2.741  0.0000  0.0000  0.0000
 1381UNL      C 6081   2.946   0.861   2.958  0.0000  0.0000  0.0000
 1382UNL      C 6082   2.919   0.780   3.074  0.0000  0.0000  0.0000
 1382UNL      C 6083   2.921   0.643   3.081  0.0000  0.0000  0.0000
 1382UNL      C 6084   2.886   0.848   3.194  0.0000  0.0000  0.0000
 1382UNL      C 6085   2.893   0.573   3.200  0.0000  0.0000  0.0000
 1382UNL      C 6086   2.861   0.634   3.344  0.0000  0.0000  0.0000
 1382UNL      C 6087   2.858   0.778   3.339  0.0000  0.0000  0.0000
 1382UNL      N 6088   2.876   0.983   3.209  0.0000  0.0000  0.0000
 1382UNL      N 6089   2.826   0.859   3.442  0.0000  0.0000  0.0000
 1382UNL      S 6090   2.833   1.011   3.386  0.0000  0.0000  0.0000
 1383UNL      C 6091   2.830   0.558   3.462  0.0000  0.0000  0.0000
 1383UNL      C 6092   2.824   0.421   3.475  0.0000  0.0000  0.0000
 1383UNL      C 6093   2.782   0.380   3.603  0.0000  0.0000  0.0000
 1383UNL      C 6094   2.757   0.486   3.686  0.0000  0.0000  0.0000
 1383UNL      S 6095   2.784   0.637   3.612  0.0000  0.0000  0.0000
 1384UNL      C 6096   2.707   0.441   3.815  0.0000  0.0000  0.0000
 1384UNL      C 6097   2.701   0.300   3.807  0.0000  0.0000  0.0000
 1385UNL      C 6098   2.753   0.248   3.671  0.0000  0.0000  0.0000
 1386UNL      C 6099   2.654   0.227   3.914  0.0000  0.0000  0.0000
 1387UNL      C 6100   2.880   0.163   3.692  0.0000  0.0000  0.0000
 1387UNL      C 6101   2.645   0.168   3.597  0.0000  0.0000  0.0000
 1387UNL      C 6102   2.519   0.241   3.563  0.0000  0.0000  0.0000
 1387UNL      C 6103   2.993   0.233   3.764  0.0000  0.0000  0.0000
 1387UNL      C 6104   2.415   0.152   3.503  0.0000  0.0000  0.0000
 1387UNL      C 6105   2.287   0.221   3.466  0.0000  0.0000  0.0000
 1387UNL      C 6106   2.173   0.141   3.410  0.0000  0.0000  0.0000
 1387UNL      C 6107   2.151  -0.005   3.432  0.0000  0.0000  0.0000
 1387UNL      C 6108   2.043  -0.109   3.434  0.0000  0.0000  0.0000
 1387UNL      C 6109   2.064  -0.231   3.349  0.0000  0.0000  0.0000
 1387UNL      C 6110   3.119   0.153   3.788  0.0000  0.0000  0.0000
 1387UNL      C 6111   3.221   0.232   3.865  0.0000  0.0000  0.0000
 1387UNL      C 6112   3.356   0.167   3.885  0.0000  0.0000  0.0000
 1387UNL      C 6113   3.452   0.258   3.956  0.0000  0.0000  0.0000
 1387UNL      C 6114   3.584   0.189   3.980  0.0000  0.0000  0.0000
 1387UNL      C 6115   3.670   0.187   3.856  0.0000  0.0000  0.0000
 1388UNL      C 6116   2.668   0.510   3.927  0.0000  0.0000  0.0000
 1388UNL      C 6117   2.620   0.438   4.034  0.0000  0.0000  0.0000
 1389UNL      C 6118   2.959   0.967   2.411  0.0000  0.0000  0.0000
 1390UNL      C 6119   2.614   0.296   4.028  0.0000  0.0000  0.0000
 1391UNL      C 6120   2.560   0.252   4.156  0.0000  0.0000  0.0000
 1392UNL      C 6121   2.570   0.491   4.169  0.0000  0.0000  0.0000
 1393UNL      C 6122   2.534   0.360   4.237  0.0000  0.0000  0.0000
 1394UNL      C 6123   2.682   0.566   4.244  0.0000  0.0000  0.0000
 1394UNL      C 6124   2.447   0.584   4.151  0.0000  0.0000  0.0000
 1395UNL      S 6125   2.525   0.104   4.232  0.0000  0.0000  0.0000
 1395UNL      C 6126   2.475   0.187   4.378  0.0000  0.0000  0.0000
 1395UNL      C 6127   2.486   0.324   4.363  0.0000  0.0000  0.0000
 1396UNL      C 6128   2.434   0.118   4.498  0.0000  0.0000  0.0000
 1396UNL      C 6129   2.392   0.190   4.609  0.0000  0.0000  0.0000
 1396UNL      C 6130   2.362   0.128   4.735  0.0000  0.0000  0.0000
 1396UNL      C 6131   2.368  -0.009   4.753  0.0000  0.0000  0.0000
 1396UNL      C 6132   2.437  -0.024   4.513  0.0000  0.0000  0.0000
 1396UNL      C 6133   2.404  -0.086   4.638  0.0000  0.0000  0.0000
 1397UNL      C 6134   2.342  -0.078   4.877  0.0000  0.0000  0.0000
 1398UNL      N 6135   2.472  -0.113   4.418  0.0000  0.0000  0.0000
 1398UNL      N 6136   2.417  -0.221   4.634  0.0000  0.0000  0.0000
 1398UNL      S 6137   2.463  -0.258   4.485  0.0000  0.0000  0.0000
 1399UNL      C 6138   2.309  -0.027   4.999  0.0000  0.0000  0.0000
 1399UNL      S 6139   2.282   0.137   5.050  0.0000  0.0000  0.0000
 1399UNL      C 6140   2.295  -0.118   5.113  0.0000  0.0000  0.0000
 1399UNL      O 6141   2.308  -0.238   5.112  0.0000  0.0000  0.0000
 1399UNL      N 6142   2.260  -0.047   5.228  0.0000  0.0000  0.0000
 1399UNL      C 6143   2.249   0.090   5.217  0.0000  0.0000  0.0000
 1399UNL      C 6144   2.248  -0.116   5.357  0.0000  0.0000  0.0000
 1399UNL      C 6145   2.379  -0.125   5.427  0.0000  0.0000  0.0000
 1399UNL      S 6146   2.212   0.195   5.332  0.0000  0.0000  0.0000
 1400UNL      C 6147   2.331   0.521   4.081  0.0000  0.0000  0.0000
 1400UNL      C 6148   2.205   0.610   4.070  0.0000  0.0000  0.0000
 1400UNL      C 6149   2.137   0.637   4.205  0.0000  0.0000  0.0000
 1400UNL      C 6150   2.070   0.514   4.269  0.0000  0.0000  0.0000
 1400UNL      C 6151   1.993   0.530   4.401  0.0000  0.0000  0.0000
 1400UNL      C 6152   2.090   0.548   4.518  0.0000  0.0000  0.0000
 1400UNL      C 6153   2.008   0.570   4.646  0.0000  0.0000  0.0000
 1400UNL      C 6154   2.808   0.482   4.271  0.0000  0.0000  0.0000
 1400UNL      C 6155   2.909   0.541   4.365  0.0000  0.0000  0.0000
 1400UNL      C 6156   2.859   0.534   4.512  0.0000  0.0000  0.0000
 1400UNL      C 6157   2.969   0.573   4.616  0.0000  0.0000  0.0000
 1400UNL      C 6158   2.908   0.563   4.758  0.0000  0.0000  0.0000
 1400UNL      C 6159   3.017   0.591   4.864  0.0000  0.0000  0.0000
 1400UNL      C 6160   2.967   0.559   5.011  0.0000  0.0000  0.0000
 1401UNL      C 6161   2.811  -0.139   4.379  0.0000  0.0000  0.0000
 1401UNL      C 6162   2.796  -0.034   4.482  0.0000  0.0000  0.0000
 1401UNL      N 6163   2.867  -0.084   4.262  0.0000  0.0000  0.0000
 1401UNL      S 6164   2.852   0.119   4.420  0.0000  0.0000  0.0000
 1401UNL      C 6165   2.897   0.050   4.265  0.0000  0.0000  0.0000
 1401UNL      C 6166   2.889  -0.170   4.146  0.0000  0.0000  0.0000
 1401UNL      S 6167   2.964   0.138   4.147  0.0000  0.0000  0.0000
 1401UNL      O 6168   2.778  -0.254   4.388  0.0000  0.0000  0.0000
 1401UNL      C 6169   2.751  -0.069   4.605  0.0000  0.0000  0.0000
 1402UNL      C 6170   2.724   0.012   4.722  0.0000  0.0000  0.0000
 1402UNL      C 6171   2.725   0.149   4.729  0.0000  0.0000  0.0000
 1402UNL      C 6172   2.691  -0.056   4.842  0.0000  0.0000  0.0000
 1402UNL      C 6173   2.698   0.220   4.847  0.0000  0.0000  0.0000
 1402UNL      C 6174   2.666   0.158   4.968  0.0000  0.0000  0.0000
 1402UNL      C 6175   2.662   0.015   4.963  0.0000  0.0000  0.0000
 1402UNL      N 6176   2.681  -0.191   4.856  0.0000  0.0000  0.0000
 1402UNL      N 6177   2.631  -0.067   5.067  0.0000  0.0000  0.0000
 1402UNL      S 6178   2.638  -0.218   5.010  0.0000  0.0000  0.0000
 1403UNL      C 6179   2.635   0.234   5.087  0.0000  0.0000  0.0000
 1403UNL      C 6180   2.629   0.371   5.100  0.0000  0.0000  0.0000
 1403UNL      C 6181   2.587   0.412   5.227  0.0000  0.0000  0.0000
 1403UNL      C 6182   2.562   0.306   5.310  0.0000  0.0000  0.0000
 1403UNL      S 6183   2.589   0.155   5.237  0.0000  0.0000  0.0000
 1404UNL      C 6184   2.511   0.351   5.439  0.0000  0.0000  0.0000
 1404UNL      C 6185   2.506   0.492   5.432  0.0000  0.0000  0.0000
 1405UNL      C 6186   2.558   0.545   5.295  0.0000  0.0000  0.0000
 1406UNL      C 6187   2.459   0.565   5.538  0.0000  0.0000  0.0000
 1407UNL      C 6188   2.685   0.630   5.317  0.0000  0.0000  0.0000
 1407UNL      C 6189   2.450   0.624   5.221  0.0000  0.0000  0.0000
 1407UNL      C 6190   2.324   0.552   5.187  0.0000  0.0000  0.0000
 1407UNL      C 6191   2.798   0.560   5.389  0.0000  0.0000  0.0000
 1407UNL      C 6192   2.220   0.641   5.127  0.0000  0.0000  0.0000
 1407UNL      C 6193   2.092   0.571   5.090  0.0000  0.0000  0.0000
 1407UNL      C 6194   1.978   0.651   5.034  0.0000  0.0000  0.0000
 1407UNL      C 6195   1.956   0.798   5.056  0.0000  0.0000  0.0000
 1407UNL      C 6196   1.848   0.901   5.058  0.0000  0.0000  0.0000
 1407UNL      C 6197   1.869   1.023   4.973  0.0000  0.0000  0.0000
 1407UNL      C 6198   2.924   0.640   5.412  0.0000  0.0000  0.0000
 1407UNL      C 6199   3.026   0.560   5.489  0.0000  0.0000  0.0000
 1407UNL      C 6200   3.161   0.625   5.509  0.0000  0.0000  0.0000
 1407UNL      C 6201   3.257   0.534   5.580  0.0000  0.0000  0.0000
 1407UNL      C 6202   3.389   0.604   5.604  0.0000  0.0000  0.0000
 1407UNL      C 6203   3.475   0.605   5.481  0.0000  0.0000  0.0000
 1408UNL      C 6204   2.472   0.282   5.551  0.0000  0.0000  0.0000
 1408UNL      C 6205   2.425   0.354   5.658  0.0000  0.0000  0.0000
 1409UNL      C 6206   2.764  -0.175   4.059  0.0000  0.0000  0.0000
 1410UNL      C 6207   2.419   0.496   5.652  0.0000  0.0000  0.0000
 1411UNL      C 6208   2.365   0.540   5.780  0.0000  0.0000  0.0000
 1412UNL      C 6209   2.375   0.302   5.793  0.0000  0.0000  0.0000
 1413UNL      C 6210   2.339   0.432   5.861  0.0000  0.0000  0.0000
 1414UNL      C 6211   2.487   0.227   5.869  0.0000  0.0000  0.0000
 1414UNL      C 6212   2.252   0.209   5.776  0.0000  0.0000  0.0000
 1415UNL      S 6213   2.329   0.689   5.857  0.0000  0.0000  0.0000
 1415UNL      C 6214   2.280   0.606   6.002  0.0000  0.0000  0.0000
 1415UNL      C 6215   2.291   0.469   5.987  0.0000  0.0000  0.0000
 1416UNL      C 6216   2.239   0.674   6.122  0.0000  0.0000  0.0000
 1416UNL      C 6217   2.197   0.603   6.233  0.0000  0.0000  0.0000
 1416UNL      C 6218   2.167   0.664   6.359  0.0000  0.0000  0.0000
 1416UNL      C 6219   2.173   0.801   6.377  0.0000  0.0000  0.0000
 1416UNL      C 6220   2.242   0.817   6.137  0.0000  0.0000  0.0000
 1416UNL      C 6221   2.209   0.878   6.262  0.0000  0.0000  0.0000
 1417UNL      C 6222   2.147   0.870   6.525  0.0000  0.0000  0.0000
 1418UNL      N 6223   2.277   0.905   6.042  0.0000  0.0000  0.0000
 1418UNL      N 6224   2.222   1.014   6.258  0.0000  0.0000  0.0000
 1418UNL      S 6225   2.268   1.051   6.110  0.0000  0.0000  0.0000
 1419UNL      C 6226   2.114   0.820   6.646  0.0000  0.0000  0.0000
 1419UNL      S 6227   2.087   0.655   6.698  0.0000  0.0000  0.0000
 1419UNL      C 6228   2.099   0.910   6.761  0.0000  0.0000  0.0000
 1419UNL      O 6229   2.113   1.031   6.759  0.0000  0.0000  0.0000
 1419UNL      N 6230   2.065   0.840   6.876  0.0000  0.0000  0.0000
 1419UNL      C 6231   2.054   0.703   6.864  0.0000  0.0000  0.0000
 1419UNL      C 6232   2.052   0.908   7.005  0.0000  0.0000  0.0000
 1419UNL      C 6233   2.184   0.917   7.074  0.0000  0.0000  0.0000
 1419UNL      S 6234   2.017   0.597   6.980  0.0000  0.0000  0.0000
 1420UNL      C 6235   2.136   0.271   5.705  0.0000  0.0000  0.0000
 1420UNL      C 6236   2.010   0.183   5.694  0.0000  0.0000  0.0000
 1420UNL      C 6237   1.942   0.155   5.829  0.0000  0.0000  0.0000
 1420UNL      C 6238   1.875   0.278   5.893  0.0000  0.0000  0.0000
 1420UNL      C 6239   1.797   0.263   6.025  0.0000  0.0000  0.0000
 1420UNL      C 6240   1.895   0.244   6.143  0.0000  0.0000  0.0000
 1420UNL      C 6241   1.813   0.223   6.270  0.0000  0.0000  0.0000
 1420UNL      C 6242   2.613   0.310   5.895  0.0000  0.0000  0.0000
 1420UNL      C 6243   2.714   0.252   5.990  0.0000  0.0000  0.0000
 1420UNL      C 6244   2.664   0.259   6.136  0.0000  0.0000  0.0000
 1420UNL      C 6245   2.774   0.219   6.241  0.0000  0.0000  0.0000
 1420UNL      C 6246   2.713   0.229   6.383  0.0000  0.0000  0.0000
 1420UNL      C 6247   2.822   0.201   6.488  0.0000  0.0000  0.0000
 1420UNL      C 6248   2.772   0.233   6.635  0.0000  0.0000  0.0000
 1421UNL      C 6249   2.706   0.654   7.013  0.0000  0.0000  0.0000
 1421UNL      C 6250   2.720   0.759   6.910  0.0000  0.0000  0.0000
 1421UNL      N 6251   2.650   0.709   7.130  0.0000  0.0000  0.0000
 1421UNL      S 6252   2.665   0.911   6.972  0.0000  0.0000  0.0000
 1421UNL      C 6253   2.620   0.843   7.127  0.0000  0.0000  0.0000
 1421UNL      C 6254   2.628   0.622   7.246  0.0000  0.0000  0.0000
 1421UNL      S 6255   2.553   0.931   7.245  0.0000  0.0000  0.0000
 1421UNL      O 6256   2.738   0.538   7.004  0.0000  0.0000  0.0000
 1421UNL      C 6257   2.766   0.724   6.787  0.0000  0.0000  0.0000
 1422UNL      C 6258   2.793   0.805   6.670  0.0000  0.0000  0.0000
 1422UNL      C 6259   2.792   0.942   6.663  0.0000  0.0000  0.0000
 1422UNL      C 6260   2.826   0.737   6.550  0.0000  0.0000  0.0000
 1422UNL      C 6261   2.819   1.012   6.545  0.0000  0.0000  0.0000
 1422UNL      C 6262   2.851   0.951   6.401  0.0000  0.0000  0.0000
 1422UNL      C 6263   2.855   0.807   6.406  0.0000  0.0000  0.0000
 1422UNL      N 6264   2.836   0.602   6.536  0.0000  0.0000  0.0000
 1422UNL      N 6265   2.886   0.725   6.302  0.0000  0.0000  0.0000
 1422UNL      S 6266   2.879   0.574   6.359  0.0000  0.0000  0.0000
 1423UNL      C 6267   2.883   1.026   6.282  0.0000  0.0000  0.0000
 1423UNL      C 6268   2.888   1.164   6.269  0.0000  0.0000  0.0000
 1423UNL      C 6269   2.930   1.204   6.141  0.0000  0.0000  0.0000
 1423UNL      C 6270   2.955   1.099   6.058  0.0000  0.0000  0.0000
 1423UNL      S 6271   2.928   0.948   6.132  0.0000  0.0000  0.0000
 1424UNL      C 6272   3.006   1.144   5.930  0.0000  0.0000  0.0000
 1424UNL      C 6273   3.011   1.285   5.937  0.0000  0.0000  0.0000
 1425UNL      C 6274   2.959   1.337   6.073  0.0000  0.0000  0.0000
 1426UNL      C 6275   3.058   1.358   5.831  0.0000  0.0000  0.0000
 1427UNL      C 6276   2.832   1.422   6.052  0.0000  0.0000  0.0000
 1427UNL      C 6277   3.067   1.417   6.147  0.0000  0.0000  0.0000
 1427UNL      C 6278   3.193   1.344   6.181  0.0000  0.0000  0.0000
 1427UNL      C 6279   2.719   1.352   5.980  0.0000  0.0000  0.0000
 1427UNL      C 6280   3.297   1.433   6.242  0.0000  0.0000  0.0000
 1427UNL      C 6281   3.425   1.364   6.278  0.0000  0.0000  0.0000
 1427UNL      C 6282   3.539   1.443   6.335  0.0000  0.0000  0.0000
 1427UNL      C 6283   3.561   1.590   6.313  0.0000  0.0000  0.0000
 1427UNL      C 6284   3.669   1.694   6.311  0.0000  0.0000  0.0000
 1427UNL      C 6285   3.648   1.815   6.395  0.0000  0.0000  0.0000
 1427UNL      C 6286   2.594   1.432   5.956  0.0000  0.0000  0.0000
 1427UNL      C 6287   2.491   1.353   5.880  0.0000  0.0000  0.0000
 1427UNL      C 6288   2.356   1.418   5.859  0.0000  0.0000  0.0000
 1427UNL      C 6289   2.260   1.327   5.788  0.0000  0.0000  0.0000
 1427UNL      C 6290   2.128   1.396   5.764  0.0000  0.0000  0.0000
 1427UNL      C 6291   2.042   1.398   5.888  0.0000  0.0000  0.0000
 1428UNL      C 6292   3.045   1.075   5.817  0.0000  0.0000  0.0000
 1428UNL      C 6293   3.092   1.147   5.711  0.0000  0.0000  0.0000
 1429UNL      C 6294   2.753   0.617   7.333  0.0000  0.0000  0.0000
 1430UNL      C 6295   3.098   1.289   5.717  0.0000  0.0000  0.0000
 1431UNL      C 6296   3.152   1.333   5.588  0.0000  0.0000  0.0000
 1432UNL      C 6297   3.142   1.094   5.576  0.0000  0.0000  0.0000
 1433UNL      C 6298   3.178   1.225   5.508  0.0000  0.0000  0.0000
 1434UNL      C 6299   3.030   1.019   5.500  0.0000  0.0000  0.0000
 1434UNL      C 6300   3.265   1.001   5.593  0.0000  0.0000  0.0000
 1435UNL      S 6301   3.188   1.481   5.512  0.0000  0.0000  0.0000
 1435UNL      C 6302   3.238   1.398   5.366  0.0000  0.0000  0.0000
 1435UNL      C 6303   3.227   1.261   5.382  0.0000  0.0000  0.0000
 1436UNL      C 6304   3.278   1.467   5.246  0.0000  0.0000  0.0000
 1436UNL      C 6305   3.320   1.395   5.135  0.0000  0.0000  0.0000
 1436UNL      C 6306   3.350   1.457   5.010  0.0000  0.0000  0.0000
 1436UNL      C 6307   3.344   1.593   4.991  0.0000  0.0000  0.0000
 1436UNL      C 6308   3.275   1.609   5.231  0.0000  0.0000  0.0000
 1436UNL      C 6309   3.308   1.671   5.107  0.0000  0.0000  0.0000
 1437UNL      C 6310   3.370   1.662   4.867  0.0000  0.0000  0.0000
 1438UNL      N 6311   3.240   1.698   5.327  0.0000  0.0000  0.0000
 1438UNL      N 6312   3.295   1.806   5.110  0.0000  0.0000  0.0000
 1438UNL      S 6313   3.250   1.843   5.259  0.0000  0.0000  0.0000
 1439UNL      C 6314   3.403   1.612   4.746  0.0000  0.0000  0.0000
 1439UNL      S 6315   3.430   1.448   4.694  0.0000  0.0000  0.0000
 1439UNL      C 6316   3.417   1.703   4.631  0.0000  0.0000  0.0000
 1439UNL      O 6317   3.404   1.823   4.633  0.0000  0.0000  0.0000
 1439UNL      N 6318   3.452   1.632   4.516  0.0000  0.0000  0.0000
 1439UNL      C 6319   3.463   1.495   4.528  0.0000  0.0000  0.0000
 1439UNL      C 6320   3.465   1.701   4.388  0.0000  0.0000  0.0000
 1439UNL      C 6321   3.333   1.709   4.318  0.0000  0.0000  0.0000
 1439UNL      S 6322   3.500   1.390   4.412  0.0000  0.0000  0.0000
 1440UNL      C 6323   3.381   1.063   5.663  0.0000  0.0000  0.0000
 1440UNL      C 6324   3.507   0.975   5.675  0.0000  0.0000  0.0000
 1440UNL      C 6325   3.575   0.948   5.540  0.0000  0.0000  0.0000
 1440UNL      C 6326   3.642   1.070   5.475  0.0000  0.0000  0.0000
 1440UNL      C 6327   3.720   1.055   5.343  0.0000  0.0000  0.0000
 1440UNL      C 6328   3.622   1.037   5.226  0.0000  0.0000  0.0000
 1440UNL      C 6329   3.705   1.015   5.098  0.0000  0.0000  0.0000
 1440UNL      C 6330   2.904   1.102   5.474  0.0000  0.0000  0.0000
 1440UNL      C 6331   2.803   1.044   5.379  0.0000  0.0000  0.0000
 1440UNL      C 6332   2.853   1.051   5.233  0.0000  0.0000  0.0000
 1440UNL      C 6333   2.743   1.011   5.128  0.0000  0.0000  0.0000
 1440UNL      C 6334   2.804   1.022   4.986  0.0000  0.0000  0.0000
 1440UNL      C 6335   2.695   0.993   4.880  0.0000  0.0000  0.0000
 1440UNL      C 6336   2.745   1.025   4.733  0.0000  0.0000  0.0000
 1441UNL      C 6337   3.291   3.309   2.118  0.0000  0.0000  0.0000
 1441UNL      C 6338   3.306   3.203   2.015  0.0000  0.0000  0.0000
 1441UNL      N 6339   3.235   3.254   2.234  0.0000  0.0000  0.0000
 1441UNL      S 6340   3.250   3.051   2.076  0.0000  0.0000  0.0000
 1441UNL      C 6341   3.205   3.120   2.231  0.0000  0.0000  0.0000
 1441UNL      C 6342   3.213   3.340   2.351  0.0000  0.0000  0.0000
 1441UNL      S 6343   3.138   3.032   2.350  0.0000  0.0000  0.0000
 1441UNL      O 6344   3.324   3.424   2.108  0.0000  0.0000  0.0000
 1441UNL      C 6345   3.351   3.239   1.891  0.0000  0.0000  0.0000
 1442UNL      C 6346   3.378   3.158   1.775  0.0000  0.0000  0.0000
 1442UNL      C 6347   3.377   3.021   1.768  0.0000  0.0000  0.0000
 1442UNL      C 6348   3.412   3.226   1.654  0.0000  0.0000  0.0000
 1442UNL      C 6349   3.404   2.950   1.649  0.0000  0.0000  0.0000
 1442UNL      C 6350   3.436   3.011   1.528  0.0000  0.0000  0.0000
 1442UNL      C 6351   3.440   3.155   1.533  0.0000  0.0000  0.0000
 1442UNL      N 6352   3.421   3.360   1.640  0.0000  0.0000  0.0000
 1442UNL      N 6353   3.471   3.237   1.430  0.0000  0.0000  0.0000
 1442UNL      S 6354   3.464   3.388   1.486  0.0000  0.0000  0.0000
 1443UNL      C 6355   3.468   2.936   1.410  0.0000  0.0000  0.0000
 1443UNL      C 6356   3.473   2.799   1.397  0.0000  0.0000  0.0000
 1443UNL      C 6357   3.515   2.758   1.269  0.0000  0.0000  0.0000
 1443UNL      C 6358   3.540   2.864   1.186  0.0000  0.0000  0.0000
 1443UNL      S 6359   3.513   3.014   1.260  0.0000  0.0000  0.0000
 1444UNL      C 6360   3.591   2.818   1.058  0.0000  0.0000  0.0000
 1444UNL      C 6361   3.596   2.678   1.065  0.0000  0.0000  0.0000
 1445UNL      C 6362   3.545   2.625   1.201  0.0000  0.0000  0.0000
 1446UNL      C 6363   3.643   2.605   0.958  0.0000  0.0000  0.0000
 1447UNL      C 6364   3.417   2.540   1.180  0.0000  0.0000  0.0000
 1447UNL      C 6365   3.652   2.545   1.275  0.0000  0.0000  0.0000
 1447UNL      C 6366   3.778   2.618   1.309  0.0000  0.0000  0.0000
 1447UNL      C 6367   3.305   2.610   1.108  0.0000  0.0000  0.0000
 1447UNL      C 6368   3.883   2.529   1.370  0.0000  0.0000  0.0000
 1447UNL      C 6369   4.010   2.599   1.406  0.0000  0.0000  0.0000
 1447UNL      C 6370   4.124   2.519   1.462  0.0000  0.0000  0.0000
 1447UNL      C 6371   4.146   2.372   1.441  0.0000  0.0000  0.0000
 1447UNL      C 6372   4.254   2.268   1.438  0.0000  0.0000  0.0000
 1447UNL      C 6373   4.233   2.147   1.523  0.0000  0.0000  0.0000
 1447UNL      C 6374   3.179   2.530   1.084  0.0000  0.0000  0.0000
 1447UNL      C 6375   3.076   2.610   1.008  0.0000  0.0000  0.0000
 1447UNL      C 6376   2.942   2.545   0.987  0.0000  0.0000  0.0000
 1447UNL      C 6377   2.845   2.636   0.916  0.0000  0.0000  0.0000
 1447UNL      C 6378   2.714   2.566   0.892  0.0000  0.0000  0.0000
 1447UNL      C 6379   2.627   2.564   1.016  0.0000  0.0000  0.0000
 1448UNL      C 6380   3.630   2.887   0.945  0.0000  0.0000  0.0000
 1448UNL      C 6381   3.677   2.815   0.838  0.0000  0.0000  0.0000
 1449UNL      C 6382   3.338   3.345   2.438  0.0000  0.0000  0.0000
 1450UNL      C 6383   3.683   2.674   0.845  0.0000  0.0000  0.0000
 1451UNL      C 6384   3.737   2.629   0.716  0.0000  0.0000  0.0000
 1452UNL      C 6385   3.727   2.868   0.703  0.0000  0.0000  0.0000
 1453UNL      C 6386   3.763   2.738   0.635  0.0000  0.0000  0.0000
 1454UNL      C 6387   3.615   2.943   0.628  0.0000  0.0000  0.0000
 1454UNL      C 6388   3.850   2.961   0.721  0.0000  0.0000  0.0000
 1455UNL      S 6389   3.773   2.481   0.640  0.0000  0.0000  0.0000
 1455UNL      C 6390   3.823   2.564   0.494  0.0000  0.0000  0.0000
 1455UNL      C 6391   3.812   2.701   0.510  0.0000  0.0000  0.0000
 1456UNL      C 6392   3.863   2.495   0.374  0.0000  0.0000  0.0000
 1456UNL      C 6393   3.906   2.567   0.263  0.0000  0.0000  0.0000
 1456UNL      C 6394   3.935   2.505   0.138  0.0000  0.0000  0.0000
 1456UNL      C 6395   3.929   2.369   0.119  0.0000  0.0000  0.0000
 1456UNL      C 6396   3.860   2.353   0.359  0.0000  0.0000  0.0000
 1456UNL      C 6397   3.893   2.291   0.235  0.0000  0.0000  0.0000
 1457UNL      C 6398   3.955   2.300  -0.029  0.0000  0.0000  0.0000
 1458UNL      N 6399   3.825   2.264   0.454  0.0000  0.0000  0.0000
 1458UNL      N 6400   3.880   2.156   0.238  0.0000  0.0000  0.0000
 1458UNL      S 6401   3.835   2.119   0.387  0.0000  0.0000  0.0000
 1459UNL      C 6402   3.988   2.350  -0.150  0.0000  0.0000  0.0000
 1459UNL      S 6403   4.016   2.514  -0.201  0.0000  0.0000  0.0000
 1459UNL      C 6404   4.003   2.260  -0.264  0.0000  0.0000  0.0000
 1459UNL      O 6405   3.989   2.139  -0.263  0.0000  0.0000  0.0000
 1459UNL      N 6406   4.038   2.330  -0.379  0.0000  0.0000  0.0000
 1459UNL      C 6407   4.049   2.467  -0.368  0.0000  0.0000  0.0000
 1459UNL      C 6408   4.050   2.262  -0.508  0.0000  0.0000  0.0000
 1459UNL      C 6409   3.919   2.253  -0.578  0.0000  0.0000  0.0000
 1459UNL      S 6410   4.085   2.573  -0.483  0.0000  0.0000  0.0000
 1460UNL      C 6411   3.966   2.899   0.791  0.0000  0.0000  0.0000
 1460UNL      C 6412   4.092   2.987   0.803  0.0000  0.0000  0.0000
 1460UNL      C 6413   4.160   3.014   0.668  0.0000  0.0000  0.0000
 1460UNL      C 6414   4.227   2.892   0.603  0.0000  0.0000  0.0000
 1460UNL      C 6415   4.305   2.907   0.471  0.0000  0.0000  0.0000
 1460UNL      C 6416   4.207   2.926   0.354  0.0000  0.0000  0.0000
 1460UNL      C 6417   4.290   2.947   0.226  0.0000  0.0000  0.0000
 1460UNL      C 6418   3.489   2.860   0.601  0.0000  0.0000  0.0000
 1460UNL      C 6419   3.388   2.918   0.507  0.0000  0.0000  0.0000
 1460UNL      C 6420   3.438   2.911   0.361  0.0000  0.0000  0.0000
 1460UNL      C 6421   3.329   2.951   0.256  0.0000  0.0000  0.0000
 1460UNL      C 6422   3.389   2.940   0.114  0.0000  0.0000  0.0000
 1460UNL      C 6423   3.280   2.969   0.008  0.0000  0.0000  0.0000
 1460UNL      C 6424   3.330   2.937  -0.139  0.0000  0.0000  0.0000
 1461UNL      C 6425   3.396   2.516  -0.517  0.0000  0.0000  0.0000
 1461UNL      C 6426   3.382   2.411  -0.414  0.0000  0.0000  0.0000
 1461UNL      N 6427   3.452   2.461  -0.633  0.0000  0.0000  0.0000
 1461UNL      S 6428   3.437   2.259  -0.475  0.0000  0.0000  0.0000
 1461UNL      C 6429   3.482   2.327  -0.630  0.0000  0.0000  0.0000
 1461UNL      C 6430   3.475   2.548  -0.750  0.0000  0.0000  0.0000
 1461UNL      S 6431   3.549   2.239  -0.749  0.0000  0.0000  0.0000
 1461UNL      O 6432   3.364   2.631  -0.507  0.0000  0.0000  0.0000
 1461UNL      C 6433   3.336   2.446  -0.290  0.0000  0.0000  0.0000
 1462UNL      C 6434   3.309   2.365  -0.174  0.0000  0.0000  0.0000
 1462UNL      C 6435   3.311   2.228  -0.167  0.0000  0.0000  0.0000
 1462UNL      C 6436   3.276   2.433  -0.054  0.0000  0.0000  0.0000
 1462UNL      C 6437   3.283   2.158  -0.048  0.0000  0.0000  0.0000
 1462UNL      C 6438   3.251   2.219   0.096  0.0000  0.0000  0.0000
 1462UNL      C 6439   3.248   2.363   0.091  0.0000  0.0000  0.0000
 1462UNL      N 6440   3.266   2.568  -0.039  0.0000  0.0000  0.0000
 1462UNL      N 6441   3.216   2.444   0.194  0.0000  0.0000  0.0000
 1462UNL      S 6442   3.223   2.596   0.138  0.0000  0.0000  0.0000
 1463UNL      C 6443   3.220   2.143   0.214  0.0000  0.0000  0.0000
 1463UNL      C 6444   3.214   2.006   0.227  0.0000  0.0000  0.0000
 1463UNL      C 6445   3.172   1.965   0.355  0.0000  0.0000  0.0000
 1463UNL      C 6446   3.147   2.071   0.438  0.0000  0.0000  0.0000
 1463UNL      S 6447   3.174   2.222   0.364  0.0000  0.0000  0.0000
 1464UNL      C 6448   3.097   2.026   0.567  0.0000  0.0000  0.0000
 1464UNL      C 6449   3.091   1.885   0.559  0.0000  0.0000  0.0000
 1465UNL      C 6450   3.143   1.833   0.423  0.0000  0.0000  0.0000
 1466UNL      C 6451   3.044   1.812   0.666  0.0000  0.0000  0.0000
 1467UNL      C 6452   3.270   1.748   0.444  0.0000  0.0000  0.0000
 1467UNL      C 6453   3.035   1.753   0.349  0.0000  0.0000  0.0000
 1467UNL      C 6454   2.909   1.826   0.315  0.0000  0.0000  0.0000
 1467UNL      C 6455   3.383   1.818   0.516  0.0000  0.0000  0.0000
 1467UNL      C 6456   2.805   1.737   0.255  0.0000  0.0000  0.0000
 1467UNL      C 6457   2.677   1.806   0.218  0.0000  0.0000  0.0000
 1467UNL      C 6458   2.563   1.726   0.162  0.0000  0.0000  0.0000
 1467UNL      C 6459   2.541   1.580   0.184  0.0000  0.0000  0.0000
 1467UNL      C 6460   2.433   1.476   0.186  0.0000  0.0000  0.0000
 1467UNL      C 6461   2.454   1.354   0.101  0.0000  0.0000  0.0000
 1467UNL      C 6462   3.509   1.738   0.540  0.0000  0.0000  0.0000
 1467UNL      C 6463   3.611   1.817   0.617  0.0000  0.0000  0.0000
 1467UNL      C 6464   3.746   1.752   0.637  0.0000  0.0000  0.0000
 1467UNL      C 6465   3.842   1.843   0.708  0.0000  0.0000  0.0000
 1467UNL      C 6466   3.974   1.774   0.732  0.0000  0.0000  0.0000
 1467UNL      C 6467   4.060   1.772   0.608  0.0000  0.0000  0.0000
 1468UNL      C 6468   3.058   2.095   0.679  0.0000  0.0000  0.0000
 1468UNL      C 6469   3.010   2.023   0.786  0.0000  0.0000  0.0000
 1469UNL      C 6470   3.349   2.552  -0.837  0.0000  0.0000  0.0000
 1470UNL      C 6471   3.004   1.881   0.780  0.0000  0.0000  0.0000
 1471UNL      C 6472   2.950   1.837   0.908  0.0000  0.0000  0.0000
 1472UNL      C 6473   2.960   2.076   0.921  0.0000  0.0000  0.0000
 1473UNL      C 6474   2.924   1.945   0.989  0.0000  0.0000  0.0000
 1474UNL      C 6475   3.072   2.151   0.996  0.0000  0.0000  0.0000
 1474UNL      C 6476   2.837   2.169   0.903  0.0000  0.0000  0.0000
 1475UNL      S 6477   2.915   1.689   0.984  0.0000  0.0000  0.0000
 1475UNL      C 6478   2.865   1.772   1.130  0.0000  0.0000  0.0000
 1475UNL      C 6479   2.876   1.909   1.115  0.0000  0.0000  0.0000
 1476UNL      C 6480   2.824   1.703   1.250  0.0000  0.0000  0.0000
 1476UNL      C 6481   2.782   1.775   1.361  0.0000  0.0000  0.0000
 1476UNL      C 6482   2.752   1.713   1.487  0.0000  0.0000  0.0000
 1476UNL      C 6483   2.758   1.576   1.505  0.0000  0.0000  0.0000
 1476UNL      C 6484   2.827   1.561   1.265  0.0000  0.0000  0.0000
 1476UNL      C 6485   2.794   1.499   1.390  0.0000  0.0000  0.0000
 1477UNL      C 6486   2.732   1.507   1.629  0.0000  0.0000  0.0000
 1478UNL      N 6487   2.862   1.472   1.170  0.0000  0.0000  0.0000
 1478UNL      N 6488   2.807   1.364   1.386  0.0000  0.0000  0.0000
 1478UNL      S 6489   2.853   1.327   1.237  0.0000  0.0000  0.0000
 1479UNL      C 6490   2.699   1.558   1.751  0.0000  0.0000  0.0000
 1479UNL      S 6491   2.672   1.722   1.802  0.0000  0.0000  0.0000
 1479UNL      C 6492   2.685   1.467   1.865  0.0000  0.0000  0.0000
 1479UNL      O 6493   2.698   1.347   1.864  0.0000  0.0000  0.0000
 1479UNL      N 6494   2.650   1.538   1.980  0.0000  0.0000  0.0000
 1479UNL      C 6495   2.639   1.675   1.969  0.0000  0.0000  0.0000
 1479UNL      C 6496   2.638   1.469   2.109  0.0000  0.0000  0.0000
 1479UNL      C 6497   2.769   1.460   2.179  0.0000  0.0000  0.0000
 1479UNL      S 6498   2.602   1.780   2.084  0.0000  0.0000  0.0000
 1480UNL      C 6499   2.721   2.106   0.833  0.0000  0.0000  0.0000
 1480UNL      C 6500   2.595   2.195   0.822  0.0000  0.0000  0.0000
 1480UNL      C 6501   2.527   2.222   0.957  0.0000  0.0000  0.0000
 1480UNL      C 6502   2.460   2.099   1.021  0.0000  0.0000  0.0000
 1480UNL      C 6503   2.383   2.115   1.153  0.0000  0.0000  0.0000
 1480UNL      C 6504   2.480   2.133   1.270  0.0000  0.0000  0.0000
 1480UNL      C 6505   2.398   2.155   1.398  0.0000  0.0000  0.0000
 1480UNL      C 6506   3.198   2.067   1.023  0.0000  0.0000  0.0000
 1480UNL      C 6507   3.299   2.126   1.117  0.0000  0.0000  0.0000
 1480UNL      C 6508   3.249   2.119   1.264  0.0000  0.0000  0.0000
 1480UNL      C 6509   3.359   2.158   1.368  0.0000  0.0000  0.0000
 1480UNL      C 6510   3.298   2.148   1.510  0.0000  0.0000  0.0000
 1480UNL      C 6511   3.407   2.176   1.616  0.0000  0.0000  0.0000
 1480UNL      C 6512   3.357   2.144   1.763  0.0000  0.0000  0.0000
 1481UNL      C 6513   3.201   1.446   1.131  0.0000  0.0000  0.0000
 1481UNL      C 6514   3.186   1.551   1.234  0.0000  0.0000  0.0000
 1481UNL      N 6515   3.257   1.501   1.014  0.0000  0.0000  0.0000
 1481UNL      S 6516   3.242   1.704   1.172  0.0000  0.0000  0.0000
 1481UNL      C 6517   3.287   1.635   1.017  0.0000  0.0000  0.0000
 1481UNL      C 6518   3.279   1.415   0.898  0.0000  0.0000  0.0000
 1481UNL      S 6519   3.354   1.723   0.899  0.0000  0.0000  0.0000
 1481UNL      O 6520   3.168   1.331   1.140  0.0000  0.0000  0.0000
 1481UNL      C 6521   3.141   1.516   1.357  0.0000  0.0000  0.0000
 1482UNL      C 6522   3.114   1.597   1.474  0.0000  0.0000  0.0000
 1482UNL      C 6523   3.115   1.734   1.481  0.0000  0.0000  0.0000
 1482UNL      C 6524   3.081   1.529   1.594  0.0000  0.0000  0.0000
 1482UNL      C 6525   3.088   1.805   1.599  0.0000  0.0000  0.0000
 1482UNL      C 6526   3.056   1.743   1.720  0.0000  0.0000  0.0000
 1482UNL      C 6527   3.052   1.600   1.715  0.0000  0.0000  0.0000
 1482UNL      N 6528   3.071   1.394   1.608  0.0000  0.0000  0.0000
 1482UNL      N 6529   3.021   1.518   1.819  0.0000  0.0000  0.0000
 1482UNL      S 6530   3.028   1.367   1.762  0.0000  0.0000  0.0000
 1483UNL      C 6531   3.025   1.819   1.839  0.0000  0.0000  0.0000
 1483UNL      C 6532   3.019   1.956   1.852  0.0000  0.0000  0.0000
 1483UNL      C 6533   2.977   1.997   1.979  0.0000  0.0000  0.0000
 1483UNL      C 6534   2.952   1.891   2.062  0.0000  0.0000  0.0000
 1483UNL      S 6535   2.979   1.740   1.989  0.0000  0.0000  0.0000
 1484UNL      C 6536   2.901   1.936   2.191  0.0000  0.0000  0.0000
 1484UNL      C 6537   2.896   2.077   2.184  0.0000  0.0000  0.0000
 1485UNL      C 6538   2.948   2.130   2.047  0.0000  0.0000  0.0000
 1486UNL      C 6539   2.849   2.150   2.290  0.0000  0.0000  0.0000
 1487UNL      C 6540   3.075   2.215   2.069  0.0000  0.0000  0.0000
 1487UNL      C 6541   2.840   2.209   1.973  0.0000  0.0000  0.0000
 1487UNL      C 6542   2.714   2.137   1.939  0.0000  0.0000  0.0000
 1487UNL      C 6543   3.188   2.145   2.141  0.0000  0.0000  0.0000
 1487UNL      C 6544   2.610   2.226   1.879  0.0000  0.0000  0.0000
 1487UNL      C 6545   2.482   2.156   1.842  0.0000  0.0000  0.0000
 1487UNL      C 6546   2.368   2.236   1.786  0.0000  0.0000  0.0000
 1487UNL      C 6547   2.346   2.383   1.808  0.0000  0.0000  0.0000
 1487UNL      C 6548   2.238   2.486   1.810  0.0000  0.0000  0.0000
 1487UNL      C 6549   2.259   2.608   1.725  0.0000  0.0000  0.0000
 1487UNL      C 6550   3.314   2.225   2.164  0.0000  0.0000  0.0000
 1487UNL      C 6551   3.416   2.145   2.241  0.0000  0.0000  0.0000
 1487UNL      C 6552   3.551   2.210   2.261  0.0000  0.0000  0.0000
 1487UNL      C 6553   3.647   2.119   2.332  0.0000  0.0000  0.0000
 1487UNL      C 6554   3.779   2.189   2.356  0.0000  0.0000  0.0000
 1487UNL      C 6555   3.865   2.190   2.233  0.0000  0.0000  0.0000
 1488UNL      C 6556   2.862   1.867   2.303  0.0000  0.0000  0.0000
 1488UNL      C 6557   2.815   1.939   2.410  0.0000  0.0000  0.0000
 1489UNL      C 6558   3.154   1.410   0.811  0.0000  0.0000  0.0000
 1490UNL      C 6559   2.809   2.081   2.404  0.0000  0.0000  0.0000
 1491UNL      C 6560   2.755   2.125   2.532  0.0000  0.0000  0.0000
 1492UNL      C 6561   2.765   1.887   2.545  0.0000  0.0000  0.0000
 1493UNL      C 6562   2.729   2.017   2.613  0.0000  0.0000  0.0000
 1494UNL      C 6563   2.877   1.812   2.621  0.0000  0.0000  0.0000
 1494UNL      C 6564   2.642   1.794   2.528  0.0000  0.0000  0.0000
 1495UNL      S 6565   2.719   2.274   2.609  0.0000  0.0000  0.0000
 1495UNL      C 6566   2.670   2.191   2.754  0.0000  0.0000  0.0000
 1495UNL      C 6567   2.681   2.054   2.739  0.0000  0.0000  0.0000
 1496UNL      C 6568   2.629   2.259   2.874  0.0000  0.0000  0.0000
 1496UNL      C 6569   2.587   2.188   2.985  0.0000  0.0000  0.0000
 1496UNL      C 6570   2.557   2.249   3.111  0.0000  0.0000  0.0000
 1496UNL      C 6571   2.563   2.386   3.129  0.0000  0.0000  0.0000
 1496UNL      C 6572   2.632   2.402   2.889  0.0000  0.0000  0.0000
 1496UNL      C 6573   2.599   2.463   3.014  0.0000  0.0000  0.0000
 1497UNL      C 6574   2.537   2.455   3.277  0.0000  0.0000  0.0000
 1498UNL      N 6575   2.667   2.490   2.794  0.0000  0.0000  0.0000
 1498UNL      N 6576   2.612   2.599   3.010  0.0000  0.0000  0.0000
 1498UNL      S 6577   2.658   2.636   2.862  0.0000  0.0000  0.0000
 1499UNL      C 6578   2.504   2.405   3.398  0.0000  0.0000  0.0000
 1499UNL      S 6579   2.477   2.240   3.450  0.0000  0.0000  0.0000
 1499UNL      C 6580   2.489   2.495   3.513  0.0000  0.0000  0.0000
 1499UNL      O 6581   2.503   2.616   3.511  0.0000  0.0000  0.0000
 1499UNL      N 6582   2.455   2.425   3.628  0.0000  0.0000  0.0000
 1499UNL      C 6583   2.444   2.288   3.616  0.0000  0.0000  0.0000
 1499UNL      C 6584   2.442   2.493   3.757  0.0000  0.0000  0.0000
 1499UNL      C 6585   2.574   2.502   3.826  0.0000  0.0000  0.0000
 1499UNL      S 6586   2.407   2.182   3.732  0.0000  0.0000  0.0000
 1500UNL      C 6587   2.526   1.856   2.457  0.0000  0.0000  0.0000
 1500UNL      C 6588   2.400   1.768   2.446  0.0000  0.0000  0.0000
 1500UNL      C 6589   2.332   1.740   2.581  0.0000  0.0000  0.0000
 1500UNL      C 6590   2.265   1.863   2.645  0.0000  0.0000  0.0000
 1500UNL      C 6591   2.187   1.848   2.777  0.0000  0.0000  0.0000
 1500UNL      C 6592   2.285   1.829   2.895  0.0000  0.0000  0.0000
 1500UNL      C 6593   2.203   1.808   3.022  0.0000  0.0000  0.0000
 1500UNL      C 6594   3.003   1.895   2.647  0.0000  0.0000  0.0000
 1500UNL      C 6595   3.104   1.837   2.742  0.0000  0.0000  0.0000
 1500UNL      C 6596   3.054   1.844   2.888  0.0000  0.0000  0.0000
 1500UNL      C 6597   3.164   1.804   2.993  0.0000  0.0000  0.0000
 1500UNL      C 6598   3.103   1.814   3.135  0.0000  0.0000  0.0000
 1500UNL      C 6599   3.212   1.786   3.240  0.0000  0.0000  0.0000
 1500UNL      C 6600   3.162   1.818   3.387  0.0000  0.0000  0.0000
 1501UNL      C 6601   3.096   2.239   3.765  0.0000  0.0000  0.0000
 1501UNL      C 6602   3.110   2.344   3.662  0.0000  0.0000  0.0000
 1501UNL      N 6603   3.040   2.294   3.882  0.0000  0.0000  0.0000
 1501UNL      S 6604   3.055   2.496   3.724  0.0000  0.0000  0.0000
 1501UNL      C 6605   3.010   2.428   3.879  0.0000  0.0000  0.0000
 1501UNL      C 6606   3.018   2.207   3.998  0.0000  0.0000  0.0000
 1501UNL      S 6607   2.943   2.516   3.997  0.0000  0.0000  0.0000
 1501UNL      O 6608   3.128   2.123   3.756  0.0000  0.0000  0.0000
 1501UNL      C 6609   3.156   2.309   3.539  0.0000  0.0000  0.0000
 1502UNL      C 6610   3.183   2.390   3.422  0.0000  0.0000  0.0000
 1502UNL      C 6611   3.182   2.527   3.415  0.0000  0.0000  0.0000
 1502UNL      C 6612   3.216   2.322   3.302  0.0000  0.0000  0.0000
 1502UNL      C 6613   3.209   2.597   3.297  0.0000  0.0000  0.0000
 1502UNL      C 6614   3.241   2.536   3.153  0.0000  0.0000  0.0000
 1502UNL      C 6615   3.245   2.392   3.158  0.0000  0.0000  0.0000
 1502UNL      N 6616   3.226   2.187   3.288  0.0000  0.0000  0.0000
 1502UNL      N 6617   3.276   2.310   3.054  0.0000  0.0000  0.0000
 1502UNL      S 6618   3.269   2.159   3.111  0.0000  0.0000  0.0000
 1503UNL      C 6619   3.273   2.611   3.034  0.0000  0.0000  0.0000
 1503UNL      C 6620   3.278   2.749   3.021  0.0000  0.0000  0.0000
 1503UNL      C 6621   3.320   2.789   2.893  0.0000  0.0000  0.0000
 1503UNL      C 6622   3.345   2.684   2.810  0.0000  0.0000  0.0000
 1503UNL      S 6623   3.318   2.533   2.884  0.0000  0.0000  0.0000
 1504UNL      C 6624   3.396   2.729   2.682  0.0000  0.0000  0.0000
 1504UNL      C 6625   3.401   2.870   2.689  0.0000  0.0000  0.0000
 1505UNL      C 6626   3.349   2.922   2.825  0.0000  0.0000  0.0000
 1506UNL      C 6627   3.448   2.943   2.583  0.0000  0.0000  0.0000
 1507UNL      C 6628   3.222   3.007   2.804  0.0000  0.0000  0.0000
 1507UNL      C 6629   3.457   3.002   2.899  0.0000  0.0000  0.0000
 1507UNL      C 6630   3.583   2.929   2.933  0.0000  0.0000  0.0000
 1507UNL      C 6631   3.109   2.937   2.732  0.0000  0.0000  0.0000
 1507UNL      C 6632   3.687   3.018   2.994  0.0000  0.0000  0.0000
 1507UNL      C 6633   3.815   2.949   3.030  0.0000  0.0000  0.0000
 1507UNL      C 6634   3.929   3.028   3.087  0.0000  0.0000  0.0000
 1507UNL      C 6635   3.951   3.175   3.065  0.0000  0.0000  0.0000
 1507UNL      C 6636   4.059   3.279   3.063  0.0000  0.0000  0.0000
 1507UNL      C 6637   4.038   3.400   3.147  0.0000  0.0000  0.0000
 1507UNL      C 6638   2.984   3.017   2.708  0.0000  0.0000  0.0000
 1507UNL      C 6639   2.881   2.938   2.632  0.0000  0.0000  0.0000
 1507UNL      C 6640   2.746   3.003   2.611  0.0000  0.0000  0.0000
 1507UNL      C 6641   2.650   2.912   2.540  0.0000  0.0000  0.0000
 1507UNL      C 6642   2.518   2.981   2.516  0.0000  0.0000  0.0000
 1507UNL      C 6643   2.432   2.983   2.640  0.0000  0.0000  0.0000
 1508UNL      C 6644   3.435   2.660   2.569  0.0000  0.0000  0.0000
 1508UNL      C 6645   3.482   2.732   2.463  0.0000  0.0000  0.0000
 1509UNL      C 6646   3.143   2.202   4.085  0.0000  0.0000  0.0000
 1510UNL      C 6647   3.488   2.874   2.469  0.0000  0.0000  0.0000
 1511UNL      C 6648   3.542   2.918   2.340  0.0000  0.0000  0.0000
 1512UNL      C 6649   3.532   2.679   2.328  0.0000  0.0000  0.0000
 1513UNL      C 6650   3.568   2.810   2.260  0.0000  0.0000  0.0000
 1514UNL      C 6651   3.420   2.604   2.252  0.0000  0.0000  0.0000
 1514UNL      C 6652   3.655   2.586   2.345  0.0000  0.0000  0.0000
 1515UNL      S 6653   3.578   3.066   2.264  0.0000  0.0000  0.0000
 1515UNL      C 6654   3.628   2.983   2.118  0.0000  0.0000  0.0000
 1515UNL      C 6655   3.617   2.846   2.134  0.0000  0.0000  0.0000
 1516UNL      C 6656   3.668   3.052   1.998  0.0000  0.0000  0.0000
 1516UNL      C 6657   3.710   2.980   1.887  0.0000  0.0000  0.0000
 1516UNL      C 6658   3.740   3.042   1.762  0.0000  0.0000  0.0000
 1516UNL      C 6659   3.734   3.178   1.743  0.0000  0.0000  0.0000
 1516UNL      C 6660   3.665   3.194   1.983  0.0000  0.0000  0.0000
 1516UNL      C 6661   3.698   3.256   1.859  0.0000  0.0000  0.0000
 1517UNL      C 6662   3.760   3.247   1.619  0.0000  0.0000  0.0000
 1518UNL      N 6663   3.630   3.283   2.079  0.0000  0.0000  0.0000
 1518UNL      N 6664   3.685   3.391   1.862  0.0000  0.0000  0.0000
 1518UNL      S 6665   3.640   3.428   2.011  0.0000  0.0000  0.0000
 1519UNL      C 6666   3.793   3.197   1.498  0.0000  0.0000  0.0000
 1519UNL      S 6667   3.820   3.033   1.446  0.0000  0.0000  0.0000
 1519UNL      C 6668   3.807   3.288   1.383  0.0000  0.0000  0.0000
 1519UNL      O 6669   3.794   3.408   1.385  0.0000  0.0000  0.0000
 1519UNL      N 6670   3.842   3.217   1.268  0.0000  0.0000  0.0000
 1519UNL      C 6671   3.853   3.080   1.280  0.0000  0.0000  0.0000
 1519UNL      C 6672   3.855   3.286   1.140  0.0000  0.0000  0.0000
 1519UNL      C 6673   3.723   3.294   1.070  0.0000  0.0000  0.0000
 1519UNL      S 6674   3.890   2.975   1.164  0.0000  0.0000  0.0000
 1520UNL      C 6675   3.771   2.648   2.415  0.0000  0.0000  0.0000
 1520UNL      C 6676   3.897   2.560   2.427  0.0000  0.0000  0.0000
 1520UNL      C 6677   3.965   2.533   2.292  0.0000  0.0000  0.0000
 1520UNL      C 6678   4.032   2.655   2.227  0.0000  0.0000  0.0000
 1520UNL      C 6679   4.110   2.640   2.095  0.0000  0.0000  0.0000
 1520UNL      C 6680   4.012   2.622   1.978  0.0000  0.0000  0.0000
 1520UNL      C 6681   4.095   2.600   1.850  0.0000  0.0000  0.0000
 1520UNL      C 6682   3.294   2.687   2.226  0.0000  0.0000  0.0000
 1520UNL      C 6683   3.193   2.629   2.131  0.0000  0.0000  0.0000
 1520UNL      C 6684   3.243   2.636   1.985  0.0000  0.0000  0.0000
 1520UNL      C 6685   3.133   2.596   1.880  0.0000  0.0000  0.0000
 1520UNL      C 6686   3.194   2.607   1.738  0.0000  0.0000  0.0000
 1520UNL      C 6687   3.085   2.578   1.632  0.0000  0.0000  0.0000
 1520UNL      C 6688   3.135   2.610   1.485  0.0000  0.0000  0.0000
 1521UNL      C 6689   2.901   3.309   5.366  0.0000  0.0000  0.0000
 1521UNL      C 6690   2.916   3.203   5.263  0.0000  0.0000  0.0000
 1521UNL      N 6691   2.845   3.254   5.482  0.0000  0.0000  0.0000
 1521UNL      S 6692   2.860   3.051   5.324  0.0000  0.0000  0.0000
 1521UNL      C 6693   2.815   3.120   5.479  0.0000  0.0000  0.0000
 1521UNL      C 6694   2.823   3.340   5.599  0.0000  0.0000  0.0000
 1521UNL      S 6695   2.748   3.032   5.598  0.0000  0.0000  0.0000
 1521UNL      O 6696   2.934   3.424   5.356  0.0000  0.0000  0.0000
 1521UNL      C 6697   2.961   3.239   5.139  0.0000  0.0000  0.0000
 1522UNL      C 6698   2.988   3.158   5.023  0.0000  0.0000  0.0000
 1522UNL      C 6699   2.987   3.021   5.016  0.0000  0.0000  0.0000
 1522UNL      C 6700   3.022   3.226   4.902  0.0000  0.0000  0.0000
 1522UNL      C 6701   3.014   2.950   4.897  0.0000  0.0000  0.0000
 1522UNL      C 6702   3.046   3.011   4.776  0.0000  0.0000  0.0000
 1522UNL      C 6703   3.050   3.155   4.781  0.0000  0.0000  0.0000
 1522UNL      N 6704   3.031   3.360   4.888  0.0000  0.0000  0.0000
 1522UNL      N 6705   3.081   3.237   4.678  0.0000  0.0000  0.0000
 1522UNL      S 6706   3.074   3.388   4.734  0.0000  0.0000  0.0000
 1523UNL      C 6707   3.078   2.936   4.658  0.0000  0.0000  0.0000
 1523UNL      C 6708   3.083   2.799   4.645  0.0000  0.0000  0.0000
 1523UNL      C 6709   3.125   2.758   4.517  0.0000  0.0000  0.0000
 1523UNL      C 6710   3.150   2.864   4.434  0.0000  0.0000  0.0000
 1523UNL      S 6711   3.123   3.014   4.508  0.0000  0.0000  0.0000
 1524UNL      C 6712   3.201   2.818   4.306  0.0000  0.0000  0.0000
 1524UNL      C 6713   3.206   2.678   4.313  0.0000  0.0000  0.0000
 1525UNL      C 6714   3.155   2.625   4.449  0.0000  0.0000  0.0000
 1526UNL      C 6715   3.253   2.605   4.206  0.0000  0.0000  0.0000
 1527UNL      C 6716   3.027   2.540   4.428  0.0000  0.0000  0.0000
 1527UNL      C 6717   3.262   2.545   4.523  0.0000  0.0000  0.0000
 1527UNL      C 6718   3.388   2.618   4.557  0.0000  0.0000  0.0000
 1527UNL      C 6719   2.915   2.610   4.356  0.0000  0.0000  0.0000
 1527UNL      C 6720   3.493   2.529   4.618  0.0000  0.0000  0.0000
 1527UNL      C 6721   3.620   2.599   4.654  0.0000  0.0000  0.0000
 1527UNL      C 6722   3.734   2.519   4.710  0.0000  0.0000  0.0000
 1527UNL      C 6723   3.756   2.372   4.689  0.0000  0.0000  0.0000
 1527UNL      C 6724   3.864   2.268   4.686  0.0000  0.0000  0.0000
 1527UNL      C 6725   3.843   2.147   4.771  0.0000  0.0000  0.0000
 1527UNL      C 6726   2.789   2.530   4.332  0.0000  0.0000  0.0000
 1527UNL      C 6727   2.686   2.610   4.256  0.0000  0.0000  0.0000
 1527UNL      C 6728   2.552   2.545   4.235  0.0000  0.0000  0.0000
 1527UNL      C 6729   2.455   2.636   4.164  0.0000  0.0000  0.0000
 1527UNL      C 6730   2.324   2.566   4.140  0.0000  0.0000  0.0000
 1527UNL      C 6731   2.237   2.564   4.264  0.0000  0.0000  0.0000
 1528UNL      C 6732   3.240   2.887   4.193  0.0000  0.0000  0.0000
 1528UNL      C 6733   3.287   2.815   4.086  0.0000  0.0000  0.0000
 1529UNL      C 6734   2.948   3.345   5.686  0.0000  0.0000  0.0000
 1530UNL      C 6735   3.293   2.674   4.093  0.0000  0.0000  0.0000
 1531UNL      C 6736   3.347   2.629   3.964  0.0000  0.0000  0.0000
 1532UNL      C 6737   3.337   2.868   3.951  0.0000  0.0000  0.0000
 1533UNL      C 6738   3.373   2.738   3.883  0.0000  0.0000  0.0000
 1534UNL      C 6739   3.225   2.943   3.876  0.0000  0.0000  0.0000
 1534UNL      C 6740   3.460   2.961   3.969  0.0000  0.0000  0.0000
 1535UNL      S 6741   3.383   2.481   3.888  0.0000  0.0000  0.0000
 1535UNL      C 6742   3.433   2.564   3.742  0.0000  0.0000  0.0000
 1535UNL      C 6743   3.422   2.701   3.758  0.0000  0.0000  0.0000
 1536UNL      C 6744   3.473   2.495   3.622  0.0000  0.0000  0.0000
 1536UNL      C 6745   3.516   2.567   3.511  0.0000  0.0000  0.0000
 1536UNL      C 6746   3.545   2.505   3.386  0.0000  0.0000  0.0000
 1536UNL      C 6747   3.539   2.369   3.367  0.0000  0.0000  0.0000
 1536UNL      C 6748   3.470   2.353   3.607  0.0000  0.0000  0.0000
 1536UNL      C 6749   3.503   2.291   3.483  0.0000  0.0000  0.0000
 1537UNL      C 6750   3.565   2.300   3.219  0.0000  0.0000  0.0000
 1538UNL      N 6751   3.435   2.264   3.702  0.0000  0.0000  0.0000
 1538UNL      N 6752   3.490   2.156   3.486  0.0000  0.0000  0.0000
 1538UNL      S 6753   3.445   2.119   3.635  0.0000  0.0000  0.0000
 1539UNL      C 6754   3.598   2.350   3.098  0.0000  0.0000  0.0000
 1539UNL      S 6755   3.626   2.514   3.047  0.0000  0.0000  0.0000
 1539UNL      C 6756   3.613   2.260   2.984  0.0000  0.0000  0.0000
 1539UNL      O 6757   3.599   2.139   2.985  0.0000  0.0000  0.0000
 1539UNL      N 6758   3.648   2.330   2.869  0.0000  0.0000  0.0000
 1539UNL      C 6759   3.659   2.467   2.880  0.0000  0.0000  0.0000
 1539UNL      C 6760   3.660   2.262   2.740  0.0000  0.0000  0.0000
 1539UNL      C 6761   3.529   2.253   2.670  0.0000  0.0000  0.0000
 1539UNL      S 6762   3.695   2.573   2.765  0.0000  0.0000  0.0000
 1540UNL      C 6763   3.576   2.899   4.039  0.0000  0.0000  0.0000
 1540UNL      C 6764   3.702   2.987   4.051  0.0000  0.0000  0.0000
 1540UNL      C 6765   3.770   3.014   3.916  0.0000  0.0000  0.0000
 1540UNL      C 6766   3.837   2.892   3.851  0.0000  0.0000  0.0000
 1540UNL      C 6767   3.915   2.907   3.719  0.0000  0.0000  0.0000
 1540UNL      C 6768   3.817   2.926   3.602  0.0000  0.0000  0.0000
 1540UNL      C 6769   3.900   2.947   3.474  0.0000  0.0000  0.0000
 1540UNL      C 6770   3.099   2.860   3.849  0.0000  0.0000  0.0000
 1540UNL      C 6771   2.998   2.918   3.755  0.0000  0.0000  0.0000
 1540UNL      C 6772   3.048   2.911   3.609  0.0000  0.0000  0.0000
 1540UNL      C 6773   2.939   2.951   3.504  0.0000  0.0000  0.0000
 1540UNL      C 6774   2.999   2.940   3.362  0.0000  0.0000  0.0000
 1540UNL      C 6775   2.890   2.969   3.256  0.0000  0.0000  0.0000
 1540UNL      C 6776   2.940   2.937   3.109  0.0000  0.0000  0.0000
 1541UNL      C 6777   3.006   2.516   2.731  0.0000  0.0000  0.0000
 1541UNL      C 6778   2.992   2.411   2.834  0.0000  0.0000  0.0000
 1541UNL      N 6779   3.062   2.461   2.615  0.0000  0.0000  0.0000
 1541UNL      S 6780   3.047   2.259   2.773  0.0000  0.0000  0.0000
 1541UNL      C 6781   3.092   2.327   2.618  0.0000  0.0000  0.0000
 1541UNL      C 6782   3.085   2.548   2.498  0.0000  0.0000  0.0000
 1541UNL      S 6783   3.159   2.239   2.499  0.0000  0.0000  0.0000
 1541UNL      O 6784   2.974   2.631   2.741  0.0000  0.0000  0.0000
 1541UNL      C 6785   2.946   2.446   2.958  0.0000  0.0000  0.0000
 1542UNL      C 6786   2.919   2.365   3.074  0.0000  0.0000  0.0000
 1542UNL      C 6787   2.921   2.228   3.081  0.0000  0.0000  0.0000
 1542UNL      C 6788   2.886   2.433   3.194  0.0000  0.0000  0.0000
 1542UNL      C 6789   2.893   2.158   3.200  0.0000  0.0000  0.0000
 1542UNL      C 6790   2.861   2.219   3.344  0.0000  0.0000  0.0000
 1542UNL      C 6791   2.858   2.363   3.339  0.0000  0.0000  0.0000
 1542UNL      N 6792   2.876   2.568   3.209  0.0000  0.0000  0.0000
 1542UNL      N 6793   2.826   2.444   3.442  0.0000  0.0000  0.0000
 1542UNL      S 6794   2.833   2.596   3.386  0.0000  0.0000  0.0000
 1543UNL      C 6795   2.830   2.143   3.462  0.0000  0.0000  0.0000
 1543UNL      C 6796   2.824   2.006   3.475  0.0000  0.0000  0.0000
 1543UNL      C 6797   2.782   1.965   3.603  0.0000  0.0000  0.0000
 1543UNL      C 6798   2.757   2.071   3.686  0.0000  0.0000  0.0000
 1543UNL      S 6799   2.784   2.222   3.612  0.0000  0.0000  0.0000
 1544UNL      C 6800   2.707   2.026   3.815  0.0000  0.0000  0.0000
 1544UNL      C 6801   2.701   1.885   3.807  0.0000  0.0000  0.0000
 1545UNL      C 6802   2.753   1.833   3.671  0.0000  0.0000  0.0000
 1546UNL      C 6803   2.654   1.812   3.914  0.0000  0.0000  0.0000
 1547UNL      C 6804   2.880   1.748   3.692  0.0000  0.0000  0.0000
 1547UNL      C 6805   2.645   1.753   3.597  0.0000  0.0000  0.0000
 1547UNL      C 6806   2.519   1.826   3.563  0.0000  0.0000  0.0000
 1547UNL      C 6807   2.993   1.818   3.764  0.0000  0.0000  0.0000
 1547UNL      C 6808   2.415   1.737   3.503  0.0000  0.0000  0.0000
 1547UNL      C 6809   2.287   1.806   3.466  0.0000  0.0000  0.0000
 1547UNL      C 6810   2.173   1.726   3.410  0.0000  0.0000  0.0000
 1547UNL      C 6811   2.151   1.580   3.432  0.0000  0.0000  0.0000
 1547UNL      C 6812   2.043   1.476   3.434  0.0000  0.0000  0.0000
 1547UNL      C 6813   2.064   1.354   3.349  0.0000  0.0000  0.0000
 1547UNL      C 6814   3.119   1.738   3.788  0.0000  0.0000  0.0000
 1547UNL      C 6815   3.221   1.817   3.865  0.0000  0.0000  0.0000
 1547UNL      C 6816   3.356   1.752   3.885  0.0000  0.0000  0.0000
 1547UNL      C 6817   3.452   1.843   3.956  0.0000  0.0000  0.0000
 1547UNL      C 6818   3.584   1.774   3.980  0.0000  0.0000  0.0000
 1547UNL      C 6819   3.670   1.772   3.856  0.0000  0.0000  0.0000
 1548UNL      C 6820   2.668   2.095   3.927  0.0000  0.0000  0.0000
 1548UNL      C 6821   2.620   2.023   4.034  0.0000  0.0000  0.0000
 1549UNL      C 6822   2.959   2.552   2.411  0.0000  0.0000  0.0000
 1550UNL      C 6823   2.614   1.881   4.028  0.0000  0.0000  0.0000
 1551UNL      C 6824   2.560   1.837   4.156  0.0000  0.0000  0.0000
 1552UNL      C 6825   2.570   2.076   4.169  0.0000  0.0000  0.0000
 1553UNL      C 6826   2.534   1.945   4.237  0.0000  0.0000  0.0000
 1554UNL      C 6827   2.682   2.151   4.244  0.0000  0.0000  0.0000
 1554UNL      C 6828   2.447   2.169   4.151  0.0000  0.0000  0.0000
 1555UNL      S 6829   2.525   1.689   4.232  0.0000  0.0000  0.0000
 1555UNL      C 6830   2.475   1.772   4.378  0.0000  0.0000  0.0000
 1555UNL      C 6831   2.486   1.909   4.363  0.0000  0.0000  0.0000
 1556UNL      C 6832   2.434   1.703   4.498  0.0000  0.0000  0.0000
 1556UNL      C 6833   2.392   1.775   4.609  0.0000  0.0000  0.0000
 1556UNL      C 6834   2.362   1.713   4.735  0.0000  0.0000  0.0000
 1556UNL      C 6835   2.368   1.576   4.753  0.0000  0.0000  0.0000
 1556UNL      C 6836   2.437   1.561   4.513  0.0000  0.0000  0.0000
 1556UNL      C 6837   2.404   1.499   4.638  0.0000  0.0000  0.0000
 1557UNL      C 6838   2.342   1.507   4.877  0.0000  0.0000  0.0000
 1558UNL      N 6839   2.472   1.472   4.418  0.0000  0.0000  0.0000
 1558UNL      N 6840   2.417   1.364   4.634  0.0000  0.0000  0.0000
 1558UNL      S 6841   2.463   1.327   4.485  0.0000  0.0000  0.0000
 1559UNL      C 6842   2.309   1.558   4.999  0.0000  0.0000  0.0000
 1559UNL      S 6843   2.282   1.722   5.050  0.0000  0.0000  0.0000
 1559UNL      C 6844   2.295   1.467   5.113  0.0000  0.0000  0.0000
 1559UNL      O 6845   2.308   1.347   5.112  0.0000  0.0000  0.0000
 1559UNL      N 6846   2.260   1.538   5.228  0.0000  0.0000  0.0000
 1559UNL      C 6847   2.249   1.675   5.217  0.0000  0.0000  0.0000
 1559UNL      C 6848   2.248   1.469   5.357  0.0000  0.0000  0.0000
 1559UNL      C 6849   2.379   1.460   5.427  0.0000  0.0000  0.0000
 1559UNL      S 6850   2.212   1.780   5.332  0.0000  0.0000  0.0000
 1560UNL      C 6851   2.331   2.106   4.081  0.0000  0.0000  0.0000
 1560UNL      C 6852   2.205   2.195   4.070  0.0000  0.0000  0.0000
 1560UNL      C 6853   2.137   2.222   4.205  0.0000  0.0000  0.0000
 1560UNL      C 6854   2.070   2.099   4.269  0.0000  0.0000  0.0000
 1560UNL      C 6855   1.993   2.115   4.401  0.0000  0.0000  0.0000
 1560UNL      C 6856   2.090   2.133   4.518  0.0000  0.0000  0.0000
 1560UNL      C 6857   2.008   2.155   4.646  0.0000  0.0000  0.0000
 1560UNL      C 6858   2.808   2.067   4.271  0.0000  0.0000  0.0000
 1560UNL      C 6859   2.909   2.126   4.365  0.0000  0.0000  0.0000
 1560UNL      C 6860   2.859   2.119   4.512  0.0000  0.0000  0.0000
 1560UNL      C 6861   2.969   2.158   4.616  0.0000  0.0000  0.0000
 1560UNL      C 6862   2.908   2.148   4.758  0.0000  0.0000  0.0000
 1560UNL      C 6863   3.017   2.176   4.864  0.0000  0.0000  0.0000
 1560UNL      C 6864   2.967   2.144   5.011  0.0000  0.0000  0.0000
 1561UNL      C 6865   2.811   1.446   4.379  0.0000  0.0000  0.0000
 1561UNL      C 6866   2.796   1.551   4.482  0.0000  0.0000  0.0000
 1561UNL      N 6867   2.867   1.501   4.262  0.0000  0.0000  0.0000
 1561UNL      S 6868   2.852   1.704   4.420  0.0000  0.0000  0.0000
 1561UNL      C 6869   2.897   1.635   4.265  0.0000  0.0000  0.0000
 1561UNL      C 6870   2.889   1.415   4.146  0.0000  0.0000  0.0000
 1561UNL      S 6871   2.964   1.723   4.147  0.0000  0.0000  0.0000
 1561UNL      O 6872   2.778   1.331   4.388  0.0000  0.0000  0.0000
 1561UNL      C 6873   2.751   1.516   4.605  0.0000  0.0000  0.0000
 1562UNL      C 6874   2.724   1.597   4.722  0.0000  0.0000  0.0000
 1562UNL      C 6875   2.725   1.734   4.729  0.0000  0.0000  0.0000
 1562UNL      C 6876   2.691   1.529   4.842  0.0000  0.0000  0.0000
 1562UNL      C 6877   2.698   1.805   4.847  0.0000  0.0000  0.0000
 1562UNL      C 6878   2.666   1.743   4.968  0.0000  0.0000  0.0000
 1562UNL      C 6879   2.662   1.600   4.963  0.0000  0.0000  0.0000
 1562UNL      N 6880   2.681   1.394   4.856  0.0000  0.0000  0.0000
 1562UNL      N 6881   2.631   1.518   5.067  0.0000  0.0000  0.0000
 1562UNL      S 6882   2.638   1.367   5.010  0.0000  0.0000  0.0000
 1563UNL      C 6883   2.635   1.819   5.087  0.0000  0.0000  0.0000
 1563UNL      C 6884   2.629   1.956   5.100  0.0000  0.0000  0.0000
 1563UNL      C 6885   2.587   1.997   5.227  0.0000  0.0000  0.0000
 1563UNL      C 6886   2.562   1.891   5.310  0.0000  0.0000  0.0000
 1563UNL      S 6887   2.589   1.740   5.237  0.0000  0.0000  0.0000
 1564UNL      C 6888   2.511   1.936   5.439  0.0000  0.0000  0.0000
 1564UNL      C 6889   2.506   2.077   5.432  0.0000  0.0000  0.0000
 1565UNL      C 6890   2.558   2.130   5.295  0.0000  0.0000  0.0000
 1566UNL      C 6891   2.459   2.150   5.538  0.0000  0.0000  0.0000
 1567UNL      C 6892   2.685   2.215   5.317  0.0000  0.0000  0.0000
 1567UNL      C 6893   2.450   2.209   5.221  0.0000  0.0000  0.0000
 1567UNL      C 6894   2.324   2.137   5.187  0.0000  0.0000  0.0000
 1567UNL      C 6895   2.798   2.145   5.389  0.0000  0.0000  0.0000
 1567UNL      C 6896   2.220   2.226   5.127  0.0000  0.0000  0.0000
 1567UNL      C 6897   2.092   2.156   5.090  0.0000  0.0000  0.0000
 1567UNL      C 6898   1.978   2.236   5.034  0.0000  0.0000  0.0000
 1567UNL      C 6899   1.956   2.383   5.056  0.0000  0.0000  0.0000
 1567UNL      C 6900   1.848   2.486   5.058  0.0000  0.0000  0.0000
 1567UNL      C 6901   1.869   2.608   4.973  0.0000  0.0000  0.0000
 1567UNL      C 6902   2.924   2.225   5.412  0.0000  0.0000  0.0000
 1567UNL      C 6903   3.026   2.145   5.489  0.0000  0.0000  0.0000
 1567UNL      C 6904   3.161   2.210   5.509  0.0000  0.0000  0.0000
 1567UNL      C 6905   3.257   2.119   5.580  0.0000  0.0000  0.0000
 1567UNL      C 6906   3.389   2.189   5.604  0.0000  0.0000  0.0000
 1567UNL      C 6907   3.475   2.190   5.481  0.0000  0.0000  0.0000
 1568UNL      C 6908   2.472   1.867   5.551  0.0000  0.0000  0.0000
 1568UNL      C 6909   2.425   1.939   5.658  0.0000  0.0000  0.0000
 1569UNL      C 6910   2.764   1.410   4.059  0.0000  0.0000  0.0000
 1570UNL      C 6911   2.419   2.081   5.652  0.0000  0.0000  0.0000
 1571UNL      C 6912   2.365   2.125   5.780  0.0000  0.0000  0.0000
 1572UNL      C 6913   2.375   1.887   5.793  0.0000  0.0000  0.0000
 1573UNL      C 6914   2.339   2.017   5.861  0.0000  0.0000  0.0000
 1574UNL      C 6915   2.487   1.812   5.869  0.0000  0.0000  0.0000
 1574UNL      C 6916   2.252   1.794   5.776  0.0000  0.0000  0.0000
 1575UNL      S 6917   2.329   2.274   5.857  0.0000  0.0000  0.0000
 1575UNL      C 6918   2.280   2.191   6.002  0.0000  0.0000  0.0000
 1575UNL      C 6919   2.291   2.054   5.987  0.0000  0.0000  0.0000
 1576UNL      C 6920   2.239   2.259   6.122  0.0000  0.0000  0.0000
 1576UNL      C 6921   2.197   2.188   6.233  0.0000  0.0000  0.0000
 1576UNL      C 6922   2.167   2.249   6.359  0.0000  0.0000  0.0000
 1576UNL      C 6923   2.173   2.386   6.377  0.0000  0.0000  0.0000
 1576UNL      C 6924   2.242   2.402   6.137  0.0000  0.0000  0.0000
 1576UNL      C 6925   2.209   2.463   6.262  0.0000  0.0000  0.0000
 1577UNL      C 6926   2.147   2.455   6.525  0.0000  0.0000  0.0000
 1578UNL      N 6927   2.277   2.490   6.042  0.0000  0.0000  0.0000
 1578UNL      N 6928   2.222   2.599   6.258  0.0000  0.0000  0.0000
 1578UNL      S 6929   2.268   2.636   6.110  0.0000  0.0000  0.0000
 1579UNL      C 6930   2.114   2.405   6.646  0.0000  0.0000  0.0000
 1579UNL      S 6931   2.087   2.240   6.698  0.0000  0.0000  0.0000
 1579UNL      C 6932   2.099   2.495   6.761  0.0000  0.0000  0.0000
 1579UNL      O 6933   2.113   2.616   6.759  0.0000  0.0000  0.0000
 1579UNL      N 6934   2.065   2.425   6.876  0.0000  0.0000  0.0000
 1579UNL      C 6935   2.054   2.288   6.864  0.0000  0.0000  0.0000
 1579UNL      C 6936   2.052   2.493   7.005  0.0000  0.0000  0.0000
 1579UNL      C 6937   2.184   2.502   7.074  0.0000  0.0000  0.0000
 1579UNL      S 6938   2.017   2.182   6.980  0.0000  0.0000  0.0000
 1580UNL      C 6939   2.136   1.856   5.705  0.0000  0.0000  0.0000
 1580UNL      C 6940   2.010   1.768   5.694  0.0000  0.0000  0.0000
 1580UNL      C 6941   1.942   1.740   5.829  0.0000  0.0000  0.0000
 1580UNL      C 6942   1.875   1.863   5.893  0.0000  0.0000  0.0000
 1580UNL      C 6943   1.797   1.848   6.025  0.0000  0.0000  0.0000
 1580UNL      C 6944   1.895   1.829   6.143  0.0000  0.0000  0.0000
 1580UNL      C 6945   1.813   1.808   6.270  0.0000  0.0000  0.0000
 1580UNL      C 6946   2.613   1.895   5.895  0.0000  0.0000  0.0000
 1580UNL      C 6947   2.714   1.837   5.990  0.0000  0.0000  0.0000
 1580UNL      C 6948   2.664   1.844   6.136  0.0000  0.0000  0.0000
 1580UNL      C 6949   2.774   1.804   6.241  0.0000  0.0000  0.0000
 1580UNL      C 6950   2.713   1.814   6.383  0.0000  0.0000  0.0000
 1580UNL      C 6951   2.822   1.786   6.488  0.0000  0.0000  0.0000
 1580UNL      C 6952   2.772   1.818   6.635  0.0000  0.0000  0.0000
 1581UNL      C 6953   2.706   2.239   7.013  0.0000  0.0000  0.0000
 1581UNL      C 6954   2.720   2.344   6.910  0.0000  0.0000  0.0000
 1581UNL      N 6955   2.650   2.294   7.130  0.0000  0.0000  0.0000
 1581UNL      S 6956   2.665   2.496   6.972  0.0000  0.0000  0.0000
 1581UNL      C 6957   2.620   2.428   7.127  0.0000  0.0000  0.0000
 1581UNL      C 6958   2.628   2.207   7.246  0.0000  0.0000  0.0000
 1581UNL      S 6959   2.553   2.516   7.245  0.0000  0.0000  0.0000
 1581UNL      O 6960   2.738   2.123   7.004  0.0000  0.0000  0.0000
 1581UNL      C 6961   2.766   2.309   6.787  0.0000  0.0000  0.0000
 1582UNL      C 6962   2.793   2.390   6.670  0.0000  0.0000  0.0000
 1582UNL      C 6963   2.792   2.527   6.663  0.0000  0.0000  0.0000
 1582UNL      C 6964   2.826   2.322   6.550  0.0000  0.0000  0.0000
 1582UNL      C 6965   2.819   2.597   6.545  0.0000  0.0000  0.0000
 1582UNL      C 6966   2.851   2.536   6.401  0.0000  0.0000  0.0000
 1582UNL      C 6967   2.855   2.392   6.406  0.0000  0.0000  0.0000
 1582UNL      N 6968   2.836   2.187   6.536  0.0000  0.0000  0.0000
 1582UNL      N 6969   2.886   2.310   6.302  0.0000  0.0000  0.0000
 1582UNL      S 6970   2.879   2.159   6.359  0.0000  0.0000  0.0000
 1583UNL      C 6971   2.883   2.611   6.282  0.0000  0.0000  0.0000
 1583UNL      C 6972   2.888   2.749   6.269  0.0000  0.0000  0.0000
 1583UNL      C 6973   2.930   2.789   6.141  0.0000  0.0000  0.0000
 1583UNL      C 6974   2.955   2.684   6.058  0.0000  0.0000  0.0000
 1583UNL      S 6975   2.928   2.533   6.132  0.0000  0.0000  0.0000
 1584UNL      C 6976   3.006   2.729   5.930  0.0000  0.0000  0.0000
 1584UNL      C 6977   3.011   2.870   5.937  0.0000  0.0000  0.0000
 1585UNL      C 6978   2.959   2.922   6.073  0.0000  0.0000  0.0000
 1586UNL      C 6979   3.058   2.943   5.831  0.0000  0.0000  0.0000
 1587UNL      C 6980   2.832   3.007   6.052  0.0000  0.0000  0.0000
 1587UNL      C 6981   3.067   3.002   6.147  0.0000  0.0000  0.0000
 1587UNL      C 6982   3.193   2.929   6.181  0.0000  0.0000  0.0000
 1587UNL      C 6983   2.719   2.937   5.980  0.0000  0.0000  0.0000
 1587UNL      C 6984   3.297   3.018   6.242  0.0000  0.0000  0.0000
 1587UNL      C 6985   3.425   2.949   6.278  0.0000  0.0000  0.0000
 1587UNL      C 6986   3.539   3.028   6.335  0.0000  0.0000  0.0000
 1587UNL      C 6987   3.561   3.175   6.313  0.0000  0.0000  0.0000
 1587UNL      C 6988   3.669   3.279   6.311  0.0000  0.0000  0.0000
 1587UNL      C 6989   3.648   3.400   6.395  0.0000  0.0000  0.0000
 1587UNL      C 6990   2.594   3.017   5.956  0.0000  0.0000  0.0000
 1587UNL      C 6991   2.491   2.938   5.880  0.0000  0.0000  0.0000
 1587UNL      C 6992   2.356   3.003   5.859  0.0000  0.0000  0.0000
 1587UNL      C 6993   2.260   2.912   5.788  0.0000  0.0000  0.0000
 1587UNL      C 6994   2.128   2.981   5.764  0.0000  0.0000  0.0000
 1587UNL      C 6995   2.042   2.983   5.888  0.0000  0.0000  0.0000
 1588UNL      C 6996   3.045   2.660   5.817  0.0000  0.0000  0.0000
 1588UNL      C 6997   3.092   2.732   5.711  0.0000  0.0000  0.0000
 1589UNL      C 6998   2.753   2.202   7.333  0.0000  0.0000  0.0000
 1590UNL      C 6999   3.098   2.874   5.717  0.0000  0.0000  0.0000
 1591UNL      C 7000   3.152   2.918   5.588  0.0000  0.0000  0.0000
 1592UNL      C 7001   3.142   2.679   5.576  0.0000  0.0000  0.0000
 1593UNL      C 7002   3.178   2.810   5.508  0.0000  0.0000  0.0000
 1594UNL      C 7003   3.030   2.604   5.500  0.0000  0.0000  0.0000
 1594UNL      C 7004   3.265   2.586   5.593  0.0000  0.0000  0.0000
 1595UNL      S 7005   3.188   3.066   5.512  0.0000  0.0000  0.0000
 1595UNL      C 7006   3.238   2.983   5.366  0.0000  0.0000  0.0000
 1595UNL      C 7007   3.227   2.846   5.382  0.0000  0.0000  0.0000
 1596UNL      C 7008   3.278   3.052   5.246  0.0000  0.0000  0.0000
 1596UNL      C 7009   3.320   2.980   5.135  0.0000  0.0000  0.0000
 1596UNL      C 7010   3.350   3.042   5.010  0.0000  0.0000  0.0000
 1596UNL      C 7011   3.344   3.178   4.991  0.0000  0.0000  0.0000
 1596UNL      C 7012   3.275   3.194   5.231  0.0000  0.0000  0.0000
 1596UNL      C 7013   3.308   3.256   5.107  0.0000  0.0000  0.0000
 1597UNL      C 7014   3.370   3.247   4.867  0.0000  0.0000  0.0000
 1598UNL      N 7015   3.240   3.283   5.327  0.0000  0.0000  0.0000
 1598UNL      N 7016   3.295   3.391   5.110  0.0000  0.0000  0.0000
 1598UNL      S 7017   3.250   3.428   5.259  0.0000  0.0000  0.0000
 1599UNL      C 7018   3.403   3.197   4.746  0.0000  0.0000  0.0000
 1599UNL      S 7019   3.430   3.033   4.694  0.0000  0.0000  0.0000
 1599UNL      C 7020   3.417   3.288   4.631  0.0000  0.0000  0.0000
 1599UNL      O 7021   3.404   3.408   4.633  0.0000  0.0000  0.0000
 1599UNL      N 7022   3.452   3.217   4.516  0.0000  0.0000  0.0000
 1599UNL      C 7023   3.463   3.080   4.528  0.0000  0.0000  0.0000
 1599UNL      C 7024   3.465   3.286   4.388  0.0000  0.0000  0.0000
 1599UNL      C 7025   3.333   3.294   4.318  0.0000  0.0000  0.0000
 1599UNL      S 7026   3.500   2.975   4.412  0.0000  0.0000  0.0000
 1600UNL      C 7027   3.381   2.648   5.663  0.0000  0.0000  0.0000
 1600UNL      C 7028   3.507   2.560   5.675  0.0000  0.0000  0.0000
 1600UNL      C 7029   3.575   2.533   5.540  0.0000  0.0000  0.0000
 1600UNL      C 7030   3.642   2.655   5.475  0.0000  0.0000  0.0000
 1600UNL      C 7031   3.720   2.640   5.343  0.0000  0.0000  0.0000
 1600UNL      C 7032   3.622   2.622   5.226  0.0000  0.0000  0.0000
 1600UNL      C 7033   3.705   2.600   5.098  0.0000  0.0000  0.0000
 1600UNL      C 7034   2.904   2.687   5.474  0.0000  0.0000  0.0000
 1600UNL      C 7035   2.803   2.629   5.379  0.0000  0.0000  0.0000
 1600UNL      C 7036   2.853   2.636   5.233  0.0000  0.0000  0.0000
 1600UNL      C 7037   2.743   2.596   5.128  0.0000  0.0000  0.0000
 1600UNL      C 7038   2.804   2.607   4.986  0.0000  0.0000  0.0000
 1600UNL      C 7039   2.695   2.578   4.880  0.0000  0.0000  0.0000
 1600UNL      C 7040   2.745   2.610   4.733  0.0000  0.0000  0.0000
 1601UNL      C 7041   3.291   4.894   2.118  0.0000  0.0000  0.0000
 1601UNL      C 7042   3.306   4.788   2.015  0.0000  0.0000  0.0000
 1601UNL      N 7043   3.235   4.839   2.234  0.0000  0.0000  0.0000
 1601UNL      S 7044   3.250   4.636   2.076  0.0000  0.0000  0.0000
 1601UNL      C 7045   3.205   4.705   2.231  0.0000  0.0000  0.0000
 1601UNL      C 7046   3.213   4.925   2.351  0.0000  0.0000  0.0000
 1601UNL      S 7047   3.138   4.617   2.350  0.0000  0.0000  0.0000
 1601UNL      O 7048   3.324   5.009   2.108  0.0000  0.0000  0.0000
 1601UNL      C 7049   3.351   4.824   1.891  0.0000  0.0000  0.0000
 1602UNL      C 7050   3.378   4.743   1.775  0.0000  0.0000  0.0000
 1602UNL      C 7051   3.377   4.606   1.768  0.0000  0.0000  0.0000
 1602UNL      C 7052   3.412   4.811   1.654  0.0000  0.0000  0.0000
 1602UNL      C 7053   3.404   4.535   1.649  0.0000  0.0000  0.0000
 1602UNL      C 7054   3.436   4.596   1.528  0.0000  0.0000  0.0000
 1602UNL      C 7055   3.440   4.740   1.533  0.0000  0.0000  0.0000
 1602UNL      N 7056   3.421   4.945   1.640  0.0000  0.0000  0.0000
 1602UNL      N 7057   3.471   4.822   1.430  0.0000  0.0000  0.0000
 1602UNL      S 7058   3.464   4.973   1.486  0.0000  0.0000  0.0000
 1603UNL      C 7059   3.468   4.521   1.410  0.0000  0.0000  0.0000
 1603UNL      C 7060   3.473   4.384   1.397  0.0000  0.0000  0.0000
 1603UNL      C 7061   3.515   4.343   1.269  0.0000  0.0000  0.0000
 1603UNL      C 7062   3.540   4.449   1.186  0.0000  0.0000  0.0000
 1603UNL      S 7063   3.513   4.599   1.260  0.0000  0.0000  0.0000
 1604UNL      C 7064   3.591   4.403   1.058  0.0000  0.0000  0.0000
 1604UNL      C 7065   3.596   4.263   1.065  0.0000  0.0000  0.0000
 1605UNL      C 7066   3.545   4.210   1.201  0.0000  0.0000  0.0000
 1606UNL      C 7067   3.643   4.190   0.958  0.0000  0.0000  0.0000
 1607UNL      C 7068   3.417   4.125   1.180  0.0000  0.0000  0.0000
 1607UNL      C 7069   3.652   4.130   1.275  0.0000  0.0000  0.0000
 1607UNL      C 7070   3.778   4.203   1.309  0.0000  0.0000  0.0000
 1607UNL      C 7071   3.305   4.195   1.108  0.0000  0.0000  0.0000
 1607UNL      C 7072   3.883   4.114   1.370  0.0000  0.0000  0.0000
 1607UNL      C 7073   4.010   4.184   1.406  0.0000  0.0000  0.0000
 1607UNL      C 7074   4.124   4.104   1.462  0.0000  0.0000  0.0000
 1607UNL      C 7075   4.146   3.957   1.441  0.0000  0.0000  0.0000
 1607UNL      C 7076   4.254   3.853   1.438  0.0000  0.0000  0.0000
 1607UNL      C 7077   4.233   3.732   1.523  0.0000  0.0000  0.0000
 1607UNL      C 7078   3.179   4.115   1.084  0.0000  0.0000  0.0000
 1607UNL      C 7079   3.076   4.195   1.008  0.0000  0.0000  0.0000
 1607UNL      C 7080   2.942   4.130   0.987  0.0000  0.0000  0.0000
 1607UNL      C 7081   2.845   4.221   0.916  0.0000  0.0000  0.0000
 1607UNL      C 7082   2.714   4.151   0.892  0.0000  0.0000  0.0000
 1607UNL      C 7083   2.627   4.149   1.016  0.0000  0.0000  0.0000
 1608UNL      C 7084   3.630   4.472   0.945  0.0000  0.0000  0.0000
 1608UNL      C 7085   3.677   4.400   0.838  0.0000  0.0000  0.0000
 1609UNL      C 7086   3.338   4.930   2.438  0.0000  0.0000  0.0000
 1610UNL      C 7087   3.683   4.259   0.845  0.0000  0.0000  0.0000
 1611UNL      C 7088   3.737   4.214   0.716  0.0000  0.0000  0.0000
 1612UNL      C 7089   3.727   4.453   0.703  0.0000  0.0000  0.0000
 1613UNL      C 7090   3.763   4.323   0.635  0.0000  0.0000  0.0000
 1614UNL      C 7091   3.615   4.528   0.628  0.0000  0.0000  0.0000
 1614UNL      C 7092   3.850   4.546   0.721  0.0000  0.0000  0.0000
 1615UNL      S 7093   3.773   4.066   0.640  0.0000  0.0000  0.0000
 1615UNL      C 7094   3.823   4.149   0.494  0.0000  0.0000  0.0000
 1615UNL      C 7095   3.812   4.286   0.510  0.0000  0.0000  0.0000
 1616UNL      C 7096   3.863   4.080   0.374  0.0000  0.0000  0.0000
 1616UNL      C 7097   3.906   4.152   0.263  0.0000  0.0000  0.0000
 1616UNL      C 7098   3.935   4.090   0.138  0.0000  0.0000  0.0000
 1616UNL      C 7099   3.929   3.954   0.119  0.0000  0.0000  0.0000
 1616UNL      C 7100   3.860   3.938   0.359  0.0000  0.0000  0.0000
 1616UNL      C 7101   3.893   3.876   0.235  0.0000  0.0000  0.0000
 1617UNL      C 7102   3.955   3.885  -0.029  0.0000  0.0000  0.0000
 1618UNL      N 7103   3.825   3.849   0.454  0.0000  0.0000  0.0000
 1618UNL      N 7104   3.880   3.741   0.238  0.0000  0.0000  0.0000
 1618UNL      S 7105   3.835   3.704   0.387  0.0000  0.0000  0.0000
 1619UNL      C 7106   3.988   3.935  -0.150  0.0000  0.0000  0.0000
 1619UNL      S 7107   4.016   4.099  -0.201  0.0000  0.0000  0.0000
 1619UNL      C 7108   4.003   3.845  -0.264  0.0000  0.0000  0.0000
 1619UNL      O 7109   3.989   3.724  -0.263  0.0000  0.0000  0.0000
 1619UNL      N 7110   4.038   3.915  -0.379  0.0000  0.0000  0.0000
 1619UNL      C 7111   4.049   4.052  -0.368  0.0000  0.0000  0.0000
 1619UNL      C 7112   4.050   3.847  -0.508  0.0000  0.0000  0.0000
 1619UNL      C 7113   3.919   3.838  -0.578  0.0000  0.0000  0.0000
 1619UNL      S 7114   4.085   4.158  -0.483  0.0000  0.0000  0.0000
 1620UNL      C 7115   3.966   4.484   0.791  0.0000  0.0000  0.0000
 1620UNL      C 7116   4.092   4.572   0.803  0.0000  0.0000  0.0000
 1620UNL      C 7117   4.160   4.599   0.668  0.0000  0.0000  0.0000
 1620UNL      C 7118   4.227   4.477   0.603  0.0000  0.0000  0.0000
 1620UNL      C 7119   4.305   4.492   0.471  0.0000  0.0000  0.0000
 1620UNL      C 7120   4.207   4.511   0.354  0.0000  0.0000  0.0000
 1620UNL      C 7121   4.290   4.532   0.226  0.0000  0.0000  0.0000
 1620UNL      C 7122   3.489   4.445   0.601  0.0000  0.0000  0.0000
 1620UNL      C 7123   3.388   4.503   0.507  0.0000  0.0000  0.0000
 1620UNL      C 7124   3.438   4.496   0.361  0.0000  0.0000  0.0000
 1620UNL      C 7125   3.329   4.536   0.256  0.0000  0.0000  0.0000
 1620UNL      C 7126   3.389   4.525   0.114  0.0000  0.0000  0.0000
 1620UNL      C 7127   3.280   4.554   0.008  0.0000  0.0000  0.0000
 1620UNL      C 7128   3.330   4.522  -0.139  0.0000  0.0000  0.0000
 1621UNL      C 7129   3.396   4.101  -0.517  0.0000  0.0000  0.0000
 1621UNL      C 7130   3.382   3.996  -0.414  0.0000  0.0000  0.0000
 1621UNL      N 7131   3.452   4.046  -0.633  0.0000  0.0000  0.0000
 1621UNL      S 7132   3.437   3.844  -0.475  0.0000  0.0000  0.0000
 1621UNL      C 7133   3.482   3.912  -0.630  0.0000  0.0000  0.0000
 1621UNL      C 7134   3.475   4.133  -0.750  0.0000  0.0000  0.0000
 1621UNL      S 7135   3.549   3.824  -0.749  0.0000  0.0000  0.0000
 1621UNL      O 7136   3.364   4.216  -0.507  0.0000  0.0000  0.0000
 1621UNL      C 7137   3.336   4.031  -0.290  0.0000  0.0000  0.0000
 1622UNL      C 7138   3.309   3.950  -0.174  0.0000  0.0000  0.0000
 1622UNL      C 7139   3.311   3.813  -0.167  0.0000  0.0000  0.0000
 1622UNL      C 7140   3.276   4.018  -0.054  0.0000  0.0000  0.0000
 1622UNL      C 7141   3.283   3.743  -0.048  0.0000  0.0000  0.0000
 1622UNL      C 7142   3.251   3.804   0.096  0.0000  0.0000  0.0000
 1622UNL      C 7143   3.248   3.948   0.091  0.0000  0.0000  0.0000
 1622UNL      N 7144   3.266   4.153  -0.039  0.0000  0.0000  0.0000
 1622UNL      N 7145   3.216   4.029   0.194  0.0000  0.0000  0.0000
 1622UNL      S 7146   3.223   4.181   0.138  0.0000  0.0000  0.0000
 1623UNL      C 7147   3.220   3.728   0.214  0.0000  0.0000  0.0000
 1623UNL      C 7148   3.214   3.591   0.227  0.0000  0.0000  0.0000
 1623UNL      C 7149   3.172   3.550   0.355  0.0000  0.0000  0.0000
 1623UNL      C 7150   3.147   3.656   0.438  0.0000  0.0000  0.0000
 1623UNL      S 7151   3.174   3.807   0.364  0.0000  0.0000  0.0000
 1624UNL      C 7152   3.097   3.611   0.567  0.0000  0.0000  0.0000
 1624UNL      C 7153   3.091   3.470   0.559  0.0000  0.0000  0.0000
 1625UNL      C 7154   3.143   3.418   0.423  0.0000  0.0000  0.0000
 1626UNL      C 7155   3.044   3.397   0.666  0.0000  0.0000  0.0000
 1627UNL      C 7156   3.270   3.333   0.444  0.0000  0.0000  0.0000
 1627UNL      C 7157   3.035   3.338   0.349  0.0000  0.0000  0.0000
 1627UNL      C 7158   2.909   3.411   0.315  0.0000  0.0000  0.0000
 1627UNL      C 7159   3.383   3.403   0.516  0.0000  0.0000  0.0000
 1627UNL      C 7160   2.805   3.322   0.255  0.0000  0.0000  0.0000
 1627UNL      C 7161   2.677   3.391   0.218  0.0000  0.0000  0.0000
 1627UNL      C 7162   2.563   3.311   0.162  0.0000  0.0000  0.0000
 1627UNL      C 7163   2.541   3.165   0.184  0.0000  0.0000  0.0000
 1627UNL      C 7164   2.433   3.061   0.186  0.0000  0.0000  0.0000
 1627UNL      C 7165   2.454   2.939   0.101  0.0000  0.0000  0.0000
 1627UNL      C 7166   3.509   3.323   0.540  0.0000  0.0000  0.0000
 1627UNL      C 7167   3.611   3.402   0.617  0.0000  0.0000  0.0000
 1627UNL      C 7168   3.746   3.337   0.637  0.0000  0.0000  0.0000
 1627UNL      C 7169   3.842   3.428   0.708  0.0000  0.0000  0.0000
 1627UNL      C 7170   3.974   3.359   0.732  0.0000  0.0000  0.0000
 1627UNL      C 7171   4.060   3.357   0.608  0.0000  0.0000  0.0000
 1628UNL      C 7172   3.058   3.680   0.679  0.0000  0.0000  0.0000
 1628UNL      C 7173   3.010   3.608   0.786  0.0000  0.0000  0.0000
 1629UNL      C 7174   3.349   4.137  -0.837  0.0000  0.0000  0.0000
 1630UNL      C 7175   3.004   3.466   0.780  0.0000  0.0000  0.0000
 1631UNL      C 7176   2.950   3.422   0.908  0.0000  0.0000  0.0000
 1632UNL      C 7177   2.960   3.661   0.921  0.0000  0.0000  0.0000
 1633UNL      C 7178   2.924   3.530   0.989  0.0000  0.0000  0.0000
 1634UNL      C 7179   3.072   3.736   0.996  0.0000  0.0000  0.0000
 1634UNL      C 7180   2.837   3.754   0.903  0.0000  0.0000  0.0000
 1635UNL      S 7181   2.915   3.274   0.984  0.0000  0.0000  0.0000
 1635UNL      C 7182   2.865   3.357   1.130  0.0000  0.0000  0.0000
 1635UNL      C 7183   2.876   3.494   1.115  0.0000  0.0000  0.0000
 1636UNL      C 7184   2.824   3.288   1.250  0.0000  0.0000  0.0000
 1636UNL      C 7185   2.782   3.360   1.361  0.0000  0.0000  0.0000
 1636UNL      C 7186   2.752   3.298   1.487  0.0000  0.0000  0.0000
 1636UNL      C 7187   2.758   3.161   1.505  0.0000  0.0000  0.0000
 1636UNL      C 7188   2.827   3.146   1.265  0.0000  0.0000  0.0000
 1636UNL      C 7189   2.794   3.084   1.390  0.0000  0.0000  0.0000
 1637UNL      C 7190   2.732   3.092   1.629  0.0000  0.0000  0.0000
 1638UNL      N 7191   2.862   3.057   1.170  0.0000  0.0000  0.0000
 1638UNL      N 7192   2.807   2.949   1.386  0.0000  0.0000  0.0000
 1638UNL      S 7193   2.853   2.912   1.237  0.0000  0.0000  0.0000
 1639UNL      C 7194   2.699   3.143   1.751  0.0000  0.0000  0.0000
 1639UNL      S 7195   2.672   3.307   1.802  0.0000  0.0000  0.0000
 1639UNL      C 7196   2.685   3.052   1.865  0.0000  0.0000  0.0000
 1639UNL      O 7197   2.698   2.932   1.864  0.0000  0.0000  0.0000
 1639UNL      N 7198   2.650   3.123   1.980  0.0000  0.0000  0.0000
 1639UNL      C 7199   2.639   3.260   1.969  0.0000  0.0000  0.0000
 1639UNL      C 7200   2.638   3.054   2.109  0.0000  0.0000  0.0000
 1639UNL      C 7201   2.769   3.045   2.179  0.0000  0.0000  0.0000
 1639UNL      S 7202   2.602   3.365   2.084  0.0000  0.0000  0.0000
 1640UNL      C 7203   2.721   3.691   0.833  0.0000  0.0000  0.0000
 1640UNL      C 7204   2.595   3.780   0.822  0.0000  0.0000  0.0000
 1640UNL      C 7205   2.527   3.807   0.957  0.0000  0.0000  0.0000
 1640UNL      C 7206   2.460   3.684   1.021  0.0000  0.0000  0.0000
 1640UNL      C 7207   2.383   3.700   1.153  0.0000  0.0000  0.0000
 1640UNL      C 7208   2.480   3.718   1.270  0.0000  0.0000  0.0000
 1640UNL      C 7209   2.398   3.740   1.398  0.0000  0.0000  0.0000
 1640UNL      C 7210   3.198   3.652   1.023  0.0000  0.0000  0.0000
 1640UNL      C 7211   3.299   3.711   1.117  0.0000  0.0000  0.0000
 1640UNL      C 7212   3.249   3.704   1.264  0.0000  0.0000  0.0000
 1640UNL      C 7213   3.359   3.743   1.368  0.0000  0.0000  0.0000
 1640UNL      C 7214   3.298   3.733   1.510  0.0000  0.0000  0.0000
 1640UNL      C 7215   3.407   3.761   1.616  0.0000  0.0000  0.0000
 1640UNL      C 7216   3.357   3.729   1.763  0.0000  0.0000  0.0000
 1641UNL      C 7217   3.201   3.031   1.131  0.0000  0.0000  0.0000
 1641UNL      C 7218   3.186   3.136   1.234  0.0000  0.0000  0.0000
 1641UNL      N 7219   3.257   3.086   1.014  0.0000  0.0000  0.0000
 1641UNL      S 7220   3.242   3.289   1.172  0.0000  0.0000  0.0000
 1641UNL      C 7221   3.287   3.220   1.017  0.0000  0.0000  0.0000
 1641UNL      C 7222   3.279   3.000   0.898  0.0000  0.0000  0.0000
 1641UNL      S 7223   3.354   3.308   0.899  0.0000  0.0000  0.0000
 1641UNL      O 7224   3.168   2.916   1.140  0.0000  0.0000  0.0000
 1641UNL      C 7225   3.141   3.101   1.357  0.0000  0.0000  0.0000
 1642UNL      C 7226   3.114   3.182   1.474  0.0000  0.0000  0.0000
 1642UNL      C 7227   3.115   3.319   1.481  0.0000  0.0000  0.0000
 1642UNL      C 7228   3.081   3.114   1.594  0.0000  0.0000  0.0000
 1642UNL      C 7229   3.088   3.390   1.599  0.0000  0.0000  0.0000
 1642UNL      C 7230   3.056   3.328   1.720  0.0000  0.0000  0.0000
 1642UNL      C 7231   3.052   3.185   1.715  0.0000  0.0000  0.0000
 1642UNL      N 7232   3.071   2.979   1.608  0.0000  0.0000  0.0000
 1642UNL      N 7233   3.021   3.103   1.819  0.0000  0.0000  0.0000
 1642UNL      S 7234   3.028   2.952   1.762  0.0000  0.0000  0.0000
 1643UNL      C 7235   3.025   3.404   1.839  0.0000  0.0000  0.0000
 1643UNL      C 7236   3.019   3.541   1.852  0.0000  0.0000  0.0000
 1643UNL      C 7237   2.977   3.582   1.979  0.0000  0.0000  0.0000
 1643UNL      C 7238   2.952   3.476   2.062  0.0000  0.0000  0.0000
 1643UNL      S 7239   2.979   3.325   1.989  0.0000  0.0000  0.0000
 1644UNL      C 7240   2.901   3.521   2.191  0.0000  0.0000  0.0000
 1644UNL      C 7241   2.896   3.662   2.184  0.0000  0.0000  0.0000
 1645UNL      C 7242   2.948   3.715   2.047  0.0000  0.0000  0.0000
 1646UNL      C 7243   2.849   3.735   2.290  0.0000  0.0000  0.0000
 1647UNL      C 7244   3.075   3.800   2.069  0.0000  0.0000  0.0000
 1647UNL      C 7245   2.840   3.794   1.973  0.0000  0.0000  0.0000
 1647UNL      C 7246   2.714   3.722   1.939  0.0000  0.0000  0.0000
 1647UNL      C 7247   3.188   3.730   2.141  0.0000  0.0000  0.0000
 1647UNL      C 7248   2.610   3.811   1.879  0.0000  0.0000  0.0000
 1647UNL      C 7249   2.482   3.741   1.842  0.0000  0.0000  0.0000
 1647UNL      C 7250   2.368   3.821   1.786  0.0000  0.0000  0.0000
 1647UNL      C 7251   2.346   3.968   1.808  0.0000  0.0000  0.0000
 1647UNL      C 7252   2.238   4.071   1.810  0.0000  0.0000  0.0000
 1647UNL      C 7253   2.259   4.193   1.725  0.0000  0.0000  0.0000
 1647UNL      C 7254   3.314   3.810   2.164  0.0000  0.0000  0.0000
 1647UNL      C 7255   3.416   3.730   2.241  0.0000  0.0000  0.0000
 1647UNL      C 7256   3.551   3.795   2.261  0.0000  0.0000  0.0000
 1647UNL      C 7257   3.647   3.704   2.332  0.0000  0.0000  0.0000
 1647UNL      C 7258   3.779   3.774   2.356  0.0000  0.0000  0.0000
 1647UNL      C 7259   3.865   3.775   2.233  0.0000  0.0000  0.0000
 1648UNL      C 7260   2.862   3.452   2.303  0.0000  0.0000  0.0000
 1648UNL      C 7261   2.815   3.524   2.410  0.0000  0.0000  0.0000
 1649UNL      C 7262   3.154   2.995   0.811  0.0000  0.0000  0.0000
 1650UNL      C 7263   2.809   3.666   2.404  0.0000  0.0000  0.0000
 1651UNL      C 7264   2.755   3.710   2.532  0.0000  0.0000  0.0000
 1652UNL      C 7265   2.765   3.472   2.545  0.0000  0.0000  0.0000
 1653UNL      C 7266   2.729   3.602   2.613  0.0000  0.0000  0.0000
 1654UNL      C 7267   2.877   3.397   2.621  0.0000  0.0000  0.0000
 1654UNL      C 7268   2.642   3.379   2.528  0.0000  0.0000  0.0000
 1655UNL      S 7269   2.719   3.859   2.609  0.0000  0.0000  0.0000
 1655UNL      C 7270   2.670   3.776   2.754  0.0000  0.0000  0.0000
 1655UNL      C 7271   2.681   3.639   2.739  0.0000  0.0000  0.0000
 1656UNL      C 7272   2.629   3.844   2.874  0.0000  0.0000  0.0000
 1656UNL      C 7273   2.587   3.773   2.985  0.0000  0.0000  0.0000
 1656UNL      C 7274   2.557   3.834   3.111  0.0000  0.0000  0.0000
 1656UNL      C 7275   2.563   3.971   3.129  0.0000  0.0000  0.0000
 1656UNL      C 7276   2.632   3.987   2.889  0.0000  0.0000  0.0000
 1656UNL      C 7277   2.599   4.048   3.014  0.0000  0.0000  0.0000
 1657UNL      C 7278   2.537   4.040   3.277  0.0000  0.0000  0.0000
 1658UNL      N 7279   2.667   4.075   2.794  0.0000  0.0000  0.0000
 1658UNL      N 7280   2.612   4.184   3.010  0.0000  0.0000  0.0000
 1658UNL      S 7281   2.658   4.221   2.862  0.0000  0.0000  0.0000
 1659UNL      C 7282   2.504   3.990   3.398  0.0000  0.0000  0.0000
 1659UNL      S 7283   2.477   3.825   3.450  0.0000  0.0000  0.0000
 1659UNL      C 7284   2.489   4.080   3.513  0.0000  0.0000  0.0000
 1659UNL      O 7285   2.503   4.201   3.511  0.0000  0.0000  0.0000
 1659UNL      N 7286   2.455   4.010   3.628  0.0000  0.0000  0.0000
 1659UNL      C 7287   2.444   3.873   3.616  0.0000  0.0000  0.0000
 1659UNL      C 7288   2.442   4.078   3.757  0.0000  0.0000  0.0000
 1659UNL      C 7289   2.574   4.087   3.826  0.0000  0.0000  0.0000
 1659UNL      S 7290   2.407   3.767   3.732  0.0000  0.0000  0.0000
 1660UNL      C 7291   2.526   3.441   2.457  0.0000  0.0000  0.0000
 1660UNL      C 7292   2.400   3.353   2.446  0.0000  0.0000  0.0000
 1660UNL      C 7293   2.332   3.325   2.581  0.0000  0.0000  0.0000
 1660UNL      C 7294   2.265   3.448   2.645  0.0000  0.0000  0.0000
 1660UNL      C 7295   2.187   3.433   2.777  0.0000  0.0000  0.0000
 1660UNL      C 7296   2.285   3.414   2.895  0.0000  0.0000  0.0000
 1660UNL      C 7297   2.203   3.393   3.022  0.0000  0.0000  0.0000
 1660UNL      C 7298   3.003   3.480   2.647  0.0000  0.0000  0.0000
 1660UNL      C 7299   3.104   3.422   2.742  0.0000  0.0000  0.0000
 1660UNL      C 7300   3.054   3.429   2.888  0.0000  0.0000  0.0000
 1660UNL      C 7301   3.164   3.389   2.993  0.0000  0.0000  0.0000
 1660UNL      C 7302   3.103   3.399   3.135  0.0000  0.0000  0.0000
 1660UNL      C 7303   3.212   3.371   3.240  0.0000  0.0000  0.0000
 1660UNL      C 7304   3.162   3.403   3.387  0.0000  0.0000  0.0000
 1661UNL      C 7305   3.096   3.824   3.765  0.0000  0.0000  0.0000
 1661UNL      C 7306   3.110   3.929   3.662  0.0000  0.0000  0.0000
 1661UNL      N 7307   3.040   3.879   3.882  0.0000  0.0000  0.0000
 1661UNL      S 7308   3.055   4.081   3.724  0.0000  0.0000  0.0000
 1661UNL      C 7309   3.010   4.013   3.879  0.0000  0.0000  0.0000
 1661UNL      C 7310   3.018   3.792   3.998  0.0000  0.0000  0.0000
 1661UNL      S 7311   2.943   4.101   3.997  0.0000  0.0000  0.0000
 1661UNL      O 7312   3.128   3.708   3.756  0.0000  0.0000  0.0000
 1661UNL      C 7313   3.156   3.894   3.539  0.0000  0.0000  0.0000
 1662UNL      C 7314   3.183   3.975   3.422  0.0000  0.0000  0.0000
 1662UNL      C 7315   3.182   4.112   3.415  0.0000  0.0000  0.0000
 1662UNL      C 7316   3.216   3.907   3.302  0.0000  0.0000  0.0000
 1662UNL      C 7317   3.209   4.182   3.297  0.0000  0.0000  0.0000
 1662UNL      C 7318   3.241   4.121   3.153  0.0000  0.0000  0.0000
 1662UNL      C 7319   3.245   3.977   3.158  0.0000  0.0000  0.0000
 1662UNL      N 7320   3.226   3.772   3.288  0.0000  0.0000  0.0000
 1662UNL      N 7321   3.276   3.895   3.054  0.0000  0.0000  0.0000
 1662UNL      S 7322   3.269   3.744   3.111  0.0000  0.0000  0.0000
 1663UNL      C 7323   3.273   4.196   3.034  0.0000  0.0000  0.0000
 1663UNL      C 7324   3.278   4.334   3.021  0.0000  0.0000  0.0000
 1663UNL      C 7325   3.320   4.374   2.893  0.0000  0.0000  0.0000
 1663UNL      C 7326   3.345   4.269   2.810  0.0000  0.0000  0.0000
 1663UNL      S 7327   3.318   4.118   2.884  0.0000  0.0000  0.0000
 1664UNL      C 7328   3.396   4.314   2.682  0.0000  0.0000  0.0000
 1664UNL      C 7329   3.401   4.455   2.689  0.0000  0.0000  0.0000
 1665UNL      C 7330   3.349   4.507   2.825  0.0000  0.0000  0.0000
 1666UNL      C 7331   3.448   4.528   2.583  0.0000  0.0000  0.0000
 1667UNL      C 7332   3.222   4.592   2.804  0.0000  0.0000  0.0000
 1667UNL      C 7333   3.457   4.587   2.899  0.0000  0.0000  0.0000
 1667UNL      C 7334   3.583   4.514   2.933  0.0000  0.0000  0.0000
 1667UNL      C 7335   3.109   4.522   2.732  0.0000  0.0000  0.0000
 1667UNL      C 7336   3.687   4.603   2.994  0.0000  0.0000  0.0000
 1667UNL      C 7337   3.815   4.534   3.030  0.0000  0.0000  0.0000
 1667UNL      C 7338   3.929   4.613   3.087  0.0000  0.0000  0.0000
 1667UNL      C 7339   3.951   4.760   3.065  0.0000  0.0000  0.0000
 1667UNL      C 7340   4.059   4.864   3.063  0.0000  0.0000  0.0000
 1667UNL      C 7341   4.038   4.985   3.147  0.0000  0.0000  0.0000
 1667UNL      C 7342   2.984   4.602   2.708  0.0000  0.0000  0.0000
 1667UNL      C 7343   2.881   4.523   2.632  0.0000  0.0000  0.0000
 1667UNL      C 7344   2.746   4.588   2.611  0.0000  0.0000  0.0000
 1667UNL      C 7345   2.650   4.497   2.540  0.0000  0.0000  0.0000
 1667UNL      C 7346   2.518   4.566   2.516  0.0000  0.0000  0.0000
 1667UNL      C 7347   2.432   4.568   2.640  0.0000  0.0000  0.0000
 1668UNL      C 7348   3.435   4.245   2.569  0.0000  0.0000  0.0000
 1668UNL      C 7349   3.482   4.317   2.463  0.0000  0.0000  0.0000
 1669UNL      C 7350   3.143   3.787   4.085  0.0000  0.0000  0.0000
 1670UNL      C 7351   3.488   4.459   2.469  0.0000  0.0000  0.0000
 1671UNL      C 7352   3.542   4.503   2.340  0.0000  0.0000  0.0000
 1672UNL      C 7353   3.532   4.264   2.328  0.0000  0.0000  0.0000
 1673UNL      C 7354   3.568   4.395   2.260  0.0000  0.0000  0.0000
 1674UNL      C 7355   3.420   4.189   2.252  0.0000  0.0000  0.0000
 1674UNL      C 7356   3.655   4.171   2.345  0.0000  0.0000  0.0000
 1675UNL      S 7357   3.578   4.651   2.264  0.0000  0.0000  0.0000
 1675UNL      C 7358   3.628   4.568   2.118  0.0000  0.0000  0.0000
 1675UNL      C 7359   3.617   4.431   2.134  0.0000  0.0000  0.0000
 1676UNL      C 7360   3.668   4.637   1.998  0.0000  0.0000  0.0000
 1676UNL      C 7361   3.710   4.565   1.887  0.0000  0.0000  0.0000
 1676UNL      C 7362   3.740   4.627   1.762  0.0000  0.0000  0.0000
 1676UNL      C 7363   3.734   4.763   1.743  0.0000  0.0000  0.0000
 1676UNL      C 7364   3.665   4.779   1.983  0.0000  0.0000  0.0000
 1676UNL      C 7365   3.698   4.841   1.859  0.0000  0.0000  0.0000
 1677UNL      C 7366   3.760   4.832   1.619  0.0000  0.0000  0.0000
 1678UNL      N 7367   3.630   4.868   2.079  0.0000  0.0000  0.0000
 1678UNL      N 7368   3.685   4.976   1.862  0.0000  0.0000  0.0000
 1678UNL      S 7369   3.640   5.013   2.011  0.0000  0.0000  0.0000
 1679UNL      C 7370   3.793   4.782   1.498  0.0000  0.0000  0.0000
 1679UNL      S 7371   3.820   4.618   1.446  0.0000  0.0000  0.0000
 1679UNL      C 7372   3.807   4.873   1.383  0.0000  0.0000  0.0000
 1679UNL      O 7373   3.794   4.993   1.385  0.0000  0.0000  0.0000
 1679UNL      N 7374   3.842   4.802   1.268  0.0000  0.0000  0.0000
 1679UNL      C 7375   3.853   4.665   1.280  0.0000  0.0000  0.0000
 1679UNL      C 7376   3.855   4.871   1.140  0.0000  0.0000  0.0000
 1679UNL      C 7377   3.723   4.879   1.070  0.0000  0.0000  0.0000
 1679UNL      S 7378   3.890   4.560   1.164  0.0000  0.0000  0.0000
 1680UNL      C 7379   3.771   4.233   2.415  0.0000  0.0000  0.0000
 1680UNL      C 7380   3.897   4.145   2.427  0.0000  0.0000  0.0000
 1680UNL      C 7381   3.965   4.118   2.292  0.0000  0.0000  0.0000
 1680UNL      C 7382   4.032   4.240   2.227  0.0000  0.0000  0.0000
 1680UNL      C 7383   4.110   4.225   2.095  0.0000  0.0000  0.0000
 1680UNL      C 7384   4.012   4.207   1.978  0.0000  0.0000  0.0000
 1680UNL      C 7385   4.095   4.185   1.850  0.0000  0.0000  0.0000
 1680UNL      C 7386   3.294   4.272   2.226  0.0000  0.0000  0.0000
 1680UNL      C 7387   3.193   4.214   2.131  0.0000  0.0000  0.0000
 1680UNL      C 7388   3.243   4.221   1.985  0.0000  0.0000  0.0000
 1680UNL      C 7389   3.133   4.181   1.880  0.0000  0.0000  0.0000
 1680UNL      C 7390   3.194   4.192   1.738  0.0000  0.0000  0.0000
 1680UNL      C 7391   3.085   4.163   1.632  0.0000  0.0000  0.0000
 1680UNL      C 7392   3.135   4.195   1.485  0.0000  0.0000  0.0000
 1681UNL      C 7393   2.901   4.894   5.366  0.0000  0.0000  0.0000
 1681UNL      C 7394   2.916   4.788   5.263  0.0000  0.0000  0.0000
 1681UNL      N 7395   2.845   4.839   5.482  0.0000  0.0000  0.0000
 1681UNL      S 7396   2.860   4.636   5.324  0.0000  0.0000  0.0000
 1681UNL      C 7397   2.815   4.705   5.479  0.0000  0.0000  0.0000
 1681UNL      C 7398   2.823   4.925   5.599  0.0000  0.0000  0.0000
 1681UNL      S 7399   2.748   4.617   5.598  0.0000  0.0000  0.0000
 1681UNL      O 7400   2.934   5.009   5.356  0.0000  0.0000  0.0000
 1681UNL      C 7401   2.961   4.824   5.139  0.0000  0.0000  0.0000
 1682UNL      C 7402   2.988   4.743   5.023  0.0000  0.0000  0.0000
 1682UNL      C 7403   2.987   4.606   5.016  0.0000  0.0000  0.0000
 1682UNL      C 7404   3.022   4.811   4.902  0.0000  0.0000  0.0000
 1682UNL      C 7405   3.014   4.535   4.897  0.0000  0.0000  0.0000
 1682UNL      C 7406   3.046   4.596   4.776  0.0000  0.0000  0.0000
 1682UNL      C 7407   3.050   4.740   4.781  0.0000  0.0000  0.0000
 1682UNL      N 7408   3.031   4.945   4.888  0.0000  0.0000  0.0000
 1682UNL      N 7409   3.081   4.822   4.678  0.0000  0.0000  0.0000
 1682UNL      S 7410   3.074   4.973   4.734  0.0000  0.0000  0.0000
 1683UNL      C 7411   3.078   4.521   4.658  0.0000  0.0000  0.0000
 1683UNL      C 7412   3.083   4.384   4.645  0.0000  0.0000  0.0000
 1683UNL      C 7413   3.125   4.343   4.517  0.0000  0.0000  0.0000
 1683UNL      C 7414   3.150   4.449   4.434  0.0000  0.0000  0.0000
 1683UNL      S 7415   3.123   4.599   4.508  0.0000  0.0000  0.0000
 1684UNL      C 7416   3.201   4.403   4.306  0.0000  0.0000  0.0000
 1684UNL      C 7417   3.206   4.263   4.313  0.0000  0.0000  0.0000
 1685UNL      C 7418   3.155   4.210   4.449  0.0000  0.0000  0.0000
 1686UNL      C 7419   3.253   4.190   4.206  0.0000  0.0000  0.0000
 1687UNL      C 7420   3.027   4.125   4.428  0.0000  0.0000  0.0000
 1687UNL      C 7421   3.262   4.130   4.523  0.0000  0.0000  0.0000
 1687UNL      C 7422   3.388   4.203   4.557  0.0000  0.0000  0.0000
 1687UNL      C 7423   2.915   4.195   4.356  0.0000  0.0000  0.0000
 1687UNL      C 7424   3.493   4.114   4.618  0.0000  0.0000  0.0000
 1687UNL      C 7425   3.620   4.184   4.654  0.0000  0.0000  0.0000
 1687UNL      C 7426   3.734   4.104   4.710  0.0000  0.0000  0.0000
 1687UNL      C 7427   3.756   3.957   4.689  0.0000  0.0000  0.0000
 1687UNL      C 7428   3.864   3.853   4.686  0.0000  0.0000  0.0000
 1687UNL      C 7429   3.843   3.732   4.771  0.0000  0.0000  0.0000
 1687UNL      C 7430   2.789   4.115   4.332  0.0000  0.0000  0.0000
 1687UNL      C 7431   2.686   4.195   4.256  0.0000  0.0000  0.0000
 1687UNL      C 7432   2.552   4.130   4.235  0.0000  0.0000  0.0000
 1687UNL      C 7433   2.455   4.221   4.164  0.0000  0.0000  0.0000
 1687UNL      C 7434   2.324   4.151   4.140  0.0000  0.0000  0.0000
 1687UNL      C 7435   2.237   4.149   4.264  0.0000  0.0000  0.0000
 1688UNL      C 7436   3.240   4.472   4.193  0.0000  0.0000  0.0000
 1688UNL      C 7437   3.287   4.400   4.086  0.0000  0.0000  0.0000
 1689UNL      C 7438   2.948   4.930   5.686  0.0000  0.0000  0.0000
 1690UNL      C 7439   3.293   4.259   4.093  0.0000  0.0000  0.0000
 1691UNL      C 7440   3.347   4.214   3.964  0.0000  0.0000  0.0000
 1692UNL      C 7441   3.337   4.453   3.951  0.0000  0.0000  0.0000
 1693UNL      C 7442   3.373   4.323   3.883  0.0000  0.0000  0.0000
 1694UNL      C 7443   3.225   4.528   3.876  0.0000  0.0000  0.0000
 1694UNL      C 7444   3.460   4.546   3.969  0.0000  0.0000  0.0000
 1695UNL      S 7445   3.383   4.066   3.888  0.0000  0.0000  0.0000
 1695UNL      C 7446   3.433   4.149   3.742  0.0000  0.0000  0.0000
 1695UNL      C 7447   3.422   4.286   3.758  0.0000  0.0000  0.0000
 1696UNL      C 7448   3.473   4.080   3.622  0.0000  0.0000  0.0000
 1696UNL      C 7449   3.516   4.152   3.511  0.0000  0.0000  0.0000
 1696UNL      C 7450   3.545   4.090   3.386  0.0000  0.0000  0.0000
 1696UNL      C 7451   3.539   3.954   3.367  0.0000  0.0000  0.0000
 1696UNL      C 7452   3.470   3.938   3.607  0.0000  0.0000  0.0000
 1696UNL      C 7453   3.503   3.876   3.483  0.0000  0.0000  0.0000
 1697UNL      C 7454   3.565   3.885   3.219  0.0000  0.0000  0.0000
 1698UNL      N 7455   3.435   3.849   3.702  0.0000  0.0000  0.0000
 1698UNL      N 7456   3.490   3.741   3.486  0.0000  0.0000  0.0000
 1698UNL      S 7457   3.445   3.704   3.635  0.0000  0.0000  0.0000
 1699UNL      C 7458   3.598   3.935   3.098  0.0000  0.0000  0.0000
 1699UNL      S 7459   3.626   4.099   3.047  0.0000  0.0000  0.0000
 1699UNL      C 7460   3.613   3.845   2.984  0.0000  0.0000  0.0000
 1699UNL      O 7461   3.599   3.724   2.985  0.0000  0.0000  0.0000
 1699UNL      N 7462   3.648   3.915   2.869  0.0000  0.0000  0.0000
 1699UNL      C 7463   3.659   4.052   2.880  0.0000  0.0000  0.0000
 1699UNL      C 7464   3.660   3.847   2.740  0.0000  0.0000  0.0000
 1699UNL      C 7465   3.529   3.838   2.670  0.0000  0.0000  0.0000
 1699UNL      S 7466   3.695   4.158   2.765  0.0000  0.0000  0.0000
 1700UNL      C 7467   3.576   4.484   4.039  0.0000  0.0000  0.0000
 1700UNL      C 7468   3.702   4.572   4.051  0.0000  0.0000  0.0000
 1700UNL      C 7469   3.770   4.599   3.916  0.0000  0.0000  0.0000
 1700UNL      C 7470   3.837   4.477   3.851  0.0000  0.0000  0.0000
 1700UNL      C 7471   3.915   4.492   3.719  0.0000  0.0000  0.0000
 1700UNL      C 7472   3.817   4.511   3.602  0.0000  0.0000  0.0000
 1700UNL      C 7473   3.900   4.532   3.474  0.0000  0.0000  0.0000
 1700UNL      C 7474   3.099   4.445   3.849  0.0000  0.0000  0.0000
 1700UNL      C 7475   2.998   4.503   3.755  0.0000  0.0000  0.0000
 1700UNL      C 7476   3.048   4.496   3.609  0.0000  0.0000  0.0000
 1700UNL      C 7477   2.939   4.536   3.504  0.0000  0.0000  0.0000
 1700UNL      C 7478   2.999   4.525   3.362  0.0000  0.0000  0.0000
 1700UNL      C 7479   2.890   4.554   3.256  0.0000  0.0000  0.0000
 1700UNL      C 7480   2.940   4.522   3.109  0.0000  0.0000  0.0000
 1701UNL      C 7481   3.006   4.101   2.731  0.0000  0.0000  0.0000
 1701UNL      C 7482   2.992   3.996   2.834  0.0000  0.0000  0.0000
 1701UNL      N 7483   3.062   4.046   2.615  0.0000  0.0000  0.0000
 1701UNL      S 7484   3.047   3.844   2.773  0.0000  0.0000  0.0000
 1701UNL      C 7485   3.092   3.912   2.618  0.0000  0.0000  0.0000
 1701UNL      C 7486   3.085   4.133   2.498  0.0000  0.0000  0.0000
 1701UNL      S 7487   3.159   3.824   2.499  0.0000  0.0000  0.0000
 1701UNL      O 7488   2.974   4.216   2.741  0.0000  0.0000  0.0000
 1701UNL      C 7489   2.946   4.031   2.958  0.0000  0.0000  0.0000
 1702UNL      C 7490   2.919   3.950   3.074  0.0000  0.0000  0.0000
 1702UNL      C 7491   2.921   3.813   3.081  0.0000  0.0000  0.0000
 1702UNL      C 7492   2.886   4.018   3.194  0.0000  0.0000  0.0000
 1702UNL      C 7493   2.893   3.743   3.200  0.0000  0.0000  0.0000
 1702UNL      C 7494   2.861   3.804   3.344  0.0000  0.0000  0.0000
 1702UNL      C 7495   2.858   3.948   3.339  0.0000  0.0000  0.0000
 1702UNL      N 7496   2.876   4.153   3.209  0.0000  0.0000  0.0000
 1702UNL      N 7497   2.826   4.029   3.442  0.0000  0.0000  0.0000
 1702UNL      S 7498   2.833   4.181   3.386  0.0000  0.0000  0.0000
 1703UNL      C 7499   2.830   3.728   3.462  0.0000  0.0000  0.0000
 1703UNL      C 7500   2.824   3.591   3.475  0.0000  0.0000  0.0000
 1703UNL      C 7501   2.782   3.550   3.603  0.0000  0.0000  0.0000
 1703UNL      C 7502   2.757   3.656   3.686  0.0000  0.0000  0.0000
 1703UNL      S 7503   2.784   3.807   3.612  0.0000  0.0000  0.0000
 1704UNL      C 7504   2.707   3.611   3.815  0.0000  0.0000  0.0000
 1704UNL      C 7505   2.701   3.470   3.807  0.0000  0.0000  0.0000
 1705UNL      C 7506   2.753   3.418   3.671  0.0000  0.0000  0.0000
 1706UNL      C 7507   2.654   3.397   3.914  0.0000  0.0000  0.0000
 1707UNL      C 7508   2.880   3.333   3.692  0.0000  0.0000  0.0000
 1707UNL      C 7509   2.645   3.338   3.597  0.0000  0.0000  0.0000
 1707UNL      C 7510   2.519   3.411   3.563  0.0000  0.0000  0.0000
 1707UNL      C 7511   2.993   3.403   3.764  0.0000  0.0000  0.0000
 1707UNL      C 7512   2.415   3.322   3.503  0.0000  0.0000  0.0000
 1707UNL      C 7513   2.287   3.391   3.466  0.0000  0.0000  0.0000
 1707UNL      C 7514   2.173   3.311   3.410  0.0000  0.0000  0.0000
 1707UNL      C 7515   2.151   3.165   3.432  0.0000  0.0000  0.0000
 1707UNL      C 7516   2.043   3.061   3.434  0.0000  0.0000  0.0000
 1707UNL      C 7517   2.064   2.939   3.349  0.0000  0.0000  0.0000
 1707UNL      C 7518   3.119   3.323   3.788  0.0000  0.0000  0.0000
 1707UNL      C 7519   3.221   3.402   3.865  0.0000  0.0000  0.0000
 1707UNL      C 7520   3.356   3.337   3.885  0.0000  0.0000  0.0000
 1707UNL      C 7521   3.452   3.428   3.956  0.0000  0.0000  0.0000
 1707UNL      C 7522   3.584   3.359   3.980  0.0000  0.0000  0.0000
 1707UNL      C 7523   3.670   3.357   3.856  0.0000  0.0000  0.0000
 1708UNL      C 7524   2.668   3.680   3.927  0.0000  0.0000  0.0000
 1708UNL      C 7525   2.620   3.608   4.034  0.0000  0.0000  0.0000
 1709UNL      C 7526   2.959   4.137   2.411  0.0000  0.0000  0.0000
 1710UNL      C 7527   2.614   3.466   4.028  0.0000  0.0000  0.0000
 1711UNL      C 7528   2.560   3.422   4.156  0.0000  0.0000  0.0000
 1712UNL      C 7529   2.570   3.661   4.169  0.0000  0.0000  0.0000
 1713UNL      C 7530   2.534   3.530   4.237  0.0000  0.0000  0.0000
 1714UNL      C 7531   2.682   3.736   4.244  0.0000  0.0000  0.0000
 1714UNL      C 7532   2.447   3.754   4.151  0.0000  0.0000  0.0000
 1715UNL      S 7533   2.525   3.274   4.232  0.0000  0.0000  0.0000
 1715UNL      C 7534   2.475   3.357   4.378  0.0000  0.0000  0.0000
 1715UNL      C 7535   2.486   3.494   4.363  0.0000  0.0000  0.0000
 1716UNL      C 7536   2.434   3.288   4.498  0.0000  0.0000  0.0000
 1716UNL      C 7537   2.392   3.360   4.609  0.0000  0.0000  0.0000
 1716UNL      C 7538   2.362   3.298   4.735  0.0000  0.0000  0.0000
 1716UNL      C 7539   2.368   3.161   4.753  0.0000  0.0000  0.0000
 1716UNL      C 7540   2.437   3.146   4.513  0.0000  0.0000  0.0000
 1716UNL      C 7541   2.404   3.084   4.638  0.0000  0.0000  0.0000
 1717UNL      C 7542   2.342   3.092   4.877  0.0000  0.0000  0.0000
 1718UNL      N 7543   2.472   3.057   4.418  0.0000  0.0000  0.0000
 1718UNL      N 7544   2.417   2.949   4.634  0.0000  0.0000  0.0000
 1718UNL      S 7545   2.463   2.912   4.485  0.0000  0.0000  0.0000
 1719UNL      C 7546   2.309   3.143   4.999  0.0000  0.0000  0.0000
 1719UNL      S 7547   2.282   3.307   5.050  0.0000  0.0000  0.0000
 1719UNL      C 7548   2.295   3.052   5.113  0.0000  0.0000  0.0000
 1719UNL      O 7549   2.308   2.932   5.112  0.0000  0.0000  0.0000
 1719UNL      N 7550   2.260   3.123   5.228  0.0000  0.0000  0.0000
 1719UNL      C 7551   2.249   3.260   5.217  0.0000  0.0000  0.0000
 1719UNL      C 7552   2.248   3.054   5.357  0.0000  0.0000  0.0000
 1719UNL      C 7553   2.379   3.045   5.427  0.0000  0.0000  0.0000
 1719UNL      S 7554   2.212   3.365   5.332  0.0000  0.0000  0.0000
 1720UNL      C 7555   2.331   3.691   4.081  0.0000  0.0000  0.0000
 1720UNL      C 7556   2.205   3.780   4.070  0.0000  0.0000  0.0000
 1720UNL      C 7557   2.137   3.807   4.205  0.0000  0.0000  0.0000
 1720UNL      C 7558   2.070   3.684   4.269  0.0000  0.0000  0.0000
 1720UNL      C 7559   1.993   3.700   4.401  0.0000  0.0000  0.0000
 1720UNL      C 7560   2.090   3.718   4.518  0.0000  0.0000  0.0000
 1720UNL      C 7561   2.008   3.740   4.646  0.0000  0.0000  0.0000
 1720UNL      C 7562   2.808   3.652   4.271  0.0000  0.0000  0.0000
 1720UNL      C 7563   2.909   3.711   4.365  0.0000  0.0000  0.0000
 1720UNL      C 7564   2.859   3.704   4.512  0.0000  0.0000  0.0000
 1720UNL      C 7565   2.969   3.743   4.616  0.0000  0.0000  0.0000
 1720UNL      C 7566   2.908   3.733   4.758  0.0000  0.0000  0.0000
 1720UNL      C 7567   3.017   3.761   4.864  0.0000  0.0000  0.0000
 1720UNL      C 7568   2.967   3.729   5.011  0.0000  0.0000  0.0000
 1721UNL      C 7569   2.811   3.031   4.379  0.0000  0.0000  0.0000
 1721UNL      C 7570   2.796   3.136   4.482  0.0000  0.0000  0.0000
 1721UNL      N 7571   2.867   3.086   4.262  0.0000  0.0000  0.0000
 1721UNL      S 7572   2.852   3.289   4.420  0.0000  0.0000  0.0000
 1721UNL      C 7573   2.897   3.220   4.265  0.0000  0.0000  0.0000
 1721UNL      C 7574   2.889   3.000   4.146  0.0000  0.0000  0.0000
 1721UNL      S 7575   2.964   3.308   4.147  0.0000  0.0000  0.0000
 1721UNL      O 7576   2.778   2.916   4.388  0.0000  0.0000  0.0000
 1721UNL      C 7577   2.751   3.101   4.605  0.0000  0.0000  0.0000
 1722UNL      C 7578   2.724   3.182   4.722  0.0000  0.0000  0.0000
 1722UNL      C 7579   2.725   3.319   4.729  0.0000  0.0000  0.0000
 1722UNL      C 7580   2.691   3.114   4.842  0.0000  0.0000  0.0000
 1722UNL      C 7581   2.698   3.390   4.847  0.0000  0.0000  0.0000
 1722UNL      C 7582   2.666   3.328   4.968  0.0000  0.0000  0.0000
 1722UNL      C 7583   2.662   3.185   4.963  0.0000  0.0000  0.0000
 1722UNL      N 7584   2.681   2.979   4.856  0.0000  0.0000  0.0000
 1722UNL      N 7585   2.631   3.103   5.067  0.0000  0.0000  0.0000
 1722UNL      S 7586   2.638   2.952   5.010  0.0000  0.0000  0.0000
 1723UNL      C 7587   2.635   3.404   5.087  0.0000  0.0000  0.0000
 1723UNL      C 7588   2.629   3.541   5.100  0.0000  0.0000  0.0000
 1723UNL      C 7589   2.587   3.582   5.227  0.0000  0.0000  0.0000
 1723UNL      C 7590   2.562   3.476   5.310  0.0000  0.0000  0.0000
 1723UNL      S 7591   2.589   3.325   5.237  0.0000  0.0000  0.0000
 1724UNL      C 7592   2.511   3.521   5.439  0.0000  0.0000  0.0000
 1724UNL      C 7593   2.506   3.662   5.432  0.0000  0.0000  0.0000
 1725UNL      C 7594   2.558   3.715   5.295  0.0000  0.0000  0.0000
 1726UNL      C 7595   2.459   3.735   5.538  0.0000  0.0000  0.0000
 1727UNL      C 7596   2.685   3.800   5.317  0.0000  0.0000  0.0000
 1727UNL      C 7597   2.450   3.794   5.221  0.0000  0.0000  0.0000
 1727UNL      C 7598   2.324   3.722   5.187  0.0000  0.0000  0.0000
 1727UNL      C 7599   2.798   3.730   5.389  0.0000  0.0000  0.0000
 1727UNL      C 7600   2.220   3.811   5.127  0.0000  0.0000  0.0000
 1727UNL      C 7601   2.092   3.741   5.090  0.0000  0.0000  0.0000
 1727UNL      C 7602   1.978   3.821   5.034  0.0000  0.0000  0.0000
 1727UNL      C 7603   1.956   3.968   5.056  0.0000  0.0000  0.0000
 1727UNL      C 7604   1.848   4.071   5.058  0.0000  0.0000  0.0000
 1727UNL      C 7605   1.869   4.193   4.973  0.0000  0.0000  0.0000
 1727UNL      C 7606   2.924   3.810   5.412  0.0000  0.0000  0.0000
 1727UNL      C 7607   3.026   3.730   5.489  0.0000  0.0000  0.0000
 1727UNL      C 7608   3.161   3.795   5.509  0.0000  0.0000  0.0000
 1727UNL      C 7609   3.257   3.704   5.580  0.0000  0.0000  0.0000
 1727UNL      C 7610   3.389   3.774   5.604  0.0000  0.0000  0.0000
 1727UNL      C 7611   3.475   3.775   5.481  0.0000  0.0000  0.0000
 1728UNL      C 7612   2.472   3.452   5.551  0.0000  0.0000  0.0000
 1728UNL      C 7613   2.425   3.524   5.658  0.0000  0.0000  0.0000
 1729UNL      C 7614   2.764   2.995   4.059  0.0000  0.0000  0.0000
 1730UNL      C 7615   2.419   3.666   5.652  0.0000  0.0000  0.0000
 1731UNL      C 7616   2.365   3.710   5.780  0.0000  0.0000  0.0000
 1732UNL      C 7617   2.375   3.472   5.793  0.0000  0.0000  0.0000
 1733UNL      C 7618   2.339   3.602   5.861  0.0000  0.0000  0.0000
 1734UNL      C 7619   2.487   3.397   5.869  0.0000  0.0000  0.0000
 1734UNL      C 7620   2.252   3.379   5.776  0.0000  0.0000  0.0000
 1735UNL      S 7621   2.329   3.859   5.857  0.0000  0.0000  0.0000
 1735UNL      C 7622   2.280   3.776   6.002  0.0000  0.0000  0.0000
 1735UNL      C 7623   2.291   3.639   5.987  0.0000  0.0000  0.0000
 1736UNL      C 7624   2.239   3.844   6.122  0.0000  0.0000  0.0000
 1736UNL      C 7625   2.197   3.773   6.233  0.0000  0.0000  0.0000
 1736UNL      C 7626   2.167   3.834   6.359  0.0000  0.0000  0.0000
 1736UNL      C 7627   2.173   3.971   6.377  0.0000  0.0000  0.0000
 1736UNL      C 7628   2.242   3.987   6.137  0.0000  0.0000  0.0000
 1736UNL      C 7629   2.209   4.048   6.262  0.0000  0.0000  0.0000
 1737UNL      C 7630   2.147   4.040   6.525  0.0000  0.0000  0.0000
 1738UNL      N 7631   2.277   4.075   6.042  0.0000  0.0000  0.0000
 1738UNL      N 7632   2.222   4.184   6.258  0.0000  0.0000  0.0000
 1738UNL      S 7633   2.268   4.221   6.110  0.0000  0.0000  0.0000
 1739UNL      C 7634   2.114   3.990   6.646  0.0000  0.0000  0.0000
 1739UNL      S 7635   2.087   3.825   6.698  0.0000  0.0000  0.0000
 1739UNL      C 7636   2.099   4.080   6.761  0.0000  0.0000  0.0000
 1739UNL      O 7637   2.113   4.201   6.759  0.0000  0.0000  0.0000
 1739UNL      N 7638   2.065   4.010   6.876  0.0000  0.0000  0.0000
 1739UNL      C 7639   2.054   3.873   6.864  0.0000  0.0000  0.0000
 1739UNL      C 7640   2.052   4.078   7.005  0.0000  0.0000  0.0000
 1739UNL      C 7641   2.184   4.087   7.074  0.0000  0.0000  0.0000
 1739UNL      S 7642   2.017   3.767   6.980  0.0000  0.0000  0.0000
 1740UNL      C 7643   2.136   3.441   5.705  0.0000  0.0000  0.0000
 1740UNL      C 7644   2.010   3.353   5.694  0.0000  0.0000  0.0000
 1740UNL      C 7645   1.942   3.325   5.829  0.0000  0.0000  0.0000
 1740UNL      C 7646   1.875   3.448   5.893  0.0000  0.0000  0.0000
 1740UNL      C 7647   1.797   3.433   6.025  0.0000  0.0000  0.0000
 1740UNL      C 7648   1.895   3.414   6.143  0.0000  0.0000  0.0000
 1740UNL      C 7649   1.813   3.393   6.270  0.0000  0.0000  0.0000
 1740UNL      C 7650   2.613   3.480   5.895  0.0000  0.0000  0.0000
 1740UNL      C 7651   2.714   3.422   5.990  0.0000  0.0000  0.0000
 1740UNL      C 7652   2.664   3.429   6.136  0.0000  0.0000  0.0000
 1740UNL      C 7653   2.774   3.389   6.241  0.0000  0.0000  0.0000
 1740UNL      C 7654   2.713   3.399   6.383  0.0000  0.0000  0.0000
 1740UNL      C 7655   2.822   3.371   6.488  0.0000  0.0000  0.0000
 1740UNL      C 7656   2.772   3.403   6.635  0.0000  0.0000  0.0000
 1741UNL      C 7657   2.706   3.824   7.013  0.0000  0.0000  0.0000
 1741UNL      C 7658   2.720   3.929   6.910  0.0000  0.0000  0.0000
 1741UNL      N 7659   2.650   3.879   7.130  0.0000  0.0000  0.0000
 1741UNL      S 7660   2.665   4.081   6.972  0.0000  0.0000  0.0000
 1741UNL      C 7661   2.620   4.013   7.127  0.0000  0.0000  0.0000
 1741UNL      C 7662   2.628   3.792   7.246  0.0000  0.0000  0.0000
 1741UNL      S 7663   2.553   4.101   7.245  0.0000  0.0000  0.0000
 1741UNL      O 7664   2.738   3.708   7.004  0.0000  0.0000  0.0000
 1741UNL      C 7665   2.766   3.894   6.787  0.0000  0.0000  0.0000
 1742UNL      C 7666   2.793   3.975   6.670  0.0000  0.0000  0.0000
 1742UNL      C 7667   2.792   4.112   6.663  0.0000  0.0000  0.0000
 1742UNL      C 7668   2.826   3.907   6.550  0.0000  0.0000  0.0000
 1742UNL      C 7669   2.819   4.182   6.545  0.0000  0.0000  0.0000
 1742UNL      C 7670   2.851   4.121   6.401  0.0000  0.0000  0.0000
 1742UNL      C 7671   2.855   3.977   6.406  0.0000  0.0000  0.0000
 1742UNL      N 7672   2.836   3.772   6.536  0.0000  0.0000  0.0000
 1742UNL      N 7673   2.886   3.895   6.302  0.0000  0.0000  0.0000
 1742UNL      S 7674   2.879   3.744   6.359  0.0000  0.0000  0.0000
 1743UNL      C 7675   2.883   4.196   6.282  0.0000  0.0000  0.0000
 1743UNL      C 7676   2.888   4.334   6.269  0.0000  0.0000  0.0000
 1743UNL      C 7677   2.930   4.374   6.141  0.0000  0.0000  0.0000
 1743UNL      C 7678   2.955   4.269   6.058  0.0000  0.0000  0.0000
 1743UNL      S 7679   2.928   4.118   6.132  0.0000  0.0000  0.0000
 1744UNL      C 7680   3.006   4.314   5.930  0.0000  0.0000  0.0000
 1744UNL      C 7681   3.011   4.455   5.937  0.0000  0.0000  0.0000
 1745UNL      C 7682   2.959   4.507   6.073  0.0000  0.0000  0.0000
 1746UNL      C 7683   3.058   4.528   5.831  0.0000  0.0000  0.0000
 1747UNL      C 7684   2.832   4.592   6.052  0.0000  0.0000  0.0000
 1747UNL      C 7685   3.067   4.587   6.147  0.0000  0.0000  0.0000
 1747UNL      C 7686   3.193   4.514   6.181  0.0000  0.0000  0.0000
 1747UNL      C 7687   2.719   4.522   5.980  0.0000  0.0000  0.0000
 1747UNL      C 7688   3.297   4.603   6.242  0.0000  0.0000  0.0000
 1747UNL      C 7689   3.425   4.534   6.278  0.0000  0.0000  0.0000
 1747UNL      C 7690   3.539   4.613   6.335  0.0000  0.0000  0.0000
 1747UNL      C 7691   3.561   4.760   6.313  0.0000  0.0000  0.0000
 1747UNL      C 7692   3.669   4.864   6.311  0.0000  0.0000  0.0000
 1747UNL      C 7693   3.648   4.985   6.395  0.0000  0.0000  0.0000
 1747UNL      C 7694   2.594   4.602   5.956  0.0000  0.0000  0.0000
 1747UNL      C 7695   2.491   4.523   5.880  0.0000  0.0000  0.0000
 1747UNL      C 7696   2.356   4.588   5.859  0.0000  0.0000  0.0000
 1747UNL      C 7697   2.260   4.497   5.788  0.0000  0.0000  0.0000
 1747UNL      C 7698   2.128   4.566   5.764  0.0000  0.0000  0.0000
 1747UNL      C 7699   2.042   4.568   5.888  0.0000  0.0000  0.0000
 1748UNL      C 7700   3.045   4.245   5.817  0.0000  0.0000  0.0000
 1748UNL      C 7701   3.092   4.317   5.711  0.0000  0.0000  0.0000
 1749UNL      C 7702   2.753   3.787   7.333  0.0000  0.0000  0.0000
 1750UNL      C 7703   3.098   4.459   5.717  0.0000  0.0000  0.0000
 1751UNL      C 7704   3.152   4.503   5.588  0.0000  0.0000  0.0000
 1752UNL      C 7705   3.142   4.264   5.576  0.0000  0.0000  0.0000
 1753UNL      C 7706   3.178   4.395   5.508  0.0000  0.0000  0.0000
 1754UNL      C 7707   3.030   4.189   5.500  0.0000  0.0000  0.0000
 1754UNL      C 7708   3.265   4.171   5.593  0.0000  0.0000  0.0000
 1755UNL      S 7709   3.188   4.651   5.512  0.0000  0.0000  0.0000
 1755UNL      C 7710   3.238   4.568   5.366  0.0000  0.0000  0.0000
 1755UNL      C 7711   3.227   4.431   5.382  0.0000  0.0000  0.0000
 1756UNL      C 7712   3.278   4.637   5.246  0.0000  0.0000  0.0000
 1756UNL      C 7713   3.320   4.565   5.135  0.0000  0.0000  0.0000
 1756UNL      C 7714   3.350   4.627   5.010  0.0000  0.0000  0.0000
 1756UNL      C 7715   3.344   4.763   4.991  0.0000  0.0000  0.0000
 1756UNL      C 7716   3.275   4.779   5.231  0.0000  0.0000  0.0000
 1756UNL      C 7717   3.308   4.841   5.107  0.0000  0.0000  0.0000
 1757UNL      C 7718   3.370   4.832   4.867  0.0000  0.0000  0.0000
 1758UNL      N 7719   3.240   4.868   5.327  0.0000  0.0000  0.0000
 1758UNL      N 7720   3.295   4.976   5.110  0.0000  0.0000  0.0000
 1758UNL      S 7721   3.250   5.013   5.259  0.0000  0.0000  0.0000
 1759UNL      C 7722   3.403   4.782   4.746  0.0000  0.0000  0.0000
 1759UNL      S 7723   3.430   4.618   4.694  0.0000  0.0000  0.0000
 1759UNL      C 7724   3.417   4.873   4.631  0.0000  0.0000  0.0000
 1759UNL      O 7725   3.404   4.993   4.633  0.0000  0.0000  0.0000
 1759UNL      N 7726   3.452   4.802   4.516  0.0000  0.0000  0.0000
 1759UNL      C 7727   3.463   4.665   4.528  0.0000  0.0000  0.0000
 1759UNL      C 7728   3.465   4.871   4.388  0.0000  0.0000  0.0000
 1759UNL      C 7729   3.333   4.879   4.318  0.0000  0.0000  0.0000
 1759UNL      S 7730   3.500   4.560   4.412  0.0000  0.0000  0.0000
 1760UNL      C 7731   3.381   4.233   5.663  0.0000  0.0000  0.0000
 1760UNL      C 7732   3.507   4.145   5.675  0.0000  0.0000  0.0000
 1760UNL      C 7733   3.575   4.118   5.540  0.0000  0.0000  0.0000
 1760UNL      C 7734   3.642   4.240   5.475  0.0000  0.0000  0.0000
 1760UNL      C 7735   3.720   4.225   5.343  0.0000  0.0000  0.0000
 1760UNL      C 7736   3.622   4.207   5.226  0.0000  0.0000  0.0000
 1760UNL      C 7737   3.705   4.185   5.098  0.0000  0.0000  0.0000
 1760UNL      C 7738   2.904   4.272   5.474  0.0000  0.0000  0.0000
 1760UNL      C 7739   2.803   4.214   5.379  0.0000  0.0000  0.0000
 1760UNL      C 7740   2.853   4.221   5.233  0.0000  0.0000  0.0000
 1760UNL      C 7741   2.743   4.181   5.128  0.0000  0.0000  0.0000
 1760UNL      C 7742   2.804   4.192   4.986  0.0000  0.0000  0.0000
 1760UNL      C 7743   2.695   4.163   4.880  0.0000  0.0000  0.0000
 1760UNL      C 7744   2.745   4.195   4.733  0.0000  0.0000  0.0000
 1761UNL      C 7745   3.291   6.478   2.118  0.0000  0.0000  0.0000
 1761UNL      C 7746   3.306   6.372   2.015  0.0000  0.0000  0.0000
 1761UNL      N 7747   3.235   6.423   2.234  0.0000  0.0000  0.0000
 1761UNL      S 7748   3.250   6.220   2.076  0.0000  0.0000  0.0000
 1761UNL      C 7749   3.205   6.289   2.231  0.0000  0.0000  0.0000
 1761UNL      C 7750   3.213   6.509   2.351  0.0000  0.0000  0.0000
 1761UNL      S 7751   3.138   6.201   2.350  0.0000  0.0000  0.0000
 1761UNL      O 7752   3.324   6.593   2.108  0.0000  0.0000  0.0000
 1761UNL      C 7753   3.351   6.408   1.891  0.0000  0.0000  0.0000
 1762UNL      C 7754   3.378   6.327   1.775  0.0000  0.0000  0.0000
 1762UNL      C 7755   3.377   6.190   1.768  0.0000  0.0000  0.0000
 1762UNL      C 7756   3.412   6.395   1.654  0.0000  0.0000  0.0000
 1762UNL      C 7757   3.404   6.119   1.649  0.0000  0.0000  0.0000
 1762UNL      C 7758   3.436   6.180   1.528  0.0000  0.0000  0.0000
 1762UNL      C 7759   3.440   6.324   1.533  0.0000  0.0000  0.0000
 1762UNL      N 7760   3.421   6.529   1.640  0.0000  0.0000  0.0000
 1762UNL      N 7761   3.471   6.406   1.430  0.0000  0.0000  0.0000
 1762UNL      S 7762   3.464   6.557   1.486  0.0000  0.0000  0.0000
 1763UNL      C 7763   3.468   6.105   1.410  0.0000  0.0000  0.0000
 1763UNL      C 7764   3.473   5.968   1.397  0.0000  0.0000  0.0000
 1763UNL      C 7765   3.515   5.927   1.269  0.0000  0.0000  0.0000
 1763UNL      C 7766   3.540   6.033   1.186  0.0000  0.0000  0.0000
 1763UNL      S 7767   3.513   6.183   1.260  0.0000  0.0000  0.0000
 1764UNL      C 7768   3.591   5.987   1.058  0.0000  0.0000  0.0000
 1764UNL      C 7769   3.596   5.847   1.065  0.0000  0.0000  0.0000
 1765UNL      C 7770   3.545   5.794   1.201  0.0000  0.0000  0.0000
 1766UNL      C 7771   3.643   5.774   0.958  0.0000  0.0000  0.0000
 1767UNL      C 7772   3.417   5.709   1.180  0.0000  0.0000  0.0000
 1767UNL      C 7773   3.652   5.714   1.275  0.0000  0.0000  0.0000
 1767UNL      C 7774   3.778   5.787   1.309  0.0000  0.0000  0.0000
 1767UNL      C 7775   3.305   5.779   1.108  0.0000  0.0000  0.0000
 1767UNL      C 7776   3.883   5.698   1.370  0.0000  0.0000  0.0000
 1767UNL      C 7777   4.010   5.768   1.406  0.0000  0.0000  0.0000
 1767UNL      C 7778   4.124   5.688   1.462  0.0000  0.0000  0.0000
 1767UNL      C 7779   4.146   5.541   1.441  0.0000  0.0000  0.0000
 1767UNL      C 7780   4.254   5.437   1.438  0.0000  0.0000  0.0000
 1767UNL      C 7781   4.233   5.316   1.523  0.0000  0.0000  0.0000
 1767UNL      C 7782   3.179   5.699   1.084  0.0000  0.0000  0.0000
 1767UNL      C 7783   3.076   5.779   1.008  0.0000  0.0000  0.0000
 1767UNL      C 7784   2.942   5.714   0.987  0.0000  0.0000  0.0000
 1767UNL      C 7785   2.845   5.805   0.916  0.0000  0.0000  0.0000
 1767UNL      C 7786   2.714   5.735   0.892  0.0000  0.0000  0.0000
 1767UNL      C 7787   2.627   5.733   1.016  0.0000  0.0000  0.0000
 1768UNL      C 7788   3.630   6.056   0.945  0.0000  0.0000  0.0000
 1768UNL      C 7789   3.677   5.984   0.838  0.0000  0.0000  0.0000
 1769UNL      C 7790   3.338   6.514   2.438  0.0000  0.0000  0.0000
 1770UNL      C 7791   3.683   5.843   0.845  0.0000  0.0000  0.0000
 1771UNL      C 7792   3.737   5.798   0.716  0.0000  0.0000  0.0000
 1772UNL      C 7793   3.727   6.037   0.703  0.0000  0.0000  0.0000
 1773UNL      C 7794   3.763   5.907   0.635  0.0000  0.0000  0.0000
 1774UNL      C 7795   3.615   6.112   0.628  0.0000  0.0000  0.0000
 1774UNL      C 7796   3.850   6.130   0.721  0.0000  0.0000  0.0000
 1775UNL      S 7797   3.773   5.650   0.640  0.0000  0.0000  0.0000
 1775UNL      C 7798   3.823   5.733   0.494  0.0000  0.0000  0.0000
 1775UNL      C 7799   3.812   5.870   0.510  0.0000  0.0000  0.0000
 1776UNL      C 7800   3.863   5.664   0.374  0.0000  0.0000  0.0000
 1776UNL      C 7801   3.906   5.736   0.263  0.0000  0.0000  0.0000
 1776UNL      C 7802   3.935   5.674   0.138  0.0000  0.0000  0.0000
 1776UNL      C 7803   3.929   5.538   0.119  0.0000  0.0000  0.0000
 1776UNL      C 7804   3.860   5.522   0.359  0.0000  0.0000  0.0000
 1776UNL      C 7805   3.893   5.460   0.235  0.0000  0.0000  0.0000
 1777UNL      C 7806   3.955   5.469  -0.029  0.0000  0.0000  0.0000
 1778UNL      N 7807   3.825   5.433   0.454  0.0000  0.0000  0.0000
 1778UNL      N 7808   3.880   5.325   0.238  0.0000  0.0000  0.0000
 1778UNL      S 7809   3.835   5.288   0.387  0.0000  0.0000  0.0000
 1779UNL      C 7810   3.988   5.519  -0.150  0.0000  0.0000  0.0000
 1779UNL      S 7811   4.016   5.683  -0.201  0.0000  0.0000  0.0000
 1779UNL      C 7812   4.003   5.429  -0.264  0.0000  0.0000  0.0000
 1779UNL      O 7813   3.989   5.308  -0.263  0.0000  0.0000  0.0000
 1779UNL      N 7814   4.038   5.499  -0.379  0.0000  0.0000  0.0000
 1779UNL      C 7815   4.049   5.636  -0.368  0.0000  0.0000  0.0000
 1779UNL      C 7816   4.050   5.431  -0.508  0.0000  0.0000  0.0000
 1779UNL      C 7817   3.919   5.422  -0.578  0.0000  0.0000  0.0000
 1779UNL      S 7818   4.085   5.742  -0.483  0.0000  0.0000  0.0000
 1780UNL      C 7819   3.966   6.068   0.791  0.0000  0.0000  0.0000
 1780UNL      C 7820   4.092   6.156   0.803  0.0000  0.0000  0.0000
 1780UNL      C 7821   4.160   6.183   0.668  0.0000  0.0000  0.0000
 1780UNL      C 7822   4.227   6.061   0.603  0.0000  0.0000  0.0000
 1780UNL      C 7823   4.305   6.076   0.471  0.0000  0.0000  0.0000
 1780UNL      C 7824   4.207   6.095   0.354  0.0000  0.0000  0.0000
 1780UNL      C 7825   4.290   6.116   0.226  0.0000  0.0000  0.0000
 1780UNL      C 7826   3.489   6.029   0.601  0.0000  0.0000  0.0000
 1780UNL      C 7827   3.388   6.087   0.507  0.0000  0.0000  0.0000
 1780UNL      C 7828   3.438   6.080   0.361  0.0000  0.0000  0.0000
 1780UNL      C 7829   3.329   6.120   0.256  0.0000  0.0000  0.0000
 1780UNL      C 7830   3.389   6.109   0.114  0.0000  0.0000  0.0000
 1780UNL      C 7831   3.280   6.138   0.008  0.0000  0.0000  0.0000
 1780UNL      C 7832   3.330   6.106  -0.139  0.0000  0.0000  0.0000
 1781UNL      C 7833   3.396   5.685  -0.517  0.0000  0.0000  0.0000
 1781UNL      C 7834   3.382   5.580  -0.414  0.0000  0.0000  0.0000
 1781UNL      N 7835   3.452   5.630  -0.633  0.0000  0.0000  0.0000
 1781UNL      S 7836   3.437   5.428  -0.475  0.0000  0.0000  0.0000
 1781UNL      C 7837   3.482   5.496  -0.630  0.0000  0.0000  0.0000
 1781UNL      C 7838   3.475   5.717  -0.750  0.0000  0.0000  0.0000
 1781UNL      S 7839   3.549   5.408  -0.749  0.0000  0.0000  0.0000
 1781UNL      O 7840   3.364   5.800  -0.507  0.0000  0.0000  0.0000
 1781UNL      C 7841   3.336   5.615  -0.290  0.0000  0.0000  0.0000
 1782UNL      C 7842   3.309   5.534  -0.174  0.0000  0.0000  0.0000
 1782UNL      C 7843   3.311   5.397  -0.167  0.0000  0.0000  0.0000
 1782UNL      C 7844   3.276   5.602  -0.054  0.0000  0.0000  0.0000
 1782UNL      C 7845   3.283   5.327  -0.048  0.0000  0.0000  0.0000
 1782UNL      C 7846   3.251   5.388   0.096  0.0000  0.0000  0.0000
 1782UNL      C 7847   3.248   5.532   0.091  0.0000  0.0000  0.0000
 1782UNL      N 7848   3.266   5.737  -0.039  0.0000  0.0000  0.0000
 1782UNL      N 7849   3.216   5.613   0.194  0.0000  0.0000  0.0000
 1782UNL      S 7850   3.223   5.765   0.138  0.0000  0.0000  0.0000
 1783UNL      C 7851   3.220   5.312   0.214  0.0000  0.0000  0.0000
 1783UNL      C 7852   3.214   5.175   0.227  0.0000  0.0000  0.0000
 1783UNL      C 7853   3.172   5.134   0.355  0.0000  0.0000  0.0000
 1783UNL      C 7854   3.147   5.240   0.438  0.0000  0.0000  0.0000
 1783UNL      S 7855   3.174   5.391   0.364  0.0000  0.0000  0.0000
 1784UNL      C 7856   3.097   5.195   0.567  0.0000  0.0000  0.0000
 1784UNL      C 7857   3.091   5.054   0.559  0.0000  0.0000  0.0000
 1785UNL      C 7858   3.143   5.002   0.423  0.0000  0.0000  0.0000
 1786UNL      C 7859   3.044   4.981   0.666  0.0000  0.0000  0.0000
 1787UNL      C 7860   3.270   4.917   0.444  0.0000  0.0000  0.0000
 1787UNL      C 7861   3.035   4.922   0.349  0.0000  0.0000  0.0000
 1787UNL      C 7862   2.909   4.995   0.315  0.0000  0.0000  0.0000
 1787UNL      C 7863   3.383   4.987   0.516  0.0000  0.0000  0.0000
 1787UNL      C 7864   2.805   4.906   0.255  0.0000  0.0000  0.0000
 1787UNL      C 7865   2.677   4.975   0.218  0.0000  0.0000  0.0000
 1787UNL      C 7866   2.563   4.895   0.162  0.0000  0.0000  0.0000
 1787UNL      C 7867   2.541   4.749   0.184  0.0000  0.0000  0.0000
 1787UNL      C 7868   2.433   4.645   0.186  0.0000  0.0000  0.0000
 1787UNL      C 7869   2.454   4.523   0.101  0.0000  0.0000  0.0000
 1787UNL      C 7870   3.509   4.907   0.540  0.0000  0.0000  0.0000
 1787UNL      C 7871   3.611   4.986   0.617  0.0000  0.0000  0.0000
 1787UNL      C 7872   3.746   4.921   0.637  0.0000  0.0000  0.0000
 1787UNL      C 7873   3.842   5.012   0.708  0.0000  0.0000  0.0000
 1787UNL      C 7874   3.974   4.943   0.732  0.0000  0.0000  0.0000
 1787UNL      C 7875   4.060   4.941   0.608  0.0000  0.0000  0.0000
 1788UNL      C 7876   3.058   5.264   0.679  0.0000  0.0000  0.0000
 1788UNL      C 7877   3.010   5.192   0.786  0.0000  0.0000  0.0000
 1789UNL      C 7878   3.349   5.721  -0.837  0.0000  0.0000  0.0000
 1790UNL      C 7879   3.004   5.050   0.780  0.0000  0.0000  0.0000
 1791UNL      C 7880   2.950   5.006   0.908  0.0000  0.0000  0.0000
 1792UNL      C 7881   2.960   5.245   0.921  0.0000  0.0000  0.0000
 1793UNL      C 7882   2.924   5.114   0.989  0.0000  0.0000  0.0000
 1794UNL      C 7883   3.072   5.320   0.996  0.0000  0.0000  0.0000
 1794UNL      C 7884   2.837   5.338   0.903  0.0000  0.0000  0.0000
 1795UNL      S 7885   2.915   4.858   0.984  0.0000  0.0000  0.0000
 1795UNL      C 7886   2.865   4.941   1.130  0.0000  0.0000  0.0000
 1795UNL      C 7887   2.876   5.078   1.115  0.0000  0.0000  0.0000
 1796UNL      C 7888   2.824   4.872   1.250  0.0000  0.0000  0.0000
 1796UNL      C 7889   2.782   4.944   1.361  0.0000  0.0000  0.0000
 1796UNL      C 7890   2.752   4.882   1.487  0.0000  0.0000  0.0000
 1796UNL      C 7891   2.758   4.745   1.505  0.0000  0.0000  0.0000
 1796UNL      C 7892   2.827   4.730   1.265  0.0000  0.0000  0.0000
 1796UNL      C 7893   2.794   4.668   1.390  0.0000  0.0000  0.0000
 1797UNL      C 7894   2.732   4.676   1.629  0.0000  0.0000  0.0000
 1798UNL      N 7895   2.862   4.641   1.170  0.0000  0.0000  0.0000
 1798UNL      N 7896   2.807   4.533   1.386  0.0000  0.0000  0.0000
 1798UNL      S 7897   2.853   4.496   1.237  0.0000  0.0000  0.0000
 1799UNL      C 7898   2.699   4.727   1.751  0.0000  0.0000  0.0000
 1799UNL      S 7899   2.672   4.891   1.802  0.0000  0.0000  0.0000
 1799UNL      C 7900   2.685   4.636   1.865  0.0000  0.0000  0.0000
 1799UNL      O 7901   2.698   4.516   1.864  0.0000  0.0000  0.0000
 1799UNL      N 7902   2.650   4.707   1.980  0.0000  0.0000  0.0000
 1799UNL      C 7903   2.639   4.844   1.969  0.0000  0.0000  0.0000
 1799UNL      C 7904   2.638   4.638   2.109  0.0000  0.0000  0.0000
 1799UNL      C 7905   2.769   4.629   2.179  0.0000  0.0000  0.0000
 1799UNL      S 7906   2.602   4.949   2.084  0.0000  0.0000  0.0000
 1800UNL      C 7907   2.721   5.275   0.833  0.0000  0.0000  0.0000
 1800UNL      C 7908   2.595   5.364   0.822  0.0000  0.0000  0.0000
 1800UNL      C 7909   2.527   5.391   0.957  0.0000  0.0000  0.0000
 1800UNL      C 7910   2.460   5.268   1.021  0.0000  0.0000  0.0000
 1800UNL      C 7911   2.383   5.284   1.153  0.0000  0.0000  0.0000
 1800UNL      C 7912   2.480   5.302   1.270  0.0000  0.0000  0.0000
 1800UNL      C 7913   2.398   5.324   1.398  0.0000  0.0000  0.0000
 1800UNL      C 7914   3.198   5.236   1.023  0.0000  0.0000  0.0000
 1800UNL      C 7915   3.299   5.295   1.117  0.0000  0.0000  0.0000
 1800UNL      C 7916   3.249   5.288   1.264  0.0000  0.0000  0.0000
 1800UNL      C 7917   3.359   5.327   1.368  0.0000  0.0000  0.0000
 1800UNL      C 7918   3.298   5.317   1.510  0.0000  0.0000  0.0000
 1800UNL      C 7919   3.407   5.345   1.616  0.0000  0.0000  0.0000
 1800UNL      C 7920   3.357   5.313   1.763  0.0000  0.0000  0.0000
 1801UNL      C 7921   3.201   4.615   1.131  0.0000  0.0000  0.0000
 1801UNL      C 7922   3.186   4.720   1.234  0.0000  0.0000  0.0000
 1801UNL      N 7923   3.257   4.670   1.014  0.0000  0.0000  0.0000
 1801UNL      S 7924   3.242   4.873   1.172  0.0000  0.0000  0.0000
 1801UNL      C 7925   3.287   4.804   1.017  0.0000  0.0000  0.0000
 1801UNL      C 7926   3.279   4.584   0.898  0.0000  0.0000  0.0000
 1801UNL      S 7927   3.354   4.892   0.899  0.0000  0.0000  0.0000
 1801UNL      O 7928   3.168   4.500   1.140  0.0000  0.0000  0.0000
 1801UNL      C 7929   3.141   4.685   1.357  0.0000  0.0000  0.0000
 1802UNL      C 7930   3.114   4.766   1.474  0.0000  0.0000  0.0000
 1802UNL      C 7931   3.115   4.903   1.481  0.0000  0.0000  0.0000
 1802UNL      C 7932   3.081   4.698   1.594  0.0000  0.0000  0.0000
 1802UNL      C 7933   3.088   4.974   1.599  0.0000  0.0000  0.0000
 1802UNL      C 7934   3.056   4.912   1.720  0.0000  0.0000  0.0000
 1802UNL      C 7935   3.052   4.769   1.715  0.0000  0.0000  0.0000
 1802UNL      N 7936   3.071   4.563   1.608  0.0000  0.0000  0.0000
 1802UNL      N 7937   3.021   4.687   1.819  0.0000  0.0000  0.0000
 1802UNL      S 7938   3.028   4.536   1.762  0.0000  0.0000  0.0000
 1803UNL      C 7939   3.025   4.988   1.839  0.0000  0.0000  0.0000
 1803UNL      C 7940   3.019   5.125   1.852  0.0000  0.0000  0.0000
 1803UNL      C 7941   2.977   5.166   1.979  0.0000  0.0000  0.0000
 1803UNL      C 7942   2.952   5.060   2.062  0.0000  0.0000  0.0000
 1803UNL      S 7943   2.979   4.909   1.989  0.0000  0.0000  0.0000
 1804UNL      C 7944   2.901   5.105   2.191  0.0000  0.0000  0.0000
 1804UNL      C 7945   2.896   5.246   2.184  0.0000  0.0000  0.0000
 1805UNL      C 7946   2.948   5.299   2.047  0.0000  0.0000  0.0000
 1806UNL      C 7947   2.849   5.319   2.290  0.0000  0.0000  0.0000
 1807UNL      C 7948   3.075   5.384   2.069  0.0000  0.0000  0.0000
 1807UNL      C 7949   2.840   5.378   1.973  0.0000  0.0000  0.0000
 1807UNL      C 7950   2.714   5.306   1.939  0.0000  0.0000  0.0000
 1807UNL      C 7951   3.188   5.314   2.141  0.0000  0.0000  0.0000
 1807UNL      C 7952   2.610   5.395   1.879  0.0000  0.0000  0.0000
 1807UNL      C 7953   2.482   5.325   1.842  0.0000  0.0000  0.0000
 1807UNL      C 7954   2.368   5.405   1.786  0.0000  0.0000  0.0000
 1807UNL      C 7955   2.346   5.552   1.808  0.0000  0.0000  0.0000
 1807UNL      C 7956   2.238   5.655   1.810  0.0000  0.0000  0.0000
 1807UNL      C 7957   2.259   5.777   1.725  0.0000  0.0000  0.0000
 1807UNL      C 7958   3.314   5.394   2.164  0.0000  0.0000  0.0000
 1807UNL      C 7959   3.416   5.314   2.241  0.0000  0.0000  0.0000
 1807UNL      C 7960   3.551   5.379   2.261  0.0000  0.0000  0.0000
 1807UNL      C 7961   3.647   5.288   2.332  0.0000  0.0000  0.0000
 1807UNL      C 7962   3.779   5.358   2.356  0.0000  0.0000  0.0000
 1807UNL      C 7963   3.865   5.359   2.233  0.0000  0.0000  0.0000
 1808UNL      C 7964   2.862   5.036   2.303  0.0000  0.0000  0.0000
 1808UNL      C 7965   2.815   5.108   2.410  0.0000  0.0000  0.0000
 1809UNL      C 7966   3.154   4.579   0.811  0.0000  0.0000  0.0000
 1810UNL      C 7967   2.809   5.250   2.404  0.0000  0.0000  0.0000
 1811UNL      C 7968   2.755   5.294   2.532  0.0000  0.0000  0.0000
 1812UNL      C 7969   2.765   5.056   2.545  0.0000  0.0000  0.0000
 1813UNL      C 7970   2.729   5.186   2.613  0.0000  0.0000  0.0000
 1814UNL      C 7971   2.877   4.981   2.621  0.0000  0.0000  0.0000
 1814UNL      C 7972   2.642   4.963   2.528  0.0000  0.0000  0.0000
 1815UNL      S 7973   2.719   5.443   2.609  0.0000  0.0000  0.0000
 1815UNL      C 7974   2.670   5.360   2.754  0.0000  0.0000  0.0000
 1815UNL      C 7975   2.681   5.223   2.739  0.0000  0.0000  0.0000
 1816UNL      C 7976   2.629   5.428   2.874  0.0000  0.0000  0.0000
 1816UNL      C 7977   2.587   5.357   2.985  0.0000  0.0000  0.0000
 1816UNL      C 7978   2.557   5.418   3.111  0.0000  0.0000  0.0000
 1816UNL      C 7979   2.563   5.555   3.129  0.0000  0.0000  0.0000
 1816UNL      C 7980   2.632   5.571   2.889  0.0000  0.0000  0.0000
 1816UNL      C 7981   2.599   5.632   3.014  0.0000  0.0000  0.0000
 1817UNL      C 7982   2.537   5.624   3.277  0.0000  0.0000  0.0000
 1818UNL      N 7983   2.667   5.659   2.794  0.0000  0.0000  0.0000
 1818UNL      N 7984   2.612   5.768   3.010  0.0000  0.0000  0.0000
 1818UNL      S 7985   2.658   5.805   2.862  0.0000  0.0000  0.0000
 1819UNL      C 7986   2.504   5.574   3.398  0.0000  0.0000  0.0000
 1819UNL      S 7987   2.477   5.409   3.450  0.0000  0.0000  0.0000
 1819UNL      C 7988   2.489   5.664   3.513  0.0000  0.0000  0.0000
 1819UNL      O 7989   2.503   5.785   3.511  0.0000  0.0000  0.0000
 1819UNL      N 7990   2.455   5.594   3.628  0.0000  0.0000  0.0000
 1819UNL      C 7991   2.444   5.457   3.616  0.0000  0.0000  0.0000
 1819UNL      C 7992   2.442   5.662   3.757  0.0000  0.0000  0.0000
 1819UNL      C 7993   2.574   5.671   3.826  0.0000  0.0000  0.0000
 1819UNL      S 7994   2.407   5.351   3.732  0.0000  0.0000  0.0000
 1820UNL      C 7995   2.526   5.025   2.457  0.0000  0.0000  0.0000
 1820UNL      C 7996   2.400   4.937   2.446  0.0000  0.0000  0.0000
 1820UNL      C 7997   2.332   4.909   2.581  0.0000  0.0000  0.0000
 1820UNL      C 7998   2.265   5.032   2.645  0.0000  0.0000  0.0000
 1820UNL      C 7999   2.187   5.017   2.777  0.0000  0.0000  0.0000
 1820UNL      C 8000   2.285   4.998   2.895  0.0000  0.0000  0.0000
 1820UNL      C 8001   2.203   4.977   3.022  0.0000  0.0000  0.0000
 1820UNL      C 8002   3.003   5.064   2.647  0.0000  0.0000  0.0000
 1820UNL      C 8003   3.104   5.006   2.742  0.0000  0.0000  0.0000
 1820UNL      C 8004   3.054   5.013   2.888  0.0000  0.0000  0.0000
 1820UNL      C 8005   3.164   4.973   2.993  0.0000  0.0000  0.0000
 1820UNL      C 8006   3.103   4.983   3.135  0.0000  0.0000  0.0000
 1820UNL      C 8007   3.212   4.955   3.240  0.0000  0.0000  0.0000
 1820UNL      C 8008   3.162   4.987   3.387  0.0000  0.0000  0.0000
 1821UNL      C 8009   3.096   5.408   3.765  0.0000  0.0000  0.0000
 1821UNL      C 8010   3.110   5.513   3.662  0.0000  0.0000  0.0000
 1821UNL      N 8011   3.040   5.463   3.882  0.0000  0.0000  0.0000
 1821UNL      S 8012   3.055   5.665   3.724  0.0000  0.0000  0.0000
 1821UNL      C 8013   3.010   5.597   3.879  0.0000  0.0000  0.0000
 1821UNL      C 8014   3.018   5.376   3.998  0.0000  0.0000  0.0000
 1821UNL      S 8015   2.943   5.685   3.997  0.0000  0.0000  0.0000
 1821UNL      O 8016   3.128   5.292   3.756  0.0000  0.0000  0.0000
 1821UNL      C 8017   3.156   5.478   3.539  0.0000  0.0000  0.0000
 1822UNL      C 8018   3.183   5.559   3.422  0.0000  0.0000  0.0000
 1822UNL      C 8019   3.182   5.696   3.415  0.0000  0.0000  0.0000
 1822UNL      C 8020   3.216   5.491   3.302  0.0000  0.0000  0.0000
 1822UNL      C 8021   3.209   5.766   3.297  0.0000  0.0000  0.0000
 1822UNL      C 8022   3.241   5.705   3.153  0.0000  0.0000  0.0000
 1822UNL      C 8023   3.245   5.561   3.158  0.0000  0.0000  0.0000
 1822UNL      N 8024   3.226   5.356   3.288  0.0000  0.0000  0.0000
 1822UNL      N 8025   3.276   5.479   3.054  0.0000  0.0000  0.0000
 1822UNL      S 8026   3.269   5.328   3.111  0.0000  0.0000  0.0000
 1823UNL      C 8027   3.273   5.780   3.034  0.0000  0.0000  0.0000
 1823UNL      C 8028   3.278   5.918   3.021  0.0000  0.0000  0.0000
 1823UNL      C 8029   3.320   5.958   2.893  0.0000  0.0000  0.0000
 1823UNL      C 8030   3.345   5.853   2.810  0.0000  0.0000  0.0000
 1823UNL      S 8031   3.318   5.702   2.884  0.0000  0.0000  0.0000
 1824UNL      C 8032   3.396   5.898   2.682  0.0000  0.0000  0.0000
 1824UNL      C 8033   3.401   6.039   2.689  0.0000  0.0000  0.0000
 1825UNL      C 8034   3.349   6.091   2.825  0.0000  0.0000  0.0000
 1826UNL      C 8035   3.448   6.112   2.583  0.0000  0.0000  0.0000
 1827UNL      C 8036   3.222   6.176   2.804  0.0000  0.0000  0.0000
 1827UNL      C 8037   3.457   6.171   2.899  0.0000  0.0000  0.0000
 1827UNL      C 8038   3.583   6.098   2.933  0.0000  0.0000  0.0000
 1827UNL      C 8039   3.109   6.106   2.732  0.0000  0.0000  0.0000
 1827UNL      C 8040   3.687   6.187   2.994  0.0000  0.0000  0.0000
 1827UNL      C 8041   3.815   6.118   3.030  0.0000  0.0000  0.0000
 1827UNL      C 8042   3.929   6.197   3.087  0.0000  0.0000  0.0000
 1827UNL      C 8043   3.951   6.344   3.065  0.0000  0.0000  0.0000
 1827UNL      C 8044   4.059   6.448   3.063  0.0000  0.0000  0.0000
 1827UNL      C 8045   4.038   6.569   3.147  0.0000  0.0000  0.0000
 1827UNL      C 8046   2.984   6.186   2.708  0.0000  0.0000  0.0000
 1827UNL      C 8047   2.881   6.107   2.632  0.0000  0.0000  0.0000
 1827UNL      C 8048   2.746   6.172   2.611  0.0000  0.0000  0.0000
 1827UNL      C 8049   2.650   6.081   2.540  0.0000  0.0000  0.0000
 1827UNL      C 8050   2.518   6.150   2.516  0.0000  0.0000  0.0000
 1827UNL      C 8051   2.432   6.152   2.640  0.0000  0.0000  0.0000
 1828UNL      C 8052   3.435   5.829   2.569  0.0000  0.0000  0.0000
 1828UNL      C 8053   3.482   5.901   2.463  0.0000  0.0000  0.0000
 1829UNL      C 8054   3.143   5.371   4.085  0.0000  0.0000  0.0000
 1830UNL      C 8055   3.488   6.043   2.469  0.0000  0.0000  0.0000
 1831UNL      C 8056   3.542   6.087   2.340  0.0000  0.0000  0.0000
 1832UNL      C 8057   3.532   5.848   2.328  0.0000  0.0000  0.0000
 1833UNL      C 8058   3.568   5.979   2.260  0.0000  0.0000  0.0000
 1834UNL      C 8059   3.420   5.773   2.252  0.0000  0.0000  0.0000
 1834UNL      C 8060   3.655   5.755   2.345  0.0000  0.0000  0.0000
 1835UNL      S 8061   3.578   6.235   2.264  0.0000  0.0000  0.0000
 1835UNL      C 8062   3.628   6.152   2.118  0.0000  0.0000  0.0000
 1835UNL      C 8063   3.617   6.015   2.134  0.0000  0.0000  0.0000
 1836UNL      C 8064   3.668   6.221   1.998  0.0000  0.0000  0.0000
 1836UNL      C 8065   3.710   6.149   1.887  0.0000  0.0000  0.0000
 1836UNL      C 8066   3.740   6.211   1.762  0.0000  0.0000  0.0000
 1836UNL      C 8067   3.734   6.347   1.743  0.0000  0.0000  0.0000
 1836UNL      C 8068   3.665   6.363   1.983  0.0000  0.0000  0.0000
 1836UNL      C 8069   3.698   6.425   1.859  0.0000  0.0000  0.0000
 1837UNL      C 8070   3.760   6.416   1.619  0.0000  0.0000  0.0000
 1838UNL      N 8071   3.630   6.452   2.079  0.0000  0.0000  0.0000
 1838UNL      N 8072   3.685   6.560   1.862  0.0000  0.0000  0.0000
 1838UNL      S 8073   3.640   6.597   2.011  0.0000  0.0000  0.0000
 1839UNL      C 8074   3.793   6.366   1.498  0.0000  0.0000  0.0000
 1839UNL      S 8075   3.820   6.202   1.446  0.0000  0.0000  0.0000
 1839UNL      C 8076   3.807   6.457   1.383  0.0000  0.0000  0.0000
 1839UNL      O 8077   3.794   6.577   1.385  0.0000  0.0000  0.0000
 1839UNL      N 8078   3.842   6.386   1.268  0.0000  0.0000  0.0000
 1839UNL      C 8079   3.853   6.249   1.280  0.0000  0.0000  0.0000
 1839UNL      C 8080   3.855   6.455   1.140  0.0000  0.0000  0.0000
 1839UNL      C 8081   3.723   6.463   1.070  0.0000  0.0000  0.0000
 1839UNL      S 8082   3.890   6.144   1.164  0.0000  0.0000  0.0000
 1840UNL      C 8083   3.771   5.817   2.415  0.0000  0.0000  0.0000
 1840UNL      C 8084   3.897   5.729   2.427  0.0000  0.0000  0.0000
 1840UNL      C 8085   3.965   5.702   2.292  0.0000  0.0000  0.0000
 1840UNL      C 8086   4.032   5.824   2.227  0.0000  0.0000  0.0000
 1840UNL      C 8087   4.110   5.809   2.095  0.0000  0.0000  0.0000
 1840UNL      C 8088   4.012   5.791   1.978  0.0000  0.0000  0.0000
 1840UNL      C 8089   4.095   5.769   1.850  0.0000  0.0000  0.0000
 1840UNL      C 8090   3.294   5.856   2.226  0.0000  0.0000  0.0000
 1840UNL      C 8091   3.193   5.798   2.131  0.0000  0.0000  0.0000
 1840UNL      C 8092   3.243   5.805   1.985  0.0000  0.0000  0.0000
 1840UNL      C 8093   3.133   5.765   1.880  0.0000  0.0000  0.0000
 1840UNL      C 8094   3.194   5.776   1.738  0.0000  0.0000  0.0000
 1840UNL      C 8095   3.085   5.747   1.632  0.0000  0.0000  0.0000
 1840UNL      C 8096   3.135   5.779   1.485  0.0000  0.0000  0.0000
 1841UNL      C 8097   2.901   6.478   5.366  0.0000  0.0000  0.0000
 1841UNL      C 8098   2.916   6.372   5.263  0.0000  0.0000  0.0000
 1841UNL      N 8099   2.845   6.423   5.482  0.0000  0.0000  0.0000
 1841UNL      S 8100   2.860   6.220   5.324  0.0000  0.0000  0.0000
 1841UNL      C 8101   2.815   6.289   5.479  0.0000  0.0000  0.0000
 1841UNL      C 8102   2.823   6.509   5.599  0.0000  0.0000  0.0000
 1841UNL      S 8103   2.748   6.201   5.598  0.0000  0.0000  0.0000
 1841UNL      O 8104   2.934   6.593   5.356  0.0000  0.0000  0.0000
 1841UNL      C 8105   2.961   6.408   5.139  0.0000  0.0000  0.0000
 1842UNL      C 8106   2.988   6.327   5.023  0.0000  0.0000  0.0000
 1842UNL      C 8107   2.987   6.190   5.016  0.0000  0.0000  0.0000
 1842UNL      C 8108   3.022   6.395   4.902  0.0000  0.0000  0.0000
 1842UNL      C 8109   3.014   6.119   4.897  0.0000  0.0000  0.0000
 1842UNL      C 8110   3.046   6.180   4.776  0.0000  0.0000  0.0000
 1842UNL      C 8111   3.050   6.324   4.781  0.0000  0.0000  0.0000
 1842UNL      N 8112   3.031   6.529   4.888  0.0000  0.0000  0.0000
 1842UNL      N 8113   3.081   6.406   4.678  0.0000  0.0000  0.0000
 1842UNL      S 8114   3.074   6.557   4.734  0.0000  0.0000  0.0000
 1843UNL      C 8115   3.078   6.105   4.658  0.0000  0.0000  0.0000
 1843UNL      C 8116   3.083   5.968   4.645  0.0000  0.0000  0.0000
 1843UNL      C 8117   3.125   5.927   4.517  0.0000  0.0000  0.0000
 1843UNL      C 8118   3.150   6.033   4.434  0.0000  0.0000  0.0000
 1843UNL      S 8119   3.123   6.183   4.508  0.0000  0.0000  0.0000
 1844UNL      C 8120   3.201   5.987   4.306  0.0000  0.0000  0.0000
 1844UNL      C 8121   3.206   5.847   4.313  0.0000  0.0000  0.0000
 1845UNL      C 8122   3.155   5.794   4.449  0.0000  0.0000  0.0000
 1846UNL      C 8123   3.253   5.774   4.206  0.0000  0.0000  0.0000
 1847UNL      C 8124   3.027   5.709   4.428  0.0000  0.0000  0.0000
 1847UNL      C 8125   3.262   5.714   4.523  0.0000  0.0000  0.0000
 1847UNL      C 8126   3.388   5.787   4.557  0.0000  0.0000  0.0000
 1847UNL      C 8127   2.915   5.779   4.356  0.0000  0.0000  0.0000
 1847UNL      C 8128   3.493   5.698   4.618  0.0000  0.0000  0.0000
 1847UNL      C 8129   3.620   5.768   4.654  0.0000  0.0000  0.0000
 1847UNL      C 8130   3.734   5.688   4.710  0.0000  0.0000  0.0000
 1847UNL      C 8131   3.756   5.541   4.689  0.0000  0.0000  0.0000
 1847UNL      C 8132   3.864   5.437   4.686  0.0000  0.0000  0.0000
 1847UNL      C 8133   3.843   5.316   4.771  0.0000  0.0000  0.0000
 1847UNL      C 8134   2.789   5.699   4.332  0.0000  0.0000  0.0000
 1847UNL      C 8135   2.686   5.779   4.256  0.0000  0.0000  0.0000
 1847UNL      C 8136   2.552   5.714   4.235  0.0000  0.0000  0.0000
 1847UNL      C 8137   2.455   5.805   4.164  0.0000  0.0000  0.0000
 1847UNL      C 8138   2.324   5.735   4.140  0.0000  0.0000  0.0000
 1847UNL      C 8139   2.237   5.733   4.264  0.0000  0.0000  0.0000
 1848UNL      C 8140   3.240   6.056   4.193  0.0000  0.0000  0.0000
 1848UNL      C 8141   3.287   5.984   4.086  0.0000  0.0000  0.0000
 1849UNL      C 8142   2.948   6.514   5.686  0.0000  0.0000  0.0000
 1850UNL      C 8143   3.293   5.843   4.093  0.0000  0.0000  0.0000
 1851UNL      C 8144   3.347   5.798   3.964  0.0000  0.0000  0.0000
 1852UNL      C 8145   3.337   6.037   3.951  0.0000  0.0000  0.0000
 1853UNL      C 8146   3.373   5.907   3.883  0.0000  0.0000  0.0000
 1854UNL      C 8147   3.225   6.112   3.876  0.0000  0.0000  0.0000
 1854UNL      C 8148   3.460   6.130   3.969  0.0000  0.0000  0.0000
 1855UNL      S 8149   3.383   5.650   3.888  0.0000  0.0000  0.0000
 1855UNL      C 8150   3.433   5.733   3.742  0.0000  0.0000  0.0000
 1855UNL      C 8151   3.422   5.870   3.758  0.0000  0.0000  0.0000
 1856UNL      C 8152   3.473   5.664   3.622  0.0000  0.0000  0.0000
 1856UNL      C 8153   3.516   5.736   3.511  0.0000  0.0000  0.0000
 1856UNL      C 8154   3.545   5.674   3.386  0.0000  0.0000  0.0000
 1856UNL      C 8155   3.539   5.538   3.367  0.0000  0.0000  0.0000
 1856UNL      C 8156   3.470   5.522   3.607  0.0000  0.0000  0.0000
 1856UNL      C 8157   3.503   5.460   3.483  0.0000  0.0000  0.0000
 1857UNL      C 8158   3.565   5.469   3.219  0.0000  0.0000  0.0000
 1858UNL      N 8159   3.435   5.433   3.702  0.0000  0.0000  0.0000
 1858UNL      N 8160   3.490   5.325   3.486  0.0000  0.0000  0.0000
 1858UNL      S 8161   3.445   5.288   3.635  0.0000  0.0000  0.0000
 1859UNL      C 8162   3.598   5.519   3.098  0.0000  0.0000  0.0000
 1859UNL      S 8163   3.626   5.683   3.047  0.0000  0.0000  0.0000
 1859UNL      C 8164   3.613   5.429   2.984  0.0000  0.0000  0.0000
 1859UNL      O 8165   3.599   5.308   2.985  0.0000  0.0000  0.0000
 1859UNL      N 8166   3.648   5.499   2.869  0.0000  0.0000  0.0000
 1859UNL      C 8167   3.659   5.636   2.880  0.0000  0.0000  0.0000
 1859UNL      C 8168   3.660   5.431   2.740  0.0000  0.0000  0.0000
 1859UNL      C 8169   3.529   5.422   2.670  0.0000  0.0000  0.0000
 1859UNL      S 8170   3.695   5.742   2.765  0.0000  0.0000  0.0000
 1860UNL      C 8171   3.576   6.068   4.039  0.0000  0.0000  0.0000
 1860UNL      C 8172   3.702   6.156   4.051  0.0000  0.0000  0.0000
 1860UNL      C 8173   3.770   6.183   3.916  0.0000  0.0000  0.0000
 1860UNL      C 8174   3.837   6.061   3.851  0.0000  0.0000  0.0000
 1860UNL      C 8175   3.915   6.076   3.719  0.0000  0.0000  0.0000
 1860UNL      C 8176   3.817   6.095   3.602  0.0000  0.0000  0.0000
 1860UNL      C 8177   3.900   6.116   3.474  0.0000  0.0000  0.0000
 1860UNL      C 8178   3.099   6.029   3.849  0.0000  0.0000  0.0000
 1860UNL      C 8179   2.998   6.087   3.755  0.0000  0.0000  0.0000
 1860UNL      C 8180   3.048   6.080   3.609  0.0000  0.0000  0.0000
 1860UNL      C 8181   2.939   6.120   3.504  0.0000  0.0000  0.0000
 1860UNL      C 8182   2.999   6.109   3.362  0.0000  0.0000  0.0000
 1860UNL      C 8183   2.890   6.138   3.256  0.0000  0.0000  0.0000
 1860UNL      C 8184   2.940   6.106   3.109  0.0000  0.0000  0.0000
 1861UNL      C 8185   3.006   5.685   2.731  0.0000  0.0000  0.0000
 1861UNL      C 8186   2.992   5.580   2.834  0.0000  0.0000  0.0000
 1861UNL      N 8187   3.062   5.630   2.615  0.0000  0.0000  0.0000
 1861UNL      S 8188   3.047   5.428   2.773  0.0000  0.0000  0.0000
 1861UNL      C 8189   3.092   5.496   2.618  0.0000  0.0000  0.0000
 1861UNL      C 8190   3.085   5.717   2.498  0.0000  0.0000  0.0000
 1861UNL      S 8191   3.159   5.408   2.499  0.0000  0.0000  0.0000
 1861UNL      O 8192   2.974   5.800   2.741  0.0000  0.0000  0.0000
 1861UNL      C 8193   2.946   5.615   2.958  0.0000  0.0000  0.0000
 1862UNL      C 8194   2.919   5.534   3.074  0.0000  0.0000  0.0000
 1862UNL      C 8195   2.921   5.397   3.081  0.0000  0.0000  0.0000
 1862UNL      C 8196   2.886   5.602   3.194  0.0000  0.0000  0.0000
 1862UNL      C 8197   2.893   5.327   3.200  0.0000  0.0000  0.0000
 1862UNL      C 8198   2.861   5.388   3.344  0.0000  0.0000  0.0000
 1862UNL      C 8199   2.858   5.532   3.339  0.0000  0.0000  0.0000
 1862UNL      N 8200   2.876   5.737   3.209  0.0000  0.0000  0.0000
 1862UNL      N 8201   2.826   5.613   3.442  0.0000  0.0000  0.0000
 1862UNL      S 8202   2.833   5.765   3.386  0.0000  0.0000  0.0000
 1863UNL      C 8203   2.830   5.312   3.462  0.0000  0.0000  0.0000
 1863UNL      C 8204   2.824   5.175   3.475  0.0000  0.0000  0.0000
 1863UNL      C 8205   2.782   5.134   3.603  0.0000  0.0000  0.0000
 1863UNL      C 8206   2.757   5.240   3.686  0.0000  0.0000  0.0000
 1863UNL      S 8207   2.784   5.391   3.612  0.0000  0.0000  0.0000
 1864UNL      C 8208   2.707   5.195   3.815  0.0000  0.0000  0.0000
 1864UNL      C 8209   2.701   5.054   3.807  0.0000  0.0000  0.0000
 1865UNL      C 8210   2.753   5.002   3.671  0.0000  0.0000  0.0000
 1866UNL      C 8211   2.654   4.981   3.914  0.0000  0.0000  0.0000
 1867UNL      C 8212   2.880   4.917   3.692  0.0000  0.0000  0.0000
 1867UNL      C 8213   2.645   4.922   3.597  0.0000  0.0000  0.0000
 1867UNL      C 8214   2.519   4.995   3.563  0.0000  0.0000  0.0000
 1867UNL      C 8215   2.993   4.987   3.764  0.0000  0.0000  0.0000
 1867UNL      C 8216   2.415   4.906   3.503  0.0000  0.0000  0.0000
 1867UNL      C 8217   2.287   4.975   3.466  0.0000  0.0000  0.0000
 1867UNL      C 8218   2.173   4.895   3.410  0.0000  0.0000  0.0000
 1867UNL      C 8219   2.151   4.749   3.432  0.0000  0.0000  0.0000
 1867UNL      C 8220   2.043   4.645   3.434  0.0000  0.0000  0.0000
 1867UNL      C 8221   2.064   4.523   3.349  0.0000  0.0000  0.0000
 1867UNL      C 8222   3.119   4.907   3.788  0.0000  0.0000  0.0000
 1867UNL      C 8223   3.221   4.986   3.865  0.0000  0.0000  0.0000
 1867UNL      C 8224   3.356   4.921   3.885  0.0000  0.0000  0.0000
 1867UNL      C 8225   3.452   5.012   3.956  0.0000  0.0000  0.0000
 1867UNL      C 8226   3.584   4.943   3.980  0.0000  0.0000  0.0000
 1867UNL      C 8227   3.670   4.941   3.856  0.0000  0.0000  0.0000
 1868UNL      C 8228   2.668   5.264   3.927  0.0000  0.0000  0.0000
 1868UNL      C 8229   2.620   5.192   4.034  0.0000  0.0000  0.0000
 1869UNL      C 8230   2.959   5.721   2.411  0.0000  0.0000  0.0000
 1870UNL      C 8231   2.614   5.050   4.028  0.0000  0.0000  0.0000
 1871UNL      C 8232   2.560   5.006   4.156  0.0000  0.0000  0.0000
 1872UNL      C 8233   2.570   5.245   4.169  0.0000  0.0000  0.0000
 1873UNL      C 8234   2.534   5.114   4.237  0.0000  0.0000  0.0000
 1874UNL      C 8235   2.682   5.320   4.244  0.0000  0.0000  0.0000
 1874UNL      C 8236   2.447   5.338   4.151  0.0000  0.0000  0.0000
 1875UNL      S 8237   2.525   4.858   4.232  0.0000  0.0000  0.0000
 1875UNL      C 8238   2.475   4.941   4.378  0.0000  0.0000  0.0000
 1875UNL      C 8239   2.486   5.078   4.363  0.0000  0.0000  0.0000
 1876UNL      C 8240   2.434   4.872   4.498  0.0000  0.0000  0.0000
 1876UNL      C 8241   2.392   4.944   4.609  0.0000  0.0000  0.0000
 1876UNL      C 8242   2.362   4.882   4.735  0.0000  0.0000  0.0000
 1876UNL      C 8243   2.368   4.745   4.753  0.0000  0.0000  0.0000
 1876UNL      C 8244   2.437   4.730   4.513  0.0000  0.0000  0.0000
 1876UNL      C 8245   2.404   4.668   4.638  0.0000  0.0000  0.0000
 1877UNL      C 8246   2.342   4.676   4.877  0.0000  0.0000  0.0000
 1878UNL      N 8247   2.472   4.641   4.418  0.0000  0.0000  0.0000
 1878UNL      N 8248   2.417   4.533   4.634  0.0000  0.0000  0.0000
 1878UNL      S 8249   2.463   4.496   4.485  0.0000  0.0000  0.0000
 1879UNL      C 8250   2.309   4.727   4.999  0.0000  0.0000  0.0000
 1879UNL      S 8251   2.282   4.891   5.050  0.0000  0.0000  0.0000
 1879UNL      C 8252   2.295   4.636   5.113  0.0000  0.0000  0.0000
 1879UNL      O 8253   2.308   4.516   5.112  0.0000  0.0000  0.0000
 1879UNL      N 8254   2.260   4.707   5.228  0.0000  0.0000  0.0000
 1879UNL      C 8255   2.249   4.844   5.217  0.0000  0.0000  0.0000
 1879UNL      C 8256   2.248   4.638   5.357  0.0000  0.0000  0.0000
 1879UNL      C 8257   2.379   4.629   5.427  0.0000  0.0000  0.0000
 1879UNL      S 8258   2.212   4.949   5.332  0.0000  0.0000  0.0000
 1880UNL      C 8259   2.331   5.275   4.081  0.0000  0.0000  0.0000
 1880UNL      C 8260   2.205   5.364   4.070  0.0000  0.0000  0.0000
 1880UNL      C 8261   2.137   5.391   4.205  0.0000  0.0000  0.0000
 1880UNL      C 8262   2.070   5.268   4.269  0.0000  0.0000  0.0000
 1880UNL      C 8263   1.993   5.284   4.401  0.0000  0.0000  0.0000
 1880UNL      C 8264   2.090   5.302   4.518  0.0000  0.0000  0.0000
 1880UNL      C 8265   2.008   5.324   4.646  0.0000  0.0000  0.0000
 1880UNL      C 8266   2.808   5.236   4.271  0.0000  0.0000  0.0000
 1880UNL      C 8267   2.909   5.295   4.365  0.0000  0.0000  0.0000
 1880UNL      C 8268   2.859   5.288   4.512  0.0000  0.0000  0.0000
 1880UNL      C 8269   2.969   5.327   4.616  0.0000  0.0000  0.0000
 1880UNL      C 8270   2.908   5.317   4.758  0.0000  0.0000  0.0000
 1880UNL      C 8271   3.017   5.345   4.864  0.0000  0.0000  0.0000
 1880UNL      C 8272   2.967   5.313   5.011  0.0000  0.0000  0.0000
 1881UNL      C 8273   2.811   4.615   4.379  0.0000  0.0000  0.0000
 1881UNL      C 8274   2.796   4.720   4.482  0.0000  0.0000  0.0000
 1881UNL      N 8275   2.867   4.670   4.262  0.0000  0.0000  0.0000
 1881UNL      S 8276   2.852   4.873   4.420  0.0000  0.0000  0.0000
 1881UNL      C 8277   2.897   4.804   4.265  0.0000  0.0000  0.0000
 1881UNL      C 8278   2.889   4.584   4.146  0.0000  0.0000  0.0000
 1881UNL      S 8279   2.964   4.892   4.147  0.0000  0.0000  0.0000
 1881UNL      O 8280   2.778   4.500   4.388  0.0000  0.0000  0.0000
 1881UNL      C 8281   2.751   4.685   4.605  0.0000  0.0000  0.0000
 1882UNL      C 8282   2.724   4.766   4.722  0.0000  0.0000  0.0000
 1882UNL      C 8283   2.725   4.903   4.729  0.0000  0.0000  0.0000
 1882UNL      C 8284   2.691   4.698   4.842  0.0000  0.0000  0.0000
 1882UNL      C 8285   2.698   4.974   4.847  0.0000  0.0000  0.0000
 1882UNL      C 8286   2.666   4.912   4.968  0.0000  0.0000  0.0000
 1882UNL      C 8287   2.662   4.769   4.963  0.0000  0.0000  0.0000
 1882UNL      N 8288   2.681   4.563   4.856  0.0000  0.0000  0.0000
 1882UNL      N 8289   2.631   4.687   5.067  0.0000  0.0000  0.0000
 1882UNL      S 8290   2.638   4.536   5.010  0.0000  0.0000  0.0000
 1883UNL      C 8291   2.635   4.988   5.087  0.0000  0.0000  0.0000
 1883UNL      C 8292   2.629   5.125   5.100  0.0000  0.0000  0.0000
 1883UNL      C 8293   2.587   5.166   5.227  0.0000  0.0000  0.0000
 1883UNL      C 8294   2.562   5.060   5.310  0.0000  0.0000  0.0000
 1883UNL      S 8295   2.589   4.909   5.237  0.0000  0.0000  0.0000
 1884UNL      C 8296   2.511   5.105   5.439  0.0000  0.0000  0.0000
 1884UNL      C 8297   2.506   5.246   5.432  0.0000  0.0000  0.0000
 1885UNL      C 8298   2.558   5.299   5.295  0.0000  0.0000  0.0000
 1886UNL      C 8299   2.459   5.319   5.538  0.0000  0.0000  0.0000
 1887UNL      C 8300   2.685   5.384   5.317  0.0000  0.0000  0.0000
 1887UNL      C 8301   2.450   5.378   5.221  0.0000  0.0000  0.0000
 1887UNL      C 8302   2.324   5.306   5.187  0.0000  0.0000  0.0000
 1887UNL      C 8303   2.798   5.314   5.389  0.0000  0.0000  0.0000
 1887UNL      C 8304   2.220   5.395   5.127  0.0000  0.0000  0.0000
 1887UNL      C 8305   2.092   5.325   5.090  0.0000  0.0000  0.0000
 1887UNL      C 8306   1.978   5.405   5.034  0.0000  0.0000  0.0000
 1887UNL      C 8307   1.956   5.552   5.056  0.0000  0.0000  0.0000
 1887UNL      C 8308   1.848   5.655   5.058  0.0000  0.0000  0.0000
 1887UNL      C 8309   1.869   5.777   4.973  0.0000  0.0000  0.0000
 1887UNL      C 8310   2.924   5.394   5.412  0.0000  0.0000  0.0000
 1887UNL      C 8311   3.026   5.314   5.489  0.0000  0.0000  0.0000
 1887UNL      C 8312   3.161   5.379   5.509  0.0000  0.0000  0.0000
 1887UNL      C 8313   3.257   5.288   5.580  0.0000  0.0000  0.0000
 1887UNL      C 8314   3.389   5.358   5.604  0.0000  0.0000  0.0000
 1887UNL      C 8315   3.475   5.359   5.481  0.0000  0.0000  0.0000
 1888UNL      C 8316   2.472   5.036   5.551  0.0000  0.0000  0.0000
 1888UNL      C 8317   2.425   5.108   5.658  0.0000  0.0000  0.0000
 1889UNL      C 8318   2.764   4.579   4.059  0.0000  0.0000  0.0000
 1890UNL      C 8319   2.419   5.250   5.652  0.0000  0.0000  0.0000
 1891UNL      C 8320   2.365   5.294   5.780  0.0000  0.0000  0.0000
 1892UNL      C 8321   2.375   5.056   5.793  0.0000  0.0000  0.0000
 1893UNL      C 8322   2.339   5.186   5.861  0.0000  0.0000  0.0000
 1894UNL      C 8323   2.487   4.981   5.869  0.0000  0.0000  0.0000
 1894UNL      C 8324   2.252   4.963   5.776  0.0000  0.0000  0.0000
 1895UNL      S 8325   2.329   5.443   5.857  0.0000  0.0000  0.0000
 1895UNL      C 8326   2.280   5.360   6.002  0.0000  0.0000  0.0000
 1895UNL      C 8327   2.291   5.223   5.987  0.0000  0.0000  0.0000
 1896UNL      C 8328   2.239   5.428   6.122  0.0000  0.0000  0.0000
 1896UNL      C 8329   2.197   5.357   6.233  0.0000  0.0000  0.0000
 1896UNL      C 8330   2.167   5.418   6.359  0.0000  0.0000  0.0000
 1896UNL      C 8331   2.173   5.555   6.377  0.0000  0.0000  0.0000
 1896UNL      C 8332   2.242   5.571   6.137  0.0000  0.0000  0.0000
 1896UNL      C 8333   2.209   5.632   6.262  0.0000  0.0000  0.0000
 1897UNL      C 8334   2.147   5.624   6.525  0.0000  0.0000  0.0000
 1898UNL      N 8335   2.277   5.659   6.042  0.0000  0.0000  0.0000
 1898UNL      N 8336   2.222   5.768   6.258  0.0000  0.0000  0.0000
 1898UNL      S 8337   2.268   5.805   6.110  0.0000  0.0000  0.0000
 1899UNL      C 8338   2.114   5.574   6.646  0.0000  0.0000  0.0000
 1899UNL      S 8339   2.087   5.409   6.698  0.0000  0.0000  0.0000
 1899UNL      C 8340   2.099   5.664   6.761  0.0000  0.0000  0.0000
 1899UNL      O 8341   2.113   5.785   6.759  0.0000  0.0000  0.0000
 1899UNL      N 8342   2.065   5.594   6.876  0.0000  0.0000  0.0000
 1899UNL      C 8343   2.054   5.457   6.864  0.0000  0.0000  0.0000
 1899UNL      C 8344   2.052   5.662   7.005  0.0000  0.0000  0.0000
 1899UNL      C 8345   2.184   5.671   7.074  0.0000  0.0000  0.0000
 1899UNL      S 8346   2.017   5.351   6.980  0.0000  0.0000  0.0000
 1900UNL      C 8347   2.136   5.025   5.705  0.0000  0.0000  0.0000
 1900UNL      C 8348   2.010   4.937   5.694  0.0000  0.0000  0.0000
 1900UNL      C 8349   1.942   4.909   5.829  0.0000  0.0000  0.0000
 1900UNL      C 8350   1.875   5.032   5.893  0.0000  0.0000  0.0000
 1900UNL      C 8351   1.797   5.017   6.025  0.0000  0.0000  0.0000
 1900UNL      C 8352   1.895   4.998   6.143  0.0000  0.0000  0.0000
 1900UNL      C 8353   1.813   4.977   6.270  0.0000  0.0000  0.0000
 1900UNL      C 8354   2.613   5.064   5.895  0.0000  0.0000  0.0000
 1900UNL      C 8355   2.714   5.006   5.990  0.0000  0.0000  0.0000
 1900UNL      C 8356   2.664   5.013   6.136  0.0000  0.0000  0.0000
 1900UNL      C 8357   2.774   4.973   6.241  0.0000  0.0000  0.0000
 1900UNL      C 8358   2.713   4.983   6.383  0.0000  0.0000  0.0000
 1900UNL      C 8359   2.822   4.955   6.488  0.0000  0.0000  0.0000
 1900UNL      C 8360   2.772   4.987   6.635  0.0000  0.0000  0.0000
 1901UNL      C 8361   2.706   5.408   7.013  0.0000  0.0000  0.0000
 1901UNL      C 8362   2.720   5.513   6.910  0.0000  0.0000  0.0000
 1901UNL      N 8363   2.650   5.463   7.130  0.0000  0.0000  0.0000
 1901UNL      S 8364   2.665   5.665   6.972  0.0000  0.0000  0.0000
 1901UNL      C 8365   2.620   5.597   7.127  0.0000  0.0000  0.0000
 1901UNL      C 8366   2.628   5.376   7.246  0.0000  0.0000  0.0000
 1901UNL      S 8367   2.553   5.685   7.245  0.0000  0.0000  0.0000
 1901UNL      O 8368   2.738   5.292   7.004  0.0000  0.0000  0.0000
 1901UNL      C 8369   2.766   5.478   6.787  0.0000  0.0000  0.0000
 1902UNL      C 8370   2.793   5.559   6.670  0.0000  0.0000  0.0000
 1902UNL      C 8371   2.792   5.696   6.663  0.0000  0.0000  0.0000
 1902UNL      C 8372   2.826   5.491   6.550  0.0000  0.0000  0.0000
 1902UNL      C 8373   2.819   5.766   6.545  0.0000  0.0000  0.0000
 1902UNL      C 8374   2.851   5.705   6.401  0.0000  0.0000  0.0000
 1902UNL      C 8375   2.855   5.561   6.406  0.0000  0.0000  0.0000
 1902UNL      N 8376   2.836   5.356   6.536  0.0000  0.0000  0.0000
 1902UNL      N 8377   2.886   5.479   6.302  0.0000  0.0000  0.0000
 1902UNL      S 8378   2.879   5.328   6.359  0.0000  0.0000  0.0000
 1903UNL      C 8379   2.883   5.780   6.282  0.0000  0.0000  0.0000
 1903UNL      C 8380   2.888   5.918   6.269  0.0000  0.0000  0.0000
 1903UNL      C 8381   2.930   5.958   6.141  0.0000  0.0000  0.0000
 1903UNL      C 8382   2.955   5.853   6.058  0.0000  0.0000  0.0000
 1903UNL      S 8383   2.928   5.702   6.132  0.0000  0.0000  0.0000
 1904UNL      C 8384   3.006   5.898   5.930  0.0000  0.0000  0.0000
 1904UNL      C 8385   3.011   6.039   5.937  0.0000  0.0000  0.0000
 1905UNL      C 8386   2.959   6.091   6.073  0.0000  0.0000  0.0000
 1906UNL      C 8387   3.058   6.112   5.831  0.0000  0.0000  0.0000
 1907UNL      C 8388   2.832   6.176   6.052  0.0000  0.0000  0.0000
 1907UNL      C 8389   3.067   6.171   6.147  0.0000  0.0000  0.0000
 1907UNL      C 8390   3.193   6.098   6.181  0.0000  0.0000  0.0000
 1907UNL      C 8391   2.719   6.106   5.980  0.0000  0.0000  0.0000
 1907UNL      C 8392   3.297   6.187   6.242  0.0000  0.0000  0.0000
 1907UNL      C 8393   3.425   6.118   6.278  0.0000  0.0000  0.0000
 1907UNL      C 8394   3.539   6.197   6.335  0.0000  0.0000  0.0000
 1907UNL      C 8395   3.561   6.344   6.313  0.0000  0.0000  0.0000
 1907UNL      C 8396   3.669   6.448   6.311  0.0000  0.0000  0.0000
 1907UNL      C 8397   3.648   6.569   6.395  0.0000  0.0000  0.0000
 1907UNL      C 8398   2.594   6.186   5.956  0.0000  0.0000  0.0000
 1907UNL      C 8399   2.491   6.107   5.880  0.0000  0.0000  0.0000
 1907UNL      C 8400   2.356   6.172   5.859  0.0000  0.0000  0.0000
 1907UNL      C 8401   2.260   6.081   5.788  0.0000  0.0000  0.0000
 1907UNL      C 8402   2.128   6.150   5.764  0.0000  0.0000  0.0000
 1907UNL      C 8403   2.042   6.152   5.888  0.0000  0.0000  0.0000
 1908UNL      C 8404   3.045   5.829   5.817  0.0000  0.0000  0.0000
 1908UNL      C 8405   3.092   5.901   5.711  0.0000  0.0000  0.0000
 1909UNL      C 8406   2.753   5.371   7.333  0.0000  0.0000  0.0000
 1910UNL      C 8407   3.098   6.043   5.717  0.0000  0.0000  0.0000
 1911UNL      C 8408   3.152   6.087   5.588  0.0000  0.0000  0.0000
 1912UNL      C 8409   3.142   5.848   5.576  0.0000  0.0000  0.0000
 1913UNL      C 8410   3.178   5.979   5.508  0.0000  0.0000  0.0000
 1914UNL      C 8411   3.030   5.773   5.500  0.0000  0.0000  0.0000
 1914UNL      C 8412   3.265   5.755   5.593  0.0000  0.0000  0.0000
 1915UNL      S 8413   3.188   6.235   5.512  0.0000  0.0000  0.0000
 1915UNL      C 8414   3.238   6.152   5.366  0.0000  0.0000  0.0000
 1915UNL      C 8415   3.227   6.015   5.382  0.0000  0.0000  0.0000
 1916UNL      C 8416   3.278   6.221   5.246  0.0000  0.0000  0.0000
 1916UNL      C 8417   3.320   6.149   5.135  0.0000  0.0000  0.0000
 1916UNL      C 8418   3.350   6.211   5.010  0.0000  0.0000  0.0000
 1916UNL      C 8419   3.344   6.347   4.991  0.0000  0.0000  0.0000
 1916UNL      C 8420   3.275   6.363   5.231  0.0000  0.0000  0.0000
 1916UNL      C 8421   3.308   6.425   5.107  0.0000  0.0000  0.0000
 1917UNL      C 8422   3.370   6.416   4.867  0.0000  0.0000  0.0000
 1918UNL      N 8423   3.240   6.452   5.327  0.0000  0.0000  0.0000
 1918UNL      N 8424   3.295   6.560   5.110  0.0000  0.0000  0.0000
 1918UNL      S 8425   3.250   6.597   5.259  0.0000  0.0000  0.0000
 1919UNL      C 8426   3.403   6.366   4.746  0.0000  0.0000  0.0000
 1919UNL      S 8427   3.430   6.202   4.694  0.0000  0.0000  0.0000
 1919UNL      C 8428   3.417   6.457   4.631  0.0000  0.0000  0.0000
 1919UNL      O 8429   3.404   6.577   4.633  0.0000  0.0000  0.0000
 1919UNL      N 8430   3.452   6.386   4.516  0.0000  0.0000  0.0000
 1919UNL      C 8431   3.463   6.249   4.528  0.0000  0.0000  0.0000
 1919UNL      C 8432   3.465   6.455   4.388  0.0000  0.0000  0.0000
 1919UNL      C 8433   3.333   6.463   4.318  0.0000  0.0000  0.0000
 1919UNL      S 8434   3.500   6.144   4.412  0.0000  0.0000  0.0000
 1920UNL      C 8435   3.381   5.817   5.663  0.0000  0.0000  0.0000
 1920UNL      C 8436   3.507   5.729   5.675  0.0000  0.0000  0.0000
 1920UNL      C 8437   3.575   5.702   5.540  0.0000  0.0000  0.0000
 1920UNL      C 8438   3.642   5.824   5.475  0.0000  0.0000  0.0000
 1920UNL      C 8439   3.720   5.809   5.343  0.0000  0.0000  0.0000
 1920UNL      C 8440   3.622   5.791   5.226  0.0000  0.0000  0.0000
 1920UNL      C 8441   3.705   5.769   5.098  0.0000  0.0000  0.0000
 1920UNL      C 8442   2.904   5.856   5.474  0.0000  0.0000  0.0000
 1920UNL      C 8443   2.803   5.798   5.379  0.0000  0.0000  0.0000
 1920UNL      C 8444   2.853   5.805   5.233  0.0000  0.0000  0.0000
 1920UNL      C 8445   2.743   5.765   5.128  0.0000  0.0000  0.0000
 1920UNL      C 8446   2.804   5.776   4.986  0.0000  0.0000  0.0000
 1920UNL      C 8447   2.695   5.747   4.880  0.0000  0.0000  0.0000
 1920UNL      C 8448   2.745   5.779   4.733  0.0000  0.0000  0.0000
 1921UNL      C 8449   4.667   1.724   2.118  0.0000  0.0000  0.0000
 1921UNL      C 8450   4.682   1.618   2.015  0.0000  0.0000  0.0000
 1921UNL      N 8451   4.611   1.669   2.234  0.0000  0.0000  0.0000
 1921UNL      S 8452   4.626   1.466   2.076  0.0000  0.0000  0.0000
 1921UNL      C 8453   4.581   1.535   2.231  0.0000  0.0000  0.0000
 1921UNL      C 8454   4.589   1.755   2.351  0.0000  0.0000  0.0000
 1921UNL      S 8455   4.514   1.447   2.350  0.0000  0.0000  0.0000
 1921UNL      O 8456   4.700   1.839   2.108  0.0000  0.0000  0.0000
 1921UNL      C 8457   4.727   1.654   1.891  0.0000  0.0000  0.0000
 1922UNL      C 8458   4.754   1.573   1.775  0.0000  0.0000  0.0000
 1922UNL      C 8459   4.753   1.436   1.768  0.0000  0.0000  0.0000
 1922UNL      C 8460   4.788   1.641   1.654  0.0000  0.0000  0.0000
 1922UNL      C 8461   4.780   1.365   1.649  0.0000  0.0000  0.0000
 1922UNL      C 8462   4.812   1.426   1.528  0.0000  0.0000  0.0000
 1922UNL      C 8463   4.816   1.570   1.533  0.0000  0.0000  0.0000
 1922UNL      N 8464   4.797   1.775   1.640  0.0000  0.0000  0.0000
 1922UNL      N 8465   4.847   1.652   1.430  0.0000  0.0000  0.0000
 1922UNL      S 8466   4.840   1.803   1.486  0.0000  0.0000  0.0000
 1923UNL      C 8467   4.844   1.351   1.410  0.0000  0.0000  0.0000
 1923UNL      C 8468   4.849   1.214   1.397  0.0000  0.0000  0.0000
 1923UNL      C 8469   4.891   1.173   1.269  0.0000  0.0000  0.0000
 1923UNL      C 8470   4.916   1.279   1.186  0.0000  0.0000  0.0000
 1923UNL      S 8471   4.889   1.429   1.260  0.0000  0.0000  0.0000
 1924UNL      C 8472   4.967   1.233   1.058  0.0000  0.0000  0.0000
 1924UNL      C 8473   4.972   1.093   1.065  0.0000  0.0000  0.0000
 1925UNL      C 8474   4.921   1.040   1.201  0.0000  0.0000  0.0000
 1926UNL      C 8475   5.019   1.020   0.958  0.0000  0.0000  0.0000
 1927UNL      C 8476   4.793   0.955   1.180  0.0000  0.0000  0.0000
 1927UNL      C 8477   5.028   0.960   1.275  0.0000  0.0000  0.0000
 1927UNL      C 8478   5.154   1.033   1.309  0.0000  0.0000  0.0000
 1927UNL      C 8479   4.681   1.025   1.108  0.0000  0.0000  0.0000
 1927UNL      C 8480   5.259   0.944   1.370  0.0000  0.0000  0.0000
 1927UNL      C 8481   5.386   1.014   1.406  0.0000  0.0000  0.0000
 1927UNL      C 8482   5.500   0.934   1.462  0.0000  0.0000  0.0000
 1927UNL      C 8483   5.522   0.787   1.441  0.0000  0.0000  0.0000
 1927UNL      C 8484   5.630   0.683   1.438  0.0000  0.0000  0.0000
 1927UNL      C 8485   5.609   0.562   1.523  0.0000  0.0000  0.0000
 1927UNL      C 8486   4.555   0.945   1.084  0.0000  0.0000  0.0000
 1927UNL      C 8487   4.452   1.025   1.008  0.0000  0.0000  0.0000
 1927UNL      C 8488   4.318   0.960   0.987  0.0000  0.0000  0.0000
 1927UNL      C 8489   4.221   1.051   0.916  0.0000  0.0000  0.0000
 1927UNL      C 8490   4.090   0.981   0.892  0.0000  0.0000  0.0000
 1927UNL      C 8491   4.003   0.979   1.016  0.0000  0.0000  0.0000
 1928UNL      C 8492   5.006   1.302   0.945  0.0000  0.0000  0.0000
 1928UNL      C 8493   5.053   1.230   0.838  0.0000  0.0000  0.0000
 1929UNL      C 8494   4.714   1.760   2.438  0.0000  0.0000  0.0000
 1930UNL      C 8495   5.059   1.089   0.845  0.0000  0.0000  0.0000
 1931UNL      C 8496   5.113   1.044   0.716  0.0000  0.0000  0.0000
 1932UNL      C 8497   5.103   1.283   0.703  0.0000  0.0000  0.0000
 1933UNL      C 8498   5.139   1.153   0.635  0.0000  0.0000  0.0000
 1934UNL      C 8499   4.991   1.358   0.628  0.0000  0.0000  0.0000
 1934UNL      C 8500   5.226   1.376   0.721  0.0000  0.0000  0.0000
 1935UNL      S 8501   5.149   0.896   0.640  0.0000  0.0000  0.0000
 1935UNL      C 8502   5.199   0.979   0.494  0.0000  0.0000  0.0000
 1935UNL      C 8503   5.188   1.116   0.510  0.0000  0.0000  0.0000
 1936UNL      C 8504   5.239   0.910   0.374  0.0000  0.0000  0.0000
 1936UNL      C 8505   5.282   0.982   0.263  0.0000  0.0000  0.0000
 1936UNL      C 8506   5.311   0.920   0.138  0.0000  0.0000  0.0000
 1936UNL      C 8507   5.305   0.784   0.119  0.0000  0.0000  0.0000
 1936UNL      C 8508   5.236   0.768   0.359  0.0000  0.0000  0.0000
 1936UNL      C 8509   5.269   0.706   0.235  0.0000  0.0000  0.0000
 1937UNL      C 8510   5.331   0.715  -0.029  0.0000  0.0000  0.0000
 1938UNL      N 8511   5.201   0.679   0.454  0.0000  0.0000  0.0000
 1938UNL      N 8512   5.256   0.571   0.238  0.0000  0.0000  0.0000
 1938UNL      S 8513   5.211   0.534   0.387  0.0000  0.0000  0.0000
 1939UNL      C 8514   5.364   0.765  -0.150  0.0000  0.0000  0.0000
 1939UNL      S 8515   5.392   0.929  -0.201  0.0000  0.0000  0.0000
 1939UNL      C 8516   5.379   0.675  -0.264  0.0000  0.0000  0.0000
 1939UNL      O 8517   5.365   0.554  -0.263  0.0000  0.0000  0.0000
 1939UNL      N 8518   5.414   0.745  -0.379  0.0000  0.0000  0.0000
 1939UNL      C 8519   5.425   0.882  -0.368  0.0000  0.0000  0.0000
 1939UNL      C 8520   5.426   0.677  -0.508  0.0000  0.0000  0.0000
 1939UNL      C 8521   5.295   0.668  -0.578  0.0000  0.0000  0.0000
 1939UNL      S 8522   5.461   0.988  -0.483  0.0000  0.0000  0.0000
 1940UNL      C 8523   5.342   1.314   0.791  0.0000  0.0000  0.0000
 1940UNL      C 8524   5.468   1.402   0.803  0.0000  0.0000  0.0000
 1940UNL      C 8525   5.536   1.429   0.668  0.0000  0.0000  0.0000
 1940UNL      C 8526   5.603   1.307   0.603  0.0000  0.0000  0.0000
 1940UNL      C 8527   5.681   1.322   0.471  0.0000  0.0000  0.0000
 1940UNL      C 8528   5.583   1.341   0.354  0.0000  0.0000  0.0000
 1940UNL      C 8529   5.666   1.362   0.226  0.0000  0.0000  0.0000
 1940UNL      C 8530   4.865   1.275   0.601  0.0000  0.0000  0.0000
 1940UNL      C 8531   4.764   1.333   0.507  0.0000  0.0000  0.0000
 1940UNL      C 8532   4.814   1.326   0.361  0.0000  0.0000  0.0000
 1940UNL      C 8533   4.705   1.366   0.256  0.0000  0.0000  0.0000
 1940UNL      C 8534   4.765   1.355   0.114  0.0000  0.0000  0.0000
 1940UNL      C 8535   4.656   1.384   0.008  0.0000  0.0000  0.0000
 1940UNL      C 8536   4.706   1.352  -0.139  0.0000  0.0000  0.0000
 1941UNL      C 8537   4.772   0.931  -0.517  0.0000  0.0000  0.0000
 1941UNL      C 8538   4.758   0.826  -0.414  0.0000  0.0000  0.0000
 1941UNL      N 8539   4.828   0.876  -0.633  0.0000  0.0000  0.0000
 1941UNL      S 8540   4.813   0.674  -0.475  0.0000  0.0000  0.0000
 1941UNL      C 8541   4.858   0.742  -0.630  0.0000  0.0000  0.0000
 1941UNL      C 8542   4.851   0.963  -0.750  0.0000  0.0000  0.0000
 1941UNL      S 8543   4.925   0.654  -0.749  0.0000  0.0000  0.0000
 1941UNL      O 8544   4.740   1.046  -0.507  0.0000  0.0000  0.0000
 1941UNL      C 8545   4.712   0.861  -0.290  0.0000  0.0000  0.0000
 1942UNL      C 8546   4.685   0.780  -0.174  0.0000  0.0000  0.0000
 1942UNL      C 8547   4.687   0.643  -0.167  0.0000  0.0000  0.0000
 1942UNL      C 8548   4.652   0.848  -0.054  0.0000  0.0000  0.0000
 1942UNL      C 8549   4.659   0.573  -0.048  0.0000  0.0000  0.0000
 1942UNL      C 8550   4.627   0.634   0.096  0.0000  0.0000  0.0000
 1942UNL      C 8551   4.624   0.778   0.091  0.0000  0.0000  0.0000
 1942UNL      N 8552   4.642   0.983  -0.039  0.0000  0.0000  0.0000
 1942UNL      N 8553   4.592   0.859   0.194  0.0000  0.0000  0.0000
 1942UNL      S 8554   4.599   1.011   0.138  0.0000  0.0000  0.0000
 1943UNL      C 8555   4.596   0.558   0.214  0.0000  0.0000  0.0000
 1943UNL      C 8556   4.590   0.421   0.227  0.0000  0.0000  0.0000
 1943UNL      C 8557   4.548   0.380   0.355  0.0000  0.0000  0.0000
 1943UNL      C 8558   4.523   0.486   0.438  0.0000  0.0000  0.0000
 1943UNL      S 8559   4.550   0.637   0.364  0.0000  0.0000  0.0000
 1944UNL      C 8560   4.473   0.441   0.567  0.0000  0.0000  0.0000
 1944UNL      C 8561   4.467   0.300   0.559  0.0000  0.0000  0.0000
 1945UNL      C 8562   4.519   0.248   0.423  0.0000  0.0000  0.0000
 1946UNL      C 8563   4.420   0.227   0.666  0.0000  0.0000  0.0000
 1947UNL      C 8564   4.646   0.163   0.444  0.0000  0.0000  0.0000
 1947UNL      C 8565   4.411   0.168   0.349  0.0000  0.0000  0.0000
 1947UNL      C 8566   4.285   0.241   0.315  0.0000  0.0000  0.0000
 1947UNL      C 8567   4.759   0.233   0.516  0.0000  0.0000  0.0000
 1947UNL      C 8568   4.181   0.152   0.255  0.0000  0.0000  0.0000
 1947UNL      C 8569   4.053   0.221   0.218  0.0000  0.0000  0.0000
 1947UNL      C 8570   3.939   0.141   0.162  0.0000  0.0000  0.0000
 1947UNL      C 8571   3.917  -0.005   0.184  0.0000  0.0000  0.0000
 1947UNL      C 8572   3.809  -0.109   0.186  0.0000  0.0000  0.0000
 1947UNL      C 8573   3.830  -0.231   0.101  0.0000  0.0000  0.0000
 1947UNL      C 8574   4.885   0.153   0.540  0.0000  0.0000  0.0000
 1947UNL      C 8575   4.987   0.232   0.617  0.0000  0.0000  0.0000
 1947UNL      C 8576   5.122   0.167   0.637  0.0000  0.0000  0.0000
 1947UNL      C 8577   5.218   0.258   0.708  0.0000  0.0000  0.0000
 1947UNL      C 8578   5.350   0.189   0.732  0.0000  0.0000  0.0000
 1947UNL      C 8579   5.436   0.187   0.608  0.0000  0.0000  0.0000
 1948UNL      C 8580   4.434   0.510   0.679  0.0000  0.0000  0.0000
 1948UNL      C 8581   4.386   0.438   0.786  0.0000  0.0000  0.0000
 1949UNL      C 8582   4.725   0.967  -0.837  0.0000  0.0000  0.0000
 1950UNL      C 8583   4.380   0.296   0.780  0.0000  0.0000  0.0000
 1951UNL      C 8584   4.326   0.252   0.908  0.0000  0.0000  0.0000
 1952UNL      C 8585   4.336   0.491   0.921  0.0000  0.0000  0.0000
 1953UNL      C 8586   4.300   0.360   0.989  0.0000  0.0000  0.0000
 1954UNL      C 8587   4.448   0.566   0.996  0.0000  0.0000  0.0000
 1954UNL      C 8588   4.213   0.584   0.903  0.0000  0.0000  0.0000
 1955UNL      S 8589   4.291   0.104   0.984  0.0000  0.0000  0.0000
 1955UNL      C 8590   4.241   0.187   1.130  0.0000  0.0000  0.0000
 1955UNL      C 8591   4.252   0.324   1.115  0.0000  0.0000  0.0000
 1956UNL      C 8592   4.200   0.118   1.250  0.0000  0.0000  0.0000
 1956UNL      C 8593   4.158   0.190   1.361  0.0000  0.0000  0.0000
 1956UNL      C 8594   4.128   0.128   1.487  0.0000  0.0000  0.0000
 1956UNL      C 8595   4.134  -0.009   1.505  0.0000  0.0000  0.0000
 1956UNL      C 8596   4.203  -0.024   1.265  0.0000  0.0000  0.0000
 1956UNL      C 8597   4.170  -0.086   1.390  0.0000  0.0000  0.0000
 1957UNL      C 8598   4.108  -0.078   1.629  0.0000  0.0000  0.0000
 1958UNL      N 8599   4.238  -0.113   1.170  0.0000  0.0000  0.0000
 1958UNL      N 8600   4.183  -0.221   1.386  0.0000  0.0000  0.0000
 1958UNL      S 8601   4.229  -0.258   1.237  0.0000  0.0000  0.0000
 1959UNL      C 8602   4.075  -0.027   1.751  0.0000  0.0000  0.0000
 1959UNL      S 8603   4.048   0.137   1.802  0.0000  0.0000  0.0000
 1959UNL      C 8604   4.061  -0.118   1.865  0.0000  0.0000  0.0000
 1959UNL      O 8605   4.074  -0.238   1.864  0.0000  0.0000  0.0000
 1959UNL      N 8606   4.026  -0.047   1.980  0.0000  0.0000  0.0000
 1959UNL      C 8607   4.015   0.090   1.969  0.0000  0.0000  0.0000
 1959UNL      C 8608   4.014  -0.116   2.109  0.0000  0.0000  0.0000
 1959UNL      C 8609   4.145  -0.125   2.179  0.0000  0.0000  0.0000
 1959UNL      S 8610   3.978   0.195   2.084  0.0000  0.0000  0.0000
 1960UNL      C 8611   4.097   0.521   0.833  0.0000  0.0000  0.0000
 1960UNL      C 8612   3.971   0.610   0.822  0.0000  0.0000  0.0000
 1960UNL      C 8613   3.903   0.637   0.957  0.0000  0.0000  0.0000
 1960UNL      C 8614   3.836   0.514   1.021  0.0000  0.0000  0.0000
 1960UNL      C 8615   3.759   0.530   1.153  0.0000  0.0000  0.0000
 1960UNL      C 8616   3.856   0.548   1.270  0.0000  0.0000  0.0000
 1960UNL      C 8617   3.774   0.570   1.398  0.0000  0.0000  0.0000
 1960UNL      C 8618   4.574   0.482   1.023  0.0000  0.0000  0.0000
 1960UNL      C 8619   4.675   0.541   1.117  0.0000  0.0000  0.0000
 1960UNL      C 8620   4.625   0.534   1.264  0.0000  0.0000  0.0000
 1960UNL      C 8621   4.735   0.573   1.368  0.0000  0.0000  0.0000
 1960UNL      C 8622   4.674   0.563   1.510  0.0000  0.0000  0.0000
 1960UNL      C 8623   4.783   0.591   1.616  0.0000  0.0000  0.0000
 1960UNL      C 8624   4.733   0.559   1.763  0.0000  0.0000  0.0000
 1961UNL      C 8625   4.577  -0.139   1.131  0.0000  0.0000  0.0000
 1961UNL      C 8626   4.562  -0.034   1.234  0.0000  0.0000  0.0000
 1961UNL      N 8627   4.633  -0.084   1.014  0.0000  0.0000  0.0000
 1961UNL      S 8628   4.618   0.119   1.172  0.0000  0.0000  0.0000
 1961UNL      C 8629   4.663   0.050   1.017  0.0000  0.0000  0.0000
 1961UNL      C 8630   4.655  -0.170   0.898  0.0000  0.0000  0.0000
 1961UNL      S 8631   4.730   0.138   0.899  0.0000  0.0000  0.0000
 1961UNL      O 8632   4.544  -0.254   1.140  0.0000  0.0000  0.0000
 1961UNL      C 8633   4.517  -0.069   1.357  0.0000  0.0000  0.0000
 1962UNL      C 8634   4.490   0.012   1.474  0.0000  0.0000  0.0000
 1962UNL      C 8635   4.491   0.149   1.481  0.0000  0.0000  0.0000
 1962UNL      C 8636   4.457  -0.056   1.594  0.0000  0.0000  0.0000
 1962UNL      C 8637   4.464   0.220   1.599  0.0000  0.0000  0.0000
 1962UNL      C 8638   4.432   0.158   1.720  0.0000  0.0000  0.0000
 1962UNL      C 8639   4.428   0.015   1.715  0.0000  0.0000  0.0000
 1962UNL      N 8640   4.447  -0.191   1.608  0.0000  0.0000  0.0000
 1962UNL      N 8641   4.397  -0.067   1.819  0.0000  0.0000  0.0000
 1962UNL      S 8642   4.404  -0.218   1.762  0.0000  0.0000  0.0000
 1963UNL      C 8643   4.401   0.234   1.839  0.0000  0.0000  0.0000
 1963UNL      C 8644   4.395   0.371   1.852  0.0000  0.0000  0.0000
 1963UNL      C 8645   4.353   0.412   1.979  0.0000  0.0000  0.0000
 1963UNL      C 8646   4.328   0.306   2.062  0.0000  0.0000  0.0000
 1963UNL      S 8647   4.355   0.155   1.989  0.0000  0.0000  0.0000
 1964UNL      C 8648   4.277   0.351   2.191  0.0000  0.0000  0.0000
 1964UNL      C 8649   4.272   0.492   2.184  0.0000  0.0000  0.0000
 1965UNL      C 8650   4.324   0.545   2.047  0.0000  0.0000  0.0000
 1966UNL      C 8651   4.225   0.565   2.290  0.0000  0.0000  0.0000
 1967UNL      C 8652   4.451   0.630   2.069  0.0000  0.0000  0.0000
 1967UNL      C 8653   4.216   0.624   1.973  0.0000  0.0000  0.0000
 1967UNL      C 8654   4.090   0.552   1.939  0.0000  0.0000  0.0000
 1967UNL      C 8655   4.564   0.560   2.141  0.0000  0.0000  0.0000
 1967UNL      C 8656   3.986   0.641   1.879  0.0000  0.0000  0.0000
 1967UNL      C 8657   3.858   0.571   1.842  0.0000  0.0000  0.0000
 1967UNL      C 8658   3.744   0.651   1.786  0.0000  0.0000  0.0000
 1967UNL      C 8659   3.722   0.798   1.808  0.0000  0.0000  0.0000
 1967UNL      C 8660   3.614   0.901   1.810  0.0000  0.0000  0.0000
 1967UNL      C 8661   3.635   1.023   1.725  0.0000  0.0000  0.0000
 1967UNL      C 8662   4.690   0.640   2.164  0.0000  0.0000  0.0000
 1967UNL      C 8663   4.792   0.560   2.241  0.0000  0.0000  0.0000
 1967UNL      C 8664   4.927   0.625   2.261  0.0000  0.0000  0.0000
 1967UNL      C 8665   5.023   0.534   2.332  0.0000  0.0000  0.0000
 1967UNL      C 8666   5.155   0.604   2.356  0.0000  0.0000  0.0000
 1967UNL      C 8667   5.241   0.605   2.233  0.0000  0.0000  0.0000
 1968UNL      C 8668   4.238   0.282   2.303  0.0000  0.0000  0.0000
 1968UNL      C 8669   4.191   0.354   2.410  0.0000  0.0000  0.0000
 1969UNL      C 8670   4.530  -0.175   0.811  0.0000  0.0000  0.0000
 1970UNL      C 8671   4.185   0.496   2.404  0.0000  0.0000  0.0000
 1971UNL      C 8672   4.131   0.540   2.532  0.0000  0.0000  0.0000
 1972UNL      C 8673   4.141   0.302   2.545  0.0000  0.0000  0.0000
 1973UNL      C 8674   4.105   0.432   2.613  0.0000  0.0000  0.0000
 1974UNL      C 8675   4.253   0.227   2.621  0.0000  0.0000  0.0000
 1974UNL      C 8676   4.018   0.209   2.528  0.0000  0.0000  0.0000
 1975UNL      S 8677   4.095   0.689   2.609  0.0000  0.0000  0.0000
 1975UNL      C 8678   4.046   0.606   2.754  0.0000  0.0000  0.0000
 1975UNL      C 8679   4.057   0.469   2.739  0.0000  0.0000  0.0000
 1976UNL      C 8680   4.005   0.674   2.874  0.0000  0.0000  0.0000
 1976UNL      C 8681   3.963   0.603   2.985  0.0000  0.0000  0.0000
 1976UNL      C 8682   3.933   0.664   3.111  0.0000  0.0000  0.0000
 1976UNL      C 8683   3.939   0.801   3.129  0.0000  0.0000  0.0000
 1976UNL      C 8684   4.008   0.817   2.889  0.0000  0.0000  0.0000
 1976UNL      C 8685   3.975   0.878   3.014  0.0000  0.0000  0.0000
 1977UNL      C 8686   3.913   0.870   3.277  0.0000  0.0000  0.0000
 1978UNL      N 8687   4.043   0.905   2.794  0.0000  0.0000  0.0000
 1978UNL      N 8688   3.988   1.014   3.010  0.0000  0.0000  0.0000
 1978UNL      S 8689   4.034   1.051   2.862  0.0000  0.0000  0.0000
 1979UNL      C 8690   3.880   0.820   3.398  0.0000  0.0000  0.0000
 1979UNL      S 8691   3.853   0.655   3.450  0.0000  0.0000  0.0000
 1979UNL      C 8692   3.865   0.910   3.513  0.0000  0.0000  0.0000
 1979UNL      O 8693   3.879   1.031   3.511  0.0000  0.0000  0.0000
 1979UNL      N 8694   3.831   0.840   3.628  0.0000  0.0000  0.0000
 1979UNL      C 8695   3.820   0.703   3.616  0.0000  0.0000  0.0000
 1979UNL      C 8696   3.818   0.908   3.757  0.0000  0.0000  0.0000
 1979UNL      C 8697   3.950   0.917   3.826  0.0000  0.0000  0.0000
 1979UNL      S 8698   3.783   0.597   3.732  0.0000  0.0000  0.0000
 1980UNL      C 8699   3.902   0.271   2.457  0.0000  0.0000  0.0000
 1980UNL      C 8700   3.776   0.183   2.446  0.0000  0.0000  0.0000
 1980UNL      C 8701   3.708   0.155   2.581  0.0000  0.0000  0.0000
 1980UNL      C 8702   3.641   0.278   2.645  0.0000  0.0000  0.0000
 1980UNL      C 8703   3.563   0.263   2.777  0.0000  0.0000  0.0000
 1980UNL      C 8704   3.661   0.244   2.895  0.0000  0.0000  0.0000
 1980UNL      C 8705   3.579   0.223   3.022  0.0000  0.0000  0.0000
 1980UNL      C 8706   4.379   0.310   2.647  0.0000  0.0000  0.0000
 1980UNL      C 8707   4.480   0.252   2.742  0.0000  0.0000  0.0000
 1980UNL      C 8708   4.430   0.259   2.888  0.0000  0.0000  0.0000
 1980UNL      C 8709   4.540   0.219   2.993  0.0000  0.0000  0.0000
 1980UNL      C 8710   4.479   0.229   3.135  0.0000  0.0000  0.0000
 1980UNL      C 8711   4.588   0.201   3.240  0.0000  0.0000  0.0000
 1980UNL      C 8712   4.538   0.233   3.387  0.0000  0.0000  0.0000
 1981UNL      C 8713   4.472   0.654   3.765  0.0000  0.0000  0.0000
 1981UNL      C 8714   4.486   0.759   3.662  0.0000  0.0000  0.0000
 1981UNL      N 8715   4.416   0.709   3.882  0.0000  0.0000  0.0000
 1981UNL      S 8716   4.431   0.911   3.724  0.0000  0.0000  0.0000
 1981UNL      C 8717   4.386   0.843   3.879  0.0000  0.0000  0.0000
 1981UNL      C 8718   4.394   0.622   3.998  0.0000  0.0000  0.0000
 1981UNL      S 8719   4.319   0.931   3.997  0.0000  0.0000  0.0000
 1981UNL      O 8720   4.504   0.538   3.756  0.0000  0.0000  0.0000
 1981UNL      C 8721   4.532   0.724   3.539  0.0000  0.0000  0.0000
 1982UNL      C 8722   4.559   0.805   3.422  0.0000  0.0000  0.0000
 1982UNL      C 8723   4.558   0.942   3.415  0.0000  0.0000  0.0000
 1982UNL      C 8724   4.592   0.737   3.302  0.0000  0.0000  0.0000
 1982UNL      C 8725   4.585   1.012   3.297  0.0000  0.0000  0.0000
 1982UNL      C 8726   4.617   0.951   3.153  0.0000  0.0000  0.0000
 1982UNL      C 8727   4.621   0.807   3.158  0.0000  0.0000  0.0000
 1982UNL      N 8728   4.602   0.602   3.288  0.0000  0.0000  0.0000
 1982UNL      N 8729   4.652   0.725   3.054  0.0000  0.0000  0.0000
 1982UNL      S 8730   4.645   0.574   3.111  0.0000  0.0000  0.0000
 1983UNL      C 8731   4.649   1.026   3.034  0.0000  0.0000  0.0000
 1983UNL      C 8732   4.654   1.164   3.021  0.0000  0.0000  0.0000
 1983UNL      C 8733   4.696   1.204   2.893  0.0000  0.0000  0.0000
 1983UNL      C 8734   4.721   1.099   2.810  0.0000  0.0000  0.0000
 1983UNL      S 8735   4.694   0.948   2.884  0.0000  0.0000  0.0000
 1984UNL      C 8736   4.772   1.144   2.682  0.0000  0.0000  0.0000
 1984UNL      C 8737   4.777   1.285   2.689  0.0000  0.0000  0.0000
 1985UNL      C 8738   4.725   1.337   2.825  0.0000  0.0000  0.0000
 1986UNL      C 8739   4.824   1.358   2.583  0.0000  0.0000  0.0000
 1987UNL      C 8740   4.598   1.422   2.804  0.0000  0.0000  0.0000
 1987UNL      C 8741   4.833   1.417   2.899  0.0000  0.0000  0.0000
 1987UNL      C 8742   4.959   1.344   2.933  0.0000  0.0000  0.0000
 1987UNL      C 8743   4.485   1.352   2.732  0.0000  0.0000  0.0000
 1987UNL      C 8744   5.063   1.433   2.994  0.0000  0.0000  0.0000
 1987UNL      C 8745   5.191   1.364   3.030  0.0000  0.0000  0.0000
 1987UNL      C 8746   5.305   1.443   3.087  0.0000  0.0000  0.0000
 1987UNL      C 8747   5.327   1.590   3.065  0.0000  0.0000  0.0000
 1987UNL      C 8748   5.435   1.694   3.063  0.0000  0.0000  0.0000
 1987UNL      C 8749   5.414   1.815   3.147  0.0000  0.0000  0.0000
 1987UNL      C 8750   4.360   1.432   2.708  0.0000  0.0000  0.0000
 1987UNL      C 8751   4.257   1.353   2.632  0.0000  0.0000  0.0000
 1987UNL      C 8752   4.122   1.418   2.611  0.0000  0.0000  0.0000
 1987UNL      C 8753   4.026   1.327   2.540  0.0000  0.0000  0.0000
 1987UNL      C 8754   3.894   1.396   2.516  0.0000  0.0000  0.0000
 1987UNL      C 8755   3.808   1.398   2.640  0.0000  0.0000  0.0000
 1988UNL      C 8756   4.811   1.075   2.569  0.0000  0.0000  0.0000
 1988UNL      C 8757   4.858   1.147   2.463  0.0000  0.0000  0.0000
 1989UNL      C 8758   4.519   0.617   4.085  0.0000  0.0000  0.0000
 1990UNL      C 8759   4.864   1.289   2.469  0.0000  0.0000  0.0000
 1991UNL      C 8760   4.918   1.333   2.340  0.0000  0.0000  0.0000
 1992UNL      C 8761   4.908   1.094   2.328  0.0000  0.0000  0.0000
 1993UNL      C 8762   4.944   1.225   2.260  0.0000  0.0000  0.0000
 1994UNL      C 8763   4.796   1.019   2.252  0.0000  0.0000  0.0000
 1994UNL      C 8764   5.031   1.001   2.345  0.0000  0.0000  0.0000
 1995UNL      S 8765   4.954   1.481   2.264  0.0000  0.0000  0.0000
 1995UNL      C 8766   5.004   1.398   2.118  0.0000  0.0000  0.0000
 1995UNL      C 8767   4.993   1.261   2.134  0.0000  0.0000  0.0000
 1996UNL      C 8768   5.044   1.467   1.998  0.0000  0.0000  0.0000
 1996UNL      C 8769   5.086   1.395   1.887  0.0000  0.0000  0.0000
 1996UNL      C 8770   5.116   1.457   1.762  0.0000  0.0000  0.0000
 1996UNL      C 8771   5.110   1.593   1.743  0.0000  0.0000  0.0000
 1996UNL      C 8772   5.041   1.609   1.983  0.0000  0.0000  0.0000
 1996UNL      C 8773   5.074   1.671   1.859  0.0000  0.0000  0.0000
 1997UNL      C 8774   5.136   1.662   1.619  0.0000  0.0000  0.0000
 1998UNL      N 8775   5.006   1.698   2.079  0.0000  0.0000  0.0000
 1998UNL      N 8776   5.061   1.806   1.862  0.0000  0.0000  0.0000
 1998UNL      S 8777   5.016   1.843   2.011  0.0000  0.0000  0.0000
 1999UNL      C 8778   5.169   1.612   1.498  0.0000  0.0000  0.0000
 1999UNL      S 8779   5.196   1.448   1.446  0.0000  0.0000  0.0000
 1999UNL      C 8780   5.183   1.703   1.383  0.0000  0.0000  0.0000
 1999UNL      O 8781   5.170   1.823   1.385  0.0000  0.0000  0.0000
 1999UNL      N 8782   5.218   1.632   1.268  0.0000  0.0000  0.0000
 1999UNL      C 8783   5.229   1.495   1.280  0.0000  0.0000  0.0000
 1999UNL      C 8784   5.231   1.701   1.140  0.0000  0.0000  0.0000
 1999UNL      C 8785   5.099   1.709   1.070  0.0000  0.0000  0.0000
 1999UNL      S 8786   5.266   1.390   1.164  0.0000  0.0000  0.0000
 2000UNL      C 8787   5.147   1.063   2.415  0.0000  0.0000  0.0000
 2000UNL      C 8788   5.273   0.975   2.427  0.0000  0.0000  0.0000
 2000UNL      C 8789   5.341   0.948   2.292  0.0000  0.0000  0.0000
 2000UNL      C 8790   5.408   1.070   2.227  0.0000  0.0000  0.0000
 2000UNL      C 8791   5.486   1.055   2.095  0.0000  0.0000  0.0000
 2000UNL      C 8792   5.388   1.037   1.978  0.0000  0.0000  0.0000
 2000UNL      C 8793   5.471   1.015   1.850  0.0000  0.0000  0.0000
 2000UNL      C 8794   4.670   1.102   2.226  0.0000  0.0000  0.0000
 2000UNL      C 8795   4.569   1.044   2.131  0.0000  0.0000  0.0000
 2000UNL      C 8796   4.619   1.051   1.985  0.0000  0.0000  0.0000
 2000UNL      C 8797   4.509   1.011   1.880  0.0000  0.0000  0.0000
 2000UNL      C 8798   4.570   1.022   1.738  0.0000  0.0000  0.0000
 2000UNL      C 8799   4.461   0.993   1.632  0.0000  0.0000  0.0000
 2000UNL      C 8800   4.511   1.025   1.485  0.0000  0.0000  0.0000
 2001UNL      C 8801   4.277   1.724   5.366  0.0000  0.0000  0.0000
 2001UNL      C 8802   4.292   1.618   5.263  0.0000  0.0000  0.0000
 2001UNL      N 8803   4.221   1.669   5.482  0.0000  0.0000  0.0000
 2001UNL      S 8804   4.236   1.466   5.324  0.0000  0.0000  0.0000
 2001UNL      C 8805   4.191   1.535   5.479  0.0000  0.0000  0.0000
 2001UNL      C 8806   4.199   1.755   5.599  0.0000  0.0000  0.0000
 2001UNL      S 8807   4.124   1.447   5.598  0.0000  0.0000  0.0000
 2001UNL      O 8808   4.310   1.839   5.356  0.0000  0.0000  0.0000
 2001UNL      C 8809   4.337   1.654   5.139  0.0000  0.0000  0.0000
 2002UNL      C 8810   4.364   1.573   5.023  0.0000  0.0000  0.0000
 2002UNL      C 8811   4.363   1.436   5.016  0.0000  0.0000  0.0000
 2002UNL      C 8812   4.398   1.641   4.902  0.0000  0.0000  0.0000
 2002UNL      C 8813   4.390   1.365   4.897  0.0000  0.0000  0.0000
 2002UNL      C 8814   4.422   1.426   4.776  0.0000  0.0000  0.0000
 2002UNL      C 8815   4.426   1.570   4.781  0.0000  0.0000  0.0000
 2002UNL      N 8816   4.407   1.775   4.888  0.0000  0.0000  0.0000
 2002UNL      N 8817   4.457   1.652   4.678  0.0000  0.0000  0.0000
 2002UNL      S 8818   4.450   1.803   4.734  0.0000  0.0000  0.0000
 2003UNL      C 8819   4.454   1.351   4.658  0.0000  0.0000  0.0000
 2003UNL      C 8820   4.459   1.214   4.645  0.0000  0.0000  0.0000
 2003UNL      C 8821   4.501   1.173   4.517  0.0000  0.0000  0.0000
 2003UNL      C 8822   4.526   1.279   4.434  0.0000  0.0000  0.0000
 2003UNL      S 8823   4.499   1.429   4.508  0.0000  0.0000  0.0000
 2004UNL      C 8824   4.577   1.233   4.306  0.0000  0.0000  0.0000
 2004UNL      C 8825   4.582   1.093   4.313  0.0000  0.0000  0.0000
 2005UNL      C 8826   4.531   1.040   4.449  0.0000  0.0000  0.0000
 2006UNL      C 8827   4.629   1.020   4.206  0.0000  0.0000  0.0000
 2007UNL      C 8828   4.403   0.955   4.428  0.0000  0.0000  0.0000
 2007UNL      C 8829   4.638   0.960   4.523  0.0000  0.0000  0.0000
 2007UNL      C 8830   4.764   1.033   4.557  0.0000  0.0000  0.0000
 2007UNL      C 8831   4.291   1.025   4.356  0.0000  0.0000  0.0000
 2007UNL      C 8832   4.869   0.944   4.618  0.0000  0.0000  0.0000
 2007UNL      C 8833   4.996   1.014   4.654  0.0000  0.0000  0.0000
 2007UNL      C 8834   5.110   0.934   4.710  0.0000  0.0000  0.0000
 2007UNL      C 8835   5.132   0.787   4.689  0.0000  0.0000  0.0000
 2007UNL      C 8836   5.240   0.683   4.686  0.0000  0.0000  0.0000
 2007UNL      C 8837   5.219   0.562   4.771  0.0000  0.0000  0.0000
 2007UNL      C 8838   4.165   0.945   4.332  0.0000  0.0000  0.0000
 2007UNL      C 8839   4.062   1.025   4.256  0.0000  0.0000  0.0000
 2007UNL      C 8840   3.928   0.960   4.235  0.0000  0.0000  0.0000
 2007UNL      C 8841   3.831   1.051   4.164  0.0000  0.0000  0.0000
 2007UNL      C 8842   3.700   0.981   4.140  0.0000  0.0000  0.0000
 2007UNL      C 8843   3.613   0.979   4.264  0.0000  0.0000  0.0000
 2008UNL      C 8844   4.616   1.302   4.193  0.0000  0.0000  0.0000
 2008UNL      C 8845   4.663   1.230   4.086  0.0000  0.0000  0.0000
 2009UNL      C 8846   4.324   1.760   5.686  0.0000  0.0000  0.0000
 2010UNL      C 8847   4.669   1.089   4.093  0.0000  0.0000  0.0000
 2011UNL      C 8848   4.723   1.044   3.964  0.0000  0.0000  0.0000
 2012UNL      C 8849   4.713   1.283   3.951  0.0000  0.0000  0.0000
 2013UNL      C 8850   4.749   1.153   3.883  0.0000  0.0000  0.0000
 2014UNL      C 8851   4.601   1.358   3.876  0.0000  0.0000  0.0000
 2014UNL      C 8852   4.836   1.376   3.969  0.0000  0.0000  0.0000
 2015UNL      S 8853   4.759   0.896   3.888  0.0000  0.0000  0.0000
 2015UNL      C 8854   4.809   0.979   3.742  0.0000  0.0000  0.0000
 2015UNL      C 8855   4.798   1.116   3.758  0.0000  0.0000  0.0000
 2016UNL      C 8856   4.849   0.910   3.622  0.0000  0.0000  0.0000
 2016UNL      C 8857   4.892   0.982   3.511  0.0000  0.0000  0.0000
 2016UNL      C 8858   4.921   0.920   3.386  0.0000  0.0000  0.0000
 2016UNL      C 8859   4.915   0.784   3.367  0.0000  0.0000  0.0000
 2016UNL      C 8860   4.846   0.768   3.607  0.0000  0.0000  0.0000
 2016UNL      C 8861   4.879   0.706   3.483  0.0000  0.0000  0.0000
 2017UNL      C 8862   4.941   0.715   3.219  0.0000  0.0000  0.0000
 2018UNL      N 8863   4.811   0.679   3.702  0.0000  0.0000  0.0000
 2018UNL      N 8864   4.866   0.571   3.486  0.0000  0.0000  0.0000
 2018UNL      S 8865   4.821   0.534   3.635  0.0000  0.0000  0.0000
 2019UNL      C 8866   4.974   0.765   3.098  0.0000  0.0000  0.0000
 2019UNL      S 8867   5.002   0.929   3.047  0.0000  0.0000  0.0000
 2019UNL      C 8868   4.989   0.675   2.984  0.0000  0.0000  0.0000
 2019UNL      O 8869   4.975   0.554   2.985  0.0000  0.0000  0.0000
 2019UNL      N 8870   5.024   0.745   2.869  0.0000  0.0000  0.0000
 2019UNL      C 8871   5.035   0.882   2.880  0.0000  0.0000  0.0000
 2019UNL      C 8872   5.036   0.677   2.740  0.0000  0.0000  0.0000
 2019UNL      C 8873   4.905   0.668   2.670  0.0000  0.0000  0.0000
 2019UNL      S 8874   5.071   0.988   2.765  0.0000  0.0000  0.0000
 2020UNL      C 8875   4.952   1.314   4.039  0.0000  0.0000  0.0000
 2020UNL      C 8876   5.078   1.402   4.051  0.0000  0.0000  0.0000
 2020UNL      C 8877   5.146   1.429   3.916  0.0000  0.0000  0.0000
 2020UNL      C 8878   5.213   1.307   3.851  0.0000  0.0000  0.0000
 2020UNL      C 8879   5.291   1.322   3.719  0.0000  0.0000  0.0000
 2020UNL      C 8880   5.193   1.341   3.602  0.0000  0.0000  0.0000
 2020UNL      C 8881   5.276   1.362   3.474  0.0000  0.0000  0.0000
 2020UNL      C 8882   4.475   1.275   3.849  0.0000  0.0000  0.0000
 2020UNL      C 8883   4.374   1.333   3.755  0.0000  0.0000  0.0000
 2020UNL      C 8884   4.424   1.326   3.609  0.0000  0.0000  0.0000
 2020UNL      C 8885   4.315   1.366   3.504  0.0000  0.0000  0.0000
 2020UNL      C 8886   4.375   1.355   3.362  0.0000  0.0000  0.0000
 2020UNL      C 8887   4.266   1.384   3.256  0.0000  0.0000  0.0000
 2020UNL      C 8888   4.316   1.352   3.109  0.0000  0.0000  0.0000
 2021UNL      C 8889   4.382   0.931   2.731  0.0000  0.0000  0.0000
 2021UNL      C 8890   4.368   0.826   2.834  0.0000  0.0000  0.0000
 2021UNL      N 8891   4.438   0.876   2.615  0.0000  0.0000  0.0000
 2021UNL      S 8892   4.423   0.674   2.773  0.0000  0.0000  0.0000
 2021UNL      C 8893   4.468   0.742   2.618  0.0000  0.0000  0.0000
 2021UNL      C 8894   4.461   0.963   2.498  0.0000  0.0000  0.0000
 2021UNL      S 8895   4.535   0.654   2.499  0.0000  0.0000  0.0000
 2021UNL      O 8896   4.350   1.046   2.741  0.0000  0.0000  0.0000
 2021UNL      C 8897   4.322   0.861   2.958  0.0000  0.0000  0.0000
 2022UNL      C 8898   4.295   0.780   3.074  0.0000  0.0000  0.0000
 2022UNL      C 8899   4.297   0.643   3.081  0.0000  0.0000  0.0000
 2022UNL      C 8900   4.262   0.848   3.194  0.0000  0.0000  0.0000
 2022UNL      C 8901   4.269   0.573   3.200  0.0000  0.0000  0.0000
 2022UNL      C 8902   4.237   0.634   3.344  0.0000  0.0000  0.0000
 2022UNL      C 8903   4.234   0.778   3.339  0.0000  0.0000  0.0000
 2022UNL      N 8904   4.252   0.983   3.209  0.0000  0.0000  0.0000
 2022UNL      N 8905   4.202   0.859   3.442  0.0000  0.0000  0.0000
 2022UNL      S 8906   4.209   1.011   3.386  0.0000  0.0000  0.0000
 2023UNL      C 8907   4.206   0.558   3.462  0.0000  0.0000  0.0000
 2023UNL      C 8908   4.200   0.421   3.475  0.0000  0.0000  0.0000
 2023UNL      C 8909   4.158   0.380   3.603  0.0000  0.0000  0.0000
 2023UNL      C 8910   4.133   0.486   3.686  0.0000  0.0000  0.0000
 2023UNL      S 8911   4.160   0.637   3.612  0.0000  0.0000  0.0000
 2024UNL      C 8912   4.083   0.441   3.815  0.0000  0.0000  0.0000
 2024UNL      C 8913   4.077   0.300   3.807  0.0000  0.0000  0.0000
 2025UNL      C 8914   4.129   0.248   3.671  0.0000  0.0000  0.0000
 2026UNL      C 8915   4.030   0.227   3.914  0.0000  0.0000  0.0000
 2027UNL      C 8916   4.256   0.163   3.692  0.0000  0.0000  0.0000
 2027UNL      C 8917   4.021   0.168   3.597  0.0000  0.0000  0.0000
 2027UNL      C 8918   3.895   0.241   3.563  0.0000  0.0000  0.0000
 2027UNL      C 8919   4.369   0.233   3.764  0.0000  0.0000  0.0000
 2027UNL      C 8920   3.791   0.152   3.503  0.0000  0.0000  0.0000
 2027UNL      C 8921   3.663   0.221   3.466  0.0000  0.0000  0.0000
 2027UNL      C 8922   3.549   0.141   3.410  0.0000  0.0000  0.0000
 2027UNL      C 8923   3.527  -0.005   3.432  0.0000  0.0000  0.0000
 2027UNL      C 8924   3.419  -0.109   3.434  0.0000  0.0000  0.0000
 2027UNL      C 8925   3.440  -0.231   3.349  0.0000  0.0000  0.0000
 2027UNL      C 8926   4.495   0.153   3.788  0.0000  0.0000  0.0000
 2027UNL      C 8927   4.597   0.232   3.865  0.0000  0.0000  0.0000
 2027UNL      C 8928   4.732   0.167   3.885  0.0000  0.0000  0.0000
 2027UNL      C 8929   4.828   0.258   3.956  0.0000  0.0000  0.0000
 2027UNL      C 8930   4.960   0.189   3.980  0.0000  0.0000  0.0000
 2027UNL      C 8931   5.046   0.187   3.856  0.0000  0.0000  0.0000
 2028UNL      C 8932   4.044   0.510   3.927  0.0000  0.0000  0.0000
 2028UNL      C 8933   3.996   0.438   4.034  0.0000  0.0000  0.0000
 2029UNL      C 8934   4.335   0.967   2.411  0.0000  0.0000  0.0000
 2030UNL      C 8935   3.990   0.296   4.028  0.0000  0.0000  0.0000
 2031UNL      C 8936   3.936   0.252   4.156  0.0000  0.0000  0.0000
 2032UNL      C 8937   3.946   0.491   4.169  0.0000  0.0000  0.0000
 2033UNL      C 8938   3.910   0.360   4.237  0.0000  0.0000  0.0000
 2034UNL      C 8939   4.058   0.566   4.244  0.0000  0.0000  0.0000
 2034UNL      C 8940   3.823   0.584   4.151  0.0000  0.0000  0.0000
 2035UNL      S 8941   3.901   0.104   4.232  0.0000  0.0000  0.0000
 2035UNL      C 8942   3.851   0.187   4.378  0.0000  0.0000  0.0000
 2035UNL      C 8943   3.862   0.324   4.363  0.0000  0.0000  0.0000
 2036UNL      C 8944   3.810   0.118   4.498  0.0000  0.0000  0.0000
 2036UNL      C 8945   3.768   0.190   4.609  0.0000  0.0000  0.0000
 2036UNL      C 8946   3.738   0.128   4.735  0.0000  0.0000  0.0000
 2036UNL      C 8947   3.744  -0.009   4.753  0.0000  0.0000  0.0000
 2036UNL      C 8948   3.813  -0.024   4.513  0.0000  0.0000  0.0000
 2036UNL      C 8949   3.780  -0.086   4.638  0.0000  0.0000  0.0000
 2037UNL      C 8950   3.718  -0.078   4.877  0.0000  0.0000  0.0000
 2038UNL      N 8951   3.848  -0.113   4.418  0.0000  0.0000  0.0000
 2038UNL      N 8952   3.793  -0.221   4.634  0.0000  0.0000  0.0000
 2038UNL      S 8953   3.839  -0.258   4.485  0.0000  0.0000  0.0000
 2039UNL      C 8954   3.685  -0.027   4.999  0.0000  0.0000  0.0000
 2039UNL      S 8955   3.658   0.137   5.050  0.0000  0.0000  0.0000
 2039UNL      C 8956   3.671  -0.118   5.113  0.0000  0.0000  0.0000
 2039UNL      O 8957   3.684  -0.238   5.112  0.0000  0.0000  0.0000
 2039UNL      N 8958   3.636  -0.047   5.228  0.0000  0.0000  0.0000
 2039UNL      C 8959   3.625   0.090   5.217  0.0000  0.0000  0.0000
 2039UNL      C 8960   3.624  -0.116   5.357  0.0000  0.0000  0.0000
 2039UNL      C 8961   3.755  -0.125   5.427  0.0000  0.0000  0.0000
 2039UNL      S 8962   3.588   0.195   5.332  0.0000  0.0000  0.0000
 2040UNL      C 8963   3.707   0.521   4.081  0.0000  0.0000  0.0000
 2040UNL      C 8964   3.581   0.610   4.070  0.0000  0.0000  0.0000
 2040UNL      C 8965   3.513   0.637   4.205  0.0000  0.0000  0.0000
 2040UNL      C 8966   3.446   0.514   4.269  0.0000  0.0000  0.0000
 2040UNL      C 8967   3.369   0.530   4.401  0.0000  0.0000  0.0000
 2040UNL      C 8968   3.466   0.548   4.518  0.0000  0.0000  0.0000
 2040UNL      C 8969   3.384   0.570   4.646  0.0000  0.0000  0.0000
 2040UNL      C 8970   4.184   0.482   4.271  0.0000  0.0000  0.0000
 2040UNL      C 8971   4.285   0.541   4.365  0.0000  0.0000  0.0000
 2040UNL      C 8972   4.235   0.534   4.512  0.0000  0.0000  0.0000
 2040UNL      C 8973   4.345   0.573   4.616  0.0000  0.0000  0.0000
 2040UNL      C 8974   4.284   0.563   4.758  0.0000  0.0000  0.0000
 2040UNL      C 8975   4.393   0.591   4.864  0.0000  0.0000  0.0000
 2040UNL      C 8976   4.343   0.559   5.011  0.0000  0.0000  0.0000
 2041UNL      C 8977   4.187  -0.139   4.379  0.0000  0.0000  0.0000
 2041UNL      C 8978   4.172  -0.034   4.482  0.0000  0.0000  0.0000
 2041UNL      N 8979   4.243  -0.084   4.262  0.0000  0.0000  0.0000
 2041UNL      S 8980   4.228   0.119   4.420  0.0000  0.0000  0.0000
 2041UNL      C 8981   4.273   0.050   4.265  0.0000  0.0000  0.0000
 2041UNL      C 8982   4.265  -0.170   4.146  0.0000  0.0000  0.0000
 2041UNL      S 8983   4.340   0.138   4.147  0.0000  0.0000  0.0000
 2041UNL      O 8984   4.154  -0.254   4.388  0.0000  0.0000  0.0000
 2041UNL      C 8985   4.127  -0.069   4.605  0.0000  0.0000  0.0000
 2042UNL      C 8986   4.100   0.012   4.722  0.0000  0.0000  0.0000
 2042UNL      C 8987   4.101   0.149   4.729  0.0000  0.0000  0.0000
 2042UNL      C 8988   4.067  -0.056   4.842  0.0000  0.0000  0.0000
 2042UNL      C 8989   4.074   0.220   4.847  0.0000  0.0000  0.0000
 2042UNL      C 8990   4.042   0.158   4.968  0.0000  0.0000  0.0000
 2042UNL      C 8991   4.038   0.015   4.963  0.0000  0.0000  0.0000
 2042UNL      N 8992   4.057  -0.191   4.856  0.0000  0.0000  0.0000
 2042UNL      N 8993   4.007  -0.067   5.067  0.0000  0.0000  0.0000
 2042UNL      S 8994   4.014  -0.218   5.010  0.0000  0.0000  0.0000
 2043UNL      C 8995   4.011   0.234   5.087  0.0000  0.0000  0.0000
 2043UNL      C 8996   4.005   0.371   5.100  0.0000  0.0000  0.0000
 2043UNL      C 8997   3.963   0.412   5.227  0.0000  0.0000  0.0000
 2043UNL      C 8998   3.938   0.306   5.310  0.0000  0.0000  0.0000
 2043UNL      S 8999   3.965   0.155   5.237  0.0000  0.0000  0.0000
 2044UNL      C 9000   3.887   0.351   5.439  0.0000  0.0000  0.0000
 2044UNL      C 9001   3.882   0.492   5.432  0.0000  0.0000  0.0000
 2045UNL      C 9002   3.934   0.545   5.295  0.0000  0.0000  0.0000
 2046UNL      C 9003   3.835   0.565   5.538  0.0000  0.0000  0.0000
 2047UNL      C 9004   4.061   0.630   5.317  0.0000  0.0000  0.0000
 2047UNL      C 9005   3.826   0.624   5.221  0.0000  0.0000  0.0000
 2047UNL      C 9006   3.700   0.552   5.187  0.0000  0.0000  0.0000
 2047UNL      C 9007   4.174   0.560   5.389  0.0000  0.0000  0.0000
 2047UNL      C 9008   3.596   0.641   5.127  0.0000  0.0000  0.0000
 2047UNL      C 9009   3.468   0.571   5.090  0.0000  0.0000  0.0000
 2047UNL      C 9010   3.354   0.651   5.034  0.0000  0.0000  0.0000
 2047UNL      C 9011   3.332   0.798   5.056  0.0000  0.0000  0.0000
 2047UNL      C 9012   3.224   0.901   5.058  0.0000  0.0000  0.0000
 2047UNL      C 9013   3.245   1.023   4.973  0.0000  0.0000  0.0000
 2047UNL      C 9014   4.300   0.640   5.412  0.0000  0.0000  0.0000
 2047UNL      C 9015   4.402   0.560   5.489  0.0000  0.0000  0.0000
 2047UNL      C 9016   4.537   0.625   5.509  0.0000  0.0000  0.0000
 2047UNL      C 9017   4.633   0.534   5.580  0.0000  0.0000  0.0000
 2047UNL      C 9018   4.765   0.604   5.604  0.0000  0.0000  0.0000
 2047UNL      C 9019   4.851   0.605   5.481  0.0000  0.0000  0.0000
 2048UNL      C 9020   3.848   0.282   5.551  0.0000  0.0000  0.0000
 2048UNL      C 9021   3.801   0.354   5.658  0.0000  0.0000  0.0000
 2049UNL      C 9022   4.140  -0.175   4.059  0.0000  0.0000  0.0000
 2050UNL      C 9023   3.795   0.496   5.652  0.0000  0.0000  0.0000
 2051UNL      C 9024   3.741   0.540   5.780  0.0000  0.0000  0.0000
 2052UNL      C 9025   3.751   0.302   5.793  0.0000  0.0000  0.0000
 2053UNL      C 9026   3.715   0.432   5.861  0.0000  0.0000  0.0000
 2054UNL      C 9027   3.863   0.227   5.869  0.0000  0.0000  0.0000
 2054UNL      C 9028   3.628   0.209   5.776  0.0000  0.0000  0.0000
 2055UNL      S 9029   3.705   0.689   5.857  0.0000  0.0000  0.0000
 2055UNL      C 9030   3.656   0.606   6.002  0.0000  0.0000  0.0000
 2055UNL      C 9031   3.667   0.469   5.987  0.0000  0.0000  0.0000
 2056UNL      C 9032   3.615   0.674   6.122  0.0000  0.0000  0.0000
 2056UNL      C 9033   3.573   0.603   6.233  0.0000  0.0000  0.0000
 2056UNL      C 9034   3.543   0.664   6.359  0.0000  0.0000  0.0000
 2056UNL      C 9035   3.549   0.801   6.377  0.0000  0.0000  0.0000
 2056UNL      C 9036   3.618   0.817   6.137  0.0000  0.0000  0.0000
 2056UNL      C 9037   3.585   0.878   6.262  0.0000  0.0000  0.0000
 2057UNL      C 9038   3.523   0.870   6.525  0.0000  0.0000  0.0000
 2058UNL      N 9039   3.653   0.905   6.042  0.0000  0.0000  0.0000
 2058UNL      N 9040   3.598   1.014   6.258  0.0000  0.0000  0.0000
 2058UNL      S 9041   3.644   1.051   6.110  0.0000  0.0000  0.0000
 2059UNL      C 9042   3.490   0.820   6.646  0.0000  0.0000  0.0000
 2059UNL      S 9043   3.463   0.655   6.698  0.0000  0.0000  0.0000
 2059UNL      C 9044   3.475   0.910   6.761  0.0000  0.0000  0.0000
 2059UNL      O 9045   3.489   1.031   6.759  0.0000  0.0000  0.0000
 2059UNL      N 9046   3.441   0.840   6.876  0.0000  0.0000  0.0000
 2059UNL      C 9047   3.430   0.703   6.864  0.0000  0.0000  0.0000
 2059UNL      C 9048   3.428   0.908   7.005  0.0000  0.0000  0.0000
 2059UNL      C 9049   3.560   0.917   7.074  0.0000  0.0000  0.0000
 2059UNL      S 9050   3.393   0.597   6.980  0.0000  0.0000  0.0000
 2060UNL      C 9051   3.512   0.271   5.705  0.0000  0.0000  0.0000
 2060UNL      C 9052   3.386   0.183   5.694  0.0000  0.0000  0.0000
 2060UNL      C 9053   3.318   0.155   5.829  0.0000  0.0000  0.0000
 2060UNL      C 9054   3.251   0.278   5.893  0.0000  0.0000  0.0000
 2060UNL      C 9055   3.173   0.263   6.025  0.0000  0.0000  0.0000
 2060UNL      C 9056   3.271   0.244   6.143  0.0000  0.0000  0.0000
 2060UNL      C 9057   3.189   0.223   6.270  0.0000  0.0000  0.0000
 2060UNL      C 9058   3.989   0.310   5.895  0.0000  0.0000  0.0000
 2060UNL      C 9059   4.090   0.252   5.990  0.0000  0.0000  0.0000
 2060UNL      C 9060   4.040   0.259   6.136  0.0000  0.0000  0.0000
 2060UNL      C 9061   4.150   0.219   6.241  0.0000  0.0000  0.0000
 2060UNL      C 9062   4.089   0.229   6.383  0.0000  0.0000  0.0000
 2060UNL      C 9063   4.198   0.201   6.488  0.0000  0.0000  0.0000
 2060UNL      C 9064   4.148   0.233   6.635  0.0000  0.0000  0.0000
 2061UNL      C 9065   4.082   0.654   7.013  0.0000  0.0000  0.0000
 2061UNL      C 9066   4.096   0.759   6.910  0.0000  0.0000  0.0000
 2061UNL      N 9067   4.026   0.709   7.130  0.0000  0.0000  0.0000
 2061UNL      S 9068   4.041   0.911   6.972  0.0000  0.0000  0.0000
 2061UNL      C 9069   3.996   0.843   7.127  0.0000  0.0000  0.0000
 2061UNL      C 9070   4.004   0.622   7.246  0.0000  0.0000  0.0000
 2061UNL      S 9071   3.929   0.931   7.245  0.0000  0.0000  0.0000
 2061UNL      O 9072   4.114   0.538   7.004  0.0000  0.0000  0.0000
 2061UNL      C 9073   4.142   0.724   6.787  0.0000  0.0000  0.0000
 2062UNL      C 9074   4.169   0.805   6.670  0.0000  0.0000  0.0000
 2062UNL      C 9075   4.168   0.942   6.663  0.0000  0.0000  0.0000
 2062UNL      C 9076   4.202   0.737   6.550  0.0000  0.0000  0.0000
 2062UNL      C 9077   4.195   1.012   6.545  0.0000  0.0000  0.0000
 2062UNL      C 9078   4.227   0.951   6.401  0.0000  0.0000  0.0000
 2062UNL      C 9079   4.231   0.807   6.406  0.0000  0.0000  0.0000
 2062UNL      N 9080   4.212   0.602   6.536  0.0000  0.0000  0.0000
 2062UNL      N 9081   4.262   0.725   6.302  0.0000  0.0000  0.0000
 2062UNL      S 9082   4.255   0.574   6.359  0.0000  0.0000  0.0000
 2063UNL      C 9083   4.259   1.026   6.282  0.0000  0.0000  0.0000
 2063UNL      C 9084   4.264   1.164   6.269  0.0000  0.0000  0.0000
 2063UNL      C 9085   4.306   1.204   6.141  0.0000  0.0000  0.0000
 2063UNL      C 9086   4.331   1.099   6.058  0.0000  0.0000  0.0000
 2063UNL      S 9087   4.304   0.948   6.132  0.0000  0.0000  0.0000
 2064UNL      C 9088   4.382   1.144   5.930  0.0000  0.0000  0.0000
 2064UNL      C 9089   4.387   1.285   5.937  0.0000  0.0000  0.0000
 2065UNL      C 9090   4.335   1.337   6.073  0.0000  0.0000  0.0000
 2066UNL      C 9091   4.434   1.358   5.831  0.0000  0.0000  0.0000
 2067UNL      C 9092   4.208   1.422   6.052  0.0000  0.0000  0.0000
 2067UNL      C 9093   4.443   1.417   6.147  0.0000  0.0000  0.0000
 2067UNL      C 9094   4.569   1.344   6.181  0.0000  0.0000  0.0000
 2067UNL      C 9095   4.095   1.352   5.980  0.0000  0.0000  0.0000
 2067UNL      C 9096   4.673   1.433   6.242  0.0000  0.0000  0.0000
 2067UNL      C 9097   4.801   1.364   6.278  0.0000  0.0000  0.0000
 2067UNL      C 9098   4.915   1.443   6.335  0.0000  0.0000  0.0000
 2067UNL      C 9099   4.937   1.590   6.313  0.0000  0.0000  0.0000
 2067UNL      C 9100   5.045   1.694   6.311  0.0000  0.0000  0.0000
 2067UNL      C 9101   5.024   1.815   6.395  0.0000  0.0000  0.0000
 2067UNL      C 9102   3.970   1.432   5.956  0.0000  0.0000  0.0000
 2067UNL      C 9103   3.867   1.353   5.880  0.0000  0.0000  0.0000
 2067UNL      C 9104   3.732   1.418   5.859  0.0000  0.0000  0.0000
 2067UNL      C 9105   3.636   1.327   5.788  0.0000  0.0000  0.0000
 2067UNL      C 9106   3.504   1.396   5.764  0.0000  0.0000  0.0000
 2067UNL      C 9107   3.418   1.398   5.888  0.0000  0.0000  0.0000
 2068UNL      C 9108   4.421   1.075   5.817  0.0000  0.0000  0.0000
 2068UNL      C 9109   4.468   1.147   5.711  0.0000  0.0000  0.0000
 2069UNL      C 9110   4.129   0.617   7.333  0.0000  0.0000  0.0000
 2070UNL      C 9111   4.474   1.289   5.717  0.0000  0.0000  0.0000
 2071UNL      C 9112   4.528   1.333   5.588  0.0000  0.0000  0.0000
 2072UNL      C 9113   4.518   1.094   5.576  0.0000  0.0000  0.0000
 2073UNL      C 9114   4.554   1.225   5.508  0.0000  0.0000  0.0000
 2074UNL      C 9115   4.406   1.019   5.500  0.0000  0.0000  0.0000
 2074UNL      C 9116   4.641   1.001   5.593  0.0000  0.0000  0.0000
 2075UNL      S 9117   4.564   1.481   5.512  0.0000  0.0000  0.0000
 2075UNL      C 9118   4.614   1.398   5.366  0.0000  0.0000  0.0000
 2075UNL      C 9119   4.603   1.261   5.382  0.0000  0.0000  0.0000
 2076UNL      C 9120   4.654   1.467   5.246  0.0000  0.0000  0.0000
 2076UNL      C 9121   4.696   1.395   5.135  0.0000  0.0000  0.0000
 2076UNL      C 9122   4.726   1.457   5.010  0.0000  0.0000  0.0000
 2076UNL      C 9123   4.720   1.593   4.991  0.0000  0.0000  0.0000
 2076UNL      C 9124   4.651   1.609   5.231  0.0000  0.0000  0.0000
 2076UNL      C 9125   4.684   1.671   5.107  0.0000  0.0000  0.0000
 2077UNL      C 9126   4.746   1.662   4.867  0.0000  0.0000  0.0000
 2078UNL      N 9127   4.616   1.698   5.327  0.0000  0.0000  0.0000
 2078UNL      N 9128   4.671   1.806   5.110  0.0000  0.0000  0.0000
 2078UNL      S 9129   4.626   1.843   5.259  0.0000  0.0000  0.0000
 2079UNL      C 9130   4.779   1.612   4.746  0.0000  0.0000  0.0000
 2079UNL      S 9131   4.806   1.448   4.694  0.0000  0.0000  0.0000
 2079UNL      C 9132   4.793   1.703   4.631  0.0000  0.0000  0.0000
 2079UNL      O 9133   4.780   1.823   4.633  0.0000  0.0000  0.0000
 2079UNL      N 9134   4.828   1.632   4.516  0.0000  0.0000  0.0000
 2079UNL      C 9135   4.839   1.495   4.528  0.0000  0.0000  0.0000
 2079UNL      C 9136   4.841   1.701   4.388  0.0000  0.0000  0.0000
 2079UNL      C 9137   4.709   1.709   4.318  0.0000  0.0000  0.0000
 2079UNL      S 9138   4.876   1.390   4.412  0.0000  0.0000  0.0000
 2080UNL      C 9139   4.757   1.063   5.663  0.0000  0.0000  0.0000
 2080UNL      C 9140   4.883   0.975   5.675  0.0000  0.0000  0.0000
 2080UNL      C 9141   4.951   0.948   5.540  0.0000  0.0000  0.0000
 2080UNL      C 9142   5.018   1.070   5.475  0.0000  0.0000  0.0000
 2080UNL      C 9143   5.096   1.055   5.343  0.0000  0.0000  0.0000
 2080UNL      C 9144   4.998   1.037   5.226  0.0000  0.0000  0.0000
 2080UNL      C 9145   5.081   1.015   5.098  0.0000  0.0000  0.0000
 2080UNL      C 9146   4.280   1.102   5.474  0.0000  0.0000  0.0000
 2080UNL      C 9147   4.179   1.044   5.379  0.0000  0.0000  0.0000
 2080UNL      C 9148   4.229   1.051   5.233  0.0000  0.0000  0.0000
 2080UNL      C 9149   4.119   1.011   5.128  0.0000  0.0000  0.0000
 2080UNL      C 9150   4.180   1.022   4.986  0.0000  0.0000  0.0000
 2080UNL      C 9151   4.071   0.993   4.880  0.0000  0.0000  0.0000
 2080UNL      C 9152   4.121   1.025   4.733  0.0000  0.0000  0.0000
 2081UNL      C 9153   4.667   3.309   2.118  0.0000  0.0000  0.0000
 2081UNL      C 9154   4.682   3.203   2.015  0.0000  0.0000  0.0000
 2081UNL      N 9155   4.611   3.254   2.234  0.0000  0.0000  0.0000
 2081UNL      S 9156   4.626   3.051   2.076  0.0000  0.0000  0.0000
 2081UNL      C 9157   4.581   3.120   2.231  0.0000  0.0000  0.0000
 2081UNL      C 9158   4.589   3.340   2.351  0.0000  0.0000  0.0000
 2081UNL      S 9159   4.514   3.032   2.350  0.0000  0.0000  0.0000
 2081UNL      O 9160   4.700   3.424   2.108  0.0000  0.0000  0.0000
 2081UNL      C 9161   4.727   3.239   1.891  0.0000  0.0000  0.0000
 2082UNL      C 9162   4.754   3.158   1.775  0.0000  0.0000  0.0000
 2082UNL      C 9163   4.753   3.021   1.768  0.0000  0.0000  0.0000
 2082UNL      C 9164   4.788   3.226   1.654  0.0000  0.0000  0.0000
 2082UNL      C 9165   4.780   2.950   1.649  0.0000  0.0000  0.0000
 2082UNL      C 9166   4.812   3.011   1.528  0.0000  0.0000  0.0000
 2082UNL      C 9167   4.816   3.155   1.533  0.0000  0.0000  0.0000
 2082UNL      N 9168   4.797   3.360   1.640  0.0000  0.0000  0.0000
 2082UNL      N 9169   4.847   3.237   1.430  0.0000  0.0000  0.0000
 2082UNL      S 9170   4.840   3.388   1.486  0.0000  0.0000  0.0000
 2083UNL      C 9171   4.844   2.936   1.410  0.0000  0.0000  0.0000
 2083UNL      C 9172   4.849   2.799   1.397  0.0000  0.0000  0.0000
 2083UNL      C 9173   4.891   2.758   1.269  0.0000  0.0000  0.0000
 2083UNL      C 9174   4.916   2.864   1.186  0.0000  0.0000  0.0000
 2083UNL      S 9175   4.889   3.014   1.260  0.0000  0.0000  0.0000
 2084UNL      C 9176   4.967   2.818   1.058  0.0000  0.0000  0.0000
 2084UNL      C 9177   4.972   2.678   1.065  0.0000  0.0000  0.0000
 2085UNL      C 9178   4.921   2.625   1.201  0.0000  0.0000  0.0000
 2086UNL      C 9179   5.019   2.605   0.958  0.0000  0.0000  0.0000
 2087UNL      C 9180   4.793   2.540   1.180  0.0000  0.0000  0.0000
 2087UNL      C 9181   5.028   2.545   1.275  0.0000  0.0000  0.0000
 2087UNL      C 9182   5.154   2.618   1.309  0.0000  0.0000  0.0000
 2087UNL      C 9183   4.681   2.610   1.108  0.0000  0.0000  0.0000
 2087UNL      C 9184   5.259   2.529   1.370  0.0000  0.0000  0.0000
 2087UNL      C 9185   5.386   2.599   1.406  0.0000  0.0000  0.0000
 2087UNL      C 9186   5.500   2.519   1.462  0.0000  0.0000  0.0000
 2087UNL      C 9187   5.522   2.372   1.441  0.0000  0.0000  0.0000
 2087UNL      C 9188   5.630   2.268   1.438  0.0000  0.0000  0.0000
 2087UNL      C 9189   5.609   2.147   1.523  0.0000  0.0000  0.0000
 2087UNL      C 9190   4.555   2.530   1.084  0.0000  0.0000  0.0000
 2087UNL      C 9191   4.452   2.610   1.008  0.0000  0.0000  0.0000
 2087UNL      C 9192   4.318   2.545   0.987  0.0000  0.0000  0.0000
 2087UNL      C 9193   4.221   2.636   0.916  0.0000  0.0000  0.0000
 2087UNL      C 9194   4.090   2.566   0.892  0.0000  0.0000  0.0000
 2087UNL      C 9195   4.003   2.564   1.016  0.0000  0.0000  0.0000
 2088UNL      C 9196   5.006   2.887   0.945  0.0000  0.0000  0.0000
 2088UNL      C 9197   5.053   2.815   0.838  0.0000  0.0000  0.0000
 2089UNL      C 9198   4.714   3.345   2.438  0.0000  0.0000  0.0000
 2090UNL      C 9199   5.059   2.674   0.845  0.0000  0.0000  0.0000
 2091UNL      C 9200   5.113   2.629   0.716  0.0000  0.0000  0.0000
 2092UNL      C 9201   5.103   2.868   0.703  0.0000  0.0000  0.0000
 2093UNL      C 9202   5.139   2.738   0.635  0.0000  0.0000  0.0000
 2094UNL      C 9203   4.991   2.943   0.628  0.0000  0.0000  0.0000
 2094UNL      C 9204   5.226   2.961   0.721  0.0000  0.0000  0.0000
 2095UNL      S 9205   5.149   2.481   0.640  0.0000  0.0000  0.0000
 2095UNL      C 9206   5.199   2.564   0.494  0.0000  0.0000  0.0000
 2095UNL      C 9207   5.188   2.701   0.510  0.0000  0.0000  0.0000
 2096UNL      C 9208   5.239   2.495   0.374  0.0000  0.0000  0.0000
 2096UNL      C 9209   5.282   2.567   0.263  0.0000  0.0000  0.0000
 2096UNL      C 9210   5.311   2.505   0.138  0.0000  0.0000  0.0000
 2096UNL      C 9211   5.305   2.369   0.119  0.0000  0.0000  0.0000
 2096UNL      C 9212   5.236   2.353   0.359  0.0000  0.0000  0.0000
 2096UNL      C 9213   5.269   2.291   0.235  0.0000  0.0000  0.0000
 2097UNL      C 9214   5.331   2.300  -0.029  0.0000  0.0000  0.0000
 2098UNL      N 9215   5.201   2.264   0.454  0.0000  0.0000  0.0000
 2098UNL      N 9216   5.256   2.156   0.238  0.0000  0.0000  0.0000
 2098UNL      S 9217   5.211   2.119   0.387  0.0000  0.0000  0.0000
 2099UNL      C 9218   5.364   2.350  -0.150  0.0000  0.0000  0.0000
 2099UNL      S 9219   5.392   2.514  -0.201  0.0000  0.0000  0.0000
 2099UNL      C 9220   5.379   2.260  -0.264  0.0000  0.0000  0.0000
 2099UNL      O 9221   5.365   2.139  -0.263  0.0000  0.0000  0.0000
 2099UNL      N 9222   5.414   2.330  -0.379  0.0000  0.0000  0.0000
 2099UNL      C 9223   5.425   2.467  -0.368  0.0000  0.0000  0.0000
 2099UNL      C 9224   5.426   2.262  -0.508  0.0000  0.0000  0.0000
 2099UNL      C 9225   5.295   2.253  -0.578  0.0000  0.0000  0.0000
 2099UNL      S 9226   5.461   2.573  -0.483  0.0000  0.0000  0.0000
 2100UNL      C 9227   5.342   2.899   0.791  0.0000  0.0000  0.0000
 2100UNL      C 9228   5.468   2.987   0.803  0.0000  0.0000  0.0000
 2100UNL      C 9229   5.536   3.014   0.668  0.0000  0.0000  0.0000
 2100UNL      C 9230   5.603   2.892   0.603  0.0000  0.0000  0.0000
 2100UNL      C 9231   5.681   2.907   0.471  0.0000  0.0000  0.0000
 2100UNL      C 9232   5.583   2.926   0.354  0.0000  0.0000  0.0000
 2100UNL      C 9233   5.666   2.947   0.226  0.0000  0.0000  0.0000
 2100UNL      C 9234   4.865   2.860   0.601  0.0000  0.0000  0.0000
 2100UNL      C 9235   4.764   2.918   0.507  0.0000  0.0000  0.0000
 2100UNL      C 9236   4.814   2.911   0.361  0.0000  0.0000  0.0000
 2100UNL      C 9237   4.705   2.951   0.256  0.0000  0.0000  0.0000
 2100UNL      C 9238   4.765   2.940   0.114  0.0000  0.0000  0.0000
 2100UNL      C 9239   4.656   2.969   0.008  0.0000  0.0000  0.0000
 2100UNL      C 9240   4.706   2.937  -0.139  0.0000  0.0000  0.0000
 2101UNL      C 9241   4.772   2.516  -0.517  0.0000  0.0000  0.0000
 2101UNL      C 9242   4.758   2.411  -0.414  0.0000  0.0000  0.0000
 2101UNL      N 9243   4.828   2.461  -0.633  0.0000  0.0000  0.0000
 2101UNL      S 9244   4.813   2.259  -0.475  0.0000  0.0000  0.0000
 2101UNL      C 9245   4.858   2.327  -0.630  0.0000  0.0000  0.0000
 2101UNL      C 9246   4.851   2.548  -0.750  0.0000  0.0000  0.0000
 2101UNL      S 9247   4.925   2.239  -0.749  0.0000  0.0000  0.0000
 2101UNL      O 9248   4.740   2.631  -0.507  0.0000  0.0000  0.0000
 2101UNL      C 9249   4.712   2.446  -0.290  0.0000  0.0000  0.0000
 2102UNL      C 9250   4.685   2.365  -0.174  0.0000  0.0000  0.0000
 2102UNL      C 9251   4.687   2.228  -0.167  0.0000  0.0000  0.0000
 2102UNL      C 9252   4.652   2.433  -0.054  0.0000  0.0000  0.0000
 2102UNL      C 9253   4.659   2.158  -0.048  0.0000  0.0000  0.0000
 2102UNL      C 9254   4.627   2.219   0.096  0.0000  0.0000  0.0000
 2102UNL      C 9255   4.624   2.363   0.091  0.0000  0.0000  0.0000
 2102UNL      N 9256   4.642   2.568  -0.039  0.0000  0.0000  0.0000
 2102UNL      N 9257   4.592   2.444   0.194  0.0000  0.0000  0.0000
 2102UNL      S 9258   4.599   2.596   0.138  0.0000  0.0000  0.0000
 2103UNL      C 9259   4.596   2.143   0.214  0.0000  0.0000  0.0000
 2103UNL      C 9260   4.590   2.006   0.227  0.0000  0.0000  0.0000
 2103UNL      C 9261   4.548   1.965   0.355  0.0000  0.0000  0.0000
 2103UNL      C 9262   4.523   2.071   0.438  0.0000  0.0000  0.0000
 2103UNL      S 9263   4.550   2.222   0.364  0.0000  0.0000  0.0000
 2104UNL      C 9264   4.473   2.026   0.567  0.0000  0.0000  0.0000
 2104UNL      C 9265   4.467   1.885   0.559  0.0000  0.0000  0.0000
 2105UNL      C 9266   4.519   1.833   0.423  0.0000  0.0000  0.0000
 2106UNL      C 9267   4.420   1.812   0.666  0.0000  0.0000  0.0000
 2107UNL      C 9268   4.646   1.748   0.444  0.0000  0.0000  0.0000
 2107UNL      C 9269   4.411   1.753   0.349  0.0000  0.0000  0.0000
 2107UNL      C 9270   4.285   1.826   0.315  0.0000  0.0000  0.0000
 2107UNL      C 9271   4.759   1.818   0.516  0.0000  0.0000  0.0000
 2107UNL      C 9272   4.181   1.737   0.255  0.0000  0.0000  0.0000
 2107UNL      C 9273   4.053   1.806   0.218  0.0000  0.0000  0.0000
 2107UNL      C 9274   3.939   1.726   0.162  0.0000  0.0000  0.0000
 2107UNL      C 9275   3.917   1.580   0.184  0.0000  0.0000  0.0000
 2107UNL      C 9276   3.809   1.476   0.186  0.0000  0.0000  0.0000
 2107UNL      C 9277   3.830   1.354   0.101  0.0000  0.0000  0.0000
 2107UNL      C 9278   4.885   1.738   0.540  0.0000  0.0000  0.0000
 2107UNL      C 9279   4.987   1.817   0.617  0.0000  0.0000  0.0000
 2107UNL      C 9280   5.122   1.752   0.637  0.0000  0.0000  0.0000
 2107UNL      C 9281   5.218   1.843   0.708  0.0000  0.0000  0.0000
 2107UNL      C 9282   5.350   1.774   0.732  0.0000  0.0000  0.0000
 2107UNL      C 9283   5.436   1.772   0.608  0.0000  0.0000  0.0000
 2108UNL      C 9284   4.434   2.095   0.679  0.0000  0.0000  0.0000
 2108UNL      C 9285   4.386   2.023   0.786  0.0000  0.0000  0.0000
 2109UNL      C 9286   4.725   2.552  -0.837  0.0000  0.0000  0.0000
 2110UNL      C 9287   4.380   1.881   0.780  0.0000  0.0000  0.0000
 2111UNL      C 9288   4.326   1.837   0.908  0.0000  0.0000  0.0000
 2112UNL      C 9289   4.336   2.076   0.921  0.0000  0.0000  0.0000
 2113UNL      C 9290   4.300   1.945   0.989  0.0000  0.0000  0.0000
 2114UNL      C 9291   4.448   2.151   0.996  0.0000  0.0000  0.0000
 2114UNL      C 9292   4.213   2.169   0.903  0.0000  0.0000  0.0000
 2115UNL      S 9293   4.291   1.689   0.984  0.0000  0.0000  0.0000
 2115UNL      C 9294   4.241   1.772   1.130  0.0000  0.0000  0.0000
 2115UNL      C 9295   4.252   1.909   1.115  0.0000  0.0000  0.0000
 2116UNL      C 9296   4.200   1.703   1.250  0.0000  0.0000  0.0000
 2116UNL      C 9297   4.158   1.775   1.361  0.0000  0.0000  0.0000
 2116UNL      C 9298   4.128   1.713   1.487  0.0000  0.0000  0.0000
 2116UNL      C 9299   4.134   1.576   1.505  0.0000  0.0000  0.0000
 2116UNL      C 9300   4.203   1.561   1.265  0.0000  0.0000  0.0000
 2116UNL      C 9301   4.170   1.499   1.390  0.0000  0.0000  0.0000
 2117UNL      C 9302   4.108   1.507   1.629  0.0000  0.0000  0.0000
 2118UNL      N 9303   4.238   1.472   1.170  0.0000  0.0000  0.0000
 2118UNL      N 9304   4.183   1.364   1.386  0.0000  0.0000  0.0000
 2118UNL      S 9305   4.229   1.327   1.237  0.0000  0.0000  0.0000
 2119UNL      C 9306   4.075   1.558   1.751  0.0000  0.0000  0.0000
 2119UNL      S 9307   4.048   1.722   1.802  0.0000  0.0000  0.0000
 2119UNL      C 9308   4.061   1.467   1.865  0.0000  0.0000  0.0000
 2119UNL      O 9309   4.074   1.347   1.864  0.0000  0.0000  0.0000
 2119UNL      N 9310   4.026   1.538   1.980  0.0000  0.0000  0.0000
 2119UNL      C 9311   4.015   1.675   1.969  0.0000  0.0000  0.0000
 2119UNL      C 9312   4.014   1.469   2.109  0.0000  0.0000  0.0000
 2119UNL      C 9313   4.145   1.460   2.179  0.0000  0.0000  0.0000
 2119UNL      S 9314   3.978   1.780   2.084  0.0000  0.0000  0.0000
 2120UNL      C 9315   4.097   2.106   0.833  0.0000  0.0000  0.0000
 2120UNL      C 9316   3.971   2.195   0.822  0.0000  0.0000  0.0000
 2120UNL      C 9317   3.903   2.222   0.957  0.0000  0.0000  0.0000
 2120UNL      C 9318   3.836   2.099   1.021  0.0000  0.0000  0.0000
 2120UNL      C 9319   3.759   2.115   1.153  0.0000  0.0000  0.0000
 2120UNL      C 9320   3.856   2.133   1.270  0.0000  0.0000  0.0000
 2120UNL      C 9321   3.774   2.155   1.398  0.0000  0.0000  0.0000
 2120UNL      C 9322   4.574   2.067   1.023  0.0000  0.0000  0.0000
 2120UNL      C 9323   4.675   2.126   1.117  0.0000  0.0000  0.0000
 2120UNL      C 9324   4.625   2.119   1.264  0.0000  0.0000  0.0000
 2120UNL      C 9325   4.735   2.158   1.368  0.0000  0.0000  0.0000
 2120UNL      C 9326   4.674   2.148   1.510  0.0000  0.0000  0.0000
 2120UNL      C 9327   4.783   2.176   1.616  0.0000  0.0000  0.0000
 2120UNL      C 9328   4.733   2.144   1.763  0.0000  0.0000  0.0000
 2121UNL      C 9329   4.577   1.446   1.131  0.0000  0.0000  0.0000
 2121UNL      C 9330   4.562   1.551   1.234  0.0000  0.0000  0.0000
 2121UNL      N 9331   4.633   1.501   1.014  0.0000  0.0000  0.0000
 2121UNL      S 9332   4.618   1.704   1.172  0.0000  0.0000  0.0000
 2121UNL      C 9333   4.663   1.635   1.017  0.0000  0.0000  0.0000
 2121UNL      C 9334   4.655   1.415   0.898  0.0000  0.0000  0.0000
 2121UNL      S 9335   4.730   1.723   0.899  0.0000  0.0000  0.0000
 2121UNL      O 9336   4.544   1.331   1.140  0.0000  0.0000  0.0000
 2121UNL      C 9337   4.517   1.516   1.357  0.0000  0.0000  0.0000
 2122UNL      C 9338   4.490   1.597   1.474  0.0000  0.0000  0.0000
 2122UNL      C 9339   4.491   1.734   1.481  0.0000  0.0000  0.0000
 2122UNL      C 9340   4.457   1.529   1.594  0.0000  0.0000  0.0000
 2122UNL      C 9341   4.464   1.805   1.599  0.0000  0.0000  0.0000
 2122UNL      C 9342   4.432   1.743   1.720  0.0000  0.0000  0.0000
 2122UNL      C 9343   4.428   1.600   1.715  0.0000  0.0000  0.0000
 2122UNL      N 9344   4.447   1.394   1.608  0.0000  0.0000  0.0000
 2122UNL      N 9345   4.397   1.518   1.819  0.0000  0.0000  0.0000
 2122UNL      S 9346   4.404   1.367   1.762  0.0000  0.0000  0.0000
 2123UNL      C 9347   4.401   1.819   1.839  0.0000  0.0000  0.0000
 2123UNL      C 9348   4.395   1.956   1.852  0.0000  0.0000  0.0000
 2123UNL      C 9349   4.353   1.997   1.979  0.0000  0.0000  0.0000
 2123UNL      C 9350   4.328   1.891   2.062  0.0000  0.0000  0.0000
 2123UNL      S 9351   4.355   1.740   1.989  0.0000  0.0000  0.0000
 2124UNL      C 9352   4.277   1.936   2.191  0.0000  0.0000  0.0000
 2124UNL      C 9353   4.272   2.077   2.184  0.0000  0.0000  0.0000
 2125UNL      C 9354   4.324   2.130   2.047  0.0000  0.0000  0.0000
 2126UNL      C 9355   4.225   2.150   2.290  0.0000  0.0000  0.0000
 2127UNL      C 9356   4.451   2.215   2.069  0.0000  0.0000  0.0000
 2127UNL      C 9357   4.216   2.209   1.973  0.0000  0.0000  0.0000
 2127UNL      C 9358   4.090   2.137   1.939  0.0000  0.0000  0.0000
 2127UNL      C 9359   4.564   2.145   2.141  0.0000  0.0000  0.0000
 2127UNL      C 9360   3.986   2.226   1.879  0.0000  0.0000  0.0000
 2127UNL      C 9361   3.858   2.156   1.842  0.0000  0.0000  0.0000
 2127UNL      C 9362   3.744   2.236   1.786  0.0000  0.0000  0.0000
 2127UNL      C 9363   3.722   2.383   1.808  0.0000  0.0000  0.0000
 2127UNL      C 9364   3.614   2.486   1.810  0.0000  0.0000  0.0000
 2127UNL      C 9365   3.635   2.608   1.725  0.0000  0.0000  0.0000
 2127UNL      C 9366   4.690   2.225   2.164  0.0000  0.0000  0.0000
 2127UNL      C 9367   4.792   2.145   2.241  0.0000  0.0000  0.0000
 2127UNL      C 9368   4.927   2.210   2.261  0.0000  0.0000  0.0000
 2127UNL      C 9369   5.023   2.119   2.332  0.0000  0.0000  0.0000
 2127UNL      C 9370   5.155   2.189   2.356  0.0000  0.0000  0.0000
 2127UNL      C 9371   5.241   2.190   2.233  0.0000  0.0000  0.0000
 2128UNL      C 9372   4.238   1.867   2.303  0.0000  0.0000  0.0000
 2128UNL      C 9373   4.191   1.939   2.410  0.0000  0.0000  0.0000
 2129UNL      C 9374   4.530   1.410   0.811  0.0000  0.0000  0.0000
 2130UNL      C 9375   4.185   2.081   2.404  0.0000  0.0000  0.0000
 2131UNL      C 9376   4.131   2.125   2.532  0.0000  0.0000  0.0000
 2132UNL      C 9377   4.141   1.887   2.545  0.0000  0.0000  0.0000
 2133UNL      C 9378   4.105   2.017   2.613  0.0000  0.0000  0.0000
 2134UNL      C 9379   4.253   1.812   2.621  0.0000  0.0000  0.0000
 2134UNL      C 9380   4.018   1.794   2.528  0.0000  0.0000  0.0000
 2135UNL      S 9381   4.095   2.274   2.609  0.0000  0.0000  0.0000
 2135UNL      C 9382   4.046   2.191   2.754  0.0000  0.0000  0.0000
 2135UNL      C 9383   4.057   2.054   2.739  0.0000  0.0000  0.0000
 2136UNL      C 9384   4.005   2.259   2.874  0.0000  0.0000  0.0000
 2136UNL      C 9385   3.963   2.188   2.985  0.0000  0.0000  0.0000
 2136UNL      C 9386   3.933   2.249   3.111  0.0000  0.0000  0.0000
 2136UNL      C 9387   3.939   2.386   3.129  0.0000  0.0000  0.0000
 2136UNL      C 9388   4.008   2.402   2.889  0.0000  0.0000  0.0000
 2136UNL      C 9389   3.975   2.463   3.014  0.0000  0.0000  0.0000
 2137UNL      C 9390   3.913   2.455   3.277  0.0000  0.0000  0.0000
 2138UNL      N 9391   4.043   2.490   2.794  0.0000  0.0000  0.0000
 2138UNL      N 9392   3.988   2.599   3.010  0.0000  0.0000  0.0000
 2138UNL      S 9393   4.034   2.636   2.862  0.0000  0.0000  0.0000
 2139UNL      C 9394   3.880   2.405   3.398  0.0000  0.0000  0.0000
 2139UNL      S 9395   3.853   2.240   3.450  0.0000  0.0000  0.0000
 2139UNL      C 9396   3.865   2.495   3.513  0.0000  0.0000  0.0000
 2139UNL      O 9397   3.879   2.616   3.511  0.0000  0.0000  0.0000
 2139UNL      N 9398   3.831   2.425   3.628  0.0000  0.0000  0.0000
 2139UNL      C 9399   3.820   2.288   3.616  0.0000  0.0000  0.0000
 2139UNL      C 9400   3.818   2.493   3.757  0.0000  0.0000  0.0000
 2139UNL      C 9401   3.950   2.502   3.826  0.0000  0.0000  0.0000
 2139UNL      S 9402   3.783   2.182   3.732  0.0000  0.0000  0.0000
 2140UNL      C 9403   3.902   1.856   2.457  0.0000  0.0000  0.0000
 2140UNL      C 9404   3.776   1.768   2.446  0.0000  0.0000  0.0000
 2140UNL      C 9405   3.708   1.740   2.581  0.0000  0.0000  0.0000
 2140UNL      C 9406   3.641   1.863   2.645  0.0000  0.0000  0.0000
 2140UNL      C 9407   3.563   1.848   2.777  0.0000  0.0000  0.0000
 2140UNL      C 9408   3.661   1.829   2.895  0.0000  0.0000  0.0000
 2140UNL      C 9409   3.579   1.808   3.022  0.0000  0.0000  0.0000
 2140UNL      C 9410   4.379   1.895   2.647  0.0000  0.0000  0.0000
 2140UNL      C 9411   4.480   1.837   2.742  0.0000  0.0000  0.0000
 2140UNL      C 9412   4.430   1.844   2.888  0.0000  0.0000  0.0000
 2140UNL      C 9413   4.540   1.804   2.993  0.0000  0.0000  0.0000
 2140UNL      C 9414   4.479   1.814   3.135  0.0000  0.0000  0.0000
 2140UNL      C 9415   4.588   1.786   3.240  0.0000  0.0000  0.0000
 2140UNL      C 9416   4.538   1.818   3.387  0.0000  0.0000  0.0000
 2141UNL      C 9417   4.472   2.239   3.765  0.0000  0.0000  0.0000
 2141UNL      C 9418   4.486   2.344   3.662  0.0000  0.0000  0.0000
 2141UNL      N 9419   4.416   2.294   3.882  0.0000  0.0000  0.0000
 2141UNL      S 9420   4.431   2.496   3.724  0.0000  0.0000  0.0000
 2141UNL      C 9421   4.386   2.428   3.879  0.0000  0.0000  0.0000
 2141UNL      C 9422   4.394   2.207   3.998  0.0000  0.0000  0.0000
 2141UNL      S 9423   4.319   2.516   3.997  0.0000  0.0000  0.0000
 2141UNL      O 9424   4.504   2.123   3.756  0.0000  0.0000  0.0000
 2141UNL      C 9425   4.532   2.309   3.539  0.0000  0.0000  0.0000
 2142UNL      C 9426   4.559   2.390   3.422  0.0000  0.0000  0.0000
 2142UNL      C 9427   4.558   2.527   3.415  0.0000  0.0000  0.0000
 2142UNL      C 9428   4.592   2.322   3.302  0.0000  0.0000  0.0000
 2142UNL      C 9429   4.585   2.597   3.297  0.0000  0.0000  0.0000
 2142UNL      C 9430   4.617   2.536   3.153  0.0000  0.0000  0.0000
 2142UNL      C 9431   4.621   2.392   3.158  0.0000  0.0000  0.0000
 2142UNL      N 9432   4.602   2.187   3.288  0.0000  0.0000  0.0000
 2142UNL      N 9433   4.652   2.310   3.054  0.0000  0.0000  0.0000
 2142UNL      S 9434   4.645   2.159   3.111  0.0000  0.0000  0.0000
 2143UNL      C 9435   4.649   2.611   3.034  0.0000  0.0000  0.0000
 2143UNL      C 9436   4.654   2.749   3.021  0.0000  0.0000  0.0000
 2143UNL      C 9437   4.696   2.789   2.893  0.0000  0.0000  0.0000
 2143UNL      C 9438   4.721   2.684   2.810  0.0000  0.0000  0.0000
 2143UNL      S 9439   4.694   2.533   2.884  0.0000  0.0000  0.0000
 2144UNL      C 9440   4.772   2.729   2.682  0.0000  0.0000  0.0000
 2144UNL      C 9441   4.777   2.870   2.689  0.0000  0.0000  0.0000
 2145UNL      C 9442   4.725   2.922   2.825  0.0000  0.0000  0.0000
 2146UNL      C 9443   4.824   2.943   2.583  0.0000  0.0000  0.0000
 2147UNL      C 9444   4.598   3.007   2.804  0.0000  0.0000  0.0000
 2147UNL      C 9445   4.833   3.002   2.899  0.0000  0.0000  0.0000
 2147UNL      C 9446   4.959   2.929   2.933  0.0000  0.0000  0.0000
 2147UNL      C 9447   4.485   2.937   2.732  0.0000  0.0000  0.0000
 2147UNL      C 9448   5.063   3.018   2.994  0.0000  0.0000  0.0000
 2147UNL      C 9449   5.191   2.949   3.030  0.0000  0.0000  0.0000
 2147UNL      C 9450   5.305   3.028   3.087  0.0000  0.0000  0.0000
 2147UNL      C 9451   5.327   3.175   3.065  0.0000  0.0000  0.0000
 2147UNL      C 9452   5.435   3.279   3.063  0.0000  0.0000  0.0000
 2147UNL      C 9453   5.414   3.400   3.147  0.0000  0.0000  0.0000
 2147UNL      C 9454   4.360   3.017   2.708  0.0000  0.0000  0.0000
 2147UNL      C 9455   4.257   2.938   2.632  0.0000  0.0000  0.0000
 2147UNL      C 9456   4.122   3.003   2.611  0.0000  0.0000  0.0000
 2147UNL      C 9457   4.026   2.912   2.540  0.0000  0.0000  0.0000
 2147UNL      C 9458   3.894   2.981   2.516  0.0000  0.0000  0.0000
 2147UNL      C 9459   3.808   2.983   2.640  0.0000  0.0000  0.0000
 2148UNL      C 9460   4.811   2.660   2.569  0.0000  0.0000  0.0000
 2148UNL      C 9461   4.858   2.732   2.463  0.0000  0.0000  0.0000
 2149UNL      C 9462   4.519   2.202   4.085  0.0000  0.0000  0.0000
 2150UNL      C 9463   4.864   2.874   2.469  0.0000  0.0000  0.0000
 2151UNL      C 9464   4.918   2.918   2.340  0.0000  0.0000  0.0000
 2152UNL      C 9465   4.908   2.679   2.328  0.0000  0.0000  0.0000
 2153UNL      C 9466   4.944   2.810   2.260  0.0000  0.0000  0.0000
 2154UNL      C 9467   4.796   2.604   2.252  0.0000  0.0000  0.0000
 2154UNL      C 9468   5.031   2.586   2.345  0.0000  0.0000  0.0000
 2155UNL      S 9469   4.954   3.066   2.264  0.0000  0.0000  0.0000
 2155UNL      C 9470   5.004   2.983   2.118  0.0000  0.0000  0.0000
 2155UNL      C 9471   4.993   2.846   2.134  0.0000  0.0000  0.0000
 2156UNL      C 9472   5.044   3.052   1.998  0.0000  0.0000  0.0000
 2156UNL      C 9473   5.086   2.980   1.887  0.0000  0.0000  0.0000
 2156UNL      C 9474   5.116   3.042   1.762  0.0000  0.0000  0.0000
 2156UNL      C 9475   5.110   3.178   1.743  0.0000  0.0000  0.0000
 2156UNL      C 9476   5.041   3.194   1.983  0.0000  0.0000  0.0000
 2156UNL      C 9477   5.074   3.256   1.859  0.0000  0.0000  0.0000
 2157UNL      C 9478   5.136   3.247   1.619  0.0000  0.0000  0.0000
 2158UNL      N 9479   5.006   3.283   2.079  0.0000  0.0000  0.0000
 2158UNL      N 9480   5.061   3.391   1.862  0.0000  0.0000  0.0000
 2158UNL      S 9481   5.016   3.428   2.011  0.0000  0.0000  0.0000
 2159UNL      C 9482   5.169   3.197   1.498  0.0000  0.0000  0.0000
 2159UNL      S 9483   5.196   3.033   1.446  0.0000  0.0000  0.0000
 2159UNL      C 9484   5.183   3.288   1.383  0.0000  0.0000  0.0000
 2159UNL      O 9485   5.170   3.408   1.385  0.0000  0.0000  0.0000
 2159UNL      N 9486   5.218   3.217   1.268  0.0000  0.0000  0.0000
 2159UNL      C 9487   5.229   3.080   1.280  0.0000  0.0000  0.0000
 2159UNL      C 9488   5.231   3.286   1.140  0.0000  0.0000  0.0000
 2159UNL      C 9489   5.099   3.294   1.070  0.0000  0.0000  0.0000
 2159UNL      S 9490   5.266   2.975   1.164  0.0000  0.0000  0.0000
 2160UNL      C 9491   5.147   2.648   2.415  0.0000  0.0000  0.0000
 2160UNL      C 9492   5.273   2.560   2.427  0.0000  0.0000  0.0000
 2160UNL      C 9493   5.341   2.533   2.292  0.0000  0.0000  0.0000
 2160UNL      C 9494   5.408   2.655   2.227  0.0000  0.0000  0.0000
 2160UNL      C 9495   5.486   2.640   2.095  0.0000  0.0000  0.0000
 2160UNL      C 9496   5.388   2.622   1.978  0.0000  0.0000  0.0000
 2160UNL      C 9497   5.471   2.600   1.850  0.0000  0.0000  0.0000
 2160UNL      C 9498   4.670   2.687   2.226  0.0000  0.0000  0.0000
 2160UNL      C 9499   4.569   2.629   2.131  0.0000  0.0000  0.0000
 2160UNL      C 9500   4.619   2.636   1.985  0.0000  0.0000  0.0000
 2160UNL      C 9501   4.509   2.596   1.880  0.0000  0.0000  0.0000
 2160UNL      C 9502   4.570   2.607   1.738  0.0000  0.0000  0.0000
 2160UNL      C 9503   4.461   2.578   1.632  0.0000  0.0000  0.0000
 2160UNL      C 9504   4.511   2.610   1.485  0.0000  0.0000  0.0000
 2161UNL      C 9505   4.277   3.309   5.366  0.0000  0.0000  0.0000
 2161UNL      C 9506   4.292   3.203   5.263  0.0000  0.0000  0.0000
 2161UNL      N 9507   4.221   3.254   5.482  0.0000  0.0000  0.0000
 2161UNL      S 9508   4.236   3.051   5.324  0.0000  0.0000  0.0000
 2161UNL      C 9509   4.191   3.120   5.479  0.0000  0.0000  0.0000
 2161UNL      C 9510   4.199   3.340   5.599  0.0000  0.0000  0.0000
 2161UNL      S 9511   4.124   3.032   5.598  0.0000  0.0000  0.0000
 2161UNL      O 9512   4.310   3.424   5.356  0.0000  0.0000  0.0000
 2161UNL      C 9513   4.337   3.239   5.139  0.0000  0.0000  0.0000
 2162UNL      C 9514   4.364   3.158   5.023  0.0000  0.0000  0.0000
 2162UNL      C 9515   4.363   3.021   5.016  0.0000  0.0000  0.0000
 2162UNL      C 9516   4.398   3.226   4.902  0.0000  0.0000  0.0000
 2162UNL      C 9517   4.390   2.950   4.897  0.0000  0.0000  0.0000
 2162UNL      C 9518   4.422   3.011   4.776  0.0000  0.0000  0.0000
 2162UNL      C 9519   4.426   3.155   4.781  0.0000  0.0000  0.0000
 2162UNL      N 9520   4.407   3.360   4.888  0.0000  0.0000  0.0000
 2162UNL      N 9521   4.457   3.237   4.678  0.0000  0.0000  0.0000
 2162UNL      S 9522   4.450   3.388   4.734  0.0000  0.0000  0.0000
 2163UNL      C 9523   4.454   2.936   4.658  0.0000  0.0000  0.0000
 2163UNL      C 9524   4.459   2.799   4.645  0.0000  0.0000  0.0000
 2163UNL      C 9525   4.501   2.758   4.517  0.0000  0.0000  0.0000
 2163UNL      C 9526   4.526   2.864   4.434  0.0000  0.0000  0.0000
 2163UNL      S 9527   4.499   3.014   4.508  0.0000  0.0000  0.0000
 2164UNL      C 9528   4.577   2.818   4.306  0.0000  0.0000  0.0000
 2164UNL      C 9529   4.582   2.678   4.313  0.0000  0.0000  0.0000
 2165UNL      C 9530   4.531   2.625   4.449  0.0000  0.0000  0.0000
 2166UNL      C 9531   4.629   2.605   4.206  0.0000  0.0000  0.0000
 2167UNL      C 9532   4.403   2.540   4.428  0.0000  0.0000  0.0000
 2167UNL      C 9533   4.638   2.545   4.523  0.0000  0.0000  0.0000
 2167UNL      C 9534   4.764   2.618   4.557  0.0000  0.0000  0.0000
 2167UNL      C 9535   4.291   2.610   4.356  0.0000  0.0000  0.0000
 2167UNL      C 9536   4.869   2.529   4.618  0.0000  0.0000  0.0000
 2167UNL      C 9537   4.996   2.599   4.654  0.0000  0.0000  0.0000
 2167UNL      C 9538   5.110   2.519   4.710  0.0000  0.0000  0.0000
 2167UNL      C 9539   5.132   2.372   4.689  0.0000  0.0000  0.0000
 2167UNL      C 9540   5.240   2.268   4.686  0.0000  0.0000  0.0000
 2167UNL      C 9541   5.219   2.147   4.771  0.0000  0.0000  0.0000
 2167UNL      C 9542   4.165   2.530   4.332  0.0000  0.0000  0.0000
 2167UNL      C 9543   4.062   2.610   4.256  0.0000  0.0000  0.0000
 2167UNL      C 9544   3.928   2.545   4.235  0.0000  0.0000  0.0000
 2167UNL      C 9545   3.831   2.636   4.164  0.0000  0.0000  0.0000
 2167UNL      C 9546   3.700   2.566   4.140  0.0000  0.0000  0.0000
 2167UNL      C 9547   3.613   2.564   4.264  0.0000  0.0000  0.0000
 2168UNL      C 9548   4.616   2.887   4.193  0.0000  0.0000  0.0000
 2168UNL      C 9549   4.663   2.815   4.086  0.0000  0.0000  0.0000
 2169UNL      C 9550   4.324   3.345   5.686  0.0000  0.0000  0.0000
 2170UNL      C 9551   4.669   2.674   4.093  0.0000  0.0000  0.0000
 2171UNL      C 9552   4.723   2.629   3.964  0.0000  0.0000  0.0000
 2172UNL      C 9553   4.713   2.868   3.951  0.0000  0.0000  0.0000
 2173UNL      C 9554   4.749   2.738   3.883  0.0000  0.0000  0.0000
 2174UNL      C 9555   4.601   2.943   3.876  0.0000  0.0000  0.0000
 2174UNL      C 9556   4.836   2.961   3.969  0.0000  0.0000  0.0000
 2175UNL      S 9557   4.759   2.481   3.888  0.0000  0.0000  0.0000
 2175UNL      C 9558   4.809   2.564   3.742  0.0000  0.0000  0.0000
 2175UNL      C 9559   4.798   2.701   3.758  0.0000  0.0000  0.0000
 2176UNL      C 9560   4.849   2.495   3.622  0.0000  0.0000  0.0000
 2176UNL      C 9561   4.892   2.567   3.511  0.0000  0.0000  0.0000
 2176UNL      C 9562   4.921   2.505   3.386  0.0000  0.0000  0.0000
 2176UNL      C 9563   4.915   2.369   3.367  0.0000  0.0000  0.0000
 2176UNL      C 9564   4.846   2.353   3.607  0.0000  0.0000  0.0000
 2176UNL      C 9565   4.879   2.291   3.483  0.0000  0.0000  0.0000
 2177UNL      C 9566   4.941   2.300   3.219  0.0000  0.0000  0.0000
 2178UNL      N 9567   4.811   2.264   3.702  0.0000  0.0000  0.0000
 2178UNL      N 9568   4.866   2.156   3.486  0.0000  0.0000  0.0000
 2178UNL      S 9569   4.821   2.119   3.635  0.0000  0.0000  0.0000
 2179UNL      C 9570   4.974   2.350   3.098  0.0000  0.0000  0.0000
 2179UNL      S 9571   5.002   2.514   3.047  0.0000  0.0000  0.0000
 2179UNL      C 9572   4.989   2.260   2.984  0.0000  0.0000  0.0000
 2179UNL      O 9573   4.975   2.139   2.985  0.0000  0.0000  0.0000
 2179UNL      N 9574   5.024   2.330   2.869  0.0000  0.0000  0.0000
 2179UNL      C 9575   5.035   2.467   2.880  0.0000  0.0000  0.0000
 2179UNL      C 9576   5.036   2.262   2.740  0.0000  0.0000  0.0000
 2179UNL      C 9577   4.905   2.253   2.670  0.0000  0.0000  0.0000
 2179UNL      S 9578   5.071   2.573   2.765  0.0000  0.0000  0.0000
 2180UNL      C 9579   4.952   2.899   4.039  0.0000  0.0000  0.0000
 2180UNL      C 9580   5.078   2.987   4.051  0.0000  0.0000  0.0000
 2180UNL      C 9581   5.146   3.014   3.916  0.0000  0.0000  0.0000
 2180UNL      C 9582   5.213   2.892   3.851  0.0000  0.0000  0.0000
 2180UNL      C 9583   5.291   2.907   3.719  0.0000  0.0000  0.0000
 2180UNL      C 9584   5.193   2.926   3.602  0.0000  0.0000  0.0000
 2180UNL      C 9585   5.276   2.947   3.474  0.0000  0.0000  0.0000
 2180UNL      C 9586   4.475   2.860   3.849  0.0000  0.0000  0.0000
 2180UNL      C 9587   4.374   2.918   3.755  0.0000  0.0000  0.0000
 2180UNL      C 9588   4.424   2.911   3.609  0.0000  0.0000  0.0000
 2180UNL      C 9589   4.315   2.951   3.504  0.0000  0.0000  0.0000
 2180UNL      C 9590   4.375   2.940   3.362  0.0000  0.0000  0.0000
 2180UNL      C 9591   4.266   2.969   3.256  0.0000  0.0000  0.0000
 2180UNL      C 9592   4.316   2.937   3.109  0.0000  0.0000  0.0000
 2181UNL      C 9593   4.382   2.516   2.731  0.0000  0.0000  0.0000
 2181UNL      C 9594   4.368   2.411   2.834  0.0000  0.0000  0.0000
 2181UNL      N 9595   4.438   2.461   2.615  0.0000  0.0000  0.0000
 2181UNL      S 9596   4.423   2.259   2.773  0.0000  0.0000  0.0000
 2181UNL      C 9597   4.468   2.327   2.618  0.0000  0.0000  0.0000
 2181UNL      C 9598   4.461   2.548   2.498  0.0000  0.0000  0.0000
 2181UNL      S 9599   4.535   2.239   2.499  0.0000  0.0000  0.0000
 2181UNL      O 9600   4.350   2.631   2.741  0.0000  0.0000  0.0000
 2181UNL      C 9601   4.322   2.446   2.958  0.0000  0.0000  0.0000
 2182UNL      C 9602   4.295   2.365   3.074  0.0000  0.0000  0.0000
 2182UNL      C 9603   4.297   2.228   3.081  0.0000  0.0000  0.0000
 2182UNL      C 9604   4.262   2.433   3.194  0.0000  0.0000  0.0000
 2182UNL      C 9605   4.269   2.158   3.200  0.0000  0.0000  0.0000
 2182UNL      C 9606   4.237   2.219   3.344  0.0000  0.0000  0.0000
 2182UNL      C 9607   4.234   2.363   3.339  0.0000  0.0000  0.0000
 2182UNL      N 9608   4.252   2.568   3.209  0.0000  0.0000  0.0000
 2182UNL      N 9609   4.202   2.444   3.442  0.0000  0.0000  0.0000
 2182UNL      S 9610   4.209   2.596   3.386  0.0000  0.0000  0.0000
 2183UNL      C 9611   4.206   2.143   3.462  0.0000  0.0000  0.0000
 2183UNL      C 9612   4.200   2.006   3.475  0.0000  0.0000  0.0000
 2183UNL      C 9613   4.158   1.965   3.603  0.0000  0.0000  0.0000
 2183UNL      C 9614   4.133   2.071   3.686  0.0000  0.0000  0.0000
 2183UNL      S 9615   4.160   2.222   3.612  0.0000  0.0000  0.0000
 2184UNL      C 9616   4.083   2.026   3.815  0.0000  0.0000  0.0000
 2184UNL      C 9617   4.077   1.885   3.807  0.0000  0.0000  0.0000
 2185UNL      C 9618   4.129   1.833   3.671  0.0000  0.0000  0.0000
 2186UNL      C 9619   4.030   1.812   3.914  0.0000  0.0000  0.0000
 2187UNL      C 9620   4.256   1.748   3.692  0.0000  0.0000  0.0000
 2187UNL      C 9621   4.021   1.753   3.597  0.0000  0.0000  0.0000
 2187UNL      C 9622   3.895   1.826   3.563  0.0000  0.0000  0.0000
 2187UNL      C 9623   4.369   1.818   3.764  0.0000  0.0000  0.0000
 2187UNL      C 9624   3.791   1.737   3.503  0.0000  0.0000  0.0000
 2187UNL      C 9625   3.663   1.806   3.466  0.0000  0.0000  0.0000
 2187UNL      C 9626   3.549   1.726   3.410  0.0000  0.0000  0.0000
 2187UNL      C 9627   3.527   1.580   3.432  0.0000  0.0000  0.0000
 2187UNL      C 9628   3.419   1.476   3.434  0.0000  0.0000  0.0000
 2187UNL      C 9629   3.440   1.354   3.349  0.0000  0.0000  0.0000
 2187UNL      C 9630   4.495   1.738   3.788  0.0000  0.0000  0.0000
 2187UNL      C 9631   4.597   1.817   3.865  0.0000  0.0000  0.0000
 2187UNL      C 9632   4.732   1.752   3.885  0.0000  0.0000  0.0000
 2187UNL      C 9633   4.828   1.843   3.956  0.0000  0.0000  0.0000
 2187UNL      C 9634   4.960   1.774   3.980  0.0000  0.0000  0.0000
 2187UNL      C 9635   5.046   1.772   3.856  0.0000  0.0000  0.0000
 2188UNL      C 9636   4.044   2.095   3.927  0.0000  0.0000  0.0000
 2188UNL      C 9637   3.996   2.023   4.034  0.0000  0.0000  0.0000
 2189UNL      C 9638   4.335   2.552   2.411  0.0000  0.0000  0.0000
 2190UNL      C 9639   3.990   1.881   4.028  0.0000  0.0000  0.0000
 2191UNL      C 9640   3.936   1.837   4.156  0.0000  0.0000  0.0000
 2192UNL      C 9641   3.946   2.076   4.169  0.0000  0.0000  0.0000
 2193UNL      C 9642   3.910   1.945   4.237  0.0000  0.0000  0.0000
 2194UNL      C 9643   4.058   2.151   4.244  0.0000  0.0000  0.0000
 2194UNL      C 9644   3.823   2.169   4.151  0.0000  0.0000  0.0000
 2195UNL      S 9645   3.901   1.689   4.232  0.0000  0.0000  0.0000
 2195UNL      C 9646   3.851   1.772   4.378  0.0000  0.0000  0.0000
 2195UNL      C 9647   3.862   1.909   4.363  0.0000  0.0000  0.0000
 2196UNL      C 9648   3.810   1.703   4.498  0.0000  0.0000  0.0000
 2196UNL      C 9649   3.768   1.775   4.609  0.0000  0.0000  0.0000
 2196UNL      C 9650   3.738   1.713   4.735  0.0000  0.0000  0.0000
 2196UNL      C 9651   3.744   1.576   4.753  0.0000  0.0000  0.0000
 2196UNL      C 9652   3.813   1.561   4.513  0.0000  0.0000  0.0000
 2196UNL      C 9653   3.780   1.499   4.638  0.0000  0.0000  0.0000
 2197UNL      C 9654   3.718   1.507   4.877  0.0000  0.0000  0.0000
 2198UNL      N 9655   3.848   1.472   4.418  0.0000  0.0000  0.0000
 2198UNL      N 9656   3.793   1.364   4.634  0.0000  0.0000  0.0000
 2198UNL      S 9657   3.839   1.327   4.485  0.0000  0.0000  0.0000
 2199UNL      C 9658   3.685   1.558   4.999  0.0000  0.0000  0.0000
 2199UNL      S 9659   3.658   1.722   5.050  0.0000  0.0000  0.0000
 2199UNL      C 9660   3.671   1.467   5.113  0.0000  0.0000  0.0000
 2199UNL      O 9661   3.684   1.347   5.112  0.0000  0.0000  0.0000
 2199UNL      N 9662   3.636   1.538   5.228  0.0000  0.0000  0.0000
 2199UNL      C 9663   3.625   1.675   5.217  0.0000  0.0000  0.0000
 2199UNL      C 9664   3.624   1.469   5.357  0.0000  0.0000  0.0000
 2199UNL      C 9665   3.755   1.460   5.427  0.0000  0.0000  0.0000
 2199UNL      S 9666   3.588   1.780   5.332  0.0000  0.0000  0.0000
 2200UNL      C 9667   3.707   2.106   4.081  0.0000  0.0000  0.0000
 2200UNL      C 9668   3.581   2.195   4.070  0.0000  0.0000  0.0000
 2200UNL      C 9669   3.513   2.222   4.205  0.0000  0.0000  0.0000
 2200UNL      C 9670   3.446   2.099   4.269  0.0000  0.0000  0.0000
 2200UNL      C 9671   3.369   2.115   4.401  0.0000  0.0000  0.0000
 2200UNL      C 9672   3.466   2.133   4.518  0.0000  0.0000  0.0000
 2200UNL      C 9673   3.384   2.155   4.646  0.0000  0.0000  0.0000
 2200UNL      C 9674   4.184   2.067   4.271  0.0000  0.0000  0.0000
 2200UNL      C 9675   4.285   2.126   4.365  0.0000  0.0000  0.0000
 2200UNL      C 9676   4.235   2.119   4.512  0.0000  0.0000  0.0000
 2200UNL      C 9677   4.345   2.158   4.616  0.0000  0.0000  0.0000
 2200UNL      C 9678   4.284   2.148   4.758  0.0000  0.0000  0.0000
 2200UNL      C 9679   4.393   2.176   4.864  0.0000  0.0000  0.0000
 2200UNL      C 9680   4.343   2.144   5.011  0.0000  0.0000  0.0000
 2201UNL      C 9681   4.187   1.446   4.379  0.0000  0.0000  0.0000
 2201UNL      C 9682   4.172   1.551   4.482  0.0000  0.0000  0.0000
 2201UNL      N 9683   4.243   1.501   4.262  0.0000  0.0000  0.0000
 2201UNL      S 9684   4.228   1.704   4.420  0.0000  0.0000  0.0000
 2201UNL      C 9685   4.273   1.635   4.265  0.0000  0.0000  0.0000
 2201UNL      C 9686   4.265   1.415   4.146  0.0000  0.0000  0.0000
 2201UNL      S 9687   4.340   1.723   4.147  0.0000  0.0000  0.0000
 2201UNL      O 9688   4.154   1.331   4.388  0.0000  0.0000  0.0000
 2201UNL      C 9689   4.127   1.516   4.605  0.0000  0.0000  0.0000
 2202UNL      C 9690   4.100   1.597   4.722  0.0000  0.0000  0.0000
 2202UNL      C 9691   4.101   1.734   4.729  0.0000  0.0000  0.0000
 2202UNL      C 9692   4.067   1.529   4.842  0.0000  0.0000  0.0000
 2202UNL      C 9693   4.074   1.805   4.847  0.0000  0.0000  0.0000
 2202UNL      C 9694   4.042   1.743   4.968  0.0000  0.0000  0.0000
 2202UNL      C 9695   4.038   1.600   4.963  0.0000  0.0000  0.0000
 2202UNL      N 9696   4.057   1.394   4.856  0.0000  0.0000  0.0000
 2202UNL      N 9697   4.007   1.518   5.067  0.0000  0.0000  0.0000
 2202UNL      S 9698   4.014   1.367   5.010  0.0000  0.0000  0.0000
 2203UNL      C 9699   4.011   1.819   5.087  0.0000  0.0000  0.0000
 2203UNL      C 9700   4.005   1.956   5.100  0.0000  0.0000  0.0000
 2203UNL      C 9701   3.963   1.997   5.227  0.0000  0.0000  0.0000
 2203UNL      C 9702   3.938   1.891   5.310  0.0000  0.0000  0.0000
 2203UNL      S 9703   3.965   1.740   5.237  0.0000  0.0000  0.0000
 2204UNL      C 9704   3.887   1.936   5.439  0.0000  0.0000  0.0000
 2204UNL      C 9705   3.882   2.077   5.432  0.0000  0.0000  0.0000
 2205UNL      C 9706   3.934   2.130   5.295  0.0000  0.0000  0.0000
 2206UNL      C 9707   3.835   2.150   5.538  0.0000  0.0000  0.0000
 2207UNL      C 9708   4.061   2.215   5.317  0.0000  0.0000  0.0000
 2207UNL      C 9709   3.826   2.209   5.221  0.0000  0.0000  0.0000
 2207UNL      C 9710   3.700   2.137   5.187  0.0000  0.0000  0.0000
 2207UNL      C 9711   4.174   2.145   5.389  0.0000  0.0000  0.0000
 2207UNL      C 9712   3.596   2.226   5.127  0.0000  0.0000  0.0000
 2207UNL      C 9713   3.468   2.156   5.090  0.0000  0.0000  0.0000
 2207UNL      C 9714   3.354   2.236   5.034  0.0000  0.0000  0.0000
 2207UNL      C 9715   3.332   2.383   5.056  0.0000  0.0000  0.0000
 2207UNL      C 9716   3.224   2.486   5.058  0.0000  0.0000  0.0000
 2207UNL      C 9717   3.245   2.608   4.973  0.0000  0.0000  0.0000
 2207UNL      C 9718   4.300   2.225   5.412  0.0000  0.0000  0.0000
 2207UNL      C 9719   4.402   2.145   5.489  0.0000  0.0000  0.0000
 2207UNL      C 9720   4.537   2.210   5.509  0.0000  0.0000  0.0000
 2207UNL      C 9721   4.633   2.119   5.580  0.0000  0.0000  0.0000
 2207UNL      C 9722   4.765   2.189   5.604  0.0000  0.0000  0.0000
 2207UNL      C 9723   4.851   2.190   5.481  0.0000  0.0000  0.0000
 2208UNL      C 9724   3.848   1.867   5.551  0.0000  0.0000  0.0000
 2208UNL      C 9725   3.801   1.939   5.658  0.0000  0.0000  0.0000
 2209UNL      C 9726   4.140   1.410   4.059  0.0000  0.0000  0.0000
 2210UNL      C 9727   3.795   2.081   5.652  0.0000  0.0000  0.0000
 2211UNL      C 9728   3.741   2.125   5.780  0.0000  0.0000  0.0000
 2212UNL      C 9729   3.751   1.887   5.793  0.0000  0.0000  0.0000
 2213UNL      C 9730   3.715   2.017   5.861  0.0000  0.0000  0.0000
 2214UNL      C 9731   3.863   1.812   5.869  0.0000  0.0000  0.0000
 2214UNL      C 9732   3.628   1.794   5.776  0.0000  0.0000  0.0000
 2215UNL      S 9733   3.705   2.274   5.857  0.0000  0.0000  0.0000
 2215UNL      C 9734   3.656   2.191   6.002  0.0000  0.0000  0.0000
 2215UNL      C 9735   3.667   2.054   5.987  0.0000  0.0000  0.0000
 2216UNL      C 9736   3.615   2.259   6.122  0.0000  0.0000  0.0000
 2216UNL      C 9737   3.573   2.188   6.233  0.0000  0.0000  0.0000
 2216UNL      C 9738   3.543   2.249   6.359  0.0000  0.0000  0.0000
 2216UNL      C 9739   3.549   2.386   6.377  0.0000  0.0000  0.0000
 2216UNL      C 9740   3.618   2.402   6.137  0.0000  0.0000  0.0000
 2216UNL      C 9741   3.585   2.463   6.262  0.0000  0.0000  0.0000
 2217UNL      C 9742   3.523   2.455   6.525  0.0000  0.0000  0.0000
 2218UNL      N 9743   3.653   2.490   6.042  0.0000  0.0000  0.0000
 2218UNL      N 9744   3.598   2.599   6.258  0.0000  0.0000  0.0000
 2218UNL      S 9745   3.644   2.636   6.110  0.0000  0.0000  0.0000
 2219UNL      C 9746   3.490   2.405   6.646  0.0000  0.0000  0.0000
 2219UNL      S 9747   3.463   2.240   6.698  0.0000  0.0000  0.0000
 2219UNL      C 9748   3.475   2.495   6.761  0.0000  0.0000  0.0000
 2219UNL      O 9749   3.489   2.616   6.759  0.0000  0.0000  0.0000
 2219UNL      N 9750   3.441   2.425   6.876  0.0000  0.0000  0.0000
 2219UNL      C 9751   3.430   2.288   6.864  0.0000  0.0000  0.0000
 2219UNL      C 9752   3.428   2.493   7.005  0.0000  0.0000  0.0000
 2219UNL      C 9753   3.560   2.502   7.074  0.0000  0.0000  0.0000
 2219UNL      S 9754   3.393   2.182   6.980  0.0000  0.0000  0.0000
 2220UNL      C 9755   3.512   1.856   5.705  0.0000  0.0000  0.0000
 2220UNL      C 9756   3.386   1.768   5.694  0.0000  0.0000  0.0000
 2220UNL      C 9757   3.318   1.740   5.829  0.0000  0.0000  0.0000
 2220UNL      C 9758   3.251   1.863   5.893  0.0000  0.0000  0.0000
 2220UNL      C 9759   3.173   1.848   6.025  0.0000  0.0000  0.0000
 2220UNL      C 9760   3.271   1.829   6.143  0.0000  0.0000  0.0000
 2220UNL      C 9761   3.189   1.808   6.270  0.0000  0.0000  0.0000
 2220UNL      C 9762   3.989   1.895   5.895  0.0000  0.0000  0.0000
 2220UNL      C 9763   4.090   1.837   5.990  0.0000  0.0000  0.0000
 2220UNL      C 9764   4.040   1.844   6.136  0.0000  0.0000  0.0000
 2220UNL      C 9765   4.150   1.804   6.241  0.0000  0.0000  0.0000
 2220UNL      C 9766   4.089   1.814   6.383  0.0000  0.0000  0.0000
 2220UNL      C 9767   4.198   1.786   6.488  0.0000  0.0000  0.0000
 2220UNL      C 9768   4.148   1.818   6.635  0.0000  0.0000  0.0000
 2221UNL      C 9769   4.082   2.239   7.013  0.0000  0.0000  0.0000
 2221UNL      C 9770   4.096   2.344   6.910  0.0000  0.0000  0.0000
 2221UNL      N 9771   4.026   2.294   7.130  0.0000  0.0000  0.0000
 2221UNL      S 9772   4.041   2.496   6.972  0.0000  0.0000  0.0000
 2221UNL      C 9773   3.996   2.428   7.127  0.0000  0.0000  0.0000
 2221UNL      C 9774   4.004   2.207   7.246  0.0000  0.0000  0.0000
 2221UNL      S 9775   3.929   2.516   7.245  0.0000  0.0000  0.0000
 2221UNL      O 9776   4.114   2.123   7.004  0.0000  0.0000  0.0000
 2221UNL      C 9777   4.142   2.309   6.787  0.0000  0.0000  0.0000
 2222UNL      C 9778   4.169   2.390   6.670  0.0000  0.0000  0.0000
 2222UNL      C 9779   4.168   2.527   6.663  0.0000  0.0000  0.0000
 2222UNL      C 9780   4.202   2.322   6.550  0.0000  0.0000  0.0000
 2222UNL      C 9781   4.195   2.597   6.545  0.0000  0.0000  0.0000
 2222UNL      C 9782   4.227   2.536   6.401  0.0000  0.0000  0.0000
 2222UNL      C 9783   4.231   2.392   6.406  0.0000  0.0000  0.0000
 2222UNL      N 9784   4.212   2.187   6.536  0.0000  0.0000  0.0000
 2222UNL      N 9785   4.262   2.310   6.302  0.0000  0.0000  0.0000
 2222UNL      S 9786   4.255   2.159   6.359  0.0000  0.0000  0.0000
 2223UNL      C 9787   4.259   2.611   6.282  0.0000  0.0000  0.0000
 2223UNL      C 9788   4.264   2.749   6.269  0.0000  0.0000  0.0000
 2223UNL      C 9789   4.306   2.789   6.141  0.0000  0.0000  0.0000
 2223UNL      C 9790   4.331   2.684   6.058  0.0000  0.0000  0.0000
 2223UNL      S 9791   4.304   2.533   6.132  0.0000  0.0000  0.0000
 2224UNL      C 9792   4.382   2.729   5.930  0.0000  0.0000  0.0000
 2224UNL      C 9793   4.387   2.870   5.937  0.0000  0.0000  0.0000
 2225UNL      C 9794   4.335   2.922   6.073  0.0000  0.0000  0.0000
 2226UNL      C 9795   4.434   2.943   5.831  0.0000  0.0000  0.0000
 2227UNL      C 9796   4.208   3.007   6.052  0.0000  0.0000  0.0000
 2227UNL      C 9797   4.443   3.002   6.147  0.0000  0.0000  0.0000
 2227UNL      C 9798   4.569   2.929   6.181  0.0000  0.0000  0.0000
 2227UNL      C 9799   4.095   2.937   5.980  0.0000  0.0000  0.0000
 2227UNL      C 9800   4.673   3.018   6.242  0.0000  0.0000  0.0000
 2227UNL      C 9801   4.801   2.949   6.278  0.0000  0.0000  0.0000
 2227UNL      C 9802   4.915   3.028   6.335  0.0000  0.0000  0.0000
 2227UNL      C 9803   4.937   3.175   6.313  0.0000  0.0000  0.0000
 2227UNL      C 9804   5.045   3.279   6.311  0.0000  0.0000  0.0000
 2227UNL      C 9805   5.024   3.400   6.395  0.0000  0.0000  0.0000
 2227UNL      C 9806   3.970   3.017   5.956  0.0000  0.0000  0.0000
 2227UNL      C 9807   3.867   2.938   5.880  0.0000  0.0000  0.0000
 2227UNL      C 9808   3.732   3.003   5.859  0.0000  0.0000  0.0000
 2227UNL      C 9809   3.636   2.912   5.788  0.0000  0.0000  0.0000
 2227UNL      C 9810   3.504   2.981   5.764  0.0000  0.0000  0.0000
 2227UNL      C 9811   3.418   2.983   5.888  0.0000  0.0000  0.0000
 2228UNL      C 9812   4.421   2.660   5.817  0.0000  0.0000  0.0000
 2228UNL      C 9813   4.468   2.732   5.711  0.0000  0.0000  0.0000
 2229UNL      C 9814   4.129   2.202   7.333  0.0000  0.0000  0.0000
 2230UNL      C 9815   4.474   2.874   5.717  0.0000  0.0000  0.0000
 2231UNL      C 9816   4.528   2.918   5.588  0.0000  0.0000  0.0000
 2232UNL      C 9817   4.518   2.679   5.576  0.0000  0.0000  0.0000
 2233UNL      C 9818   4.554   2.810   5.508  0.0000  0.0000  0.0000
 2234UNL      C 9819   4.406   2.604   5.500  0.0000  0.0000  0.0000
 2234UNL      C 9820   4.641   2.586   5.593  0.0000  0.0000  0.0000
 2235UNL      S 9821   4.564   3.066   5.512  0.0000  0.0000  0.0000
 2235UNL      C 9822   4.614   2.983   5.366  0.0000  0.0000  0.0000
 2235UNL      C 9823   4.603   2.846   5.382  0.0000  0.0000  0.0000
 2236UNL      C 9824   4.654   3.052   5.246  0.0000  0.0000  0.0000
 2236UNL      C 9825   4.696   2.980   5.135  0.0000  0.0000  0.0000
 2236UNL      C 9826   4.726   3.042   5.010  0.0000  0.0000  0.0000
 2236UNL      C 9827   4.720   3.178   4.991  0.0000  0.0000  0.0000
 2236UNL      C 9828   4.651   3.194   5.231  0.0000  0.0000  0.0000
 2236UNL      C 9829   4.684   3.256   5.107  0.0000  0.0000  0.0000
 2237UNL      C 9830   4.746   3.247   4.867  0.0000  0.0000  0.0000
 2238UNL      N 9831   4.616   3.283   5.327  0.0000  0.0000  0.0000
 2238UNL      N 9832   4.671   3.391   5.110  0.0000  0.0000  0.0000
 2238UNL      S 9833   4.626   3.428   5.259  0.0000  0.0000  0.0000
 2239UNL      C 9834   4.779   3.197   4.746  0.0000  0.0000  0.0000
 2239UNL      S 9835   4.806   3.033   4.694  0.0000  0.0000  0.0000
 2239UNL      C 9836   4.793   3.288   4.631  0.0000  0.0000  0.0000
 2239UNL      O 9837   4.780   3.408   4.633  0.0000  0.0000  0.0000
 2239UNL      N 9838   4.828   3.217   4.516  0.0000  0.0000  0.0000
 2239UNL      C 9839   4.839   3.080   4.528  0.0000  0.0000  0.0000
 2239UNL      C 9840   4.841   3.286   4.388  0.0000  0.0000  0.0000
 2239UNL      C 9841   4.709   3.294   4.318  0.0000  0.0000  0.0000
 2239UNL      S 9842   4.876   2.975   4.412  0.0000  0.0000  0.0000
 2240UNL      C 9843   4.757   2.648   5.663  0.0000  0.0000  0.0000
 2240UNL      C 9844   4.883   2.560   5.675  0.0000  0.0000  0.0000
 2240UNL      C 9845   4.951   2.533   5.540  0.0000  0.0000  0.0000
 2240UNL      C 9846   5.018   2.655   5.475  0.0000  0.0000  0.0000
 2240UNL      C 9847   5.096   2.640   5.343  0.0000  0.0000  0.0000
 2240UNL      C 9848   4.998   2.622   5.226  0.0000  0.0000  0.0000
 2240UNL      C 9849   5.081   2.600   5.098  0.0000  0.0000  0.0000
 2240UNL      C 9850   4.280   2.687   5.474  0.0000  0.0000  0.0000
 2240UNL      C 9851   4.179   2.629   5.379  0.0000  0.0000  0.0000
 2240UNL      C 9852   4.229   2.636   5.233  0.0000  0.0000  0.0000
 2240UNL      C 9853   4.119   2.596   5.128  0.0000  0.0000  0.0000
 2240UNL      C 9854   4.180   2.607   4.986  0.0000  0.0000  0.0000
 2240UNL      C 9855   4.071   2.578   4.880  0.0000  0.0000  0.0000
 2240UNL      C 9856   4.121   2.610   4.733  0.0000  0.0000  0.0000
 2241UNL      C 9857   4.667   4.894   2.118  0.0000  0.0000  0.0000
 2241UNL      C 9858   4.682   4.788   2.015  0.0000  0.0000  0.0000
 2241UNL      N 9859   4.611   4.839   2.234  0.0000  0.0000  0.0000
 2241UNL      S 9860   4.626   4.636   2.076  0.0000  0.0000  0.0000
 2241UNL      C 9861   4.581   4.705   2.231  0.0000  0.0000  0.0000
 2241UNL      C 9862   4.589   4.925   2.351  0.0000  0.0000  0.0000
 2241UNL      S 9863   4.514   4.617   2.350  0.0000  0.0000  0.0000
 2241UNL      O 9864   4.700   5.009   2.108  0.0000  0.0000  0.0000
 2241UNL      C 9865   4.727   4.824   1.891  0.0000  0.0000  0.0000
 2242UNL      C 9866   4.754   4.743   1.775  0.0000  0.0000  0.0000
 2242UNL      C 9867   4.753   4.606   1.768  0.0000  0.0000  0.0000
 2242UNL      C 9868   4.788   4.811   1.654  0.0000  0.0000  0.0000
 2242UNL      C 9869   4.780   4.535   1.649  0.0000  0.0000  0.0000
 2242UNL      C 9870   4.812   4.596   1.528  0.0000  0.0000  0.0000
 2242UNL      C 9871   4.816   4.740   1.533  0.0000  0.0000  0.0000
 2242UNL      N 9872   4.797   4.945   1.640  0.0000  0.0000  0.0000
 2242UNL      N 9873   4.847   4.822   1.430  0.0000  0.0000  0.0000
 2242UNL      S 9874   4.840   4.973   1.486  0.0000  0.0000  0.0000
 2243UNL      C 9875   4.844   4.521   1.410  0.0000  0.0000  0.0000
 2243UNL      C 9876   4.849   4.384   1.397  0.0000  0.0000  0.0000
 2243UNL      C 9877   4.891   4.343   1.269  0.0000  0.0000  0.0000
 2243UNL      C 9878   4.916   4.449   1.186  0.0000  0.0000  0.0000
 2243UNL      S 9879   4.889   4.599   1.260  0.0000  0.0000  0.0000
 2244UNL      C 9880   4.967   4.403   1.058  0.0000  0.0000  0.0000
 2244UNL      C 9881   4.972   4.263   1.065  0.0000  0.0000  0.0000
 2245UNL      C 9882   4.921   4.210   1.201  0.0000  0.0000  0.0000
 2246UNL      C 9883   5.019   4.190   0.958  0.0000  0.0000  0.0000
 2247UNL      C 9884   4.793   4.125   1.180  0.0000  0.0000  0.0000
 2247UNL      C 9885   5.028   4.130   1.275  0.0000  0.0000  0.0000
 2247UNL      C 9886   5.154   4.203   1.309  0.0000  0.0000  0.0000
 2247UNL      C 9887   4.681   4.195   1.108  0.0000  0.0000  0.0000
 2247UNL      C 9888   5.259   4.114   1.370  0.0000  0.0000  0.0000
 2247UNL      C 9889   5.386   4.184   1.406  0.0000  0.0000  0.0000
 2247UNL      C 9890   5.500   4.104   1.462  0.0000  0.0000  0.0000
 2247UNL      C 9891   5.522   3.957   1.441  0.0000  0.0000  0.0000
 2247UNL      C 9892   5.630   3.853   1.438  0.0000  0.0000  0.0000
 2247UNL      C 9893   5.609   3.732   1.523  0.0000  0.0000  0.0000
 2247UNL      C 9894   4.555   4.115   1.084  0.0000  0.0000  0.0000
 2247UNL      C 9895   4.452   4.195   1.008  0.0000  0.0000  0.0000
 2247UNL      C 9896   4.318   4.130   0.987  0.0000  0.0000  0.0000
 2247UNL      C 9897   4.221   4.221   0.916  0.0000  0.0000  0.0000
 2247UNL      C 9898   4.090   4.151   0.892  0.0000  0.0000  0.0000
 2247UNL      C 9899   4.003   4.149   1.016  0.0000  0.0000  0.0000
 2248UNL      C 9900   5.006   4.472   0.945  0.0000  0.0000  0.0000
 2248UNL      C 9901   5.053   4.400   0.838  0.0000  0.0000  0.0000
 2249UNL      C 9902   4.714   4.930   2.438  0.0000  0.0000  0.0000
 2250UNL      C 9903   5.059   4.259   0.845  0.0000  0.0000  0.0000
 2251UNL      C 9904   5.113   4.214   0.716  0.0000  0.0000  0.0000
 2252UNL      C 9905   5.103   4.453   0.703  0.0000  0.0000  0.0000
 2253UNL      C 9906   5.139   4.323   0.635  0.0000  0.0000  0.0000
 2254UNL      C 9907   4.991   4.528   0.628  0.0000  0.0000  0.0000
 2254UNL      C 9908   5.226   4.546   0.721  0.0000  0.0000  0.0000
 2255UNL      S 9909   5.149   4.066   0.640  0.0000  0.0000  0.0000
 2255UNL      C 9910   5.199   4.149   0.494  0.0000  0.0000  0.0000
 2255UNL      C 9911   5.188   4.286   0.510  0.0000  0.0000  0.0000
 2256UNL      C 9912   5.239   4.080   0.374  0.0000  0.0000  0.0000
 2256UNL      C 9913   5.282   4.152   0.263  0.0000  0.0000  0.0000
 2256UNL      C 9914   5.311   4.090   0.138  0.0000  0.0000  0.0000
 2256UNL      C 9915   5.305   3.954   0.119  0.0000  0.0000  0.0000
 2256UNL      C 9916   5.236   3.938   0.359  0.0000  0.0000  0.0000
 2256UNL      C 9917   5.269   3.876   0.235  0.0000  0.0000  0.0000
 2257UNL      C 9918   5.331   3.885  -0.029  0.0000  0.0000  0.0000
 2258UNL      N 9919   5.201   3.849   0.454  0.0000  0.0000  0.0000
 2258UNL      N 9920   5.256   3.741   0.238  0.0000  0.0000  0.0000
 2258UNL      S 9921   5.211   3.704   0.387  0.0000  0.0000  0.0000
 2259UNL      C 9922   5.364   3.935  -0.150  0.0000  0.0000  0.0000
 2259UNL      S 9923   5.392   4.099  -0.201  0.0000  0.0000  0.0000
 2259UNL      C 9924   5.379   3.845  -0.264  0.0000  0.0000  0.0000
 2259UNL      O 9925   5.365   3.724  -0.263  0.0000  0.0000  0.0000
 2259UNL      N 9926   5.414   3.915  -0.379  0.0000  0.0000  0.0000
 2259UNL      C 9927   5.425   4.052  -0.368  0.0000  0.0000  0.0000
 2259UNL      C 9928   5.426   3.847  -0.508  0.0000  0.0000  0.0000
 2259UNL      C 9929   5.295   3.838  -0.578  0.0000  0.0000  0.0000
 2259UNL      S 9930   5.461   4.158  -0.483  0.0000  0.0000  0.0000
 2260UNL      C 9931   5.342   4.484   0.791  0.0000  0.0000  0.0000
 2260UNL      C 9932   5.468   4.572   0.803  0.0000  0.0000  0.0000
 2260UNL      C 9933   5.536   4.599   0.668  0.0000  0.0000  0.0000
 2260UNL      C 9934   5.603   4.477   0.603  0.0000  0.0000  0.0000
 2260UNL      C 9935   5.681   4.492   0.471  0.0000  0.0000  0.0000
 2260UNL      C 9936   5.583   4.511   0.354  0.0000  0.0000  0.0000
 2260UNL      C 9937   5.666   4.532   0.226  0.0000  0.0000  0.0000
 2260UNL      C 9938   4.865   4.445   0.601  0.0000  0.0000  0.0000
 2260UNL      C 9939   4.764   4.503   0.507  0.0000  0.0000  0.0000
 2260UNL      C 9940   4.814   4.496   0.361  0.0000  0.0000  0.0000
 2260UNL      C 9941   4.705   4.536   0.256  0.0000  0.0000  0.0000
 2260UNL      C 9942   4.765   4.525   0.114  0.0000  0.0000  0.0000
 2260UNL      C 9943   4.656   4.554   0.008  0.0000  0.0000  0.0000
 2260UNL      C 9944   4.706   4.522  -0.139  0.0000  0.0000  0.0000
 2261UNL      C 9945   4.772   4.101  -0.517  0.0000  0.0000  0.0000
 2261UNL      C 9946   4.758   3.996  -0.414  0.0000  0.0000  0.0000
 2261UNL      N 9947   4.828   4.046  -0.633  0.0000  0.0000  0.0000
 2261UNL      S 9948   4.813   3.844  -0.475  0.0000  0.0000  0.0000
 2261UNL      C 9949   4.858   3.912  -0.630  0.0000  0.0000  0.0000
 2261UNL      C 9950   4.851   4.133  -0.750  0.0000  0.0000  0.0000
 2261UNL      S 9951   4.925   3.824  -0.749  0.0000  0.0000  0.0000
 2261UNL      O 9952   4.740   4.216  -0.507  0.0000  0.0000  0.0000
 2261UNL      C 9953   4.712   4.031  -0.290  0.0000  0.0000  0.0000
 2262UNL      C 9954   4.685   3.950  -0.174  0.0000  0.0000  0.0000
 2262UNL      C 9955   4.687   3.813  -0.167  0.0000  0.0000  0.0000
 2262UNL      C 9956   4.652   4.018  -0.054  0.0000  0.0000  0.0000
 2262UNL      C 9957   4.659   3.743  -0.048  0.0000  0.0000  0.0000
 2262UNL      C 9958   4.627   3.804   0.096  0.0000  0.0000  0.0000
 2262UNL      C 9959   4.624   3.948   0.091  0.0000  0.0000  0.0000
 2262UNL      N 9960   4.642   4.153  -0.039  0.0000  0.0000  0.0000
 2262UNL      N 9961   4.592   4.029   0.194  0.0000  0.0000  0.0000
 2262UNL      S 9962   4.599   4.181   0.138  0.0000  0.0000  0.0000
 2263UNL      C 9963   4.596   3.728   0.214  0.0000  0.0000  0.0000
 2263UNL      C 9964   4.590   3.591   0.227  0.0000  0.0000  0.0000
 2263UNL      C 9965   4.548   3.550   0.355  0.0000  0.0000  0.0000
 2263UNL      C 9966   4.523   3.656   0.438  0.0000  0.0000  0.0000
 2263UNL      S 9967   4.550   3.807   0.364  0.0000  0.0000  0.0000
 2264UNL      C 9968   4.473   3.611   0.567  0.0000  0.0000  0.0000
 2264UNL      C 9969   4.467   3.470   0.559  0.0000  0.0000  0.0000
 2265UNL      C 9970   4.519   3.418   0.423  0.0000  0.0000  0.0000
 2266UNL      C 9971   4.420   3.397   0.666  0.0000  0.0000  0.0000
 2267UNL      C 9972   4.646   3.333   0.444  0.0000  0.0000  0.0000
 2267UNL      C 9973   4.411   3.338   0.349  0.0000  0.0000  0.0000
 2267UNL      C 9974   4.285   3.411   0.315  0.0000  0.0000  0.0000
 2267UNL      C 9975   4.759   3.403   0.516  0.0000  0.0000  0.0000
 2267UNL      C 9976   4.181   3.322   0.255  0.0000  0.0000  0.0000
 2267UNL      C 9977   4.053   3.391   0.218  0.0000  0.0000  0.0000
 2267UNL      C 9978   3.939   3.311   0.162  0.0000  0.0000  0.0000
 2267UNL      C 9979   3.917   3.165   0.184  0.0000  0.0000  0.0000
 2267UNL      C 9980   3.809   3.061   0.186  0.0000  0.0000  0.0000
 2267UNL      C 9981   3.830   2.939   0.101  0.0000  0.0000  0.0000
 2267UNL      C 9982   4.885   3.323   0.540  0.0000  0.0000  0.0000
 2267UNL      C 9983   4.987   3.402   0.617  0.0000  0.0000  0.0000
 2267UNL      C 9984   5.122   3.337   0.637  0.0000  0.0000  0.0000
 2267UNL      C 9985   5.218   3.428   0.708  0.0000  0.0000  0.0000
 2267UNL      C 9986   5.350   3.359   0.732  0.0000  0.0000  0.0000
 2267UNL      C 9987   5.436   3.357   0.608  0.0000  0.0000  0.0000
 2268UNL      C 9988   4.434   3.680   0.679  0.0000  0.0000  0.0000
 2268UNL      C 9989   4.386   3.608   0.786  0.0000  0.0000  0.0000
 2269UNL      C 9990   4.725   4.137  -0.837  0.0000  0.0000  0.0000
 2270UNL      C 9991   4.380   3.466   0.780  0.0000  0.0000  0.0000
 2271UNL      C 9992   4.326   3.422   0.908  0.0000  0.0000  0.0000
 2272UNL      C 9993   4.336   3.661   0.921  0.0000  0.0000  0.0000
 2273UNL      C 9994   4.300   3.530   0.989  0.0000  0.0000  0.0000
 2274UNL      C 9995   4.448   3.736   0.996  0.0000  0.0000  0.0000
 2274UNL      C 9996   4.213   3.754   0.903  0.0000  0.0000  0.0000
 2275UNL      S 9997   4.291   3.274   0.984  0.0000  0.0000  0.0000
 2275UNL      C 9998   4.241   3.357   1.130  0.0000  0.0000  0.0000
 2275UNL      C 9999   4.252   3.494   1.115  0.0000  0.0000  0.0000
 2276UNL      C10000   4.200   3.288   1.250  0.0000  0.0000  0.0000
 2276UNL      C10001   4.158   3.360   1.361  0.0000  0.0000  0.0000
 2276UNL      C10002   4.128   3.298   1.487  0.0000  0.0000  0.0000
 2276UNL      C10003   4.134   3.161   1.505  0.0000  0.0000  0.0000
 2276UNL      C10004   4.203   3.146   1.265  0.0000  0.0000  0.0000
 2276UNL      C10005   4.170   3.084   1.390  0.0000  0.0000  0.0000
 2277UNL      C10006   4.108   3.092   1.629  0.0000  0.0000  0.0000
 2278UNL      N10007   4.238   3.057   1.170  0.0000  0.0000  0.0000
 2278UNL      N10008   4.183   2.949   1.386  0.0000  0.0000  0.0000
 2278UNL      S10009   4.229   2.912   1.237  0.0000  0.0000  0.0000
 2279UNL      C10010   4.075   3.143   1.751  0.0000  0.0000  0.0000
 2279UNL      S10011   4.048   3.307   1.802  0.0000  0.0000  0.0000
 2279UNL      C10012   4.061   3.052   1.865  0.0000  0.0000  0.0000
 2279UNL      O10013   4.074   2.932   1.864  0.0000  0.0000  0.0000
 2279UNL      N10014   4.026   3.123   1.980  0.0000  0.0000  0.0000
 2279UNL      C10015   4.015   3.260   1.969  0.0000  0.0000  0.0000
 2279UNL      C10016   4.014   3.054   2.109  0.0000  0.0000  0.0000
 2279UNL      C10017   4.145   3.045   2.179  0.0000  0.0000  0.0000
 2279UNL      S10018   3.978   3.365   2.084  0.0000  0.0000  0.0000
 2280UNL      C10019   4.097   3.691   0.833  0.0000  0.0000  0.0000
 2280UNL      C10020   3.971   3.780   0.822  0.0000  0.0000  0.0000
 2280UNL      C10021   3.903   3.807   0.957  0.0000  0.0000  0.0000
 2280UNL      C10022   3.836   3.684   1.021  0.0000  0.0000  0.0000
 2280UNL      C10023   3.759   3.700   1.153  0.0000  0.0000  0.0000
 2280UNL      C10024   3.856   3.718   1.270  0.0000  0.0000  0.0000
 2280UNL      C10025   3.774   3.740   1.398  0.0000  0.0000  0.0000
 2280UNL      C10026   4.574   3.652   1.023  0.0000  0.0000  0.0000
 2280UNL      C10027   4.675   3.711   1.117  0.0000  0.0000  0.0000
 2280UNL      C10028   4.625   3.704   1.264  0.0000  0.0000  0.0000
 2280UNL      C10029   4.735   3.743   1.368  0.0000  0.0000  0.0000
 2280UNL      C10030   4.674   3.733   1.510  0.0000  0.0000  0.0000
 2280UNL      C10031   4.783   3.761   1.616  0.0000  0.0000  0.0000
 2280UNL      C10032   4.733   3.729   1.763  0.0000  0.0000  0.0000
 2281UNL      C10033   4.577   3.031   1.131  0.0000  0.0000  0.0000
 2281UNL      C10034   4.562   3.136   1.234  0.0000  0.0000  0.0000
 2281UNL      N10035   4.633   3.086   1.014  0.0000  0.0000  0.0000
 2281UNL      S10036   4.618   3.289   1.172  0.0000  0.0000  0.0000
 2281UNL      C10037   4.663   3.220   1.017  0.0000  0.0000  0.0000
 2281UNL      C10038   4.655   3.000   0.898  0.0000  0.0000  0.0000
 2281UNL      S10039   4.730   3.308   0.899  0.0000  0.0000  0.0000
 2281UNL      O10040   4.544   2.916   1.140  0.0000  0.0000  0.0000
 2281UNL      C10041   4.517   3.101   1.357  0.0000  0.0000  0.0000
 2282UNL      C10042   4.490   3.182   1.474  0.0000  0.0000  0.0000
 2282UNL      C10043   4.491   3.319   1.481  0.0000  0.0000  0.0000
 2282UNL      C10044   4.457   3.114   1.594  0.0000  0.0000  0.0000
 2282UNL      C10045   4.464   3.390   1.599  0.0000  0.0000  0.0000
 2282UNL      C10046   4.432   3.328   1.720  0.0000  0.0000  0.0000
 2282UNL      C10047   4.428   3.185   1.715  0.0000  0.0000  0.0000
 2282UNL      N10048   4.447   2.979   1.608  0.0000  0.0000  0.0000
 2282UNL      N10049   4.397   3.103   1.819  0.0000  0.0000  0.0000
 2282UNL      S10050   4.404   2.952   1.762  0.0000  0.0000  0.0000
 2283UNL      C10051   4.401   3.404   1.839  0.0000  0.0000  0.0000
 2283UNL      C10052   4.395   3.541   1.852  0.0000  0.0000  0.0000
 2283UNL      C10053   4.353   3.582   1.979  0.0000  0.0000  0.0000
 2283UNL      C10054   4.328   3.476   2.062  0.0000  0.0000  0.0000
 2283UNL      S10055   4.355   3.325   1.989  0.0000  0.0000  0.0000
 2284UNL      C10056   4.277   3.521   2.191  0.0000  0.0000  0.0000
 2284UNL      C10057   4.272   3.662   2.184  0.0000  0.0000  0.0000
 2285UNL      C10058   4.324   3.715   2.047  0.0000  0.0000  0.0000
 2286UNL      C10059   4.225   3.735   2.290  0.0000  0.0000  0.0000
 2287UNL      C10060   4.451   3.800   2.069  0.0000  0.0000  0.0000
 2287UNL      C10061   4.216   3.794   1.973  0.0000  0.0000  0.0000
 2287UNL      C10062   4.090   3.722   1.939  0.0000  0.0000  0.0000
 2287UNL      C10063   4.564   3.730   2.141  0.0000  0.0000  0.0000
 2287UNL      C10064   3.986   3.811   1.879  0.0000  0.0000  0.0000
 2287UNL      C10065   3.858   3.741   1.842  0.0000  0.0000  0.0000
 2287UNL      C10066   3.744   3.821   1.786  0.0000  0.0000  0.0000
 2287UNL      C10067   3.722   3.968   1.808  0.0000  0.0000  0.0000
 2287UNL      C10068   3.614   4.071   1.810  0.0000  0.0000  0.0000
 2287UNL      C10069   3.635   4.193   1.725  0.0000  0.0000  0.0000
 2287UNL      C10070   4.690   3.810   2.164  0.0000  0.0000  0.0000
 2287UNL      C10071   4.792   3.730   2.241  0.0000  0.0000  0.0000
 2287UNL      C10072   4.927   3.795   2.261  0.0000  0.0000  0.0000
 2287UNL      C10073   5.023   3.704   2.332  0.0000  0.0000  0.0000
 2287UNL      C10074   5.155   3.774   2.356  0.0000  0.0000  0.0000
 2287UNL      C10075   5.241   3.775   2.233  0.0000  0.0000  0.0000
 2288UNL      C10076   4.238   3.452   2.303  0.0000  0.0000  0.0000
 2288UNL      C10077   4.191   3.524   2.410  0.0000  0.0000  0.0000
 2289UNL      C10078   4.530   2.995   0.811  0.0000  0.0000  0.0000
 2290UNL      C10079   4.185   3.666   2.404  0.0000  0.0000  0.0000
 2291UNL      C10080   4.131   3.710   2.532  0.0000  0.0000  0.0000
 2292UNL      C10081   4.141   3.472   2.545  0.0000  0.0000  0.0000
 2293UNL      C10082   4.105   3.602   2.613  0.0000  0.0000  0.0000
 2294UNL      C10083   4.253   3.397   2.621  0.0000  0.0000  0.0000
 2294UNL      C10084   4.018   3.379   2.528  0.0000  0.0000  0.0000
 2295UNL      S10085   4.095   3.859   2.609  0.0000  0.0000  0.0000
 2295UNL      C10086   4.046   3.776   2.754  0.0000  0.0000  0.0000
 2295UNL      C10087   4.057   3.639   2.739  0.0000  0.0000  0.0000
 2296UNL      C10088   4.005   3.844   2.874  0.0000  0.0000  0.0000
 2296UNL      C10089   3.963   3.773   2.985  0.0000  0.0000  0.0000
 2296UNL      C10090   3.933   3.834   3.111  0.0000  0.0000  0.0000
 2296UNL      C10091   3.939   3.971   3.129  0.0000  0.0000  0.0000
 2296UNL      C10092   4.008   3.987   2.889  0.0000  0.0000  0.0000
 2296UNL      C10093   3.975   4.048   3.014  0.0000  0.0000  0.0000
 2297UNL      C10094   3.913   4.040   3.277  0.0000  0.0000  0.0000
 2298UNL      N10095   4.043   4.075   2.794  0.0000  0.0000  0.0000
 2298UNL      N10096   3.988   4.184   3.010  0.0000  0.0000  0.0000
 2298UNL      S10097   4.034   4.221   2.862  0.0000  0.0000  0.0000
 2299UNL      C10098   3.880   3.990   3.398  0.0000  0.0000  0.0000
 2299UNL      S10099   3.853   3.825   3.450  0.0000  0.0000  0.0000
 2299UNL      C10100   3.865   4.080   3.513  0.0000  0.0000  0.0000
 2299UNL      O10101   3.879   4.201   3.511  0.0000  0.0000  0.0000
 2299UNL      N10102   3.831   4.010   3.628  0.0000  0.0000  0.0000
 2299UNL      C10103   3.820   3.873   3.616  0.0000  0.0000  0.0000
 2299UNL      C10104   3.818   4.078   3.757  0.0000  0.0000  0.0000
 2299UNL      C10105   3.950   4.087   3.826  0.0000  0.0000  0.0000
 2299UNL      S10106   3.783   3.767   3.732  0.0000  0.0000  0.0000
 2300UNL      C10107   3.902   3.441   2.457  0.0000  0.0000  0.0000
 2300UNL      C10108   3.776   3.353   2.446  0.0000  0.0000  0.0000
 2300UNL      C10109   3.708   3.325   2.581  0.0000  0.0000  0.0000
 2300UNL      C10110   3.641   3.448   2.645  0.0000  0.0000  0.0000
 2300UNL      C10111   3.563   3.433   2.777  0.0000  0.0000  0.0000
 2300UNL      C10112   3.661   3.414   2.895  0.0000  0.0000  0.0000
 2300UNL      C10113   3.579   3.393   3.022  0.0000  0.0000  0.0000
 2300UNL      C10114   4.379   3.480   2.647  0.0000  0.0000  0.0000
 2300UNL      C10115   4.480   3.422   2.742  0.0000  0.0000  0.0000
 2300UNL      C10116   4.430   3.429   2.888  0.0000  0.0000  0.0000
 2300UNL      C10117   4.540   3.389   2.993  0.0000  0.0000  0.0000
 2300UNL      C10118   4.479   3.399   3.135  0.0000  0.0000  0.0000
 2300UNL      C10119   4.588   3.371   3.240  0.0000  0.0000  0.0000
 2300UNL      C10120   4.538   3.403   3.387  0.0000  0.0000  0.0000
 2301UNL      C10121   4.472   3.824   3.765  0.0000  0.0000  0.0000
 2301UNL      C10122   4.486   3.929   3.662  0.0000  0.0000  0.0000
 2301UNL      N10123   4.416   3.879   3.882  0.0000  0.0000  0.0000
 2301UNL      S10124   4.431   4.081   3.724  0.0000  0.0000  0.0000
 2301UNL      C10125   4.386   4.013   3.879  0.0000  0.0000  0.0000
 2301UNL      C10126   4.394   3.792   3.998  0.0000  0.0000  0.0000
 2301UNL      S10127   4.319   4.101   3.997  0.0000  0.0000  0.0000
 2301UNL      O10128   4.504   3.708   3.756  0.0000  0.0000  0.0000
 2301UNL      C10129   4.532   3.894   3.539  0.0000  0.0000  0.0000
 2302UNL      C10130   4.559   3.975   3.422  0.0000  0.0000  0.0000
 2302UNL      C10131   4.558   4.112   3.415  0.0000  0.0000  0.0000
 2302UNL      C10132   4.592   3.907   3.302  0.0000  0.0000  0.0000
 2302UNL      C10133   4.585   4.182   3.297  0.0000  0.0000  0.0000
 2302UNL      C10134   4.617   4.121   3.153  0.0000  0.0000  0.0000
 2302UNL      C10135   4.621   3.977   3.158  0.0000  0.0000  0.0000
 2302UNL      N10136   4.602   3.772   3.288  0.0000  0.0000  0.0000
 2302UNL      N10137   4.652   3.895   3.054  0.0000  0.0000  0.0000
 2302UNL      S10138   4.645   3.744   3.111  0.0000  0.0000  0.0000
 2303UNL      C10139   4.649   4.196   3.034  0.0000  0.0000  0.0000
 2303UNL      C10140   4.654   4.334   3.021  0.0000  0.0000  0.0000
 2303UNL      C10141   4.696   4.374   2.893  0.0000  0.0000  0.0000
 2303UNL      C10142   4.721   4.269   2.810  0.0000  0.0000  0.0000
 2303UNL      S10143   4.694   4.118   2.884  0.0000  0.0000  0.0000
 2304UNL      C10144   4.772   4.314   2.682  0.0000  0.0000  0.0000
 2304UNL      C10145   4.777   4.455   2.689  0.0000  0.0000  0.0000
 2305UNL      C10146   4.725   4.507   2.825  0.0000  0.0000  0.0000
 2306UNL      C10147   4.824   4.528   2.583  0.0000  0.0000  0.0000
 2307UNL      C10148   4.598   4.592   2.804  0.0000  0.0000  0.0000
 2307UNL      C10149   4.833   4.587   2.899  0.0000  0.0000  0.0000
 2307UNL      C10150   4.959   4.514   2.933  0.0000  0.0000  0.0000
 2307UNL      C10151   4.485   4.522   2.732  0.0000  0.0000  0.0000
 2307UNL      C10152   5.063   4.603   2.994  0.0000  0.0000  0.0000
 2307UNL      C10153   5.191   4.534   3.030  0.0000  0.0000  0.0000
 2307UNL      C10154   5.305   4.613   3.087  0.0000  0.0000  0.0000
 2307UNL      C10155   5.327   4.760   3.065  0.0000  0.0000  0.0000
 2307UNL      C10156   5.435   4.864   3.063  0.0000  0.0000  0.0000
 2307UNL      C10157   5.414   4.985   3.147  0.0000  0.0000  0.0000
 2307UNL      C10158   4.360   4.602   2.708  0.0000  0.0000  0.0000
 2307UNL      C10159   4.257   4.523   2.632  0.0000  0.0000  0.0000
 2307UNL      C10160   4.122   4.588   2.611  0.0000  0.0000  0.0000
 2307UNL      C10161   4.026   4.497   2.540  0.0000  0.0000  0.0000
 2307UNL      C10162   3.894   4.566   2.516  0.0000  0.0000  0.0000
 2307UNL      C10163   3.808   4.568   2.640  0.0000  0.0000  0.0000
 2308UNL      C10164   4.811   4.245   2.569  0.0000  0.0000  0.0000
 2308UNL      C10165   4.858   4.317   2.463  0.0000  0.0000  0.0000
 2309UNL      C10166   4.519   3.787   4.085  0.0000  0.0000  0.0000
 2310UNL      C10167   4.864   4.459   2.469  0.0000  0.0000  0.0000
 2311UNL      C10168   4.918   4.503   2.340  0.0000  0.0000  0.0000
 2312UNL      C10169   4.908   4.264   2.328  0.0000  0.0000  0.0000
 2313UNL      C10170   4.944   4.395   2.260  0.0000  0.0000  0.0000
 2314UNL      C10171   4.796   4.189   2.252  0.0000  0.0000  0.0000
 2314UNL      C10172   5.031   4.171   2.345  0.0000  0.0000  0.0000
 2315UNL      S10173   4.954   4.651   2.264  0.0000  0.0000  0.0000
 2315UNL      C10174   5.004   4.568   2.118  0.0000  0.0000  0.0000
 2315UNL      C10175   4.993   4.431   2.134  0.0000  0.0000  0.0000
 2316UNL      C10176   5.044   4.637   1.998  0.0000  0.0000  0.0000
 2316UNL      C10177   5.086   4.565   1.887  0.0000  0.0000  0.0000
 2316UNL      C10178   5.116   4.627   1.762  0.0000  0.0000  0.0000
 2316UNL      C10179   5.110   4.763   1.743  0.0000  0.0000  0.0000
 2316UNL      C10180   5.041   4.779   1.983  0.0000  0.0000  0.0000
 2316UNL      C10181   5.074   4.841   1.859  0.0000  0.0000  0.0000
 2317UNL      C10182   5.136   4.832   1.619  0.0000  0.0000  0.0000
 2318UNL      N10183   5.006   4.868   2.079  0.0000  0.0000  0.0000
 2318UNL      N10184   5.061   4.976   1.862  0.0000  0.0000  0.0000
 2318UNL      S10185   5.016   5.013   2.011  0.0000  0.0000  0.0000
 2319UNL      C10186   5.169   4.782   1.498  0.0000  0.0000  0.0000
 2319UNL      S10187   5.196   4.618   1.446  0.0000  0.0000  0.0000
 2319UNL      C10188   5.183   4.873   1.383  0.0000  0.0000  0.0000
 2319UNL      O10189   5.170   4.993   1.385  0.0000  0.0000  0.0000
 2319UNL      N10190   5.218   4.802   1.268  0.0000  0.0000  0.0000
 2319UNL      C10191   5.229   4.665   1.280  0.0000  0.0000  0.0000
 2319UNL      C10192   5.231   4.871   1.140  0.0000  0.0000  0.0000
 2319UNL      C10193   5.099   4.879   1.070  0.0000  0.0000  0.0000
 2319UNL      S10194   5.266   4.560   1.164  0.0000  0.0000  0.0000
 2320UNL      C10195   5.147   4.233   2.415  0.0000  0.0000  0.0000
 2320UNL      C10196   5.273   4.145   2.427  0.0000  0.0000  0.0000
 2320UNL      C10197   5.341   4.118   2.292  0.0000  0.0000  0.0000
 2320UNL      C10198   5.408   4.240   2.227  0.0000  0.0000  0.0000
 2320UNL      C10199   5.486   4.225   2.095  0.0000  0.0000  0.0000
 2320UNL      C10200   5.388   4.207   1.978  0.0000  0.0000  0.0000
 2320UNL      C10201   5.471   4.185   1.850  0.0000  0.0000  0.0000
 2320UNL      C10202   4.670   4.272   2.226  0.0000  0.0000  0.0000
 2320UNL      C10203   4.569   4.214   2.131  0.0000  0.0000  0.0000
 2320UNL      C10204   4.619   4.221   1.985  0.0000  0.0000  0.0000
 2320UNL      C10205   4.509   4.181   1.880  0.0000  0.0000  0.0000
 2320UNL      C10206   4.570   4.192   1.738  0.0000  0.0000  0.0000
 2320UNL      C10207   4.461   4.163   1.632  0.0000  0.0000  0.0000
 2320UNL      C10208   4.511   4.195   1.485  0.0000  0.0000  0.0000
 2321UNL      C10209   4.277   4.894   5.366  0.0000  0.0000  0.0000
 2321UNL      C10210   4.292   4.788   5.263  0.0000  0.0000  0.0000
 2321UNL      N10211   4.221   4.839   5.482  0.0000  0.0000  0.0000
 2321UNL      S10212   4.236   4.636   5.324  0.0000  0.0000  0.0000
 2321UNL      C10213   4.191   4.705   5.479  0.0000  0.0000  0.0000
 2321UNL      C10214   4.199   4.925   5.599  0.0000  0.0000  0.0000
 2321UNL      S10215   4.124   4.617   5.598  0.0000  0.0000  0.0000
 2321UNL      O10216   4.310   5.009   5.356  0.0000  0.0000  0.0000
 2321UNL      C10217   4.337   4.824   5.139  0.0000  0.0000  0.0000
 2322UNL      C10218   4.364   4.743   5.023  0.0000  0.0000  0.0000
 2322UNL      C10219   4.363   4.606   5.016  0.0000  0.0000  0.0000
 2322UNL      C10220   4.398   4.811   4.902  0.0000  0.0000  0.0000
 2322UNL      C10221   4.390   4.535   4.897  0.0000  0.0000  0.0000
 2322UNL      C10222   4.422   4.596   4.776  0.0000  0.0000  0.0000
 2322UNL      C10223   4.426   4.740   4.781  0.0000  0.0000  0.0000
 2322UNL      N10224   4.407   4.945   4.888  0.0000  0.0000  0.0000
 2322UNL      N10225   4.457   4.822   4.678  0.0000  0.0000  0.0000
 2322UNL      S10226   4.450   4.973   4.734  0.0000  0.0000  0.0000
 2323UNL      C10227   4.454   4.521   4.658  0.0000  0.0000  0.0000
 2323UNL      C10228   4.459   4.384   4.645  0.0000  0.0000  0.0000
 2323UNL      C10229   4.501   4.343   4.517  0.0000  0.0000  0.0000
 2323UNL      C10230   4.526   4.449   4.434  0.0000  0.0000  0.0000
 2323UNL      S10231   4.499   4.599   4.508  0.0000  0.0000  0.0000
 2324UNL      C10232   4.577   4.403   4.306  0.0000  0.0000  0.0000
 2324UNL      C10233   4.582   4.263   4.313  0.0000  0.0000  0.0000
 2325UNL      C10234   4.531   4.210   4.449  0.0000  0.0000  0.0000
 2326UNL      C10235   4.629   4.190   4.206  0.0000  0.0000  0.0000
 2327UNL      C10236   4.403   4.125   4.428  0.0000  0.0000  0.0000
 2327UNL      C10237   4.638   4.130   4.523  0.0000  0.0000  0.0000
 2327UNL      C10238   4.764   4.203   4.557  0.0000  0.0000  0.0000
 2327UNL      C10239   4.291   4.195   4.356  0.0000  0.0000  0.0000
 2327UNL      C10240   4.869   4.114   4.618  0.0000  0.0000  0.0000
 2327UNL      C10241   4.996   4.184   4.654  0.0000  0.0000  0.0000
 2327UNL      C10242   5.110   4.104   4.710  0.0000  0.0000  0.0000
 2327UNL      C10243   5.132   3.957   4.689  0.0000  0.0000  0.0000
 2327UNL      C10244   5.240   3.853   4.686  0.0000  0.0000  0.0000
 2327UNL      C10245   5.219   3.732   4.771  0.0000  0.0000  0.0000
 2327UNL      C10246   4.165   4.115   4.332  0.0000  0.0000  0.0000
 2327UNL      C10247   4.062   4.195   4.256  0.0000  0.0000  0.0000
 2327UNL      C10248   3.928   4.130   4.235  0.0000  0.0000  0.0000
 2327UNL      C10249   3.831   4.221   4.164  0.0000  0.0000  0.0000
 2327UNL      C10250   3.700   4.151   4.140  0.0000  0.0000  0.0000
 2327UNL      C10251   3.613   4.149   4.264  0.0000  0.0000  0.0000
 2328UNL      C10252   4.616   4.472   4.193  0.0000  0.0000  0.0000
 2328UNL      C10253   4.663   4.400   4.086  0.0000  0.0000  0.0000
 2329UNL      C10254   4.324   4.930   5.686  0.0000  0.0000  0.0000
 2330UNL      C10255   4.669   4.259   4.093  0.0000  0.0000  0.0000
 2331UNL      C10256   4.723   4.214   3.964  0.0000  0.0000  0.0000
 2332UNL      C10257   4.713   4.453   3.951  0.0000  0.0000  0.0000
 2333UNL      C10258   4.749   4.323   3.883  0.0000  0.0000  0.0000
 2334UNL      C10259   4.601   4.528   3.876  0.0000  0.0000  0.0000
 2334UNL      C10260   4.836   4.546   3.969  0.0000  0.0000  0.0000
 2335UNL      S10261   4.759   4.066   3.888  0.0000  0.0000  0.0000
 2335UNL      C10262   4.809   4.149   3.742  0.0000  0.0000  0.0000
 2335UNL      C10263   4.798   4.286   3.758  0.0000  0.0000  0.0000
 2336UNL      C10264   4.849   4.080   3.622  0.0000  0.0000  0.0000
 2336UNL      C10265   4.892   4.152   3.511  0.0000  0.0000  0.0000
 2336UNL      C10266   4.921   4.090   3.386  0.0000  0.0000  0.0000
 2336UNL      C10267   4.915   3.954   3.367  0.0000  0.0000  0.0000
 2336UNL      C10268   4.846   3.938   3.607  0.0000  0.0000  0.0000
 2336UNL      C10269   4.879   3.876   3.483  0.0000  0.0000  0.0000
 2337UNL      C10270   4.941   3.885   3.219  0.0000  0.0000  0.0000
 2338UNL      N10271   4.811   3.849   3.702  0.0000  0.0000  0.0000
 2338UNL      N10272   4.866   3.741   3.486  0.0000  0.0000  0.0000
 2338UNL      S10273   4.821   3.704   3.635  0.0000  0.0000  0.0000
 2339UNL      C10274   4.974   3.935   3.098  0.0000  0.0000  0.0000
 2339UNL      S10275   5.002   4.099   3.047  0.0000  0.0000  0.0000
 2339UNL      C10276   4.989   3.845   2.984  0.0000  0.0000  0.0000
 2339UNL      O10277   4.975   3.724   2.985  0.0000  0.0000  0.0000
 2339UNL      N10278   5.024   3.915   2.869  0.0000  0.0000  0.0000
 2339UNL      C10279   5.035   4.052   2.880  0.0000  0.0000  0.0000
 2339UNL      C10280   5.036   3.847   2.740  0.0000  0.0000  0.0000
 2339UNL      C10281   4.905   3.838   2.670  0.0000  0.0000  0.0000
 2339UNL      S10282   5.071   4.158   2.765  0.0000  0.0000  0.0000
 2340UNL      C10283   4.952   4.484   4.039  0.0000  0.0000  0.0000
 2340UNL      C10284   5.078   4.572   4.051  0.0000  0.0000  0.0000
 2340UNL      C10285   5.146   4.599   3.916  0.0000  0.0000  0.0000
 2340UNL      C10286   5.213   4.477   3.851  0.0000  0.0000  0.0000
 2340UNL      C10287   5.291   4.492   3.719  0.0000  0.0000  0.0000
 2340UNL      C10288   5.193   4.511   3.602  0.0000  0.0000  0.0000
 2340UNL      C10289   5.276   4.532   3.474  0.0000  0.0000  0.0000
 2340UNL      C10290   4.475   4.445   3.849  0.0000  0.0000  0.0000
 2340UNL      C10291   4.374   4.503   3.755  0.0000  0.0000  0.0000
 2340UNL      C10292   4.424   4.496   3.609  0.0000  0.0000  0.0000
 2340UNL      C10293   4.315   4.536   3.504  0.0000  0.0000  0.0000
 2340UNL      C10294   4.375   4.525   3.362  0.0000  0.0000  0.0000
 2340UNL      C10295   4.266   4.554   3.256  0.0000  0.0000  0.0000
 2340UNL      C10296   4.316   4.522   3.109  0.0000  0.0000  0.0000
 2341UNL      C10297   4.382   4.101   2.731  0.0000  0.0000  0.0000
 2341UNL      C10298   4.368   3.996   2.834  0.0000  0.0000  0.0000
 2341UNL      N10299   4.438   4.046   2.615  0.0000  0.0000  0.0000
 2341UNL      S10300   4.423   3.844   2.773  0.0000  0.0000  0.0000
 2341UNL      C10301   4.468   3.912   2.618  0.0000  0.0000  0.0000
 2341UNL      C10302   4.461   4.133   2.498  0.0000  0.0000  0.0000
 2341UNL      S10303   4.535   3.824   2.499  0.0000  0.0000  0.0000
 2341UNL      O10304   4.350   4.216   2.741  0.0000  0.0000  0.0000
 2341UNL      C10305   4.322   4.031   2.958  0.0000  0.0000  0.0000
 2342UNL      C10306   4.295   3.950   3.074  0.0000  0.0000  0.0000
 2342UNL      C10307   4.297   3.813   3.081  0.0000  0.0000  0.0000
 2342UNL      C10308   4.262   4.018   3.194  0.0000  0.0000  0.0000
 2342UNL      C10309   4.269   3.743   3.200  0.0000  0.0000  0.0000
 2342UNL      C10310   4.237   3.804   3.344  0.0000  0.0000  0.0000
 2342UNL      C10311   4.234   3.948   3.339  0.0000  0.0000  0.0000
 2342UNL      N10312   4.252   4.153   3.209  0.0000  0.0000  0.0000
 2342UNL      N10313   4.202   4.029   3.442  0.0000  0.0000  0.0000
 2342UNL      S10314   4.209   4.181   3.386  0.0000  0.0000  0.0000
 2343UNL      C10315   4.206   3.728   3.462  0.0000  0.0000  0.0000
 2343UNL      C10316   4.200   3.591   3.475  0.0000  0.0000  0.0000
 2343UNL      C10317   4.158   3.550   3.603  0.0000  0.0000  0.0000
 2343UNL      C10318   4.133   3.656   3.686  0.0000  0.0000  0.0000
 2343UNL      S10319   4.160   3.807   3.612  0.0000  0.0000  0.0000
 2344UNL      C10320   4.083   3.611   3.815  0.0000  0.0000  0.0000
 2344UNL      C10321   4.077   3.470   3.807  0.0000  0.0000  0.0000
 2345UNL      C10322   4.129   3.418   3.671  0.0000  0.0000  0.0000
 2346UNL      C10323   4.030   3.397   3.914  0.0000  0.0000  0.0000
 2347UNL      C10324   4.256   3.333   3.692  0.0000  0.0000  0.0000
 2347UNL      C10325   4.021   3.338   3.597  0.0000  0.0000  0.0000
 2347UNL      C10326   3.895   3.411   3.563  0.0000  0.0000  0.0000
 2347UNL      C10327   4.369   3.403   3.764  0.0000  0.0000  0.0000
 2347UNL      C10328   3.791   3.322   3.503  0.0000  0.0000  0.0000
 2347UNL      C10329   3.663   3.391   3.466  0.0000  0.0000  0.0000
 2347UNL      C10330   3.549   3.311   3.410  0.0000  0.0000  0.0000
 2347UNL      C10331   3.527   3.165   3.432  0.0000  0.0000  0.0000
 2347UNL      C10332   3.419   3.061   3.434  0.0000  0.0000  0.0000
 2347UNL      C10333   3.440   2.939   3.349  0.0000  0.0000  0.0000
 2347UNL      C10334   4.495   3.323   3.788  0.0000  0.0000  0.0000
 2347UNL      C10335   4.597   3.402   3.865  0.0000  0.0000  0.0000
 2347UNL      C10336   4.732   3.337   3.885  0.0000  0.0000  0.0000
 2347UNL      C10337   4.828   3.428   3.956  0.0000  0.0000  0.0000
 2347UNL      C10338   4.960   3.359   3.980  0.0000  0.0000  0.0000
 2347UNL      C10339   5.046   3.357   3.856  0.0000  0.0000  0.0000
 2348UNL      C10340   4.044   3.680   3.927  0.0000  0.0000  0.0000
 2348UNL      C10341   3.996   3.608   4.034  0.0000  0.0000  0.0000
 2349UNL      C10342   4.335   4.137   2.411  0.0000  0.0000  0.0000
 2350UNL      C10343   3.990   3.466   4.028  0.0000  0.0000  0.0000
 2351UNL      C10344   3.936   3.422   4.156  0.0000  0.0000  0.0000
 2352UNL      C10345   3.946   3.661   4.169  0.0000  0.0000  0.0000
 2353UNL      C10346   3.910   3.530   4.237  0.0000  0.0000  0.0000
 2354UNL      C10347   4.058   3.736   4.244  0.0000  0.0000  0.0000
 2354UNL      C10348   3.823   3.754   4.151  0.0000  0.0000  0.0000
 2355UNL      S10349   3.901   3.274   4.232  0.0000  0.0000  0.0000
 2355UNL      C10350   3.851   3.357   4.378  0.0000  0.0000  0.0000
 2355UNL      C10351   3.862   3.494   4.363  0.0000  0.0000  0.0000
 2356UNL      C10352   3.810   3.288   4.498  0.0000  0.0000  0.0000
 2356UNL      C10353   3.768   3.360   4.609  0.0000  0.0000  0.0000
 2356UNL      C10354   3.738   3.298   4.735  0.0000  0.0000  0.0000
 2356UNL      C10355   3.744   3.161   4.753  0.0000  0.0000  0.0000
 2356UNL      C10356   3.813   3.146   4.513  0.0000  0.0000  0.0000
 2356UNL      C10357   3.780   3.084   4.638  0.0000  0.0000  0.0000
 2357UNL      C10358   3.718   3.092   4.877  0.0000  0.0000  0.0000
 2358UNL      N10359   3.848   3.057   4.418  0.0000  0.0000  0.0000
 2358UNL      N10360   3.793   2.949   4.634  0.0000  0.0000  0.0000
 2358UNL      S10361   3.839   2.912   4.485  0.0000  0.0000  0.0000
 2359UNL      C10362   3.685   3.143   4.999  0.0000  0.0000  0.0000
 2359UNL      S10363   3.658   3.307   5.050  0.0000  0.0000  0.0000
 2359UNL      C10364   3.671   3.052   5.113  0.0000  0.0000  0.0000
 2359UNL      O10365   3.684   2.932   5.112  0.0000  0.0000  0.0000
 2359UNL      N10366   3.636   3.123   5.228  0.0000  0.0000  0.0000
 2359UNL      C10367   3.625   3.260   5.217  0.0000  0.0000  0.0000
 2359UNL      C10368   3.624   3.054   5.357  0.0000  0.0000  0.0000
 2359UNL      C10369   3.755   3.045   5.427  0.0000  0.0000  0.0000
 2359UNL      S10370   3.588   3.365   5.332  0.0000  0.0000  0.0000
 2360UNL      C10371   3.707   3.691   4.081  0.0000  0.0000  0.0000
 2360UNL      C10372   3.581   3.780   4.070  0.0000  0.0000  0.0000
 2360UNL      C10373   3.513   3.807   4.205  0.0000  0.0000  0.0000
 2360UNL      C10374   3.446   3.684   4.269  0.0000  0.0000  0.0000
 2360UNL      C10375   3.369   3.700   4.401  0.0000  0.0000  0.0000
 2360UNL      C10376   3.466   3.718   4.518  0.0000  0.0000  0.0000
 2360UNL      C10377   3.384   3.740   4.646  0.0000  0.0000  0.0000
 2360UNL      C10378   4.184   3.652   4.271  0.0000  0.0000  0.0000
 2360UNL      C10379   4.285   3.711   4.365  0.0000  0.0000  0.0000
 2360UNL      C10380   4.235   3.704   4.512  0.0000  0.0000  0.0000
 2360UNL      C10381   4.345   3.743   4.616  0.0000  0.0000  0.0000
 2360UNL      C10382   4.284   3.733   4.758  0.0000  0.0000  0.0000
 2360UNL      C10383   4.393   3.761   4.864  0.0000  0.0000  0.0000
 2360UNL      C10384   4.343   3.729   5.011  0.0000  0.0000  0.0000
 2361UNL      C10385   4.187   3.031   4.379  0.0000  0.0000  0.0000
 2361UNL      C10386   4.172   3.136   4.482  0.0000  0.0000  0.0000
 2361UNL      N10387   4.243   3.086   4.262  0.0000  0.0000  0.0000
 2361UNL      S10388   4.228   3.289   4.420  0.0000  0.0000  0.0000
 2361UNL      C10389   4.273   3.220   4.265  0.0000  0.0000  0.0000
 2361UNL      C10390   4.265   3.000   4.146  0.0000  0.0000  0.0000
 2361UNL      S10391   4.340   3.308   4.147  0.0000  0.0000  0.0000
 2361UNL      O10392   4.154   2.916   4.388  0.0000  0.0000  0.0000
 2361UNL      C10393   4.127   3.101   4.605  0.0000  0.0000  0.0000
 2362UNL      C10394   4.100   3.182   4.722  0.0000  0.0000  0.0000
 2362UNL      C10395   4.101   3.319   4.729  0.0000  0.0000  0.0000
 2362UNL      C10396   4.067   3.114   4.842  0.0000  0.0000  0.0000
 2362UNL      C10397   4.074   3.390   4.847  0.0000  0.0000  0.0000
 2362UNL      C10398   4.042   3.328   4.968  0.0000  0.0000  0.0000
 2362UNL      C10399   4.038   3.185   4.963  0.0000  0.0000  0.0000
 2362UNL      N10400   4.057   2.979   4.856  0.0000  0.0000  0.0000
 2362UNL      N10401   4.007   3.103   5.067  0.0000  0.0000  0.0000
 2362UNL      S10402   4.014   2.952   5.010  0.0000  0.0000  0.0000
 2363UNL      C10403   4.011   3.404   5.087  0.0000  0.0000  0.0000
 2363UNL      C10404   4.005   3.541   5.100  0.0000  0.0000  0.0000
 2363UNL      C10405   3.963   3.582   5.227  0.0000  0.0000  0.0000
 2363UNL      C10406   3.938   3.476   5.310  0.0000  0.0000  0.0000
 2363UNL      S10407   3.965   3.325   5.237  0.0000  0.0000  0.0000
 2364UNL      C10408   3.887   3.521   5.439  0.0000  0.0000  0.0000
 2364UNL      C10409   3.882   3.662   5.432  0.0000  0.0000  0.0000
 2365UNL      C10410   3.934   3.715   5.295  0.0000  0.0000  0.0000
 2366UNL      C10411   3.835   3.735   5.538  0.0000  0.0000  0.0000
 2367UNL      C10412   4.061   3.800   5.317  0.0000  0.0000  0.0000
 2367UNL      C10413   3.826   3.794   5.221  0.0000  0.0000  0.0000
 2367UNL      C10414   3.700   3.722   5.187  0.0000  0.0000  0.0000
 2367UNL      C10415   4.174   3.730   5.389  0.0000  0.0000  0.0000
 2367UNL      C10416   3.596   3.811   5.127  0.0000  0.0000  0.0000
 2367UNL      C10417   3.468   3.741   5.090  0.0000  0.0000  0.0000
 2367UNL      C10418   3.354   3.821   5.034  0.0000  0.0000  0.0000
 2367UNL      C10419   3.332   3.968   5.056  0.0000  0.0000  0.0000
 2367UNL      C10420   3.224   4.071   5.058  0.0000  0.0000  0.0000
 2367UNL      C10421   3.245   4.193   4.973  0.0000  0.0000  0.0000
 2367UNL      C10422   4.300   3.810   5.412  0.0000  0.0000  0.0000
 2367UNL      C10423   4.402   3.730   5.489  0.0000  0.0000  0.0000
 2367UNL      C10424   4.537   3.795   5.509  0.0000  0.0000  0.0000
 2367UNL      C10425   4.633   3.704   5.580  0.0000  0.0000  0.0000
 2367UNL      C10426   4.765   3.774   5.604  0.0000  0.0000  0.0000
 2367UNL      C10427   4.851   3.775   5.481  0.0000  0.0000  0.0000
 2368UNL      C10428   3.848   3.452   5.551  0.0000  0.0000  0.0000
 2368UNL      C10429   3.801   3.524   5.658  0.0000  0.0000  0.0000
 2369UNL      C10430   4.140   2.995   4.059  0.0000  0.0000  0.0000
 2370UNL      C10431   3.795   3.666   5.652  0.0000  0.0000  0.0000
 2371UNL      C10432   3.741   3.710   5.780  0.0000  0.0000  0.0000
 2372UNL      C10433   3.751   3.472   5.793  0.0000  0.0000  0.0000
 2373UNL      C10434   3.715   3.602   5.861  0.0000  0.0000  0.0000
 2374UNL      C10435   3.863   3.397   5.869  0.0000  0.0000  0.0000
 2374UNL      C10436   3.628   3.379   5.776  0.0000  0.0000  0.0000
 2375UNL      S10437   3.705   3.859   5.857  0.0000  0.0000  0.0000
 2375UNL      C10438   3.656   3.776   6.002  0.0000  0.0000  0.0000
 2375UNL      C10439   3.667   3.639   5.987  0.0000  0.0000  0.0000
 2376UNL      C10440   3.615   3.844   6.122  0.0000  0.0000  0.0000
 2376UNL      C10441   3.573   3.773   6.233  0.0000  0.0000  0.0000
 2376UNL      C10442   3.543   3.834   6.359  0.0000  0.0000  0.0000
 2376UNL      C10443   3.549   3.971   6.377  0.0000  0.0000  0.0000
 2376UNL      C10444   3.618   3.987   6.137  0.0000  0.0000  0.0000
 2376UNL      C10445   3.585   4.048   6.262  0.0000  0.0000  0.0000
 2377UNL      C10446   3.523   4.040   6.525  0.0000  0.0000  0.0000
 2378UNL      N10447   3.653   4.075   6.042  0.0000  0.0000  0.0000
 2378UNL      N10448   3.598   4.184   6.258  0.0000  0.0000  0.0000
 2378UNL      S10449   3.644   4.221   6.110  0.0000  0.0000  0.0000
 2379UNL      C10450   3.490   3.990   6.646  0.0000  0.0000  0.0000
 2379UNL      S10451   3.463   3.825   6.698  0.0000  0.0000  0.0000
 2379UNL      C10452   3.475   4.080   6.761  0.0000  0.0000  0.0000
 2379UNL      O10453   3.489   4.201   6.759  0.0000  0.0000  0.0000
 2379UNL      N10454   3.441   4.010   6.876  0.0000  0.0000  0.0000
 2379UNL      C10455   3.430   3.873   6.864  0.0000  0.0000  0.0000
 2379UNL      C10456   3.428   4.078   7.005  0.0000  0.0000  0.0000
 2379UNL      C10457   3.560   4.087   7.074  0.0000  0.0000  0.0000
 2379UNL      S10458   3.393   3.767   6.980  0.0000  0.0000  0.0000
 2380UNL      C10459   3.512   3.441   5.705  0.0000  0.0000  0.0000
 2380UNL      C10460   3.386   3.353   5.694  0.0000  0.0000  0.0000
 2380UNL      C10461   3.318   3.325   5.829  0.0000  0.0000  0.0000
 2380UNL      C10462   3.251   3.448   5.893  0.0000  0.0000  0.0000
 2380UNL      C10463   3.173   3.433   6.025  0.0000  0.0000  0.0000
 2380UNL      C10464   3.271   3.414   6.143  0.0000  0.0000  0.0000
 2380UNL      C10465   3.189   3.393   6.270  0.0000  0.0000  0.0000
 2380UNL      C10466   3.989   3.480   5.895  0.0000  0.0000  0.0000
 2380UNL      C10467   4.090   3.422   5.990  0.0000  0.0000  0.0000
 2380UNL      C10468   4.040   3.429   6.136  0.0000  0.0000  0.0000
 2380UNL      C10469   4.150   3.389   6.241  0.0000  0.0000  0.0000
 2380UNL      C10470   4.089   3.399   6.383  0.0000  0.0000  0.0000
 2380UNL      C10471   4.198   3.371   6.488  0.0000  0.0000  0.0000
 2380UNL      C10472   4.148   3.403   6.635  0.0000  0.0000  0.0000
 2381UNL      C10473   4.082   3.824   7.013  0.0000  0.0000  0.0000
 2381UNL      C10474   4.096   3.929   6.910  0.0000  0.0000  0.0000
 2381UNL      N10475   4.026   3.879   7.130  0.0000  0.0000  0.0000
 2381UNL      S10476   4.041   4.081   6.972  0.0000  0.0000  0.0000
 2381UNL      C10477   3.996   4.013   7.127  0.0000  0.0000  0.0000
 2381UNL      C10478   4.004   3.792   7.246  0.0000  0.0000  0.0000
 2381UNL      S10479   3.929   4.101   7.245  0.0000  0.0000  0.0000
 2381UNL      O10480   4.114   3.708   7.004  0.0000  0.0000  0.0000
 2381UNL      C10481   4.142   3.894   6.787  0.0000  0.0000  0.0000
 2382UNL      C10482   4.169   3.975   6.670  0.0000  0.0000  0.0000
 2382UNL      C10483   4.168   4.112   6.663  0.0000  0.0000  0.0000
 2382UNL      C10484   4.202   3.907   6.550  0.0000  0.0000  0.0000
 2382UNL      C10485   4.195   4.182   6.545  0.0000  0.0000  0.0000
 2382UNL      C10486   4.227   4.121   6.401  0.0000  0.0000  0.0000
 2382UNL      C10487   4.231   3.977   6.406  0.0000  0.0000  0.0000
 2382UNL      N10488   4.212   3.772   6.536  0.0000  0.0000  0.0000
 2382UNL      N10489   4.262   3.895   6.302  0.0000  0.0000  0.0000
 2382UNL      S10490   4.255   3.744   6.359  0.0000  0.0000  0.0000
 2383UNL      C10491   4.259   4.196   6.282  0.0000  0.0000  0.0000
 2383UNL      C10492   4.264   4.334   6.269  0.0000  0.0000  0.0000
 2383UNL      C10493   4.306   4.374   6.141  0.0000  0.0000  0.0000
 2383UNL      C10494   4.331   4.269   6.058  0.0000  0.0000  0.0000
 2383UNL      S10495   4.304   4.118   6.132  0.0000  0.0000  0.0000
 2384UNL      C10496   4.382   4.314   5.930  0.0000  0.0000  0.0000
 2384UNL      C10497   4.387   4.455   5.937  0.0000  0.0000  0.0000
 2385UNL      C10498   4.335   4.507   6.073  0.0000  0.0000  0.0000
 2386UNL      C10499   4.434   4.528   5.831  0.0000  0.0000  0.0000
 2387UNL      C10500   4.208   4.592   6.052  0.0000  0.0000  0.0000
 2387UNL      C10501   4.443   4.587   6.147  0.0000  0.0000  0.0000
 2387UNL      C10502   4.569   4.514   6.181  0.0000  0.0000  0.0000
 2387UNL      C10503   4.095   4.522   5.980  0.0000  0.0000  0.0000
 2387UNL      C10504   4.673   4.603   6.242  0.0000  0.0000  0.0000
 2387UNL      C10505   4.801   4.534   6.278  0.0000  0.0000  0.0000
 2387UNL      C10506   4.915   4.613   6.335  0.0000  0.0000  0.0000
 2387UNL      C10507   4.937   4.760   6.313  0.0000  0.0000  0.0000
 2387UNL      C10508   5.045   4.864   6.311  0.0000  0.0000  0.0000
 2387UNL      C10509   5.024   4.985   6.395  0.0000  0.0000  0.0000
 2387UNL      C10510   3.970   4.602   5.956  0.0000  0.0000  0.0000
 2387UNL      C10511   3.867   4.523   5.880  0.0000  0.0000  0.0000
 2387UNL      C10512   3.732   4.588   5.859  0.0000  0.0000  0.0000
 2387UNL      C10513   3.636   4.497   5.788  0.0000  0.0000  0.0000
 2387UNL      C10514   3.504   4.566   5.764  0.0000  0.0000  0.0000
 2387UNL      C10515   3.418   4.568   5.888  0.0000  0.0000  0.0000
 2388UNL      C10516   4.421   4.245   5.817  0.0000  0.0000  0.0000
 2388UNL      C10517   4.468   4.317   5.711  0.0000  0.0000  0.0000
 2389UNL      C10518   4.129   3.787   7.333  0.0000  0.0000  0.0000
 2390UNL      C10519   4.474   4.459   5.717  0.0000  0.0000  0.0000
 2391UNL      C10520   4.528   4.503   5.588  0.0000  0.0000  0.0000
 2392UNL      C10521   4.518   4.264   5.576  0.0000  0.0000  0.0000
 2393UNL      C10522   4.554   4.395   5.508  0.0000  0.0000  0.0000
 2394UNL      C10523   4.406   4.189   5.500  0.0000  0.0000  0.0000
 2394UNL      C10524   4.641   4.171   5.593  0.0000  0.0000  0.0000
 2395UNL      S10525   4.564   4.651   5.512  0.0000  0.0000  0.0000
 2395UNL      C10526   4.614   4.568   5.366  0.0000  0.0000  0.0000
 2395UNL      C10527   4.603   4.431   5.382  0.0000  0.0000  0.0000
 2396UNL      C10528   4.654   4.637   5.246  0.0000  0.0000  0.0000
 2396UNL      C10529   4.696   4.565   5.135  0.0000  0.0000  0.0000
 2396UNL      C10530   4.726   4.627   5.010  0.0000  0.0000  0.0000
 2396UNL      C10531   4.720   4.763   4.991  0.0000  0.0000  0.0000
 2396UNL      C10532   4.651   4.779   5.231  0.0000  0.0000  0.0000
 2396UNL      C10533   4.684   4.841   5.107  0.0000  0.0000  0.0000
 2397UNL      C10534   4.746   4.832   4.867  0.0000  0.0000  0.0000
 2398UNL      N10535   4.616   4.868   5.327  0.0000  0.0000  0.0000
 2398UNL      N10536   4.671   4.976   5.110  0.0000  0.0000  0.0000
 2398UNL      S10537   4.626   5.013   5.259  0.0000  0.0000  0.0000
 2399UNL      C10538   4.779   4.782   4.746  0.0000  0.0000  0.0000
 2399UNL      S10539   4.806   4.618   4.694  0.0000  0.0000  0.0000
 2399UNL      C10540   4.793   4.873   4.631  0.0000  0.0000  0.0000
 2399UNL      O10541   4.780   4.993   4.633  0.0000  0.0000  0.0000
 2399UNL      N10542   4.828   4.802   4.516  0.0000  0.0000  0.0000
 2399UNL      C10543   4.839   4.665   4.528  0.0000  0.0000  0.0000
 2399UNL      C10544   4.841   4.871   4.388  0.0000  0.0000  0.0000
 2399UNL      C10545   4.709   4.879   4.318  0.0000  0.0000  0.0000
 2399UNL      S10546   4.876   4.560   4.412  0.0000  0.0000  0.0000
 2400UNL      C10547   4.757   4.233   5.663  0.0000  0.0000  0.0000
 2400UNL      C10548   4.883   4.145   5.675  0.0000  0.0000  0.0000
 2400UNL      C10549   4.951   4.118   5.540  0.0000  0.0000  0.0000
 2400UNL      C10550   5.018   4.240   5.475  0.0000  0.0000  0.0000
 2400UNL      C10551   5.096   4.225   5.343  0.0000  0.0000  0.0000
 2400UNL      C10552   4.998   4.207   5.226  0.0000  0.0000  0.0000
 2400UNL      C10553   5.081   4.185   5.098  0.0000  0.0000  0.0000
 2400UNL      C10554   4.280   4.272   5.474  0.0000  0.0000  0.0000
 2400UNL      C10555   4.179   4.214   5.379  0.0000  0.0000  0.0000
 2400UNL      C10556   4.229   4.221   5.233  0.0000  0.0000  0.0000
 2400UNL      C10557   4.119   4.181   5.128  0.0000  0.0000  0.0000
 2400UNL      C10558   4.180   4.192   4.986  0.0000  0.0000  0.0000
 2400UNL      C10559   4.071   4.163   4.880  0.0000  0.0000  0.0000
 2400UNL      C10560   4.121   4.195   4.733  0.0000  0.0000  0.0000
 2401UNL      C10561   4.667   6.478   2.118  0.0000  0.0000  0.0000
 2401UNL      C10562   4.682   6.372   2.015  0.0000  0.0000  0.0000
 2401UNL      N10563   4.611   6.423   2.234  0.0000  0.0000  0.0000
 2401UNL      S10564   4.626   6.220   2.076  0.0000  0.0000  0.0000
 2401UNL      C10565   4.581   6.289   2.231  0.0000  0.0000  0.0000
 2401UNL      C10566   4.589   6.509   2.351  0.0000  0.0000  0.0000
 2401UNL      S10567   4.514   6.201   2.350  0.0000  0.0000  0.0000
 2401UNL      O10568   4.700   6.593   2.108  0.0000  0.0000  0.0000
 2401UNL      C10569   4.727   6.408   1.891  0.0000  0.0000  0.0000
 2402UNL      C10570   4.754   6.327   1.775  0.0000  0.0000  0.0000
 2402UNL      C10571   4.753   6.190   1.768  0.0000  0.0000  0.0000
 2402UNL      C10572   4.788   6.395   1.654  0.0000  0.0000  0.0000
 2402UNL      C10573   4.780   6.119   1.649  0.0000  0.0000  0.0000
 2402UNL      C10574   4.812   6.180   1.528  0.0000  0.0000  0.0000
 2402UNL      C10575   4.816   6.324   1.533  0.0000  0.0000  0.0000
 2402UNL      N10576   4.797   6.529   1.640  0.0000  0.0000  0.0000
 2402UNL      N10577   4.847   6.406   1.430  0.0000  0.0000  0.0000
 2402UNL      S10578   4.840   6.557   1.486  0.0000  0.0000  0.0000
 2403UNL      C10579   4.844   6.105   1.410  0.0000  0.0000  0.0000
 2403UNL      C10580   4.849   5.968   1.397  0.0000  0.0000  0.0000
 2403UNL      C10581   4.891   5.927   1.269  0.0000  0.0000  0.0000
 2403UNL      C10582   4.916   6.033   1.186  0.0000  0.0000  0.0000
 2403UNL      S10583   4.889   6.183   1.260  0.0000  0.0000  0.0000
 2404UNL      C10584   4.967   5.987   1.058  0.0000  0.0000  0.0000
 2404UNL      C10585   4.972   5.847   1.065  0.0000  0.0000  0.0000
 2405UNL      C10586   4.921   5.794   1.201  0.0000  0.0000  0.0000
 2406UNL      C10587   5.019   5.774   0.958  0.0000  0.0000  0.0000
 2407UNL      C10588   4.793   5.709   1.180  0.0000  0.0000  0.0000
 2407UNL      C10589   5.028   5.714   1.275  0.0000  0.0000  0.0000
 2407UNL      C10590   5.154   5.787   1.309  0.0000  0.0000  0.0000
 2407UNL      C10591   4.681   5.779   1.108  0.0000  0.0000  0.0000
 2407UNL      C10592   5.259   5.698   1.370  0.0000  0.0000  0.0000
 2407UNL      C10593   5.386   5.768   1.406  0.0000  0.0000  0.0000
 2407UNL      C10594   5.500   5.688   1.462  0.0000  0.0000  0.0000
 2407UNL      C10595   5.522   5.541   1.441  0.0000  0.0000  0.0000
 2407UNL      C10596   5.630   5.437   1.438  0.0000  0.0000  0.0000
 2407UNL      C10597   5.609   5.316   1.523  0.0000  0.0000  0.0000
 2407UNL      C10598   4.555   5.699   1.084  0.0000  0.0000  0.0000
 2407UNL      C10599   4.452   5.779   1.008  0.0000  0.0000  0.0000
 2407UNL      C10600   4.318   5.714   0.987  0.0000  0.0000  0.0000
 2407UNL      C10601   4.221   5.805   0.916  0.0000  0.0000  0.0000
 2407UNL      C10602   4.090   5.735   0.892  0.0000  0.0000  0.0000
 2407UNL      C10603   4.003   5.733   1.016  0.0000  0.0000  0.0000
 2408UNL      C10604   5.006   6.056   0.945  0.0000  0.0000  0.0000
 2408UNL      C10605   5.053   5.984   0.838  0.0000  0.0000  0.0000
 2409UNL      C10606   4.714   6.514   2.438  0.0000  0.0000  0.0000
 2410UNL      C10607   5.059   5.843   0.845  0.0000  0.0000  0.0000
 2411UNL      C10608   5.113   5.798   0.716  0.0000  0.0000  0.0000
 2412UNL      C10609   5.103   6.037   0.703  0.0000  0.0000  0.0000
 2413UNL      C10610   5.139   5.907   0.635  0.0000  0.0000  0.0000
 2414UNL      C10611   4.991   6.112   0.628  0.0000  0.0000  0.0000
 2414UNL      C10612   5.226   6.130   0.721  0.0000  0.0000  0.0000
 2415UNL      S10613   5.149   5.650   0.640  0.0000  0.0000  0.0000
 2415UNL      C10614   5.199   5.733   0.494  0.0000  0.0000  0.0000
 2415UNL      C10615   5.188   5.870   0.510  0.0000  0.0000  0.0000
 2416UNL      C10616   5.239   5.664   0.374  0.0000  0.0000  0.0000
 2416UNL      C10617   5.282   5.736   0.263  0.0000  0.0000  0.0000
 2416UNL      C10618   5.311   5.674   0.138  0.0000  0.0000  0.0000
 2416UNL      C10619   5.305   5.538   0.119  0.0000  0.0000  0.0000
 2416UNL      C10620   5.236   5.522   0.359  0.0000  0.0000  0.0000
 2416UNL      C10621   5.269   5.460   0.235  0.0000  0.0000  0.0000
 2417UNL      C10622   5.331   5.469  -0.029  0.0000  0.0000  0.0000
 2418UNL      N10623   5.201   5.433   0.454  0.0000  0.0000  0.0000
 2418UNL      N10624   5.256   5.325   0.238  0.0000  0.0000  0.0000
 2418UNL      S10625   5.211   5.288   0.387  0.0000  0.0000  0.0000
 2419UNL      C10626   5.364   5.519  -0.150  0.0000  0.0000  0.0000
 2419UNL      S10627   5.392   5.683  -0.201  0.0000  0.0000  0.0000
 2419UNL      C10628   5.379   5.429  -0.264  0.0000  0.0000  0.0000
 2419UNL      O10629   5.365   5.308  -0.263  0.0000  0.0000  0.0000
 2419UNL      N10630   5.414   5.499  -0.379  0.0000  0.0000  0.0000
 2419UNL      C10631   5.425   5.636  -0.368  0.0000  0.0000  0.0000
 2419UNL      C10632   5.426   5.431  -0.508  0.0000  0.0000  0.0000
 2419UNL      C10633   5.295   5.422  -0.578  0.0000  0.0000  0.0000
 2419UNL      S10634   5.461   5.742  -0.483  0.0000  0.0000  0.0000
 2420UNL      C10635   5.342   6.068   0.791  0.0000  0.0000  0.0000
 2420UNL      C10636   5.468   6.156   0.803  0.0000  0.0000  0.0000
 2420UNL      C10637   5.536   6.183   0.668  0.0000  0.0000  0.0000
 2420UNL      C10638   5.603   6.061   0.603  0.0000  0.0000  0.0000
 2420UNL      C10639   5.681   6.076   0.471  0.0000  0.0000  0.0000
 2420UNL      C10640   5.583   6.095   0.354  0.0000  0.0000  0.0000
 2420UNL      C10641   5.666   6.116   0.226  0.0000  0.0000  0.0000
 2420UNL      C10642   4.865   6.029   0.601  0.0000  0.0000  0.0000
 2420UNL      C10643   4.764   6.087   0.507  0.0000  0.0000  0.0000
 2420UNL      C10644   4.814   6.080   0.361  0.0000  0.0000  0.0000
 2420UNL      C10645   4.705   6.120   0.256  0.0000  0.0000  0.0000
 2420UNL      C10646   4.765   6.109   0.114  0.0000  0.0000  0.0000
 2420UNL      C10647   4.656   6.138   0.008  0.0000  0.0000  0.0000
 2420UNL      C10648   4.706   6.106  -0.139  0.0000  0.0000  0.0000
 2421UNL      C10649   4.772   5.685  -0.517  0.0000  0.0000  0.0000
 2421UNL      C10650   4.758   5.580  -0.414  0.0000  0.0000  0.0000
 2421UNL      N10651   4.828   5.630  -0.633  0.0000  0.0000  0.0000
 2421UNL      S10652   4.813   5.428  -0.475  0.0000  0.0000  0.0000
 2421UNL      C10653   4.858   5.496  -0.630  0.0000  0.0000  0.0000
 2421UNL      C10654   4.851   5.717  -0.750  0.0000  0.0000  0.0000
 2421UNL      S10655   4.925   5.408  -0.749  0.0000  0.0000  0.0000
 2421UNL      O10656   4.740   5.800  -0.507  0.0000  0.0000  0.0000
 2421UNL      C10657   4.712   5.615  -0.290  0.0000  0.0000  0.0000
 2422UNL      C10658   4.685   5.534  -0.174  0.0000  0.0000  0.0000
 2422UNL      C10659   4.687   5.397  -0.167  0.0000  0.0000  0.0000
 2422UNL      C10660   4.652   5.602  -0.054  0.0000  0.0000  0.0000
 2422UNL      C10661   4.659   5.327  -0.048  0.0000  0.0000  0.0000
 2422UNL      C10662   4.627   5.388   0.096  0.0000  0.0000  0.0000
 2422UNL      C10663   4.624   5.532   0.091  0.0000  0.0000  0.0000
 2422UNL      N10664   4.642   5.737  -0.039  0.0000  0.0000  0.0000
 2422UNL      N10665   4.592   5.613   0.194  0.0000  0.0000  0.0000
 2422UNL      S10666   4.599   5.765   0.138  0.0000  0.0000  0.0000
 2423UNL      C10667   4.596   5.312   0.214  0.0000  0.0000  0.0000
 2423UNL      C10668   4.590   5.175   0.227  0.0000  0.0000  0.0000
 2423UNL      C10669   4.548   5.134   0.355  0.0000  0.0000  0.0000
 2423UNL      C10670   4.523   5.240   0.438  0.0000  0.0000  0.0000
 2423UNL      S10671   4.550   5.391   0.364  0.0000  0.0000  0.0000
 2424UNL      C10672   4.473   5.195   0.567  0.0000  0.0000  0.0000
 2424UNL      C10673   4.467   5.054   0.559  0.0000  0.0000  0.0000
 2425UNL      C10674   4.519   5.002   0.423  0.0000  0.0000  0.0000
 2426UNL      C10675   4.420   4.981   0.666  0.0000  0.0000  0.0000
 2427UNL      C10676   4.646   4.917   0.444  0.0000  0.0000  0.0000
 2427UNL      C10677   4.411   4.922   0.349  0.0000  0.0000  0.0000
 2427UNL      C10678   4.285   4.995   0.315  0.0000  0.0000  0.0000
 2427UNL      C10679   4.759   4.987   0.516  0.0000  0.0000  0.0000
 2427UNL      C10680   4.181   4.906   0.255  0.0000  0.0000  0.0000
 2427UNL      C10681   4.053   4.975   0.218  0.0000  0.0000  0.0000
 2427UNL      C10682   3.939   4.895   0.162  0.0000  0.0000  0.0000
 2427UNL      C10683   3.917   4.749   0.184  0.0000  0.0000  0.0000
 2427UNL      C10684   3.809   4.645   0.186  0.0000  0.0000  0.0000
 2427UNL      C10685   3.830   4.523   0.101  0.0000  0.0000  0.0000
 2427UNL      C10686   4.885   4.907   0.540  0.0000  0.0000  0.0000
 2427UNL      C10687   4.987   4.986   0.617  0.0000  0.0000  0.0000
 2427UNL      C10688   5.122   4.921   0.637  0.0000  0.0000  0.0000
 2427UNL      C10689   5.218   5.012   0.708  0.0000  0.0000  0.0000
 2427UNL      C10690   5.350   4.943   0.732  0.0000  0.0000  0.0000
 2427UNL      C10691   5.436   4.941   0.608  0.0000  0.0000  0.0000
 2428UNL      C10692   4.434   5.264   0.679  0.0000  0.0000  0.0000
 2428UNL      C10693   4.386   5.192   0.786  0.0000  0.0000  0.0000
 2429UNL      C10694   4.725   5.721  -0.837  0.0000  0.0000  0.0000
 2430UNL      C10695   4.380   5.050   0.780  0.0000  0.0000  0.0000
 2431UNL      C10696   4.326   5.006   0.908  0.0000  0.0000  0.0000
 2432UNL      C10697   4.336   5.245   0.921  0.0000  0.0000  0.0000
 2433UNL      C10698   4.300   5.114   0.989  0.0000  0.0000  0.0000
 2434UNL      C10699   4.448   5.320   0.996  0.0000  0.0000  0.0000
 2434UNL      C10700   4.213   5.338   0.903  0.0000  0.0000  0.0000
 2435UNL      S10701   4.291   4.858   0.984  0.0000  0.0000  0.0000
 2435UNL      C10702   4.241   4.941   1.130  0.0000  0.0000  0.0000
 2435UNL      C10703   4.252   5.078   1.115  0.0000  0.0000  0.0000
 2436UNL      C10704   4.200   4.872   1.250  0.0000  0.0000  0.0000
 2436UNL      C10705   4.158   4.944   1.361  0.0000  0.0000  0.0000
 2436UNL      C10706   4.128   4.882   1.487  0.0000  0.0000  0.0000
 2436UNL      C10707   4.134   4.745   1.505  0.0000  0.0000  0.0000
 2436UNL      C10708   4.203   4.730   1.265  0.0000  0.0000  0.0000
 2436UNL      C10709   4.170   4.668   1.390  0.0000  0.0000  0.0000
 2437UNL      C10710   4.108   4.676   1.629  0.0000  0.0000  0.0000
 2438UNL      N10711   4.238   4.641   1.170  0.0000  0.0000  0.0000
 2438UNL      N10712   4.183   4.533   1.386  0.0000  0.0000  0.0000
 2438UNL      S10713   4.229   4.496   1.237  0.0000  0.0000  0.0000
 2439UNL      C10714   4.075   4.727   1.751  0.0000  0.0000  0.0000
 2439UNL      S10715   4.048   4.891   1.802  0.0000  0.0000  0.0000
 2439UNL      C10716   4.061   4.636   1.865  0.0000  0.0000  0.0000
 2439UNL      O10717   4.074   4.516   1.864  0.0000  0.0000  0.0000
 2439UNL      N10718   4.026   4.707   1.980  0.0000  0.0000  0.0000
 2439UNL      C10719   4.015   4.844   1.969  0.0000  0.0000  0.0000
 2439UNL      C10720   4.014   4.638   2.109  0.0000  0.0000  0.0000
 2439UNL      C10721   4.145   4.629   2.179  0.0000  0.0000  0.0000
 2439UNL      S10722   3.978   4.949   2.084  0.0000  0.0000  0.0000
 2440UNL      C10723   4.097   5.275   0.833  0.0000  0.0000  0.0000
 2440UNL      C10724   3.971   5.364   0.822  0.0000  0.0000  0.0000
 2440UNL      C10725   3.903   5.391   0.957  0.0000  0.0000  0.0000
 2440UNL      C10726   3.836   5.268   1.021  0.0000  0.0000  0.0000
 2440UNL      C10727   3.759   5.284   1.153  0.0000  0.0000  0.0000
 2440UNL      C10728   3.856   5.302   1.270  0.0000  0.0000  0.0000
 2440UNL      C10729   3.774   5.324   1.398  0.0000  0.0000  0.0000
 2440UNL      C10730   4.574   5.236   1.023  0.0000  0.0000  0.0000
 2440UNL      C10731   4.675   5.295   1.117  0.0000  0.0000  0.0000
 2440UNL      C10732   4.625   5.288   1.264  0.0000  0.0000  0.0000
 2440UNL      C10733   4.735   5.327   1.368  0.0000  0.0000  0.0000
 2440UNL      C10734   4.674   5.317   1.510  0.0000  0.0000  0.0000
 2440UNL      C10735   4.783   5.345   1.616  0.0000  0.0000  0.0000
 2440UNL      C10736   4.733   5.313   1.763  0.0000  0.0000  0.0000
 2441UNL      C10737   4.577   4.615   1.131  0.0000  0.0000  0.0000
 2441UNL      C10738   4.562   4.720   1.234  0.0000  0.0000  0.0000
 2441UNL      N10739   4.633   4.670   1.014  0.0000  0.0000  0.0000
 2441UNL      S10740   4.618   4.873   1.172  0.0000  0.0000  0.0000
 2441UNL      C10741   4.663   4.804   1.017  0.0000  0.0000  0.0000
 2441UNL      C10742   4.655   4.584   0.898  0.0000  0.0000  0.0000
 2441UNL      S10743   4.730   4.892   0.899  0.0000  0.0000  0.0000
 2441UNL      O10744   4.544   4.500   1.140  0.0000  0.0000  0.0000
 2441UNL      C10745   4.517   4.685   1.357  0.0000  0.0000  0.0000
 2442UNL      C10746   4.490   4.766   1.474  0.0000  0.0000  0.0000
 2442UNL      C10747   4.491   4.903   1.481  0.0000  0.0000  0.0000
 2442UNL      C10748   4.457   4.698   1.594  0.0000  0.0000  0.0000
 2442UNL      C10749   4.464   4.974   1.599  0.0000  0.0000  0.0000
 2442UNL      C10750   4.432   4.912   1.720  0.0000  0.0000  0.0000
 2442UNL      C10751   4.428   4.769   1.715  0.0000  0.0000  0.0000
 2442UNL      N10752   4.447   4.563   1.608  0.0000  0.0000  0.0000
 2442UNL      N10753   4.397   4.687   1.819  0.0000  0.0000  0.0000
 2442UNL      S10754   4.404   4.536   1.762  0.0000  0.0000  0.0000
 2443UNL      C10755   4.401   4.988   1.839  0.0000  0.0000  0.0000
 2443UNL      C10756   4.395   5.125   1.852  0.0000  0.0000  0.0000
 2443UNL      C10757   4.353   5.166   1.979  0.0000  0.0000  0.0000
 2443UNL      C10758   4.328   5.060   2.062  0.0000  0.0000  0.0000
 2443UNL      S10759   4.355   4.909   1.989  0.0000  0.0000  0.0000
 2444UNL      C10760   4.277   5.105   2.191  0.0000  0.0000  0.0000
 2444UNL      C10761   4.272   5.246   2.184  0.0000  0.0000  0.0000
 2445UNL      C10762   4.324   5.299   2.047  0.0000  0.0000  0.0000
 2446UNL      C10763   4.225   5.319   2.290  0.0000  0.0000  0.0000
 2447UNL      C10764   4.451   5.384   2.069  0.0000  0.0000  0.0000
 2447UNL      C10765   4.216   5.378   1.973  0.0000  0.0000  0.0000
 2447UNL      C10766   4.090   5.306   1.939  0.0000  0.0000  0.0000
 2447UNL      C10767   4.564   5.314   2.141  0.0000  0.0000  0.0000
 2447UNL      C10768   3.986   5.395   1.879  0.0000  0.0000  0.0000
 2447UNL      C10769   3.858   5.325   1.842  0.0000  0.0000  0.0000
 2447UNL      C10770   3.744   5.405   1.786  0.0000  0.0000  0.0000
 2447UNL      C10771   3.722   5.552   1.808  0.0000  0.0000  0.0000
 2447UNL      C10772   3.614   5.655   1.810  0.0000  0.0000  0.0000
 2447UNL      C10773   3.635   5.777   1.725  0.0000  0.0000  0.0000
 2447UNL      C10774   4.690   5.394   2.164  0.0000  0.0000  0.0000
 2447UNL      C10775   4.792   5.314   2.241  0.0000  0.0000  0.0000
 2447UNL      C10776   4.927   5.379   2.261  0.0000  0.0000  0.0000
 2447UNL      C10777   5.023   5.288   2.332  0.0000  0.0000  0.0000
 2447UNL      C10778   5.155   5.358   2.356  0.0000  0.0000  0.0000
 2447UNL      C10779   5.241   5.359   2.233  0.0000  0.0000  0.0000
 2448UNL      C10780   4.238   5.036   2.303  0.0000  0.0000  0.0000
 2448UNL      C10781   4.191   5.108   2.410  0.0000  0.0000  0.0000
 2449UNL      C10782   4.530   4.579   0.811  0.0000  0.0000  0.0000
 2450UNL      C10783   4.185   5.250   2.404  0.0000  0.0000  0.0000
 2451UNL      C10784   4.131   5.294   2.532  0.0000  0.0000  0.0000
 2452UNL      C10785   4.141   5.056   2.545  0.0000  0.0000  0.0000
 2453UNL      C10786   4.105   5.186   2.613  0.0000  0.0000  0.0000
 2454UNL      C10787   4.253   4.981   2.621  0.0000  0.0000  0.0000
 2454UNL      C10788   4.018   4.963   2.528  0.0000  0.0000  0.0000
 2455UNL      S10789   4.095   5.443   2.609  0.0000  0.0000  0.0000
 2455UNL      C10790   4.046   5.360   2.754  0.0000  0.0000  0.0000
 2455UNL      C10791   4.057   5.223   2.739  0.0000  0.0000  0.0000
 2456UNL      C10792   4.005   5.428   2.874  0.0000  0.0000  0.0000
 2456UNL      C10793   3.963   5.357   2.985  0.0000  0.0000  0.0000
 2456UNL      C10794   3.933   5.418   3.111  0.0000  0.0000  0.0000
 2456UNL      C10795   3.939   5.555   3.129  0.0000  0.0000  0.0000
 2456UNL      C10796   4.008   5.571   2.889  0.0000  0.0000  0.0000
 2456UNL      C10797   3.975   5.632   3.014  0.0000  0.0000  0.0000
 2457UNL      C10798   3.913   5.624   3.277  0.0000  0.0000  0.0000
 2458UNL      N10799   4.043   5.659   2.794  0.0000  0.0000  0.0000
 2458UNL      N10800   3.988   5.768   3.010  0.0000  0.0000  0.0000
 2458UNL      S10801   4.034   5.805   2.862  0.0000  0.0000  0.0000
 2459UNL      C10802   3.880   5.574   3.398  0.0000  0.0000  0.0000
 2459UNL      S10803   3.853   5.409   3.450  0.0000  0.0000  0.0000
 2459UNL      C10804   3.865   5.664   3.513  0.0000  0.0000  0.0000
 2459UNL      O10805   3.879   5.785   3.511  0.0000  0.0000  0.0000
 2459UNL      N10806   3.831   5.594   3.628  0.0000  0.0000  0.0000
 2459UNL      C10807   3.820   5.457   3.616  0.0000  0.0000  0.0000
 2459UNL      C10808   3.818   5.662   3.757  0.0000  0.0000  0.0000
 2459UNL      C10809   3.950   5.671   3.826  0.0000  0.0000  0.0000
 2459UNL      S10810   3.783   5.351   3.732  0.0000  0.0000  0.0000
 2460UNL      C10811   3.902   5.025   2.457  0.0000  0.0000  0.0000
 2460UNL      C10812   3.776   4.937   2.446  0.0000  0.0000  0.0000
 2460UNL      C10813   3.708   4.909   2.581  0.0000  0.0000  0.0000
 2460UNL      C10814   3.641   5.032   2.645  0.0000  0.0000  0.0000
 2460UNL      C10815   3.563   5.017   2.777  0.0000  0.0000  0.0000
 2460UNL      C10816   3.661   4.998   2.895  0.0000  0.0000  0.0000
 2460UNL      C10817   3.579   4.977   3.022  0.0000  0.0000  0.0000
 2460UNL      C10818   4.379   5.064   2.647  0.0000  0.0000  0.0000
 2460UNL      C10819   4.480   5.006   2.742  0.0000  0.0000  0.0000
 2460UNL      C10820   4.430   5.013   2.888  0.0000  0.0000  0.0000
 2460UNL      C10821   4.540   4.973   2.993  0.0000  0.0000  0.0000
 2460UNL      C10822   4.479   4.983   3.135  0.0000  0.0000  0.0000
 2460UNL      C10823   4.588   4.955   3.240  0.0000  0.0000  0.0000
 2460UNL      C10824   4.538   4.987   3.387  0.0000  0.0000  0.0000
 2461UNL      C10825   4.472   5.408   3.765  0.0000  0.0000  0.0000
 2461UNL      C10826   4.486   5.513   3.662  0.0000  0.0000  0.0000
 2461UNL      N10827   4.416   5.463   3.882  0.0000  0.0000  0.0000
 2461UNL      S10828   4.431   5.665   3.724  0.0000  0.0000  0.0000
 2461UNL      C10829   4.386   5.597   3.879  0.0000  0.0000  0.0000
 2461UNL      C10830   4.394   5.376   3.998  0.0000  0.0000  0.0000
 2461UNL      S10831   4.319   5.685   3.997  0.0000  0.0000  0.0000
 2461UNL      O10832   4.504   5.292   3.756  0.0000  0.0000  0.0000
 2461UNL      C10833   4.532   5.478   3.539  0.0000  0.0000  0.0000
 2462UNL      C10834   4.559   5.559   3.422  0.0000  0.0000  0.0000
 2462UNL      C10835   4.558   5.696   3.415  0.0000  0.0000  0.0000
 2462UNL      C10836   4.592   5.491   3.302  0.0000  0.0000  0.0000
 2462UNL      C10837   4.585   5.766   3.297  0.0000  0.0000  0.0000
 2462UNL      C10838   4.617   5.705   3.153  0.0000  0.0000  0.0000
 2462UNL      C10839   4.621   5.561   3.158  0.0000  0.0000  0.0000
 2462UNL      N10840   4.602   5.356   3.288  0.0000  0.0000  0.0000
 2462UNL      N10841   4.652   5.479   3.054  0.0000  0.0000  0.0000
 2462UNL      S10842   4.645   5.328   3.111  0.0000  0.0000  0.0000
 2463UNL      C10843   4.649   5.780   3.034  0.0000  0.0000  0.0000
 2463UNL      C10844   4.654   5.918   3.021  0.0000  0.0000  0.0000
 2463UNL      C10845   4.696   5.958   2.893  0.0000  0.0000  0.0000
 2463UNL      C10846   4.721   5.853   2.810  0.0000  0.0000  0.0000
 2463UNL      S10847   4.694   5.702   2.884  0.0000  0.0000  0.0000
 2464UNL      C10848   4.772   5.898   2.682  0.0000  0.0000  0.0000
 2464UNL      C10849   4.777   6.039   2.689  0.0000  0.0000  0.0000
 2465UNL      C10850   4.725   6.091   2.825  0.0000  0.0000  0.0000
 2466UNL      C10851   4.824   6.112   2.583  0.0000  0.0000  0.0000
 2467UNL      C10852   4.598   6.176   2.804  0.0000  0.0000  0.0000
 2467UNL      C10853   4.833   6.171   2.899  0.0000  0.0000  0.0000
 2467UNL      C10854   4.959   6.098   2.933  0.0000  0.0000  0.0000
 2467UNL      C10855   4.485   6.106   2.732  0.0000  0.0000  0.0000
 2467UNL      C10856   5.063   6.187   2.994  0.0000  0.0000  0.0000
 2467UNL      C10857   5.191   6.118   3.030  0.0000  0.0000  0.0000
 2467UNL      C10858   5.305   6.197   3.087  0.0000  0.0000  0.0000
 2467UNL      C10859   5.327   6.344   3.065  0.0000  0.0000  0.0000
 2467UNL      C10860   5.435   6.448   3.063  0.0000  0.0000  0.0000
 2467UNL      C10861   5.414   6.569   3.147  0.0000  0.0000  0.0000
 2467UNL      C10862   4.360   6.186   2.708  0.0000  0.0000  0.0000
 2467UNL      C10863   4.257   6.107   2.632  0.0000  0.0000  0.0000
 2467UNL      C10864   4.122   6.172   2.611  0.0000  0.0000  0.0000
 2467UNL      C10865   4.026   6.081   2.540  0.0000  0.0000  0.0000
 2467UNL      C10866   3.894   6.150   2.516  0.0000  0.0000  0.0000
 2467UNL      C10867   3.808   6.152   2.640  0.0000  0.0000  0.0000
 2468UNL      C10868   4.811   5.829   2.569  0.0000  0.0000  0.0000
 2468UNL      C10869   4.858   5.901   2.463  0.0000  0.0000  0.0000
 2469UNL      C10870   4.519   5.371   4.085  0.0000  0.0000  0.0000
 2470UNL      C10871   4.864   6.043   2.469  0.0000  0.0000  0.0000
 2471UNL      C10872   4.918   6.087   2.340  0.0000  0.0000  0.0000
 2472UNL      C10873   4.908   5.848   2.328  0.0000  0.0000  0.0000
 2473UNL      C10874   4.944   5.979   2.260  0.0000  0.0000  0.0000
 2474UNL      C10875   4.796   5.773   2.252  0.0000  0.0000  0.0000
 2474UNL      C10876   5.031   5.755   2.345  0.0000  0.0000  0.0000
 2475UNL      S10877   4.954   6.235   2.264  0.0000  0.0000  0.0000
 2475UNL      C10878   5.004   6.152   2.118  0.0000  0.0000  0.0000
 2475UNL      C10879   4.993   6.015   2.134  0.0000  0.0000  0.0000
 2476UNL      C10880   5.044   6.221   1.998  0.0000  0.0000  0.0000
 2476UNL      C10881   5.086   6.149   1.887  0.0000  0.0000  0.0000
 2476UNL      C10882   5.116   6.211   1.762  0.0000  0.0000  0.0000
 2476UNL      C10883   5.110   6.347   1.743  0.0000  0.0000  0.0000
 2476UNL      C10884   5.041   6.363   1.983  0.0000  0.0000  0.0000
 2476UNL      C10885   5.074   6.425   1.859  0.0000  0.0000  0.0000
 2477UNL      C10886   5.136   6.416   1.619  0.0000  0.0000  0.0000
 2478UNL      N10887   5.006   6.452   2.079  0.0000  0.0000  0.0000
 2478UNL      N10888   5.061   6.560   1.862  0.0000  0.0000  0.0000
 2478UNL      S10889   5.016   6.597   2.011  0.0000  0.0000  0.0000
 2479UNL      C10890   5.169   6.366   1.498  0.0000  0.0000  0.0000
 2479UNL      S10891   5.196   6.202   1.446  0.0000  0.0000  0.0000
 2479UNL      C10892   5.183   6.457   1.383  0.0000  0.0000  0.0000
 2479UNL      O10893   5.170   6.577   1.385  0.0000  0.0000  0.0000
 2479UNL      N10894   5.218   6.386   1.268  0.0000  0.0000  0.0000
 2479UNL      C10895   5.229   6.249   1.280  0.0000  0.0000  0.0000
 2479UNL      C10896   5.231   6.455   1.140  0.0000  0.0000  0.0000
 2479UNL      C10897   5.099   6.463   1.070  0.0000  0.0000  0.0000
 2479UNL      S10898   5.266   6.144   1.164  0.0000  0.0000  0.0000
 2480UNL      C10899   5.147   5.817   2.415  0.0000  0.0000  0.0000
 2480UNL      C10900   5.273   5.729   2.427  0.0000  0.0000  0.0000
 2480UNL      C10901   5.341   5.702   2.292  0.0000  0.0000  0.0000
 2480UNL      C10902   5.408   5.824   2.227  0.0000  0.0000  0.0000
 2480UNL      C10903   5.486   5.809   2.095  0.0000  0.0000  0.0000
 2480UNL      C10904   5.388   5.791   1.978  0.0000  0.0000  0.0000
 2480UNL      C10905   5.471   5.769   1.850  0.0000  0.0000  0.0000
 2480UNL      C10906   4.670   5.856   2.226  0.0000  0.0000  0.0000
 2480UNL      C10907   4.569   5.798   2.131  0.0000  0.0000  0.0000
 2480UNL      C10908   4.619   5.805   1.985  0.0000  0.0000  0.0000
 2480UNL      C10909   4.509   5.765   1.880  0.0000  0.0000  0.0000
 2480UNL      C10910   4.570   5.776   1.738  0.0000  0.0000  0.0000
 2480UNL      C10911   4.461   5.747   1.632  0.0000  0.0000  0.0000
 2480UNL      C10912   4.511   5.779   1.485  0.0000  0.0000  0.0000
 2481UNL      C10913   4.277   6.478   5.366  0.0000  0.0000  0.0000
 2481UNL      C10914   4.292   6.372   5.263  0.0000  0.0000  0.0000
 2481UNL      N10915   4.221   6.423   5.482  0.0000  0.0000  0.0000
 2481UNL      S10916   4.236   6.220   5.324  0.0000  0.0000  0.0000
 2481UNL      C10917   4.191   6.289   5.479  0.0000  0.0000  0.0000
 2481UNL      C10918   4.199   6.509   5.599  0.0000  0.0000  0.0000
 2481UNL      S10919   4.124   6.201   5.598  0.0000  0.0000  0.0000
 2481UNL      O10920   4.310   6.593   5.356  0.0000  0.0000  0.0000
 2481UNL      C10921   4.337   6.408   5.139  0.0000  0.0000  0.0000
 2482UNL      C10922   4.364   6.327   5.023  0.0000  0.0000  0.0000
 2482UNL      C10923   4.363   6.190   5.016  0.0000  0.0000  0.0000
 2482UNL      C10924   4.398   6.395   4.902  0.0000  0.0000  0.0000
 2482UNL      C10925   4.390   6.119   4.897  0.0000  0.0000  0.0000
 2482UNL      C10926   4.422   6.180   4.776  0.0000  0.0000  0.0000
 2482UNL      C10927   4.426   6.324   4.781  0.0000  0.0000  0.0000
 2482UNL      N10928   4.407   6.529   4.888  0.0000  0.0000  0.0000
 2482UNL      N10929   4.457   6.406   4.678  0.0000  0.0000  0.0000
 2482UNL      S10930   4.450   6.557   4.734  0.0000  0.0000  0.0000
 2483UNL      C10931   4.454   6.105   4.658  0.0000  0.0000  0.0000
 2483UNL      C10932   4.459   5.968   4.645  0.0000  0.0000  0.0000
 2483UNL      C10933   4.501   5.927   4.517  0.0000  0.0000  0.0000
 2483UNL      C10934   4.526   6.033   4.434  0.0000  0.0000  0.0000
 2483UNL      S10935   4.499   6.183   4.508  0.0000  0.0000  0.0000
 2484UNL      C10936   4.577   5.987   4.306  0.0000  0.0000  0.0000
 2484UNL      C10937   4.582   5.847   4.313  0.0000  0.0000  0.0000
 2485UNL      C10938   4.531   5.794   4.449  0.0000  0.0000  0.0000
 2486UNL      C10939   4.629   5.774   4.206  0.0000  0.0000  0.0000
 2487UNL      C10940   4.403   5.709   4.428  0.0000  0.0000  0.0000
 2487UNL      C10941   4.638   5.714   4.523  0.0000  0.0000  0.0000
 2487UNL      C10942   4.764   5.787   4.557  0.0000  0.0000  0.0000
 2487UNL      C10943   4.291   5.779   4.356  0.0000  0.0000  0.0000
 2487UNL      C10944   4.869   5.698   4.618  0.0000  0.0000  0.0000
 2487UNL      C10945   4.996   5.768   4.654  0.0000  0.0000  0.0000
 2487UNL      C10946   5.110   5.688   4.710  0.0000  0.0000  0.0000
 2487UNL      C10947   5.132   5.541   4.689  0.0000  0.0000  0.0000
 2487UNL      C10948   5.240   5.437   4.686  0.0000  0.0000  0.0000
 2487UNL      C10949   5.219   5.316   4.771  0.0000  0.0000  0.0000
 2487UNL      C10950   4.165   5.699   4.332  0.0000  0.0000  0.0000
 2487UNL      C10951   4.062   5.779   4.256  0.0000  0.0000  0.0000
 2487UNL      C10952   3.928   5.714   4.235  0.0000  0.0000  0.0000
 2487UNL      C10953   3.831   5.805   4.164  0.0000  0.0000  0.0000
 2487UNL      C10954   3.700   5.735   4.140  0.0000  0.0000  0.0000
 2487UNL      C10955   3.613   5.733   4.264  0.0000  0.0000  0.0000
 2488UNL      C10956   4.616   6.056   4.193  0.0000  0.0000  0.0000
 2488UNL      C10957   4.663   5.984   4.086  0.0000  0.0000  0.0000
 2489UNL      C10958   4.324   6.514   5.686  0.0000  0.0000  0.0000
 2490UNL      C10959   4.669   5.843   4.093  0.0000  0.0000  0.0000
 2491UNL      C10960   4.723   5.798   3.964  0.0000  0.0000  0.0000
 2492UNL      C10961   4.713   6.037   3.951  0.0000  0.0000  0.0000
 2493UNL      C10962   4.749   5.907   3.883  0.0000  0.0000  0.0000
 2494UNL      C10963   4.601   6.112   3.876  0.0000  0.0000  0.0000
 2494UNL      C10964   4.836   6.130   3.969  0.0000  0.0000  0.0000
 2495UNL      S10965   4.759   5.650   3.888  0.0000  0.0000  0.0000
 2495UNL      C10966   4.809   5.733   3.742  0.0000  0.0000  0.0000
 2495UNL      C10967   4.798   5.870   3.758  0.0000  0.0000  0.0000
 2496UNL      C10968   4.849   5.664   3.622  0.0000  0.0000  0.0000
 2496UNL      C10969   4.892   5.736   3.511  0.0000  0.0000  0.0000
 2496UNL      C10970   4.921   5.674   3.386  0.0000  0.0000  0.0000
 2496UNL      C10971   4.915   5.538   3.367  0.0000  0.0000  0.0000
 2496UNL      C10972   4.846   5.522   3.607  0.0000  0.0000  0.0000
 2496UNL      C10973   4.879   5.460   3.483  0.0000  0.0000  0.0000
 2497UNL      C10974   4.941   5.469   3.219  0.0000  0.0000  0.0000
 2498UNL      N10975   4.811   5.433   3.702  0.0000  0.0000  0.0000
 2498UNL      N10976   4.866   5.325   3.486  0.0000  0.0000  0.0000
 2498UNL      S10977   4.821   5.288   3.635  0.0000  0.0000  0.0000
 2499UNL      C10978   4.974   5.519   3.098  0.0000  0.0000  0.0000
 2499UNL      S10979   5.002   5.683   3.047  0.0000  0.0000  0.0000
 2499UNL      C10980   4.989   5.429   2.984  0.0000  0.0000  0.0000
 2499UNL      O10981   4.975   5.308   2.985  0.0000  0.0000  0.0000
 2499UNL      N10982   5.024   5.499   2.869  0.0000  0.0000  0.0000
 2499UNL      C10983   5.035   5.636   2.880  0.0000  0.0000  0.0000
 2499UNL      C10984   5.036   5.431   2.740  0.0000  0.0000  0.0000
 2499UNL      C10985   4.905   5.422   2.670  0.0000  0.0000  0.0000
 2499UNL      S10986   5.071   5.742   2.765  0.0000  0.0000  0.0000
 2500UNL      C10987   4.952   6.068   4.039  0.0000  0.0000  0.0000
 2500UNL      C10988   5.078   6.156   4.051  0.0000  0.0000  0.0000
 2500UNL      C10989   5.146   6.183   3.916  0.0000  0.0000  0.0000
 2500UNL      C10990   5.213   6.061   3.851  0.0000  0.0000  0.0000
 2500UNL      C10991   5.291   6.076   3.719  0.0000  0.0000  0.0000
 2500UNL      C10992   5.193   6.095   3.602  0.0000  0.0000  0.0000
 2500UNL      C10993   5.276   6.116   3.474  0.0000  0.0000  0.0000
 2500UNL      C10994   4.475   6.029   3.849  0.0000  0.0000  0.0000
 2500UNL      C10995   4.374   6.087   3.755  0.0000  0.0000  0.0000
 2500UNL      C10996   4.424   6.080   3.609  0.0000  0.0000  0.0000
 2500UNL      C10997   4.315   6.120   3.504  0.0000  0.0000  0.0000
 2500UNL      C10998   4.375   6.109   3.362  0.0000  0.0000  0.0000
 2500UNL      C10999   4.266   6.138   3.256  0.0000  0.0000  0.0000
 2500UNL      C11000   4.316   6.106   3.109  0.0000  0.0000  0.0000
 2501UNL      C11001   4.382   5.685   2.731  0.0000  0.0000  0.0000
 2501UNL      C11002   4.368   5.580   2.834  0.0000  0.0000  0.0000
 2501UNL      N11003   4.438   5.630   2.615  0.0000  0.0000  0.0000
 2501UNL      S11004   4.423   5.428   2.773  0.0000  0.0000  0.0000
 2501UNL      C11005   4.468   5.496   2.618  0.0000  0.0000  0.0000
 2501UNL      C11006   4.461   5.717   2.498  0.0000  0.0000  0.0000
 2501UNL      S11007   4.535   5.408   2.499  0.0000  0.0000  0.0000
 2501UNL      O11008   4.350   5.800   2.741  0.0000  0.0000  0.0000
 2501UNL      C11009   4.322   5.615   2.958  0.0000  0.0000  0.0000
 2502UNL      C11010   4.295   5.534   3.074  0.0000  0.0000  0.0000
 2502UNL      C11011   4.297   5.397   3.081  0.0000  0.0000  0.0000
 2502UNL      C11012   4.262   5.602   3.194  0.0000  0.0000  0.0000
 2502UNL      C11013   4.269   5.327   3.200  0.0000  0.0000  0.0000
 2502UNL      C11014   4.237   5.388   3.344  0.0000  0.0000  0.0000
 2502UNL      C11015   4.234   5.532   3.339  0.0000  0.0000  0.0000
 2502UNL      N11016   4.252   5.737   3.209  0.0000  0.0000  0.0000
 2502UNL      N11017   4.202   5.613   3.442  0.0000  0.0000  0.0000
 2502UNL      S11018   4.209   5.765   3.386  0.0000  0.0000  0.0000
 2503UNL      C11019   4.206   5.312   3.462  0.0000  0.0000  0.0000
 2503UNL      C11020   4.200   5.175   3.475  0.0000  0.0000  0.0000
 2503UNL      C11021   4.158   5.134   3.603  0.0000  0.0000  0.0000
 2503UNL      C11022   4.133   5.240   3.686  0.0000  0.0000  0.0000
 2503UNL      S11023   4.160   5.391   3.612  0.0000  0.0000  0.0000
 2504UNL      C11024   4.083   5.195   3.815  0.0000  0.0000  0.0000
 2504UNL      C11025   4.077   5.054   3.807  0.0000  0.0000  0.0000
 2505UNL      C11026   4.129   5.002   3.671  0.0000  0.0000  0.0000
 2506UNL      C11027   4.030   4.981   3.914  0.0000  0.0000  0.0000
 2507UNL      C11028   4.256   4.917   3.692  0.0000  0.0000  0.0000
 2507UNL      C11029   4.021   4.922   3.597  0.0000  0.0000  0.0000
 2507UNL      C11030   3.895   4.995   3.563  0.0000  0.0000  0.0000
 2507UNL      C11031   4.369   4.987   3.764  0.0000  0.0000  0.0000
 2507UNL      C11032   3.791   4.906   3.503  0.0000  0.0000  0.0000
 2507UNL      C11033   3.663   4.975   3.466  0.0000  0.0000  0.0000
 2507UNL      C11034   3.549   4.895   3.410  0.0000  0.0000  0.0000
 2507UNL      C11035   3.527   4.749   3.432  0.0000  0.0000  0.0000
 2507UNL      C11036   3.419   4.645   3.434  0.0000  0.0000  0.0000
 2507UNL      C11037   3.440   4.523   3.349  0.0000  0.0000  0.0000
 2507UNL      C11038   4.495   4.907   3.788  0.0000  0.0000  0.0000
 2507UNL      C11039   4.597   4.986   3.865  0.0000  0.0000  0.0000
 2507UNL      C11040   4.732   4.921   3.885  0.0000  0.0000  0.0000
 2507UNL      C11041   4.828   5.012   3.956  0.0000  0.0000  0.0000
 2507UNL      C11042   4.960   4.943   3.980  0.0000  0.0000  0.0000
 2507UNL      C11043   5.046   4.941   3.856  0.0000  0.0000  0.0000
 2508UNL      C11044   4.044   5.264   3.927  0.0000  0.0000  0.0000
 2508UNL      C11045   3.996   5.192   4.034  0.0000  0.0000  0.0000
 2509UNL      C11046   4.335   5.721   2.411  0.0000  0.0000  0.0000
 2510UNL      C11047   3.990   5.050   4.028  0.0000  0.0000  0.0000
 2511UNL      C11048   3.936   5.006   4.156  0.0000  0.0000  0.0000
 2512UNL      C11049   3.946   5.245   4.169  0.0000  0.0000  0.0000
 2513UNL      C11050   3.910   5.114   4.237  0.0000  0.0000  0.0000
 2514UNL      C11051   4.058   5.320   4.244  0.0000  0.0000  0.0000
 2514UNL      C11052   3.823   5.338   4.151  0.0000  0.0000  0.0000
 2515UNL      S11053   3.901   4.858   4.232  0.0000  0.0000  0.0000
 2515UNL      C11054   3.851   4.941   4.378  0.0000  0.0000  0.0000
 2515UNL      C11055   3.862   5.078   4.363  0.0000  0.0000  0.0000
 2516UNL      C11056   3.810   4.872   4.498  0.0000  0.0000  0.0000
 2516UNL      C11057   3.768   4.944   4.609  0.0000  0.0000  0.0000
 2516UNL      C11058   3.738   4.882   4.735  0.0000  0.0000  0.0000
 2516UNL      C11059   3.744   4.745   4.753  0.0000  0.0000  0.0000
 2516UNL      C11060   3.813   4.730   4.513  0.0000  0.0000  0.0000
 2516UNL      C11061   3.780   4.668   4.638  0.0000  0.0000  0.0000
 2517UNL      C11062   3.718   4.676   4.877  0.0000  0.0000  0.0000
 2518UNL      N11063   3.848   4.641   4.418  0.0000  0.0000  0.0000
 2518UNL      N11064   3.793   4.533   4.634  0.0000  0.0000  0.0000
 2518UNL      S11065   3.839   4.496   4.485  0.0000  0.0000  0.0000
 2519UNL      C11066   3.685   4.727   4.999  0.0000  0.0000  0.0000
 2519UNL      S11067   3.658   4.891   5.050  0.0000  0.0000  0.0000
 2519UNL      C11068   3.671   4.636   5.113  0.0000  0.0000  0.0000
 2519UNL      O11069   3.684   4.516   5.112  0.0000  0.0000  0.0000
 2519UNL      N11070   3.636   4.707   5.228  0.0000  0.0000  0.0000
 2519UNL      C11071   3.625   4.844   5.217  0.0000  0.0000  0.0000
 2519UNL      C11072   3.624   4.638   5.357  0.0000  0.0000  0.0000
 2519UNL      C11073   3.755   4.629   5.427  0.0000  0.0000  0.0000
 2519UNL      S11074   3.588   4.949   5.332  0.0000  0.0000  0.0000
 2520UNL      C11075   3.707   5.275   4.081  0.0000  0.0000  0.0000
 2520UNL      C11076   3.581   5.364   4.070  0.0000  0.0000  0.0000
 2520UNL      C11077   3.513   5.391   4.205  0.0000  0.0000  0.0000
 2520UNL      C11078   3.446   5.268   4.269  0.0000  0.0000  0.0000
 2520UNL      C11079   3.369   5.284   4.401  0.0000  0.0000  0.0000
 2520UNL      C11080   3.466   5.302   4.518  0.0000  0.0000  0.0000
 2520UNL      C11081   3.384   5.324   4.646  0.0000  0.0000  0.0000
 2520UNL      C11082   4.184   5.236   4.271  0.0000  0.0000  0.0000
 2520UNL      C11083   4.285   5.295   4.365  0.0000  0.0000  0.0000
 2520UNL      C11084   4.235   5.288   4.512  0.0000  0.0000  0.0000
 2520UNL      C11085   4.345   5.327   4.616  0.0000  0.0000  0.0000
 2520UNL      C11086   4.284   5.317   4.758  0.0000  0.0000  0.0000
 2520UNL      C11087   4.393   5.345   4.864  0.0000  0.0000  0.0000
 2520UNL      C11088   4.343   5.313   5.011  0.0000  0.0000  0.0000
 2521UNL      C11089   4.187   4.615   4.379  0.0000  0.0000  0.0000
 2521UNL      C11090   4.172   4.720   4.482  0.0000  0.0000  0.0000
 2521UNL      N11091   4.243   4.670   4.262  0.0000  0.0000  0.0000
 2521UNL      S11092   4.228   4.873   4.420  0.0000  0.0000  0.0000
 2521UNL      C11093   4.273   4.804   4.265  0.0000  0.0000  0.0000
 2521UNL      C11094   4.265   4.584   4.146  0.0000  0.0000  0.0000
 2521UNL      S11095   4.340   4.892   4.147  0.0000  0.0000  0.0000
 2521UNL      O11096   4.154   4.500   4.388  0.0000  0.0000  0.0000
 2521UNL      C11097   4.127   4.685   4.605  0.0000  0.0000  0.0000
 2522UNL      C11098   4.100   4.766   4.722  0.0000  0.0000  0.0000
 2522UNL      C11099   4.101   4.903   4.729  0.0000  0.0000  0.0000
 2522UNL      C11100   4.067   4.698   4.842  0.0000  0.0000  0.0000
 2522UNL      C11101   4.074   4.974   4.847  0.0000  0.0000  0.0000
 2522UNL      C11102   4.042   4.912   4.968  0.0000  0.0000  0.0000
 2522UNL      C11103   4.038   4.769   4.963  0.0000  0.0000  0.0000
 2522UNL      N11104   4.057   4.563   4.856  0.0000  0.0000  0.0000
 2522UNL      N11105   4.007   4.687   5.067  0.0000  0.0000  0.0000
 2522UNL      S11106   4.014   4.536   5.010  0.0000  0.0000  0.0000
 2523UNL      C11107   4.011   4.988   5.087  0.0000  0.0000  0.0000
 2523UNL      C11108   4.005   5.125   5.100  0.0000  0.0000  0.0000
 2523UNL      C11109   3.963   5.166   5.227  0.0000  0.0000  0.0000
 2523UNL      C11110   3.938   5.060   5.310  0.0000  0.0000  0.0000
 2523UNL      S11111   3.965   4.909   5.237  0.0000  0.0000  0.0000
 2524UNL      C11112   3.887   5.105   5.439  0.0000  0.0000  0.0000
 2524UNL      C11113   3.882   5.246   5.432  0.0000  0.0000  0.0000
 2525UNL      C11114   3.934   5.299   5.295  0.0000  0.0000  0.0000
 2526UNL      C11115   3.835   5.319   5.538  0.0000  0.0000  0.0000
 2527UNL      C11116   4.061   5.384   5.317  0.0000  0.0000  0.0000
 2527UNL      C11117   3.826   5.378   5.221  0.0000  0.0000  0.0000
 2527UNL      C11118   3.700   5.306   5.187  0.0000  0.0000  0.0000
 2527UNL      C11119   4.174   5.314   5.389  0.0000  0.0000  0.0000
 2527UNL      C11120   3.596   5.395   5.127  0.0000  0.0000  0.0000
 2527UNL      C11121   3.468   5.325   5.090  0.0000  0.0000  0.0000
 2527UNL      C11122   3.354   5.405   5.034  0.0000  0.0000  0.0000
 2527UNL      C11123   3.332   5.552   5.056  0.0000  0.0000  0.0000
 2527UNL      C11124   3.224   5.655   5.058  0.0000  0.0000  0.0000
 2527UNL      C11125   3.245   5.777   4.973  0.0000  0.0000  0.0000
 2527UNL      C11126   4.300   5.394   5.412  0.0000  0.0000  0.0000
 2527UNL      C11127   4.402   5.314   5.489  0.0000  0.0000  0.0000
 2527UNL      C11128   4.537   5.379   5.509  0.0000  0.0000  0.0000
 2527UNL      C11129   4.633   5.288   5.580  0.0000  0.0000  0.0000
 2527UNL      C11130   4.765   5.358   5.604  0.0000  0.0000  0.0000
 2527UNL      C11131   4.851   5.359   5.481  0.0000  0.0000  0.0000
 2528UNL      C11132   3.848   5.036   5.551  0.0000  0.0000  0.0000
 2528UNL      C11133   3.801   5.108   5.658  0.0000  0.0000  0.0000
 2529UNL      C11134   4.140   4.579   4.059  0.0000  0.0000  0.0000
 2530UNL      C11135   3.795   5.250   5.652  0.0000  0.0000  0.0000
 2531UNL      C11136   3.741   5.294   5.780  0.0000  0.0000  0.0000
 2532UNL      C11137   3.751   5.056   5.793  0.0000  0.0000  0.0000
 2533UNL      C11138   3.715   5.186   5.861  0.0000  0.0000  0.0000
 2534UNL      C11139   3.863   4.981   5.869  0.0000  0.0000  0.0000
 2534UNL      C11140   3.628   4.963   5.776  0.0000  0.0000  0.0000
 2535UNL      S11141   3.705   5.443   5.857  0.0000  0.0000  0.0000
 2535UNL      C11142   3.656   5.360   6.002  0.0000  0.0000  0.0000
 2535UNL      C11143   3.667   5.223   5.987  0.0000  0.0000  0.0000
 2536UNL      C11144   3.615   5.428   6.122  0.0000  0.0000  0.0000
 2536UNL      C11145   3.573   5.357   6.233  0.0000  0.0000  0.0000
 2536UNL      C11146   3.543   5.418   6.359  0.0000  0.0000  0.0000
 2536UNL      C11147   3.549   5.555   6.377  0.0000  0.0000  0.0000
 2536UNL      C11148   3.618   5.571   6.137  0.0000  0.0000  0.0000
 2536UNL      C11149   3.585   5.632   6.262  0.0000  0.0000  0.0000
 2537UNL      C11150   3.523   5.624   6.525  0.0000  0.0000  0.0000
 2538UNL      N11151   3.653   5.659   6.042  0.0000  0.0000  0.0000
 2538UNL      N11152   3.598   5.768   6.258  0.0000  0.0000  0.0000
 2538UNL      S11153   3.644   5.805   6.110  0.0000  0.0000  0.0000
 2539UNL      C11154   3.490   5.574   6.646  0.0000  0.0000  0.0000
 2539UNL      S11155   3.463   5.409   6.698  0.0000  0.0000  0.0000
 2539UNL      C11156   3.475   5.664   6.761  0.0000  0.0000  0.0000
 2539UNL      O11157   3.489   5.785   6.759  0.0000  0.0000  0.0000
 2539UNL      N11158   3.441   5.594   6.876  0.0000  0.0000  0.0000
 2539UNL      C11159   3.430   5.457   6.864  0.0000  0.0000  0.0000
 2539UNL      C11160   3.428   5.662   7.005  0.0000  0.0000  0.0000
 2539UNL      C11161   3.560   5.671   7.074  0.0000  0.0000  0.0000
 2539UNL      S11162   3.393   5.351   6.980  0.0000  0.0000  0.0000
 2540UNL      C11163   3.512   5.025   5.705  0.0000  0.0000  0.0000
 2540UNL      C11164   3.386   4.937   5.694  0.0000  0.0000  0.0000
 2540UNL      C11165   3.318   4.909   5.829  0.0000  0.0000  0.0000
 2540UNL      C11166   3.251   5.032   5.893  0.0000  0.0000  0.0000
 2540UNL      C11167   3.173   5.017   6.025  0.0000  0.0000  0.0000
 2540UNL      C11168   3.271   4.998   6.143  0.0000  0.0000  0.0000
 2540UNL      C11169   3.189   4.977   6.270  0.0000  0.0000  0.0000
 2540UNL      C11170   3.989   5.064   5.895  0.0000  0.0000  0.0000
 2540UNL      C11171   4.090   5.006   5.990  0.0000  0.0000  0.0000
 2540UNL      C11172   4.040   5.013   6.136  0.0000  0.0000  0.0000
 2540UNL      C11173   4.150   4.973   6.241  0.0000  0.0000  0.0000
 2540UNL      C11174   4.089   4.983   6.383  0.0000  0.0000  0.0000
 2540UNL      C11175   4.198   4.955   6.488  0.0000  0.0000  0.0000
 2540UNL      C11176   4.148   4.987   6.635  0.0000  0.0000  0.0000
 2541UNL      C11177   4.082   5.408   7.013  0.0000  0.0000  0.0000
 2541UNL      C11178   4.096   5.513   6.910  0.0000  0.0000  0.0000
 2541UNL      N11179   4.026   5.463   7.130  0.0000  0.0000  0.0000
 2541UNL      S11180   4.041   5.665   6.972  0.0000  0.0000  0.0000
 2541UNL      C11181   3.996   5.597   7.127  0.0000  0.0000  0.0000
 2541UNL      C11182   4.004   5.376   7.246  0.0000  0.0000  0.0000
 2541UNL      S11183   3.929   5.685   7.245  0.0000  0.0000  0.0000
 2541UNL      O11184   4.114   5.292   7.004  0.0000  0.0000  0.0000
 2541UNL      C11185   4.142   5.478   6.787  0.0000  0.0000  0.0000
 2542UNL      C11186   4.169   5.559   6.670  0.0000  0.0000  0.0000
 2542UNL      C11187   4.168   5.696   6.663  0.0000  0.0000  0.0000
 2542UNL      C11188   4.202   5.491   6.550  0.0000  0.0000  0.0000
 2542UNL      C11189   4.195   5.766   6.545  0.0000  0.0000  0.0000
 2542UNL      C11190   4.227   5.705   6.401  0.0000  0.0000  0.0000
 2542UNL      C11191   4.231   5.561   6.406  0.0000  0.0000  0.0000
 2542UNL      N11192   4.212   5.356   6.536  0.0000  0.0000  0.0000
 2542UNL      N11193   4.262   5.479   6.302  0.0000  0.0000  0.0000
 2542UNL      S11194   4.255   5.328   6.359  0.0000  0.0000  0.0000
 2543UNL      C11195   4.259   5.780   6.282  0.0000  0.0000  0.0000
 2543UNL      C11196   4.264   5.918   6.269  0.0000  0.0000  0.0000
 2543UNL      C11197   4.306   5.958   6.141  0.0000  0.0000  0.0000
 2543UNL      C11198   4.331   5.853   6.058  0.0000  0.0000  0.0000
 2543UNL      S11199   4.304   5.702   6.132  0.0000  0.0000  0.0000
 2544UNL      C11200   4.382   5.898   5.930  0.0000  0.0000  0.0000
 2544UNL      C11201   4.387   6.039   5.937  0.0000  0.0000  0.0000
 2545UNL      C11202   4.335   6.091   6.073  0.0000  0.0000  0.0000
 2546UNL      C11203   4.434   6.112   5.831  0.0000  0.0000  0.0000
 2547UNL      C11204   4.208   6.176   6.052  0.0000  0.0000  0.0000
 2547UNL      C11205   4.443   6.171   6.147  0.0000  0.0000  0.0000
 2547UNL      C11206   4.569   6.098   6.181  0.0000  0.0000  0.0000
 2547UNL      C11207   4.095   6.106   5.980  0.0000  0.0000  0.0000
 2547UNL      C11208   4.673   6.187   6.242  0.0000  0.0000  0.0000
 2547UNL      C11209   4.801   6.118   6.278  0.0000  0.0000  0.0000
 2547UNL      C11210   4.915   6.197   6.335  0.0000  0.0000  0.0000
 2547UNL      C11211   4.937   6.344   6.313  0.0000  0.0000  0.0000
 2547UNL      C11212   5.045   6.448   6.311  0.0000  0.0000  0.0000
 2547UNL      C11213   5.024   6.569   6.395  0.0000  0.0000  0.0000
 2547UNL      C11214   3.970   6.186   5.956  0.0000  0.0000  0.0000
 2547UNL      C11215   3.867   6.107   5.880  0.0000  0.0000  0.0000
 2547UNL      C11216   3.732   6.172   5.859  0.0000  0.0000  0.0000
 2547UNL      C11217   3.636   6.081   5.788  0.0000  0.0000  0.0000
 2547UNL      C11218   3.504   6.150   5.764  0.0000  0.0000  0.0000
 2547UNL      C11219   3.418   6.152   5.888  0.0000  0.0000  0.0000
 2548UNL      C11220   4.421   5.829   5.817  0.0000  0.0000  0.0000
 2548UNL      C11221   4.468   5.901   5.711  0.0000  0.0000  0.0000
 2549UNL      C11222   4.129   5.371   7.333  0.0000  0.0000  0.0000
 2550UNL      C11223   4.474   6.043   5.717  0.0000  0.0000  0.0000
 2551UNL      C11224   4.528   6.087   5.588  0.0000  0.0000  0.0000
 2552UNL      C11225   4.518   5.848   5.576  0.0000  0.0000  0.0000
 2553UNL      C11226   4.554   5.979   5.508  0.0000  0.0000  0.0000
 2554UNL      C11227   4.406   5.773   5.500  0.0000  0.0000  0.0000
 2554UNL      C11228   4.641   5.755   5.593  0.0000  0.0000  0.0000
 2555UNL      S11229   4.564   6.235   5.512  0.0000  0.0000  0.0000
 2555UNL      C11230   4.614   6.152   5.366  0.0000  0.0000  0.0000
 2555UNL      C11231   4.603   6.015   5.382  0.0000  0.0000  0.0000
 2556UNL      C11232   4.654   6.221   5.246  0.0000  0.0000  0.0000
 2556UNL      C11233   4.696   6.149   5.135  0.0000  0.0000  0.0000
 2556UNL      C11234   4.726   6.211   5.010  0.0000  0.0000  0.0000
 2556UNL      C11235   4.720   6.347   4.991  0.0000  0.0000  0.0000
 2556UNL      C11236   4.651   6.363   5.231  0.0000  0.0000  0.0000
 2556UNL      C11237   4.684   6.425   5.107  0.0000  0.0000  0.0000
 2557UNL      C11238   4.746   6.416   4.867  0.0000  0.0000  0.0000
 2558UNL      N11239   4.616   6.452   5.327  0.0000  0.0000  0.0000
 2558UNL      N11240   4.671   6.560   5.110  0.0000  0.0000  0.0000
 2558UNL      S11241   4.626   6.597   5.259  0.0000  0.0000  0.0000
 2559UNL      C11242   4.779   6.366   4.746  0.0000  0.0000  0.0000
 2559UNL      S11243   4.806   6.202   4.694  0.0000  0.0000  0.0000
 2559UNL      C11244   4.793   6.457   4.631  0.0000  0.0000  0.0000
 2559UNL      O11245   4.780   6.577   4.633  0.0000  0.0000  0.0000
 2559UNL      N11246   4.828   6.386   4.516  0.0000  0.0000  0.0000
 2559UNL      C11247   4.839   6.249   4.528  0.0000  0.0000  0.0000
 2559UNL      C11248   4.841   6.455   4.388  0.0000  0.0000  0.0000
 2559UNL      C11249   4.709   6.463   4.318  0.0000  0.0000  0.0000
 2559UNL      S11250   4.876   6.144   4.412  0.0000  0.0000  0.0000
 2560UNL      C11251   4.757   5.817   5.663  0.0000  0.0000  0.0000
 2560UNL      C11252   4.883   5.729   5.675  0.0000  0.0000  0.0000
 2560UNL      C11253   4.951   5.702   5.540  0.0000  0.0000  0.0000
 2560UNL      C11254   5.018   5.824   5.475  0.0000  0.0000  0.0000
 2560UNL      C11255   5.096   5.809   5.343  0.0000  0.0000  0.0000
 2560UNL      C11256   4.998   5.791   5.226  0.0000  0.0000  0.0000
 2560UNL      C11257   5.081   5.769   5.098  0.0000  0.0000  0.0000
 2560UNL      C11258   4.280   5.856   5.474  0.0000  0.0000  0.0000
 2560UNL      C11259   4.179   5.798   5.379  0.0000  0.0000  0.0000
 2560UNL      C11260   4.229   5.805   5.233  0.0000  0.0000  0.0000
 2560UNL      C11261   4.119   5.765   5.128  0.0000  0.0000  0.0000
 2560UNL      C11262   4.180   5.776   4.986  0.0000  0.0000  0.0000
 2560UNL      C11263   4.071   5.747   4.880  0.0000  0.0000  0.0000
 2560UNL      C11264   4.121   5.779   4.733  0.0000  0.0000  0.0000
   5.50560   6.33920   6.49690   0.00000   0.00000   0.00000   0.00000  -0.78046   0.00000
