IDTBR crystal equilibrated
11264
    11RH     C1    1   0.499   1.561   2.062  0.0318  0.0284 -0.3423
    11RH     C2    2   0.545   1.470   1.954  0.0172 -0.0632 -0.2712
    11RH     N1    3   0.455   1.489   2.175  0.0260  0.1241 -0.2835
    11RH     S1    4   0.528   1.296   2.009 -0.0031 -0.0176 -0.1318
    11RH     C3    5   0.460   1.351   2.172  0.0086  0.1204 -0.1740
    11RH     C4    6   0.389   1.566   2.291  0.3776  0.5385 -0.3074
    11RH     S2    7   0.415   1.243   2.292 -0.0015  0.2223 -0.0861
    11RH     O1    8   0.498   1.685   2.056  0.0472  0.0240 -0.4411
    11RH     C5    9   0.592   1.513   1.836  0.0191 -0.1630 -0.3067
    21BTZ    C6   10   0.634   1.443   1.715 -0.5226  0.0519 -0.2273
    21BTZ    C7   11   0.645   1.307   1.708 -0.4035  0.0533 -0.0897
    21BTZ    C8   12   0.667   1.521   1.599 -0.3131 -0.0218 -0.2193
    21BTZ    C9   13   0.687   1.240   1.587 -0.0750 -0.0172  0.0617
    21BTZ   C10   14   0.719   1.310   1.474  0.1341 -0.0889  0.0752
    21BTZ   C11   15   0.709   1.453   1.476  0.0209 -0.0934 -0.0655
    21BTZ    N2   16   0.660   1.654   1.594 -0.4009 -0.0306 -0.3450
    21BTZ    N3   17   0.738   1.532   1.372  0.2014 -0.1598 -0.0675
    21BTZ    S3   18   0.710   1.700   1.428 -0.0532 -0.1330 -0.2704
    31IDT   C12   19   0.766   1.234   1.357  0.0893  0.0681 -0.1993
    31IDT   C13   20   0.800   1.101   1.353  0.2972  0.1157 -0.0567
    31IDT   C14   21   0.838   1.057   1.223  0.4963  0.0673  0.0181
    31IDT   C15   22   0.835   1.156   1.127  0.4416 -0.0173 -0.0669
    31IDT    S4   23   0.781   1.313   1.194  0.1309 -0.0425 -0.2498
    4IDB    C16   24   0.883   1.105   1.001  0.4103  0.1995 -0.2899
    4IDB    C17   25   0.913   0.966   1.012 -0.2223  0.0784 -0.0226
    51IDQ   C18   26   0.886   0.920   1.155  0.5571 -0.3138 -0.1783
    4IDB    C19   27   0.958   0.893   0.902 -0.3690 -0.2972  0.1609
    51IDQ   C20   28   0.768   0.816   1.140 -0.4749 -0.4736 -0.8648
    51IDQ   C21   29   1.001   0.856   1.244  0.4369 -0.2919 -0.0933
    51IDQ   C22   30   1.148   0.866   1.195 -0.1378  0.6258 -0.3790
    51IDQ   C23   31   0.615   0.855   1.154 -0.0463  0.1130 -0.0451
    51IDQ   C24   32   1.251   0.824   1.302 -0.4087 -0.4319  0.2113
    51IDQ   C25   33   1.395   0.833   1.257 -0.3166 -0.5782  0.4461
    51IDQ   C26   34   1.485   0.790   1.363 -0.2515  0.1270 -0.1181
    51IDQ   C27   35   1.478   0.649   1.420 -0.0887  0.8686  0.8912
    51IDQ   C28   36   1.550   0.656   1.554  0.3079  0.0232 -0.2421
    51IDQ   C29   37   1.562   0.520   1.624  0.4415  0.1004  0.6403
    51IDQ   C30   38   0.550   0.922   1.032 -0.4355 -0.2098  0.4779
    51IDQ   C31   39   0.401   0.953   1.047 -0.1396  0.1159  0.1231
    51IDQ   C32   40   0.336   0.978   0.911 -0.0545  0.1383 -0.1471
    51IDQ   C33   41   0.187   1.017   0.925  0.8577  0.0488 -0.4868
    51IDQ   C34   42   0.100   0.902   0.970  0.4413 -0.6516 -0.0460
    51IDQ   C35   43  -0.041   0.952   1.000 -0.6535 -0.4931  0.5365
    4IDB    C36   44   0.899   1.173   0.879  0.9028 -0.0561 -0.3754
    4IDB    C37   45   0.945   1.097   0.768  0.7441 -0.4388 -0.1850
    11RH    C38   46   0.478   1.594   2.413 -0.1731  0.2518  0.1088
    4IDB    C39   47   0.974   0.961   0.780  0.1236 -0.5528  0.0754
    62IDT   C40   48   1.031   0.917   0.653  0.0962  0.1063 -0.0076
    72IDQ   C41   49   0.988   1.150   0.632  0.2049 -0.5291 -0.2122
    62IDT   C42   50   1.028   1.020   0.561 -0.0967  0.0305 -0.0878
    72IDQ   C43   51   0.853   1.223   0.574 -1.0876  0.1922 -0.2219
    72IDQ   C44   52   1.089   1.269   0.648  0.0867  0.4494 -0.1287
    62IDT    S5   53   1.102   0.768   0.582  0.0061  0.0667 -0.0148
    62IDT   C45   54   1.125   0.857   0.426 -0.3026 -0.0563 -0.1315
    62IDT   C46   55   1.081   0.987   0.433 -0.3224 -0.0615 -0.1579
    82BTZ   C47   56   1.177   0.795   0.299  0.2585  0.1984 -0.2165
    82BTZ   C48   57   1.225   0.874   0.198  0.3162  0.1140 -0.2551
    82BTZ   C49   58   1.268   0.819   0.072  0.3560  0.0123 -0.1971
    82BTZ   C50   59   1.262   0.684   0.047  0.3381 -0.0050 -0.1004
    82BTZ   C51   60   1.169   0.654   0.278  0.2377  0.1844 -0.1156
    82BTZ   C52   61   1.212   0.597   0.150  0.2782  0.0809 -0.0565
    92RH    C53   62   1.289   0.627  -0.090 -0.0673  0.0761  0.1127
    82BTZ    N4   63   1.124   0.567   0.369  0.1825  0.2605 -0.0696
    82BTZ    N5   64   1.201   0.464   0.137  0.2556  0.0739  0.0368
    82BTZ    S6   65   1.135   0.405   0.292  0.1800  0.2019  0.0536
    92RH    C54   66   1.320   0.675  -0.211 -0.1064  0.0774  0.1032
    92RH     S7   67   1.346   0.851  -0.256 -0.2556  0.0907  0.0670
    92RH    C55   68   1.338   0.590  -0.331 -0.0319  0.0679  0.1212
    92RH     O2   69   1.327   0.466  -0.334  0.0735  0.0578  0.1467
    92RH     N6   70   1.370   0.667  -0.445 -0.0957  0.0717  0.1057
    92RH    C56   71   1.380   0.803  -0.431 -0.2123  0.0831  0.0774
    92RH    C57   72   1.413   0.599  -0.569  0.0879  0.3286 -0.5484
    92RH    C58   73   1.305   0.566  -0.669  0.0297  0.2107 -0.2840
    92RH     S8   74   1.416   0.917  -0.550 -0.3073  0.0898  0.0545
    72IDQ   C59   75   1.243   1.235   0.639  0.4219  0.2266  0.2250
    72IDQ   C60   76   1.321   1.361   0.624  0.0587  0.2502 -0.5840
    72IDQ   C61   77   1.473   1.355   0.641  0.6253  0.1421 -0.4107
    72IDQ   C62   78   1.540   1.276   0.525 -0.0894 -0.3052 -0.3024
    72IDQ   C63   79   1.686   1.251   0.555  0.1101  0.4563  0.1586
    72IDQ   C64   80   1.763   1.198   0.438 -0.0760 -0.0516 -0.3228
    72IDQ   C65   81   1.916   1.211   0.455  0.0999  0.6558  0.0313
    72IDQ   C66   82   0.851   1.255   0.421  0.5200  0.3235 -0.0876
    72IDQ   C67   83   0.720   1.316   0.367 -0.2032 -0.2866 -0.1589
    72IDQ   C68   84   0.698   1.288   0.220 -0.9184 -1.0799  0.1408
    72IDQ   C69   85   0.580   1.350   0.149  0.3855 -0.2339 -0.6162
    72IDQ   C70   86   0.548   1.290   0.013  0.2029 -0.3612 -0.1896
    72IDQ   C71   87   0.407   1.316  -0.031 -0.5625  0.3704 -0.1791
    72IDQ   C72   88   0.400   1.275  -0.185 -0.0209  0.5026 -0.4331
    11RH     C1   89   5.848   0.782   6.064 -0.2407 -0.0631 -0.1926
    11RH     C2   90   5.833   0.701   6.187 -0.1256 -0.0376 -0.1618
    11RH     N1   91   5.891   0.703   5.955 -0.0954 -0.0371 -0.1544
    11RH     S1   92   5.877   0.526   6.152  0.1660  0.0188 -0.0844
    11RH     C3   93   5.913   0.569   5.976  0.1218  0.0061 -0.0964
    11RH     C4   94   5.933   0.766   5.825  0.0250  1.0019  0.1289
    11RH     S2   95   5.964   0.454   5.864  0.3270  0.0438 -0.0421
    11RH     O1   96   5.826   0.904   6.054 -0.4390 -0.1023 -0.2455
    11RH     C5   97   5.793   0.752   6.304 -0.2257 -0.0546 -0.1881
    21BTZ    C6   98   5.757   0.689   6.429  0.1923  0.1037 -0.1444
    21BTZ    C7   99   5.759   0.553   6.449  0.2912  0.0998 -0.1817
    21BTZ    C8  100   5.706   0.773   6.533  0.1169  0.0368 -0.1271
    21BTZ    C9  101   5.712   0.494   6.572  0.3213  0.0305 -0.2035
    21BTZ   C10  102   5.662   0.571   6.675  0.2520 -0.0349 -0.1879
    21BTZ   C11  103   5.658   0.713   6.658  0.1475 -0.0337 -0.1491
    21BTZ    N2  104   5.698   0.906   6.525  0.0182  0.0336 -0.0911
    21BTZ    N3  105   5.612   0.798   6.750  0.0731 -0.0936 -0.1310
    21BTZ    S3  106   5.628   0.962   6.680 -0.0414 -0.0618 -0.0838
    31IDT   C12  107   5.621   0.500   6.800 -0.3029  0.3675 -0.1886
    31IDT   C13  108   5.598   0.366   6.811 -0.2298  0.3340 -0.4522
    31IDT   C14  109   5.548   0.327   6.939  0.0491  0.0197 -0.4334
    31IDT   C15  110   5.532   0.432   7.026  0.1902 -0.1881 -0.1560
    31IDT    S4  111   5.579   0.589   6.953 -0.0212  0.0001  0.1053
    4IDB    C16  112   5.471   0.388   7.147  0.2472 -0.1663  0.2834
    4IDB    C17  113   5.451   0.246   7.142 -0.3986 -0.0798  0.2279
    51IDQ   C18  114   5.498   0.197   7.003  0.0228 -0.1437  0.1641
    4IDB    C19  115   5.400   0.177   7.251 -0.5729  0.0875  0.2536
    51IDQ   C20  116   5.604   0.088   7.025  0.8283  0.0953 -0.6041
    51IDQ   C21  117   5.394   0.133   6.904  0.0096 -0.4141  0.2641
    51IDQ   C22  118   5.249   0.148   6.936 -0.2085  0.5807  0.1141
    51IDQ   C23  119   5.755   0.114   6.999  0.0194 -0.5692 -0.1078
    51IDQ   C24  120   5.163   0.100   6.823 -0.4467  0.2331 -0.1378
    51IDQ   C25  121   5.019   0.134   6.837 -0.2626 -0.1560  0.2703
    51IDQ   C26  122   4.925   0.055   6.742  0.3192  0.0575 -0.5983
    51IDQ   C27  123   4.927  -0.097   6.739  0.4359  0.3251 -0.2169
    51IDQ   C28  124   4.844  -0.156   6.630  0.2568  0.4127 -0.3718
    51IDQ   C29  125   4.860  -0.305   6.635  0.6132 -0.2875  0.4628
    51IDQ   C30  126   5.839   0.208   7.093  0.1320  0.6965  0.9255
    51IDQ   C31  127   5.976   0.179   7.042 -0.5100 -0.1926 -1.1455
    51IDQ   C32  128   6.087   0.250   7.131 -0.7118  0.5880 -0.4386
    51IDQ   C33  129   6.232   0.214   7.096  0.5254  0.0276 -0.0220
    51IDQ   C34  130   6.345   0.279   7.173  0.0791  0.2150 -0.3840
    51IDQ   C35  131   6.478   0.214   7.132 -0.1386  0.4947 -0.4601
    4IDB    C36  132   5.440   0.461   7.262  0.7252 -0.0855  0.3654
    4IDB    C37  133   5.388   0.389   7.373  0.5382  0.0855  0.3905
    11RH    C38  134   5.817   0.788   5.722  0.0728 -0.3179 -0.1698
    4IDB    C39  135   5.369   0.251   7.366 -0.0948  0.1683  0.3356
    62IDT   C40  136   5.313   0.201   7.484 -0.0349  0.0102  0.0735
    72IDQ   C41  137   5.350   0.438   7.512  0.1351  0.3259 -0.3165
    62IDT   C42  138   5.314   0.301   7.579 -0.0251 -0.0179  0.1028
    72IDQ   C43  139   5.467   0.513   7.590 -0.6427  0.7275  0.5488
    72IDQ   C44  140   5.227   0.550   7.510  0.3543  0.3696  0.6111
    62IDT    S5  141   5.268   0.042   7.554 -0.0501 -0.0061  0.0269
    62IDT   C45  142   5.252   0.122   7.716 -0.0420 -0.0522  0.0506
    62IDT   C46  143   5.280   0.256   7.711 -0.0290 -0.0532  0.0899
    82BTZ   C47  144   5.224   0.043   7.835  0.1619 -0.0534  0.4119
    82BTZ   C48  145   5.166   0.109   7.940  0.0770 -0.1560  0.4293
    82BTZ   C49  146   5.140   0.043   8.066 -0.1749 -0.3252  0.2911
    82BTZ   C50  147   5.173  -0.089   8.087 -0.3414 -0.3918  0.1357
    82BTZ   C51  148   5.260  -0.095   7.852 -0.0052 -0.1172  0.2516
    82BTZ   C52  149   5.234  -0.162   7.980 -0.2612 -0.2893  0.1112
    92RH    C53  150   5.148  -0.155   8.213  0.3884 -0.2246  0.2229
    82BTZ    N4  151   5.317  -0.170   7.757  0.0556 -0.0296  0.2191
    82BTZ    N5  152   5.270  -0.290   7.987 -0.4061 -0.3400 -0.0342
    82BTZ    S6  153   5.341  -0.332   7.828 -0.2176 -0.1661  0.0031
    92RH    C54  154   5.099  -0.114   8.330  0.2720  0.0247  0.0884
    92RH     S7  155   5.050   0.057   8.375  0.2356  0.1230 -0.3189
    92RH    C55  156   5.076  -0.204   8.446  0.1506  0.2671  0.2557
    92RH     O2  157   5.099  -0.326   8.448  0.1425  0.2686  0.5344
    92RH     N6  158   5.024  -0.134   8.557  0.0424  0.5032  0.0572
    92RH    C56  159   5.002   0.001   8.544  0.0621  0.4797 -0.2486
    92RH    C57  160   5.025  -0.195   8.690 -0.3634 -0.6474  0.6208
    92RH    C58  161   5.154  -0.181   8.775  0.3520 -0.1633 -0.4730
    92RH     S8  162   4.941   0.107   8.660 -0.0498  0.7277 -0.5308
    72IDQ   C59  163   5.083   0.489   7.502  0.3974 -0.2920 -0.5617
    72IDQ   C60  164   4.975   0.594   7.481 -0.2071  0.0489  0.0797
    72IDQ   C61  165   4.827   0.542   7.468 -0.0182  0.0492  0.7111
    72IDQ   C62  166   4.770   0.480   7.597  0.0372  0.3240  0.1228
    72IDQ   C63  167   4.613   0.450   7.600 -0.2463 -1.1264 -0.0420
    72IDQ   C64  168   4.563   0.393   7.733 -0.3211  0.3345  0.4325
    72IDQ   C65  169   4.602   0.457   7.861  0.2269 -0.0626 -0.0295
    72IDQ   C66  170   5.452   0.538   7.741  0.1933 -0.5269 -0.3456
    72IDQ   C67  171   5.588   0.557   7.806 -0.3161  0.2498 -0.2294
    72IDQ   C68  172   5.600   0.533   7.953 -0.7358  0.2015 -0.7466
    72IDQ   C69  173   5.746   0.510   7.977 -0.5216  0.4791 -0.0439
    72IDQ   C70  174   5.792   0.526   8.123  0.4656 -0.6659  0.5935
    72IDQ   C71  175   5.728   0.440   8.231  0.6601 -0.3083 -0.0079
    72IDQ   C72  176   5.775   0.485   8.364 -0.2062  0.0467 -0.1984
    11RH     C1  177   0.442   5.946   1.178  0.0727 -0.0377 -0.1367
    11RH     C2  178   0.415   6.037   1.292  0.1041 -0.1591 -0.0316
    11RH     N1  179   0.482   6.018   1.063 -0.1547  0.1001 -0.1309
    11RH     S1  180   0.443   6.210   1.240 -0.1673 -0.0845  0.0679
    11RH     C3  181   0.490   6.155   1.071 -0.3092  0.1038 -0.0340
    11RH     C4  182   0.516   5.945   0.938 -0.2208 -0.3608  0.5915
    11RH     S2  183   0.535   6.263   0.950 -0.5881  0.2525 -0.0058
    11RH     O1  184   0.432   5.822   1.180  0.2237 -0.0520 -0.2204
    11RH     C5  185   0.375   5.994   1.412  0.3034 -0.3007 -0.0153
    21BTZ    C6  186   0.325   6.052   1.538 -0.1877  0.2944  0.2429
    21BTZ    C7  187   0.310   6.187   1.554 -0.2375  0.2813  0.3072
    21BTZ    C8  188   0.290   5.966   1.647 -0.1633  0.2292  0.1992
    21BTZ    C9  189   0.260   6.244   1.677 -0.2657  0.2042  0.3317
    21BTZ   C10  190   0.226   6.166   1.784 -0.2440  0.1403  0.2918
    21BTZ   C11  191   0.240   6.024   1.772 -0.1919  0.1509  0.2241
    21BTZ    N2  192   0.301   5.833   1.644 -0.1150  0.2344  0.1355
    21BTZ    N3  193   0.210   5.937   1.870 -0.1667  0.0931  0.1805
    21BTZ    S3  194   0.246   5.774   1.804 -0.1039  0.1374  0.1042
    31IDT   C12  195   0.176   6.244   1.904 -0.3192  0.0835 -0.0481
    31IDT   C13  196   0.128   6.372   1.914  0.2043  0.2777  0.0539
    31IDT   C14  197   0.083   6.404   2.046  0.6211  0.4640  0.1529
    31IDT   C15  198   0.097   6.302   2.137  0.4187  0.4133  0.1271
    31IDT    S4  199   0.168   6.154   2.063 -0.3224  0.1230 -0.0261
    4IDB    C16  200   0.042   6.340   2.266 -0.4444 -0.4509 -0.0374
    4IDB    C17  201  -0.014   6.471   2.250 -0.0026 -0.2697 -0.1236
    51IDQ   C18  202   0.011   6.527   2.109 -0.4115 -0.3785  0.0797
    4IDB    C19  203  -0.079   6.534   2.355 -0.0930 -0.1243 -0.2662
    51IDQ   C20  204   0.101   6.655   2.123  0.5119  0.0424 -0.2810
    51IDQ   C21  205  -0.112   6.569   2.022  0.0604  0.6256 -0.2345
    51IDQ   C22  206  -0.258   6.537   2.068 -0.1483 -0.3796  0.3843
    51IDQ   C23  207   0.249   6.669   2.118  0.4628  0.2495 -0.1031
    51IDQ   C24  208  -0.353   6.596   1.961 -0.9130  0.1600 -0.5341
    51IDQ   C25  209  -0.355   6.746   1.940 -0.5712 -0.0335 -0.3453
    51IDQ   C26  210  -0.451   6.807   1.840 -0.4462  0.3521 -0.5533
    51IDQ   C27  211  -0.425   6.953   1.813 -0.4314  0.6127 -0.3496
    51IDQ   C28  212  -0.529   7.017   1.722  0.1525  0.3225 -0.0399
    51IDQ   C29  213  -0.672   7.000   1.767  0.0057  0.0582  0.2317
    51IDQ   C30  214   0.331   6.583   2.206 -0.1055  0.2461 -0.0729
    51IDQ   C31  215   0.481   6.608   2.201 -0.2443  0.2027  0.1315
    51IDQ   C32  216   0.567   6.530   2.294 -0.7021  0.0040 -0.3786
    51IDQ   C33  217   0.710   6.539   2.259 -0.0261 -0.5687  0.6889
    51IDQ   C34  218   0.798   6.433   2.320  0.4254  0.1498 -0.7219
    51IDQ   C35  219   0.945   6.440   2.296  0.0149  0.2053  0.4190
    4IDB    C36  220   0.033   6.272   2.388 -0.9825 -0.4878 -0.0938
    4IDB    C37  221  -0.034   6.338   2.495 -1.0672 -0.3375 -0.2397
    11RH    C38  222   0.409   5.948   0.826 -0.4139 -0.2262 -0.0476
    4IDB    C39  223  -0.088   6.466   2.477 -0.6311 -0.1612 -0.3226
    62IDT   C40  224  -0.146   6.510   2.604 -0.4350 -0.5230  0.0084
    72IDQ   C41  225  -0.060   6.285   2.637  0.0412 -0.4137  0.1251
    62IDT   C42  226  -0.126   6.413   2.700 -0.8309 -0.5061  0.1122
    72IDQ   C43  227   0.081   6.243   2.711 -0.0776 -0.0445  0.2382
    72IDQ   C44  228  -0.163   6.161   2.631 -0.0747  0.0279 -0.4767
    62IDT    S5  229  -0.210   6.662   2.675  0.2152 -0.1668 -0.1478
    62IDT   C45  230  -0.206   6.582   2.838 -0.0975 -0.0060 -0.0600
    62IDT   C46  231  -0.160   6.454   2.832 -0.6407 -0.2137  0.0737
    82BTZ   C47  232  -0.240   6.663   2.960 -0.2295 -0.2566 -0.1580
    82BTZ   C48  233  -0.295   6.594   3.065 -0.2108 -0.2463 -0.1417
    82BTZ   C49  234  -0.320   6.659   3.192 -0.0949 -0.2591 -0.1115
    82BTZ   C50  235  -0.291   6.791   3.213  0.0020 -0.2822 -0.0977
    82BTZ   C51  236  -0.208   6.801   2.976 -0.1309 -0.2808 -0.1446
    82BTZ   C52  237  -0.234   6.867   3.105 -0.0132 -0.2937 -0.1139
    92RH    C53  238  -0.300   6.861   3.344 -0.0467 -0.0776  0.0435
    82BTZ    N4  239  -0.155   6.878   2.881 -0.1382 -0.2927 -0.1583
    82BTZ    N5  240  -0.202   6.996   3.113  0.0741 -0.3161 -0.1031
    82BTZ    S6  241  -0.135   7.041   2.953  0.0083 -0.3217 -0.1320
    92RH    C54  242  -0.343   6.818   3.463 -0.0387 -0.0856  0.0435
    92RH     S7  243  -0.403   6.650   3.504 -0.1703 -0.0486  0.0026
    92RH    C55  244  -0.347   6.904   3.584  0.0825 -0.1272  0.0778
    92RH     O2  245  -0.313   7.023   3.589  0.1888 -0.1589  0.1101
    92RH     N6  246  -0.396   6.832   3.696  0.0628 -0.1266  0.0696
    92RH    C56  247  -0.431   6.700   3.679 -0.0589 -0.0898  0.0328
    92RH    C57  248  -0.403   6.898   3.828  0.2602  0.2484 -0.6580
    92RH    C58  249  -0.279   6.901   3.915 -0.3155  0.4054  0.0456
    92RH     S8  250  -0.492   6.594   3.795 -0.1074 -0.0809  0.0156
    72IDQ   C59  251  -0.271   6.127   2.538  0.1664  0.0899 -0.2590
    72IDQ   C60  252  -0.382   6.229   2.517  0.5100  0.1078 -0.1345
    72IDQ   C61  253  -0.501   6.251   2.615 -0.3944  0.9397 -1.0746
    72IDQ   C62  254  -0.470   6.251   2.766 -0.5566 -0.4753  0.2460
    72IDQ   C63  255  -0.588   6.255   2.860 -0.0625  0.1771 -0.1009
    72IDQ   C64  256  -0.547   6.249   3.005 -0.3309  0.1867 -0.4792
    72IDQ   C65  257  -0.669   6.236   3.097 -0.0457 -0.4042  0.0398
    72IDQ   C66  258   0.084   6.208   2.860 -0.5048 -0.6220  0.0213
    72IDQ   C67  259   0.230   6.179   2.891  0.5159  0.1848 -0.0538
    72IDQ   C68  260   0.262   6.136   3.033  0.4243  0.0118  0.5987
    72IDQ   C69  261   0.261   6.255   3.126 -0.4963  0.7379 -0.2094
    72IDQ   C70  262   0.293   6.204   3.268  0.1472 -0.1022  0.3460
    72IDQ   C71  263   0.333   6.322   3.351  0.3922  1.2050 -0.1404
    72IDQ   C72  264   0.370   6.280   3.494 -0.4636 -0.1537 -0.0152
    11RH     C1  265   0.295   0.665   3.750 -0.1435  0.0086 -0.0536
    11RH     C2  266   0.327   0.752   3.634  0.0143 -0.0379 -0.0454
    11RH     N1  267   0.255   0.741   3.862 -0.0925  0.0653 -0.0741
    11RH     S1  268   0.303   0.928   3.679  0.2194 -0.0040 -0.0650
    11RH     C3  269   0.252   0.878   3.850  0.0869  0.0699 -0.0831
    11RH     C4  270   0.218   0.671   3.985 -0.0318  0.4908  0.3526
    11RH     S2  271   0.208   0.991   3.967  0.1822  0.1318 -0.1071
    11RH     O1  272   0.302   0.541   3.751 -0.3017  0.0001 -0.0441
    11RH     C5  273   0.367   0.704   3.515  0.0029 -0.0954 -0.0263
    21BTZ    C6  274   0.410   0.769   3.384  0.2471  0.2769 -0.0156
    21BTZ    C7  275   0.425   0.904   3.361  0.1820  0.2723 -0.0871
    21BTZ    C8  276   0.441   0.678   3.278  0.2539  0.2375  0.0204
    21BTZ    C9  277   0.471   0.955   3.234  0.1207  0.2290 -0.1268
    21BTZ   C10  278   0.502   0.871   3.130  0.1246  0.1904 -0.0947
    21BTZ   C11  279   0.488   0.730   3.149  0.1916  0.1935 -0.0198
    21BTZ    N2  280   0.430   0.545   3.288  0.3144  0.2377  0.0899
    21BTZ    N3  281   0.514   0.638   3.055  0.2020  0.1583  0.0173
    21BTZ    S3  282   0.481   0.479   3.129  0.2939  0.1804  0.1072
    31IDT   C12  283   0.537   0.933   2.998  0.0843  0.1197  0.0895
    31IDT   C13  284   0.583   1.061   2.985  0.4105  0.0097  0.1261
    31IDT   C14  285   0.637   1.089   2.855  0.5495 -0.1105  0.1580
    31IDT   C15  286   0.632   0.981   2.769  0.3307 -0.0931  0.1456
    31IDT    S4  287   0.559   0.836   2.845 -0.0720  0.0785  0.0925
    4IDB    C16  288   0.697   1.017   2.641 -0.3097  0.1631 -0.1817
    4IDB    C17  289   0.745   1.151   2.654 -0.0947  0.0909 -0.2220
    51IDQ   C18  290   0.705   1.209   2.789  0.1861 -0.3549  0.1966
    4IDB    C19  291   0.801   1.217   2.545  0.0767 -0.0557 -0.2237
    51IDQ   C20  292   0.601   1.325   2.759 -0.2363 -0.0394 -0.0059
    51IDQ   C21  293   0.820   1.263   2.883  0.1060  0.8498 -0.0582
    51IDQ   C22  294   0.969   1.235   2.852 -0.6748  0.2856 -0.4386
    51IDQ   C23  295   0.450   1.310   2.785 -0.6962  0.3384  0.4246
    51IDQ   C24  296   1.082   1.290   2.950  0.5609 -0.0022  0.2180
    51IDQ   C25  297   1.051   1.295   3.102  0.1754  0.1049 -0.3737
    51IDQ   C26  298   1.018   1.164   3.166 -0.7169  0.6378  0.3618
    51IDQ   C27  299   0.972   1.164   3.307 -0.8376 -0.3230 -0.6535
    51IDQ   C28  300   0.842   1.244   3.332  0.4361  0.3003  0.3850
    51IDQ   C29  301   0.813   1.285   3.477 -0.2099 -0.1442 -0.1589
    51IDQ   C30  302   0.369   1.229   2.680  0.7225  0.3701 -0.0384
    51IDQ   C31  303   0.218   1.260   2.706 -0.4605 -0.4094 -0.6697
    51IDQ   C32  304   0.122   1.214   2.601  0.3373 -0.0191 -0.1265
    51IDQ   C33  305  -0.025   1.218   2.649  0.3007  0.1640 -0.0538
    51IDQ   C34  306  -0.115   1.139   2.559 -0.0084  0.3136  1.1695
    51IDQ   C35  307  -0.257   1.191   2.570  0.3175  0.4786 -0.8684
    4IDB    C36  308   0.706   0.948   2.519 -0.3546  0.0885 -0.1428
    4IDB    C37  309   0.763   1.017   2.410 -0.1774 -0.0613 -0.1451
    11RH    C38  310   0.333   0.632   4.079  0.2631  0.1733 -0.3929
    4IDB    C39  311   0.809   1.148   2.423  0.0318 -0.1303 -0.1846
    62IDT   C40  312   0.862   1.199   2.298  0.1855  0.1378  0.3373
    72IDQ   C41  313   0.790   0.973   2.263  0.7533  0.3850  0.0515
    62IDT   C42  314   0.849   1.101   2.202  0.3968  0.0802  0.3672
    72IDQ   C43  315   0.650   0.924   2.192 -0.0048 -0.2636  0.5588
    72IDQ   C44  316   0.891   0.853   2.268 -0.6377  0.5384  0.0516
    62IDT    S5  317   0.931   1.351   2.231 -0.0902  0.2502  0.3030
    62IDT   C45  318   0.940   1.270   2.069  0.1043  0.2115  0.3322
    62IDT   C46  319   0.893   1.141   2.072  0.3512  0.1218  0.3643
    82BTZ   C47  320   0.979   1.338   1.947 -0.0752 -0.1598 -0.1064
    82BTZ   C48  321   1.035   1.261   1.848  0.3093 -0.0097 -0.0074
    82BTZ   C49  322   1.065   1.316   1.717  0.7074  0.1573  0.1495
    82BTZ   C50  323   1.038   1.446   1.686  0.7202  0.1738  0.2072
    82BTZ   C51  324   0.949   1.475   1.919 -0.0785 -0.1493 -0.0515
    82BTZ   C52  325   0.979   1.531   1.786  0.3260  0.0204  0.1080
    92RH    C53  326   1.054   1.510   1.556 -0.0278 -0.2386  0.0976
    82BTZ    N4  327   0.894   1.560   2.007 -0.4324 -0.2863 -0.1368
    82BTZ    N5  328   0.949   1.659   1.768  0.2974  0.0198  0.1509
    82BTZ    S6  329   0.879   1.717   1.922 -0.2596 -0.2023 -0.0143
    92RH    C54  330   1.095   1.464   1.437 -0.0672 -0.1274  0.0399
    92RH     S7  331   1.134   1.290   1.395 -0.1943 -0.1056 -0.1697
    92RH    C55  332   1.116   1.550   1.318 -0.0117 -0.0007  0.1411
    92RH     O2  333   1.099   1.673   1.314  0.0761  0.0173  0.2881
    92RH     N6  334   1.160   1.475   1.207 -0.0714  0.1002  0.0490
    92RH    C56  335   1.176   1.339   1.222 -0.1679  0.0697 -0.1136
    92RH    C57  336   1.189   1.547   1.078 -0.0690  0.2357  0.5412
    92RH    C58  337   1.089   1.529   0.970  0.1698 -0.2620  0.4967
    92RH     S8  338   1.226   1.227   1.106 -0.2539  0.1711 -0.2492
    72IDQ   C59  339   1.044   0.865   2.302  0.5419 -0.0821  0.3582
    72IDQ   C60  340   1.135   0.921   2.194 -0.0766  0.1660 -0.1279
    72IDQ   C61  341   1.289   0.901   2.216  0.0966 -0.4098 -0.1134
    72IDQ   C62  342   1.360   0.946   2.095 -0.2749  0.3000 -0.0840
    72IDQ   C63  343   1.510   0.951   2.127 -0.3818  0.3874  0.8394
    72IDQ   C64  344   1.593   0.957   2.001 -0.3970 -0.7669  0.0025
    72IDQ   C65  345   1.744   0.945   2.038  1.1675 -0.3081 -0.5614
    72IDQ   C66  346   0.641   0.922   2.034  0.0060 -0.0086  0.0597
    72IDQ   C67  347   0.503   0.893   1.965 -0.2323  0.3520 -0.0330
    72IDQ   C68  348   0.499   0.923   1.820  0.4273  0.2515 -0.5232
    72IDQ   C69  349   0.360   0.917   1.763 -0.5235  0.0001 -0.1747
    72IDQ   C70  350   0.347   0.900   1.616  0.1379  0.4098  0.0343
    72IDQ   C71  351   0.197   0.891   1.574 -0.4404 -0.3272 -0.4655
    72IDQ   C72  352   0.183   0.889   1.424  0.0702  0.7272  0.0343
    11RH     C1  353   0.108   1.561   5.347 -0.3554  0.0055  0.2241
    11RH     C2  354   0.150   1.474   5.235 -0.3396  0.2180  0.0641
    11RH     N1  355   0.068   1.485   5.459 -0.0463 -0.2031  0.1947
    11RH     S1  356   0.135   1.298   5.284  0.0806  0.1297 -0.1139
    11RH     C3  357   0.073   1.347   5.450  0.2150 -0.1837  0.0314
    11RH     C4  358   0.030   1.552   5.584  0.4211  0.0095  0.3321
    11RH     S2  359   0.031   1.234   5.568  0.6058 -0.4030 -0.0371
    11RH     O1  360   0.106   1.685   5.346 -0.6048  0.0055  0.3667
    11RH     C5  361   0.193   1.521   5.117 -0.5986  0.4379  0.0567
    21BTZ    C6  362   0.240   1.446   4.993  0.0968 -0.3217 -0.0244
    21BTZ    C7  363   0.241   1.310   4.979  0.0679 -0.3108 -0.1295
    21BTZ    C8  364   0.282   1.527   4.883  0.1025 -0.2448  0.0340
    21BTZ    C9  365   0.282   1.247   4.856  0.0433 -0.2243 -0.1822
    21BTZ   C10  366   0.322   1.320   4.747  0.0477 -0.1489 -0.1296
    21BTZ   C11  367   0.323   1.463   4.758  0.0775 -0.1569 -0.0194
    21BTZ    N2  368   0.285   1.661   4.885  0.1296 -0.2469  0.1366
    21BTZ    N3  369   0.361   1.545   4.659  0.0846 -0.0884  0.0402
    21BTZ    S3  370   0.344   1.711   4.723  0.1243 -0.1342  0.1698
    31IDT   C12  371   0.368   1.247   4.626 -0.5588  0.2288 -0.1779
    31IDT   C13  372   0.396   1.113   4.620 -0.7244  0.1849  0.0139
    31IDT   C14  373   0.437   1.070   4.490 -0.2635  0.0504  0.1996
    31IDT   C15  374   0.441   1.171   4.396  0.2553 -0.0089  0.1501
    31IDT    S4  375   0.392   1.330   4.466  0.1997  0.1019 -0.1375
    4IDB    C16  376   0.483   1.123   4.267 -0.4286 -0.3872  0.6221
    4IDB    C17  377   0.512   0.984   4.281  0.0499 -0.3222  0.3122
    51IDQ   C18  378   0.487   0.938   4.422 -0.2489 -0.4082 -0.1609
    4IDB    C19  379   0.557   0.909   4.172  0.1626  0.0373  0.1077
    51IDQ   C20  380   0.381   0.819   4.410 -0.0210 -0.4978  0.0714
    51IDQ   C21  381   0.609   0.882   4.505  0.6331  0.0784  0.3719
    51IDQ   C22  382   0.749   0.892   4.455 -0.0937 -0.2550 -0.1810
    51IDQ   C23  383   0.235   0.826   4.451 -0.2414 -0.2324 -0.2569
    51IDQ   C24  384   0.865   0.857   4.556  0.3236  0.0710  0.1818
    51IDQ   C25  385   0.847   0.716   4.608  0.1364 -0.1509 -0.0571
    51IDQ   C26  386   0.930   0.679   4.731 -0.2476  0.0847  0.7909
    51IDQ   C27  387   0.924   0.532   4.762 -0.0441  0.7428 -0.8924
    51IDQ   C28  388   1.049   0.490   4.846  0.3742  0.7001 -0.6311
    51IDQ   C29  389   1.193   0.512   4.808  0.0931  0.8006  0.1046
    51IDQ   C30  390   0.132   0.896   4.360 -0.3815 -0.0945  0.4771
    51IDQ   C31  391  -0.007   0.879   4.418  0.3775 -0.1744  0.1030
    51IDQ   C32  392  -0.103   0.973   4.336  0.0328  0.1015 -0.1438
    51IDQ   C33  393  -0.241   0.909   4.312 -0.5432 -0.0205  1.5549
    51IDQ   C34  394  -0.344   1.005   4.267  0.4901  0.1810  0.6503
    51IDQ   C35  395  -0.477   0.934   4.267 -0.1051 -0.6587  0.2310
    4IDB    C36  396   0.499   1.189   4.144 -0.7993 -0.0909  0.7298
    4IDB    C37  397   0.544   1.111   4.034 -0.6773  0.2745  0.5175
    11RH    C38  398   0.136   1.590   5.690  0.4028 -0.4005  0.1814
    4IDB    C39  399   0.572   0.975   4.049 -0.2081  0.3335  0.2153
    62IDT   C40  400   0.607   0.919   3.919  0.5385  0.2113 -0.0588
    72IDQ   C41  401   0.581   1.157   3.888  0.5024 -0.3106 -0.7472
    62IDT   C42  402   0.619   1.022   3.829  0.6041  0.0970 -0.1810
    72IDQ   C43  403   0.446   1.225   3.829 -0.3843 -0.2218 -0.0724
    72IDQ   C44  404   0.700   1.261   3.900  0.0988 -0.3966 -0.6219
    62IDT    S5  405   0.643   0.760   3.845 -0.5413 -0.0158 -0.1344
    62IDT   C45  406   0.674   0.845   3.687 -0.8626 -0.2653 -0.3371
    62IDT   C46  407   0.657   0.981   3.698 -0.1878 -0.1726 -0.3385
    82BTZ   C47  408   0.722   0.774   3.566  0.2465 -0.0444  0.0242
    82BTZ   C48  409   0.782   0.846   3.466  0.2224 -0.0639 -0.0045
    82BTZ   C49  410   0.821   0.786   3.341  0.1311 -0.0741 -0.0284
    82BTZ   C50  411   0.800   0.652   3.317  0.0642 -0.0648 -0.0235
    82BTZ   C51  412   0.698   0.634   3.545  0.1789 -0.0339  0.0304
    82BTZ   C52  413   0.738   0.572   3.418  0.0861 -0.0443  0.0061
    92RH    C53  414   0.827   0.591   3.189 -0.0484  0.3310 -0.0368
    82BTZ    N4  415   0.641   0.553   3.635  0.1941 -0.0149  0.0574
    82BTZ    N5  416   0.713   0.442   3.406  0.0268 -0.0335  0.0136
    82BTZ    S6  417   0.635   0.391   3.559  0.0884 -0.0093  0.0529
    92RH    C54  418   0.876   0.630   3.071 -0.1474  0.2280 -0.1124
    92RH     S7  419   0.935   0.798   3.027 -0.1280  0.1747 -0.2902
    92RH    C55  420   0.890   0.540   2.954 -0.2928  0.1385 -0.0613
    92RH     O2  421   0.859   0.420   2.952 -0.3394  0.1479  0.0551
    92RH     N6  422   0.945   0.608   2.843 -0.3748  0.0384 -0.1626
    92RH    C56  423   0.976   0.741   2.856 -0.3128  0.0369 -0.2884
    92RH    C57  424   0.952   0.540   2.716  0.1278 -0.0760  0.8191
    92RH    C58  425   0.829   0.543   2.631 -0.0778 -0.5466  0.4374
    92RH     S8  426   1.041   0.844   2.740 -0.3867 -0.0709 -0.4256
    72IDQ   C59  427   0.841   1.225   3.957  0.4044 -0.6567  0.2540
    72IDQ   C60  428   0.951   1.329   3.992  0.4130  0.1122  0.6735
    72IDQ   C61  429   1.095   1.275   4.010 -0.3007  0.1795 -0.5870
    72IDQ   C62  430   1.161   1.217   3.890 -0.3586  0.7749  0.8082
    72IDQ   C63  431   1.307   1.174   3.892 -0.4068  0.7512 -1.0559
    72IDQ   C64  432   1.368   1.126   3.756  0.2335 -0.5018 -0.1161
    72IDQ   C65  433   1.502   1.059   3.771  0.2633  0.0508  0.4303
    72IDQ   C66  434   0.448   1.253   3.678 -0.0773 -0.3620  0.6016
    72IDQ   C67  435   0.315   1.298   3.634  0.3271  0.3906  0.3502
    72IDQ   C68  436   0.265   1.241   3.499 -0.7137 -0.1233 -0.1656
    72IDQ   C69  437   0.144   1.308   3.440 -0.5688 -0.2197  0.0503
    72IDQ   C70  438   0.105   1.252   3.299 -0.2364  0.2265 -0.6401
    72IDQ   C71  439   0.212   1.220   3.193  0.5497 -0.1047 -0.2399
    72IDQ   C72  440   0.155   1.157   3.069  0.3410 -0.1688 -0.1682
    11RH     C1  441   0.218   0.759   2.790  0.1863  0.0233 -0.2685
    11RH     C2  442   0.191   0.670   2.906  0.1942  0.0613 -0.2373
    11RH     N1  443   0.246   0.685   2.674  0.1968 -0.0150 -0.2416
    11RH     S1  444   0.205   0.495   2.854  0.2149  0.0442 -0.1747
    11RH     C3  445   0.246   0.548   2.682  0.2121 -0.0124 -0.1928
    11RH     C4  446   0.288   0.750   2.551 -0.0960  0.3593  0.2787
    11RH     S2  447   0.276   0.437   2.558  0.2268 -0.0529 -0.1529
    11RH     O1  448   0.216   0.883   2.793  0.1722  0.0240 -0.3126
    11RH     C5  449   0.161   0.715   3.028  0.1869  0.1015 -0.2537
    21BTZ    C6  450   0.121   0.651   3.154  0.2070 -0.0270 -0.0080
    21BTZ    C7  451   0.107   0.516   3.171  0.2406 -0.0395 -0.0788
    21BTZ    C8  452   0.087   0.738   3.263  0.1532 -0.0905  0.0260
    21BTZ    C9  453   0.059   0.460   3.295  0.2231 -0.1144 -0.1195
    21BTZ   C10  454   0.026   0.538   3.402  0.1721 -0.1766 -0.0893
    21BTZ   C11  455   0.039   0.681   3.389  0.1355 -0.1666 -0.0153
    21BTZ    N2  456   0.097   0.871   3.259  0.1169 -0.0855  0.0948
    21BTZ    N3  457   0.009   0.768   3.486  0.0848 -0.2228  0.0201
    21BTZ    S3  458   0.043   0.930   3.419  0.0571 -0.1800  0.1097
    31IDT   C12  459  -0.023   0.473   3.529 -0.0705 -0.0346 -0.0831
    31IDT   C13  460  -0.051   0.339   3.541  0.6880 -0.1687  0.3199
    31IDT   C14  461  -0.104   0.305   3.669  1.2056 -0.1496  0.5426
    31IDT   C15  462  -0.117   0.412   3.755  0.8462 -0.0013  0.3116
    31IDT    S4  463  -0.062   0.566   3.680 -0.1851  0.1269 -0.2109
    4IDB    C16  464  -0.162   0.362   3.886 -0.1433  0.0588  0.5484
    4IDB    C17  465  -0.199   0.225   3.866 -0.1544  0.1309  0.0660
    51IDQ   C18  466  -0.166   0.179   3.728 -0.9635  0.5449  0.4305
    4IDB    C19  467  -0.251   0.149   3.969 -0.0411 -0.2690 -0.1656
    51IDQ   C20  468  -0.060   0.062   3.731  0.5227  0.2443  0.0094
    51IDQ   C21  469  -0.284   0.124   3.640 -0.0286 -0.5176  0.2408
    51IDQ   C22  470  -0.427   0.120   3.694  0.0159 -0.4043  0.1896
    51IDQ   C23  471   0.090   0.084   3.728 -0.3170 -0.1102  0.5118
    51IDQ   C24  472  -0.547   0.079   3.612 -0.5414  0.9591  0.1136
    51IDQ   C25  473  -0.528  -0.059   3.540  0.3790 -0.6148 -0.0586
    51IDQ   C26  474  -0.658  -0.104   3.483  0.2446 -0.7279  0.6607
    51IDQ   C27  475  -0.638  -0.240   3.414 -0.7630 -0.5194 -0.1938
    51IDQ   C28  476  -0.766  -0.286   3.347 -0.0183 -0.0394 -0.5695
    51IDQ   C29  477  -0.891  -0.308   3.433 -0.1907 -0.3275  0.2304
    51IDQ   C30  478   0.150   0.168   3.843  0.1563  0.2699  0.3114
    51IDQ   C31  479   0.302   0.154   3.859  0.2190 -0.3971  0.3449
    51IDQ   C32  480   0.348   0.260   3.952 -0.1117 -0.4928  0.1947
    51IDQ   C33  481   0.503   0.253   3.993 -0.0460 -1.3603 -0.2384
    51IDQ   C34  482   0.594   0.297   3.882 -0.1632  0.4134 -0.1843
    51IDQ   C35  483   0.749   0.286   3.903 -0.2121 -0.2345  0.0389
    4IDB    C36  484  -0.178   0.423   4.011 -0.0180 -0.4169  0.8031
    4IDB    C37  485  -0.232   0.344   4.116  0.0964 -0.8212  0.5605
    11RH    C38  486   0.181   0.815   2.469  1.1543 -0.2641  0.0958
    4IDB    C39  487  -0.268   0.211   4.094  0.0843 -0.7448  0.0891
    62IDT   C40  488  -0.310   0.148   4.215  0.1546  0.2820  0.0533
    72IDQ   C41  489  -0.262   0.380   4.261 -0.0233 -0.1715  0.1765
    62IDT   C42  490  -0.294   0.240   4.316  0.2246  0.0978  0.2097
    72IDQ   C43  491  -0.132   0.437   4.328  0.3699 -0.0133 -0.0975
    72IDQ   C44  492  -0.375   0.494   4.270 -0.0112  0.4858  0.0164
    62IDT    S5  493  -0.383  -0.005   4.274 -0.1958  0.3263 -0.2524
    62IDT   C45  494  -0.387   0.066   4.441 -0.2310  0.0813 -0.1474
    62IDT   C46  495  -0.337   0.194   4.444  0.0067 -0.0159  0.0966
    82BTZ   C47  496  -0.423  -0.013   4.562 -0.3654  0.0091 -0.2439
    82BTZ   C48  497  -0.477   0.058   4.666 -0.3650  0.0188 -0.2502
    82BTZ   C49  498  -0.506  -0.005   4.793 -0.1639  0.0798 -0.1737
    82BTZ   C50  499  -0.481  -0.138   4.815  0.0364  0.1307 -0.0910
    82BTZ   C51  500  -0.395  -0.152   4.580 -0.1597  0.0609 -0.1588
    82BTZ   C52  501  -0.424  -0.216   4.709  0.0446  0.1228 -0.0811
    92RH    C53  502  -0.505  -0.206   4.948  0.2696  0.0772  0.0812
    82BTZ    N4  503  -0.343  -0.231   4.486 -0.1391  0.0573 -0.1444
    82BTZ    N5  504  -0.395  -0.346   4.718  0.2295  0.1689 -0.0042
    82BTZ    S6  505  -0.328  -0.394   4.559  0.1488  0.1344 -0.0280
    92RH    C54  506  -0.546  -0.158   5.066  0.1973  0.0938  0.0491
    92RH     S7  507  -0.603   0.013   5.101 -0.2567 -0.0214 -0.1110
    92RH    C55  508  -0.553  -0.239   5.190  0.4847  0.2120  0.1421
    92RH     O2  509  -0.521  -0.358   5.200  0.8199  0.3080  0.2583
    92RH     N6  510  -0.600  -0.163   5.299  0.3309  0.2032  0.0821
    92RH    C56  511  -0.632  -0.030   5.278 -0.0447  0.0921 -0.0476
    92RH    C57  512  -0.617  -0.233   5.430 -0.2492 -0.4147  0.0833
    92RH    C58  513  -0.505  -0.212   5.535 -0.3287 -0.5596 -0.2179
    92RH     S8  514  -0.690   0.081   5.390 -0.2948  0.0576 -0.1413
    72IDQ   C59  515  -0.522   0.464   4.241 -0.1268 -0.6646 -0.7871
    72IDQ   C60  516  -0.616   0.590   4.253 -0.7195 -0.4070  0.0383
    72IDQ   C61  517  -0.761   0.561   4.287  0.1006 -0.1336  0.3785
    72IDQ   C62  518  -0.783   0.505   4.429  0.0291 -0.1200  0.0860
    72IDQ   C63  519  -0.925   0.444   4.455 -0.3722  0.7540 -0.1824
    72IDQ   C64  520  -0.976   0.333   4.358  1.0584  0.0616  0.1086
    72IDQ   C65  521  -1.106   0.279   4.400  0.2558 -0.3501 -0.3479
    72IDQ   C66  522  -0.119   0.471   4.477  0.0426 -0.2390 -0.1920
    72IDQ   C67  523   0.025   0.505   4.515  0.2061  0.4806  0.2670
    72IDQ   C68  524   0.056   0.537   4.660  0.4770 -0.8372  0.0197
    72IDQ   C69  525   0.053   0.411   4.759  0.7575  0.1207  0.1656
    72IDQ   C70  526   0.074   0.449   4.902 -0.0573  0.6112 -0.3756
    72IDQ   C71  527   0.209   0.508   4.934 -0.4398 -1.0495 -0.2745
    72IDQ   C72  528   0.231   0.511   5.085  0.4567 -0.0632 -0.0135
    11RH     C1  529   0.027   5.934   4.465 -0.1328  0.0000  0.2971
    11RH     C2  530  -0.016   6.027   4.573 -0.0749  0.0962  0.2376
    11RH     N1  531   0.065   6.004   4.349 -0.0191 -0.0953  0.2764
    11RH     S1  532  -0.003   6.200   4.514  0.1252  0.0548  0.1582
    11RH     C3  533   0.058   6.142   4.350  0.1228 -0.0874  0.2077
    11RH     C4  534   0.120   5.931   4.236  0.4328  0.5768  0.2493
    11RH     S2  535   0.097   6.248   4.226  0.2768 -0.1879  0.1698
    11RH     O1  536   0.029   5.810   4.473 -0.2637  0.0008  0.3579
    11RH     C5  537  -0.057   5.986   4.694 -0.1597  0.1964  0.2431
    21BTZ    C6  538  -0.110   6.042   4.817 -0.0292 -0.1273 -0.0146
    21BTZ    C7  539  -0.125   6.178   4.829  0.0426 -0.1168 -0.0386
    21BTZ    C8  540  -0.148   5.958   4.927  0.1421 -0.0709  0.0892
    21BTZ    C9  541  -0.179   6.237   4.949  0.2842 -0.0509  0.0378
    21BTZ   C10  542  -0.217   6.161   5.057  0.4540  0.0045  0.1378
    21BTZ   C11  543  -0.203   6.019   5.048  0.3878 -0.0039  0.1670
    21BTZ    N2  544  -0.138   5.825   4.926  0.0938 -0.0746  0.1218
    21BTZ    N3  545  -0.236   5.934   5.146  0.5370  0.0463  0.2619
    21BTZ    S3  546  -0.199   5.770   5.085  0.3663  0.0091  0.2562
    31IDT   C12  547  -0.277   6.231   5.170  0.3656  0.1312  0.1396
    31IDT   C13  548  -0.310   6.364   5.177  0.3842  0.1276  0.3021
    31IDT   C14  549  -0.345   6.406   5.309  0.2192 -0.0703  0.3226
    31IDT   C15  550  -0.338   6.305   5.403  0.0740 -0.2186  0.1761
    31IDT    S4  551  -0.288   6.148   5.331  0.1355 -0.1181 -0.0007
    4IDB    C16  552  -0.368   6.355   5.531 -0.0568  0.1887 -0.1886
    4IDB    C17  553  -0.413   6.490   5.517  0.5190  0.4212  0.1283
    51IDQ   C18  554  -0.391   6.537   5.374 -0.2471 -0.2720 -0.0068
    4IDB    C19  555  -0.472   6.557   5.623  0.2105  0.1942  0.1036
    51IDQ   C20  556  -0.294   6.661   5.362 -0.8625  0.7958 -0.0071
    51IDQ   C21  557  -0.518   6.583   5.298  0.0487 -0.4818  0.7581
    51IDQ   C22  558  -0.664   6.588   5.353 -0.4670  0.1843  0.2085
    51IDQ   C23  559  -0.156   6.661   5.297 -0.4674  0.3580  0.3006
    51IDQ   C24  560  -0.768   6.637   5.252  0.7932  0.4981 -0.2728
    51IDQ   C25  561  -0.833   6.530   5.165  0.1753  0.7905  0.7280
    51IDQ   C26  562  -0.740   6.453   5.065 -0.3687  0.1490  0.2041
    51IDQ   C27  563  -0.664   6.536   4.961 -0.1757 -0.1462 -0.1003
    51IDQ   C28  564  -0.560   6.452   4.886  0.0060  0.0258  0.2651
    51IDQ   C29  565  -0.536   6.540   4.757  0.3660  0.3449  0.0357
    51IDQ   C30  566  -0.040   6.585   5.368 -0.2292  0.4964 -0.5163
    51IDQ   C31  567  -0.017   6.629   5.517 -0.9305  0.1819 -0.1682
    51IDQ   C32  568   0.091   6.537   5.587  0.2112  0.0914  0.1163
    51IDQ   C33  569   0.231   6.548   5.527 -0.0022  0.6396 -0.1744
    51IDQ   C34  570   0.319   6.438   5.577  0.2031 -0.3496  0.1040
    51IDQ   C35  571   0.466   6.464   5.532  0.0606  0.0331 -0.3545
    4IDB    C36  572  -0.382   6.286   5.653 -0.9500 -0.2751 -0.5339
    4IDB    C37  573  -0.443   6.357   5.760 -1.2534 -0.5015 -0.5540
    11RH    C38  574   0.021   5.902   4.123 -0.1590  0.4937 -0.1112
    4IDB    C39  575  -0.486   6.489   5.745 -0.6827 -0.2696 -0.2417
    62IDT   C40  576  -0.532   6.539   5.872 -0.0630 -0.0195 -0.1490
    72IDQ   C41  577  -0.480   6.307   5.900  1.0605 -0.4732  0.2125
    62IDT   C42  578  -0.532   6.437   5.966  0.2162 -0.1551 -0.2917
    72IDQ   C43  579  -0.360   6.235   5.966 -0.1034  0.0017 -0.7642
    72IDQ   C44  580  -0.593   6.195   5.895  0.2399  0.0294  0.0483
    62IDT    S5  581  -0.584   6.695   5.943 -0.1147 -0.1785  0.1685
    62IDT   C45  582  -0.605   6.611   6.103  0.2623 -0.4322  0.0874
    62IDT   C46  583  -0.574   6.478   6.096  0.4004 -0.3885 -0.1583
    82BTZ   C47  584  -0.653   6.684   6.222  0.1164  0.1201 -0.0297
    82BTZ   C48  585  -0.700   6.605   6.323  0.3493  0.1404  0.0955
    82BTZ   C49  586  -0.744   6.660   6.449  0.5103  0.1780  0.1358
    82BTZ   C50  587  -0.741   6.795   6.473  0.4383  0.1952  0.0505
    82BTZ   C51  588  -0.648   6.826   6.243  0.0324  0.1368 -0.1225
    82BTZ   C52  589  -0.693   6.882   6.371  0.1962  0.1751 -0.0815
    92RH    C53  590  -0.779   6.854   6.599 -0.0504 -0.0798  0.1331
    82BTZ    N4  591  -0.605   6.914   6.152 -0.1905  0.1198 -0.2471
    82BTZ    N5  592  -0.685   7.015   6.382  0.1049  0.1888 -0.1734
    82BTZ    S6  593  -0.619   7.075   6.227 -0.2004  0.1527 -0.3190
    92RH    C54  594  -0.825   6.814   6.718  0.0158 -0.1085  0.1490
    92RH     S7  595  -0.874   6.644   6.766 -0.2239 -0.0694  0.0488
    92RH    C55  596  -0.844   6.906   6.834  0.3038 -0.1788  0.2541
    92RH     O2  597  -0.820   7.028   6.834  0.5139 -0.2188  0.3382
    92RH     N6  598  -0.894   6.837   6.947  0.3132 -0.1959  0.2479
    92RH    C56  599  -0.917   6.702   6.936  0.0679 -0.1478  0.1506
    92RH    C57  600  -0.904   6.911   7.073  0.8514 -0.4805  0.0834
    92RH    C58  601  -0.774   6.904   7.160  0.0746 -0.6799  0.0175
    92RH     S8  602  -0.975   6.597   7.055  0.0224 -0.1552  0.1219
    72IDQ   C59  603  -0.736   6.229   5.847  0.6684 -0.1593 -0.5200
    72IDQ   C60  604  -0.826   6.111   5.826  0.7882 -0.1661  0.3426
    72IDQ   C61  605  -0.977   6.148   5.809 -0.0817  0.1995 -0.0030
    72IDQ   C62  606  -1.045   6.217   5.933 -0.2283  0.2165  0.2783
    72IDQ   C63  607  -1.193   6.241   5.920 -0.6058  0.3558  0.2867
    72IDQ   C64  608  -1.248   6.300   6.049  0.1251  0.2369 -0.4608
    72IDQ   C65  609  -1.400   6.341   6.051 -0.0825  0.8553  0.2997
    72IDQ   C66  610  -0.277   6.274   6.086 -0.3412 -0.1966  0.4662
    72IDQ   C67  611  -0.347   6.259   6.218  0.8637  0.5077 -0.4675
    72IDQ   C68  612  -0.262   6.287   6.342 -0.0195  0.1453 -0.5186
    72IDQ   C69  613  -0.124   6.203   6.347  0.9263 -0.3415  0.3433
    72IDQ   C70  614  -0.048   6.248   6.471 -0.2062  0.4098 -0.0803
    72IDQ   C71  615   0.088   6.189   6.487 -0.1128  0.6580 -0.4429
    72IDQ   C72  616   0.149   6.222   6.623  0.2362  0.0194 -0.0953
    11RH     C1  617   0.700   0.648   0.433  0.5016 -0.0493  0.1629
    11RH     C2  618   0.736   0.734   0.318  0.2315 -0.0880  0.0493
    11RH     N1  619   0.645   0.723   0.539  0.4128 -0.0619  0.1255
    11RH     S1  620   0.694   0.909   0.356 -0.1216 -0.1384 -0.0993
    11RH     C3  621   0.632   0.860   0.523  0.1047 -0.1059 -0.0042
    11RH     C4  622   0.605   0.665   0.667  0.0759  0.9653  0.4747
    11RH     S2  623   0.569   0.971   0.632 -0.0605 -0.1294 -0.0736
    11RH     O1  624   0.716   0.525   0.439  0.7736 -0.0105  0.2773
    11RH     C5  625   0.790   0.688   0.205  0.2523 -0.0851  0.0580
    21BTZ    C6  626   0.838   0.758   0.080  0.3359 -0.1819  0.0630
    21BTZ    C7  627   0.826   0.891   0.050  0.2712 -0.1699  0.1416
    21BTZ    C8  628   0.887   0.669  -0.021  0.2423 -0.1207 -0.0368
    21BTZ    C9  629   0.862   0.943  -0.079  0.1124 -0.0977  0.1264
    21BTZ   C10  630   0.909   0.862  -0.179  0.0185 -0.0377  0.0325
    21BTZ   C11  631   0.923   0.722  -0.153  0.0809 -0.0474 -0.0523
    21BTZ    N2  632   0.903   0.537  -0.004  0.2922 -0.1254 -0.1194
    21BTZ    N3  633   0.968   0.633  -0.242  0.0009  0.0069 -0.1475
    21BTZ    S3  634   0.966   0.474  -0.159  0.1315 -0.0344 -0.2224
    31IDT   C12  635   0.943   0.929  -0.311  0.6365  0.1533  0.1109
    31IDT   C13  636   0.977   1.060  -0.329  0.9520  0.0711  0.0862
    31IDT   C14  637   1.029   1.087  -0.460  0.8857 -0.0525  0.0341
    31IDT   C15  638   1.035   0.976  -0.542  0.5201 -0.0652  0.0185
    31IDT    S4  639   0.975   0.828  -0.459  0.2288  0.0796  0.0692
    4IDB    C16  640   1.095   1.009  -0.669  0.2448 -0.4821  0.0492
    4IDB    C17  641   1.137   1.145  -0.664 -0.7081 -0.1634 -0.2048
    51IDQ   C18  642   1.089   1.206  -0.529 -0.4168 -0.7429 -0.3645
    4IDB    C19  643   1.205   1.203  -0.770 -0.8773  0.0355 -0.2053
    51IDQ   C20  644   0.984   1.327  -0.551 -0.6639 -0.1433  0.2719
    51IDQ   C21  645   1.194   1.261  -0.432 -0.6188  0.2431 -0.0556
    51IDQ   C22  646   1.347   1.252  -0.459 -0.4536  0.6778  0.0471
    51IDQ   C23  647   0.828   1.327  -0.525 -0.3532 -0.1384 -0.1571
    51IDQ   C24  648   1.434   1.312  -0.341  0.0307  0.0458  0.1277
    51IDQ   C25  649   1.410   1.234  -0.214 -0.5893 -0.0782 -0.0715
    51IDQ   C26  650   1.471   1.307  -0.085  0.1294  0.2299 -0.3203
    51IDQ   C27  651   1.461   1.235   0.051  0.5069 -0.6248  0.3582
    51IDQ   C28  652   1.328   1.174   0.092 -0.1695 -0.2261 -0.0040
    51IDQ   C29  653   1.220   1.282   0.126  0.4457  0.0241  0.5597
    51IDQ   C30  654   0.747   1.233  -0.618  0.1004 -0.1855 -0.2246
    51IDQ   C31  655   0.601   1.267  -0.617  0.3106 -1.0136 -0.5910
    51IDQ   C32  656   0.502   1.179  -0.693 -0.6107 -0.4257 -0.1062
    51IDQ   C33  657   0.365   1.196  -0.640  0.5479  0.0814  0.8411
    51IDQ   C34  658   0.270   1.084  -0.687  0.3069 -0.3837  0.2909
    51IDQ   C35  659   0.128   1.120  -0.650  0.7080  0.4032 -0.4039
    4IDB    C36  660   1.121   0.930  -0.782  1.0386 -0.6042  0.3055
    4IDB    C37  661   1.191   0.991  -0.890  0.8517 -0.3974  0.3011
    11RH    C38  662   0.699   0.648   0.787  0.2526 -0.0280  0.2320
    4IDB    C39  663   1.231   1.124  -0.883 -0.0835 -0.0866  0.0511
    62IDT   C40  664   1.287   1.160  -1.003 -0.2314 -0.3046 -0.0342
    72IDQ   C41  665   1.220   0.931  -1.022  0.6258 -0.3746  0.4393
    62IDT   C42  666   1.276   1.058  -1.095 -0.2544 -0.1583 -0.1947
    72IDQ   C43  667   1.087   0.885  -1.095 -0.3022 -0.0517  0.1550
    72IDQ   C44  668   1.302   0.797  -1.017  0.2869 -0.2014 -0.2682
    62IDT    S5  669   1.356   1.309  -1.076  0.0042 -0.2717  0.2505
    62IDT   C45  670   1.367   1.221  -1.235  0.0619 -0.0513  0.1316
    62IDT   C46  671   1.321   1.093  -1.226 -0.0887 -0.0150 -0.1012
    82BTZ   C47  672   1.416   1.294  -1.355  0.4045  0.2115  0.0546
    82BTZ   C48  673   1.460   1.219  -1.461  0.4071  0.1696  0.0855
    82BTZ   C49  674   1.495   1.278  -1.588  0.2149  0.0973 -0.0020
    82BTZ   C50  675   1.486   1.413  -1.609  0.0204  0.0670 -0.1203
    82BTZ   C51  676   1.405   1.436  -1.372  0.2047  0.1821 -0.0683
    82BTZ   C52  677   1.440   1.497  -1.501  0.0093  0.1086 -0.1572
    92RH    C53  678   1.519   1.484  -1.735 -0.3829  0.0871 -0.0533
    82BTZ    N4  679   1.364   1.520  -1.277  0.1817  0.2176 -0.1093
    82BTZ    N5  680   1.427   1.629  -1.509 -0.1706  0.0850 -0.2697
    82BTZ    S6  681   1.368   1.684  -1.349 -0.0964  0.1572 -0.2668
    92RH    C54  682   1.560   1.448  -1.858 -0.3424  0.0847 -0.0392
    92RH     S7  683   1.613   1.281  -1.911 -0.0310  0.1510  0.0591
    92RH    C55  684   1.568   1.542  -1.972 -0.5517  0.0257 -0.1038
    92RH     O2  685   1.539   1.663  -1.968 -0.7846 -0.0274 -0.1769
    92RH     N6  686   1.614   1.477  -2.089 -0.4542  0.0369 -0.0718
    92RH    C56  687   1.644   1.343  -2.082 -0.1923  0.0976  0.0103
    92RH    C57  688   1.619   1.551  -2.221  0.2707  0.6685  0.2062
    92RH    C58  689   1.496   1.528  -2.315  0.1175 -0.2333  0.5225
    92RH     S8  690   1.700   1.243  -2.206 -0.0283  0.1233  0.0633
    72IDQ   C59  691   1.450   0.796  -0.963  0.7641  0.3037  0.1697
    72IDQ   C60  692   1.549   0.855  -1.067 -0.0970  0.3027  0.0323
    72IDQ   C61  693   1.693   0.868  -1.011 -0.1557 -0.3749 -0.1099
    72IDQ   C62  694   1.768   0.948  -1.120 -0.2786  0.1189 -0.6360
    72IDQ   C63  695   1.910   0.989  -1.085 -0.1866 -0.9577 -0.2146
    72IDQ   C64  696   1.986   1.048  -1.211 -0.4584  0.5705 -0.0754
    72IDQ   C65  697   2.136   1.056  -1.187 -0.1899  0.2073  0.3164
    72IDQ   C66  698   1.074   0.890  -1.251  0.2330  0.2848 -0.0487
    72IDQ   C67  699   0.950   0.832  -1.326 -0.2300 -0.5050 -0.8067
    72IDQ   C68  700   0.926   0.866  -1.472  0.4678 -0.1755 -0.4059
    72IDQ   C69  701   0.799   0.792  -1.522 -0.4741 -0.3852  0.0452
    72IDQ   C70  702   0.729   0.864  -1.636  0.3458 -0.3766  0.1446
    72IDQ   C71  703   0.612   0.781  -1.680  0.9628 -0.6470  0.3349
    72IDQ   C72  704   0.558   0.827  -1.813  0.8096 -0.5063 -0.3854
    11RH     C1  705   0.540   3.101   2.056 -0.1096 -0.0637 -0.0655
    11RH     C2  706   0.563   3.001   1.948 -0.0837 -0.0792 -0.0454
    11RH     N1  707   0.493   3.039   2.174  0.0862 -0.0752  0.0075
    11RH     S1  708   0.522   2.833   2.010  0.1965 -0.1080  0.0680
    11RH     C3  709   0.475   2.902   2.174  0.2659 -0.0981  0.0835
    11RH     C4  710   0.464   3.125   2.293 -1.1948  0.0166 -1.0111
    11RH     S2  711   0.421   2.806   2.301  0.5167 -0.1158  0.1790
    11RH     O1  712   0.558   3.223   2.046 -0.2797 -0.0430 -0.1367
    11RH     C5  713   0.608   3.033   1.826 -0.2447 -0.0726 -0.1032
    21BTZ    C6  714   0.659   2.960   1.707 -0.0833 -0.0769  0.1062
    21BTZ    C7  715   0.665   2.824   1.696  0.0052 -0.0762  0.1410
    21BTZ    C8  716   0.700   3.041   1.596 -0.0719 -0.0781  0.1096
    21BTZ    C9  717   0.711   2.760   1.575  0.1087 -0.0765  0.1806
    21BTZ   C10  718   0.751   2.832   1.466  0.1235 -0.0776  0.1854
    21BTZ   C11  719   0.747   2.976   1.473  0.0333 -0.0784  0.1499
    21BTZ    N2  720   0.699   3.174   1.595 -0.1520 -0.0788  0.0780
    21BTZ    N3  721   0.784   3.057   1.374  0.0377 -0.0795  0.1506
    21BTZ    S3  722   0.759   3.224   1.434 -0.0952 -0.0801  0.0988
    31IDT   C12  723   0.798   2.762   1.342  0.0759 -0.1559  0.0955
    31IDT   C13  724   0.823   2.627   1.332  0.0239 -0.1470 -0.1972
    31IDT   C14  725   0.868   2.588   1.202  0.0713  0.1296 -0.2661
    31IDT   C15  726   0.876   2.692   1.112  0.1597  0.3328 -0.0270
    31IDT    S4  727   0.829   2.849   1.185  0.1899  0.1883  0.3070
    4IDB    C16  728   0.918   2.644   0.983  0.2641  0.3341 -0.0583
    4IDB    C17  729   0.936   2.502   0.993  0.3927  0.3723  0.2647
    51IDQ   C18  730   0.909   2.454   1.142 -0.5066 -0.1931  0.3402
    4IDB    C19  731   0.975   2.427   0.883  0.3455  0.1409  0.4052
    51IDQ   C20  732   0.795   2.345   1.131  0.4211  0.5482 -0.4795
    51IDQ   C21  733   1.029   2.397   1.225 -0.1335  0.3352  0.2969
    51IDQ   C22  734   1.169   2.388   1.164  0.1691 -0.1356 -0.5325
    51IDQ   C23  735   0.646   2.377   1.155  0.5749  0.2357 -0.2828
    51IDQ   C24  736   1.294   2.347   1.250  0.6522  1.1417 -0.7867
    51IDQ   C25  737   1.292   2.200   1.299  0.1938  0.2877 -0.3807
    51IDQ   C26  738   1.393   2.192   1.406 -0.6574 -0.1569 -0.4547
    51IDQ   C27  739   1.411   2.046   1.453 -0.4628 -0.5450  0.6103
    51IDQ   C28  740   1.544   2.014   1.523 -0.2267 -0.2601  0.6512
    51IDQ   C29  741   1.561   2.105   1.652 -0.4318  0.5507 -0.5564
    51IDQ   C30  742   0.581   2.447   1.040  0.3812 -0.3199  0.0211
    51IDQ   C31  743   0.440   2.489   1.081 -0.1526  0.1726  0.7953
    51IDQ   C32  744   0.366   2.542   0.950  0.0624  0.1216  0.1043
    51IDQ   C33  745   0.216   2.576   0.964  0.0962 -0.1168 -0.1518
    51IDQ   C34  746   0.130   2.453   0.974 -0.5878  0.3098 -0.1566
    51IDQ   C35  747  -0.023   2.465   0.959  0.2547 -0.4975  0.8169
    4IDB    C36  748   0.941   2.711   0.861  0.0866  0.0625 -0.2436
    4IDB    C37  749   0.981   2.632   0.750  0.0409 -0.1714 -0.0960
    11RH    C38  750   0.564   3.132   2.413 -0.1721  0.3529 -0.6111
    4IDB    C39  751   0.998   2.494   0.762  0.1680 -0.1306  0.2198
    62IDT   C40  752   1.048   2.440   0.640 -0.0712 -0.1403  0.1865
    72IDQ   C41  753   1.008   2.672   0.603  0.5536  0.1239  0.1616
    62IDT   C42  754   1.046   2.538   0.543 -0.3986 -0.0165  0.3143
    72IDQ   C43  755   0.866   2.737   0.535 -0.2798  0.4087 -0.4082
    72IDQ   C44  756   1.112   2.789   0.606 -0.2564 -0.3104  0.7711
    62IDT    S5  757   1.110   2.284   0.577 -0.1358 -0.0190 -0.1834
    62IDT   C45  758   1.132   2.363   0.415 -0.6261  0.2034 -0.1439
    62IDT   C46  759   1.094   2.495   0.415 -0.7128  0.1779  0.1277
    82BTZ   C47  760   1.178   2.289   0.294 -0.1728 -0.2000 -0.0858
    82BTZ   C48  761   1.233   2.360   0.191 -0.1340 -0.1861 -0.0557
    82BTZ   C49  762   1.266   2.298   0.065 -0.0198 -0.1841 -0.0267
    82BTZ   C50  763   1.245   2.165   0.042  0.0555 -0.1960 -0.0280
    82BTZ   C51  764   1.154   2.149   0.275 -0.0971 -0.2130 -0.0883
    82BTZ   C52  765   1.188   2.086   0.147  0.0190 -0.2109 -0.0589
    92RH    C53  766   1.273   2.103  -0.088 -0.2441 -0.0107 -0.2241
    82BTZ    N4  767   1.101   2.068   0.368 -0.1250 -0.2270 -0.1163
    82BTZ    N5  768   1.162   1.955   0.138  0.0844 -0.2234 -0.0632
    82BTZ    S6  769   1.092   1.906   0.295 -0.0014 -0.2386 -0.1059
    92RH    C54  770   1.319   2.158  -0.201 -0.1624 -0.0075 -0.1893
    92RH     S7  771   1.374   2.331  -0.225 -0.0484 -0.0342 -0.1182
    92RH    C55  772   1.332   2.083  -0.328 -0.1519  0.0193 -0.2040
    92RH     O2  773   1.303   1.964  -0.346 -0.2161  0.0414 -0.2491
    92RH     N6  774   1.383   2.166  -0.431 -0.0582  0.0167 -0.1596
    92RH    C56  775   1.413   2.297  -0.402  0.0077 -0.0088 -0.1111
    92RH    C57  776   1.405   2.109  -0.565 -1.0750 -0.0103  0.2991
    92RH    C58  777   1.280   2.109  -0.650  0.0694  0.5313 -0.2875
    92RH     S8  778   1.474   2.415  -0.505  0.1232 -0.0172 -0.0525
    72IDQ   C59  779   1.259   2.756   0.624 -0.5525  0.1307  0.4644
    72IDQ   C60  780   1.349   2.880   0.632  0.0303  0.0788  0.1765
    72IDQ   C61  781   1.494   2.841   0.654 -0.0212 -0.8547 -0.2964
    72IDQ   C62  782   1.572   2.811   0.524  0.8696  0.0615  0.1410
    72IDQ   C63  783   1.721   2.789   0.551 -0.1930  0.0706  0.0609
    72IDQ   C64  784   1.807   2.779   0.423  0.3579  0.3084 -0.1013
    72IDQ   C65  785   1.956   2.783   0.467  0.6527 -0.4177  0.6726
    72IDQ   C66  786   0.862   2.769   0.385 -0.5136  0.6306 -0.2559
    72IDQ   C67  787   0.721   2.788   0.342  0.0968  0.7991  0.0632
    72IDQ   C68  788   0.691   2.840   0.201  0.2868  0.1455  0.6304
    72IDQ   C69  789   0.539   2.869   0.183  0.5223 -0.0313  0.0209
    72IDQ   C70  790   0.494   2.885   0.041  0.6943 -0.3612  0.3733
    72IDQ   C71  791   0.540   2.775  -0.064  0.8672  0.2708 -0.1024
    72IDQ   C72  792   0.497   2.814  -0.207  0.8673  0.5198  0.9033
    11RH     C1  793   5.902   2.250   6.056 -0.4699  0.3684 -0.0725
    11RH     C2  794   5.838   2.172   6.165 -0.1495  0.2168  0.0066
    11RH     N1  795   5.938   2.167   5.947 -0.2311  0.4238 -0.0356
    11RH     S1  796   5.831   1.995   6.118  0.4452  0.1571  0.1243
    11RH     C3  797   5.912   2.033   5.956  0.2418  0.3352  0.0634
    11RH     C4  798   6.020   2.226   5.834 -0.8215 -0.8423 -0.3661
    11RH     S2  799   5.945   1.913   5.842  0.6051  0.3746  0.1254
    11RH     O1  800   5.921   2.373   6.057 -0.8953  0.4401 -0.1606
    11RH     C5  801   5.795   2.227   6.279 -0.2872  0.1391 -0.0086
    21BTZ    C6  802   5.740   2.173   6.411 -0.1542 -0.3246  0.1223
    21BTZ    C7  803   5.716   2.039   6.431 -0.2155 -0.3159  0.1088
    21BTZ    C8  804   5.706   2.265   6.516 -0.0911 -0.3217  0.1404
    21BTZ    C9  805   5.659   1.990   6.554 -0.2183 -0.3041  0.1125
    21BTZ   C10  806   5.624   2.074   6.657 -0.1593 -0.3009  0.1296
    21BTZ   C11  807   5.647   2.215   6.640 -0.0938 -0.3097  0.1441
    21BTZ    N2  808   5.724   2.397   6.508 -0.0281 -0.3294  0.1545
    21BTZ    N3  809   5.618   2.307   6.733 -0.0328 -0.3076  0.1613
    21BTZ    S3  810   5.665   2.464   6.663  0.0315 -0.3214  0.1736
    31IDT   C12  811   5.561   2.005   6.773  0.1306 -0.2818  0.3866
    31IDT   C13  812   5.529   1.873   6.787  0.5377 -0.3600  0.6019
    31IDT   C14  813   5.483   1.840   6.918  0.4334 -0.2415  0.5957
    31IDT   C15  814   5.480   1.947   7.005 -0.0527 -0.0727  0.3762
    31IDT    S4  815   5.535   2.099   6.927 -0.4194 -0.0505  0.1584
    4IDB    C16  816   5.439   1.901   7.130 -0.2143 -0.2520 -0.4977
    4IDB    C17  817   5.394   1.766   7.124 -0.0980 -0.3187  0.0333
    51IDQ   C18  818   5.426   1.711   6.985 -0.6509 -0.3891  0.7826
    4IDB    C19  819   5.348   1.701   7.238 -0.1489  0.1233  0.2694
    51IDQ   C20  820   5.538   1.607   7.002 -0.0104  0.3783 -0.0019
    51IDQ   C21  821   5.306   1.641   6.901  0.4521  0.0197 -0.3914
    51IDQ   C22  822   5.160   1.669   6.932 -0.1276 -0.1018 -0.5737
    51IDQ   C23  823   5.684   1.620   6.958  0.1309  0.1870  0.4139
    51IDQ   C24  824   5.059   1.621   6.831  0.1371 -0.1522  0.1887
    51IDQ   C25  825   5.065   1.655   6.684  0.1997  0.2093 -0.4314
    51IDQ   C26  826   5.182   1.618   6.594  0.2981 -0.1258  0.3761
    51IDQ   C27  827   5.196   1.697   6.459 -0.1824 -0.1216 -0.5219
    51IDQ   C28  828   5.294   1.633   6.358  0.0841 -0.8649  0.5398
    51IDQ   C29  829   5.444   1.668   6.383  0.3915  0.1728  0.0654
    51IDQ   C30  830   5.790   1.657   7.063 -0.5473  0.3411 -0.1738
    51IDQ   C31  831   5.938   1.644   7.030 -0.5630  0.8039  0.0403
    51IDQ   C32  832   6.026   1.717   7.136 -0.4305  0.1150  0.4426
    51IDQ   C33  833   6.181   1.699   7.119  0.4816  0.3533 -0.2291
    51IDQ   C34  834   6.272   1.786   7.205 -0.2812 -0.3157 -0.0099
    51IDQ   C35  835   6.415   1.747   7.171 -0.5505  0.2307  0.0416
    4IDB    C36  836   5.438   1.973   7.251 -0.3834  0.2606 -0.7973
    4IDB    C37  837   5.390   1.905   7.366 -0.4332  0.7076 -0.5496
    11RH    C38  838   5.952   2.307   5.724  0.1652  0.2394  0.3687
    4IDB    C39  839   5.346   1.773   7.359 -0.3180  0.6359 -0.0303
    62IDT   C40  840   5.291   1.727   7.483  0.0300  0.2022 -0.1453
    72IDQ   C41  841   5.368   1.952   7.509  0.6434  0.4444 -0.2467
    62IDT   C42  842   5.314   1.824   7.578  0.0122  0.1220 -0.0595
    72IDQ   C43  843   5.501   1.991   7.575  0.0760  0.3049  0.3673
    72IDQ   C44  844   5.282   2.083   7.513 -0.2819 -0.0461 -0.1445
    62IDT    S5  845   5.219   1.579   7.554  0.1246  0.0986 -0.2657
    62IDT   C45  846   5.225   1.659   7.717  0.1357 -0.0552 -0.1900
    62IDT   C46  847   5.277   1.786   7.711  0.0720 -0.0236 -0.0846
    82BTZ   C47  848   5.192   1.586   7.844  0.0203 -0.0576 -0.0486
    82BTZ   C48  849   5.141   1.656   7.949 -0.0385 -0.0156 -0.1052
    82BTZ   C49  850   5.116   1.595   8.077 -0.1252  0.0312 -0.0992
    82BTZ   C50  851   5.142   1.462   8.099 -0.1530  0.0360 -0.0367
    82BTZ   C51  852   5.221   1.447   7.862 -0.0057 -0.0544  0.0180
    82BTZ   C52  853   5.196   1.384   7.992 -0.0938 -0.0068  0.0241
    92RH    C53  854   5.126   1.396   8.225  0.1915  0.1173  0.0127
    82BTZ    N4  855   5.272   1.367   7.767  0.0457 -0.0927  0.0769
    82BTZ    N5  856   5.226   1.254   8.001 -0.1134 -0.0068  0.0878
    82BTZ    S6  857   5.289   1.205   7.841 -0.0178 -0.0689  0.1439
    92RH    C54  858   5.093   1.439   8.347  0.0170  0.1742 -0.0540
    92RH     S7  859   5.045   1.610   8.395 -0.0321  0.2008 -0.1980
    92RH    C55  860   5.090   1.351   8.466 -0.1694  0.2259 -0.0199
    92RH     O2  861   5.117   1.230   8.468 -0.1861  0.2229  0.0726
    92RH     N6  862   5.051   1.422   8.582 -0.3306  0.2806 -0.1067
    92RH    C56  863   5.023   1.557   8.570 -0.2964  0.2790 -0.2062
    92RH    C57  864   5.041   1.358   8.715 -0.0062  0.5053  0.2392
    92RH    C58  865   5.185   1.359   8.784  0.7080 -0.5877  0.4303
    92RH     S8  866   4.975   1.663   8.691 -0.4616  0.3373 -0.3218
    72IDQ   C59  867   5.132   2.056   7.507  0.1302  0.6179  0.0123
    72IDQ   C60  868   5.042   2.177   7.524 -0.5977  0.7568 -0.6926
    72IDQ   C61  869   4.903   2.130   7.507  0.5004  0.4407 -0.1488
    72IDQ   C62  870   4.841   2.062   7.628 -0.5193  0.3553 -0.0893
    72IDQ   C63  871   4.694   2.020   7.627  0.3210 -0.3446 -0.3765
    72IDQ   C64  872   4.655   1.944   7.756 -0.1180 -0.9474 -0.0153
    72IDQ   C65  873   4.499   1.953   7.773 -0.1319 -0.3070 -0.7663
    72IDQ   C66  874   5.510   2.049   7.726  0.1397  0.4482  0.4123
    72IDQ   C67  875   5.652   2.074   7.777 -0.0317 -0.0788 -0.1192
    72IDQ   C68  876   5.641   2.121   7.925  0.6759  0.5037 -0.3171
    72IDQ   C69  877   5.779   2.134   7.988  0.6498 -0.4365 -0.1521
    72IDQ   C70  878   5.791   2.126   8.140  1.1397 -0.0986 -0.3493
    72IDQ   C71  879   5.759   1.988   8.195 -0.1319  0.6855 -0.6716
    72IDQ   C72  880   5.841   1.977   8.318 -0.0094  0.2683  0.1478
    11RH     C1  881   0.429   1.391   1.190 -0.0233  0.0230 -0.0647
    11RH     C2  882   0.378   1.485   1.293  0.0612  0.0542 -0.0511
    11RH     N1  883   0.456   1.457   1.068 -0.0139  0.0071 -0.0712
    11RH     S1  884   0.369   1.654   1.222  0.1476  0.0606 -0.0478
    11RH     C3  885   0.432   1.593   1.061  0.0679  0.0218 -0.0646
    11RH     C4  886   0.505   1.385   0.948 -0.2193 -0.4033 -0.8823
    11RH     S2  887   0.455   1.694   0.928  0.0966  0.0081 -0.0701
    11RH     O1  888   0.448   1.269   1.207 -0.0943  0.0117 -0.0698
    11RH     C5  889   0.346   1.448   1.417  0.0703  0.0740 -0.0429
    21BTZ    C6  890   0.308   1.520   1.539  0.2231 -0.0899  0.1968
    21BTZ    C7  891   0.297   1.656   1.550  0.2326 -0.0794  0.0814
    21BTZ    C8  892   0.273   1.438   1.652  0.1201  0.0034  0.2323
    21BTZ    C9  893   0.252   1.719   1.672  0.1421  0.0224 -0.0044
    21BTZ   C10  894   0.217   1.645   1.782  0.0422  0.1137  0.0254
    21BTZ   C11  895   0.227   1.502   1.775  0.0281  0.1069  0.1451
    21BTZ    N2  896   0.279   1.305   1.653  0.1008  0.0034  0.3420
    21BTZ    N3  897   0.196   1.420   1.876 -0.0652  0.1902  0.1848
    21BTZ    S3  898   0.225   1.254   1.816 -0.0388  0.1386  0.3385
    31IDT   C12  899   0.166   1.713   1.908  0.0272  0.0491  0.0787
    31IDT   C13  900   0.127   1.845   1.916 -0.2638 -0.0271 -0.0561
    31IDT   C14  901   0.083   1.881   2.047 -0.6855 -0.0825 -0.1797
    31IDT   C15  902   0.088   1.778   2.139 -0.7187 -0.0489 -0.1403
    31IDT    S4  903   0.149   1.626   2.066 -0.2138  0.0564  0.0585
    4IDB    C16  904   0.034   1.821   2.265  0.1083  0.4565 -0.0923
    4IDB    C17  905  -0.013   1.956   2.259 -0.0221  0.4347  0.3516
    51IDQ   C18  906   0.030   2.012   2.119  0.0435  0.6563  0.2953
    4IDB    C19  907  -0.069   2.017   2.371 -0.1188  0.0013  0.5459
    51IDQ   C20  908   0.140   2.124   2.135 -0.0118 -0.0775 -0.0647
    51IDQ   C21  909  -0.094   2.060   2.033  0.1722  0.1070 -0.1312
    51IDQ   C22  910  -0.239   2.036   2.083 -0.0075 -0.1645 -0.1629
    51IDQ   C23  911   0.289   2.114   2.098  0.0785 -0.3549 -0.5730
    51IDQ   C24  912  -0.345   2.123   2.016  0.4170 -0.2482  0.1370
    51IDQ   C25  913  -0.368   2.086   1.869 -0.6055  0.0622  0.4064
    51IDQ   C26  914  -0.428   2.200   1.781 -0.0787 -0.5976 -0.3715
    51IDQ   C27  915  -0.350   2.332   1.786 -0.5653  0.0018 -0.1368
    51IDQ   C28  916  -0.420   2.446   1.708  0.3871 -0.0792  0.5765
    51IDQ   C29  917  -0.562   2.483   1.763 -1.0969  0.3130  1.0939
    51IDQ   C30  918   0.373   2.022   2.186 -0.3453 -0.4619  0.1720
    51IDQ   C31  919   0.521   2.042   2.138  0.6570  0.5783 -1.1173
    51IDQ   C32  920   0.608   1.954   2.227  0.1986  0.5585  0.1780
    51IDQ   C33  921   0.758   1.976   2.202 -0.0067 -0.0775 -0.0965
    51IDQ   C34  922   0.852   1.914   2.305  0.0869  0.5840  0.7619
    51IDQ   C35  923   0.999   1.945   2.288  0.0271  0.4751  0.4580
    4IDB    C36  924   0.025   1.747   2.384  0.1429  0.0421 -0.3458
    4IDB    C37  925  -0.032   1.811   2.497  0.0427 -0.3975 -0.1418
    11RH    C38  926   0.404   1.330   0.855  0.1202 -0.4680  0.4459
    4IDB    C39  927  -0.078   1.943   2.489 -0.0843 -0.4130  0.2923
    62IDT   C40  928  -0.128   1.981   2.612  0.0686 -0.1325  0.1898
    72IDQ   C41  929  -0.064   1.756   2.635 -0.0271 -0.1726  0.3482
    62IDT   C42  930  -0.126   1.878   2.704 -0.0439 -0.0247  0.3155
    72IDQ   C43  931   0.070   1.706   2.704  0.3578  1.0307 -0.2913
    72IDQ   C44  932  -0.176   1.641   2.624 -0.3029  0.2721 -0.0834
    62IDT    S5  933  -0.206   2.128   2.679  0.1894  0.0206 -0.0035
    62IDT   C45  934  -0.233   2.038   2.835  0.0761  0.2327  0.1011
    62IDT   C46  935  -0.185   1.910   2.830 -0.0399  0.1819  0.2655
    82BTZ   C47  936  -0.264   2.111   2.962 -0.2776  0.0187 -0.2662
    82BTZ   C48  937  -0.320   2.039   3.064 -0.2599  0.0240 -0.2525
    82BTZ   C49  938  -0.346   2.098   3.193 -0.1543  0.0054 -0.2229
    82BTZ   C50  939  -0.315   2.229   3.220 -0.0664 -0.0185 -0.2071
    82BTZ   C51  940  -0.230   2.249   2.985 -0.1884 -0.0062 -0.2506
    82BTZ   C52  941  -0.256   2.308   3.117 -0.0809 -0.0250 -0.2205
    92RH    C53  942  -0.328   2.289   3.352 -0.1480 -0.0543 -0.0876
    82BTZ    N4  943  -0.174   2.329   2.894 -0.1956 -0.0137 -0.2616
    82BTZ    N5  944  -0.221   2.436   3.131 -0.0019 -0.0478 -0.2074
    82BTZ    S6  945  -0.152   2.488   2.974 -0.0627 -0.0460 -0.2334
    92RH    C54  946  -0.370   2.245   3.471 -0.2719 -0.0311 -0.1228
    92RH     S7  947  -0.422   2.074   3.513 -0.3206 -0.0218 -0.1444
    92RH    C55  948  -0.382   2.331   3.591 -0.3928 -0.0089 -0.1506
    92RH     O2  949  -0.355   2.452   3.596 -0.3936 -0.0088 -0.1447
    92RH     N6  950  -0.429   2.259   3.702 -0.5102  0.0131 -0.1854
    92RH    C56  951  -0.456   2.125   3.686 -0.4982  0.0111 -0.1891
    92RH    C57  952  -0.444   2.328   3.829  0.3662  0.1696 -0.1800
    92RH    C58  953  -0.328   2.340   3.929  0.4761  0.6235  0.1440
    92RH     S8  954  -0.513   2.016   3.803 -0.6214  0.0343 -0.2273
    72IDQ   C59  955  -0.319   1.669   2.580 -0.0821  0.1850  0.1219
    72IDQ   C60  956  -0.404   1.545   2.590 -0.4694 -0.1804  0.1248
    72IDQ   C61  957  -0.552   1.567   2.575  0.2930 -0.5171  0.3376
    72IDQ   C62  958  -0.612   1.621   2.705  0.5673 -1.0377 -0.3956
    72IDQ   C63  959  -0.766   1.656   2.701 -0.8095  0.0469  0.3024
    72IDQ   C64  960  -0.818   1.750   2.809 -0.1770 -0.2817  0.2728
    72IDQ   C65  961  -0.957   1.791   2.788  0.6748 -0.2812 -0.0032
    72IDQ   C66  962   0.074   1.662   2.849 -0.1345 -0.4439  0.4245
    72IDQ   C67  963   0.210   1.613   2.890  0.6120 -0.3071  0.7032
    72IDQ   C68  964   0.217   1.579   3.037  0.0090 -0.0462 -0.3639
    72IDQ   C69  965   0.355   1.560   3.089 -0.5657 -0.5251 -0.5510
    72IDQ   C70  966   0.369   1.585   3.237  0.3610 -1.1068 -1.0290
    72IDQ   C71  967   0.514   1.602   3.276 -0.0625  0.0082  0.2098
    72IDQ   C72  968   0.556   1.607   3.426  0.3861 -0.0226 -0.0602
    11RH     C1  969   0.262   2.132   3.749  0.2324 -0.0497 -0.0157
    11RH     C2  970   0.316   2.216   3.640  0.1873  0.1023  0.0784
    11RH     N1  971   0.235   2.209   3.865 -0.1075 -0.1394 -0.0348
    11RH     S1  972   0.327   2.391   3.695 -0.2989  0.1173  0.1356
    11RH     C3  973   0.260   2.344   3.861 -0.4193 -0.0778  0.0325
    11RH     C4  974   0.204   2.142   3.989 -0.9545  0.3327  0.1744
    11RH     S2  975   0.237   2.457   3.984 -0.8545 -0.1601  0.0273
    11RH     O1  976   0.243   2.010   3.743  0.5275 -0.0952 -0.0721
    11RH     C5  977   0.350   2.168   3.520  0.4666  0.2090  0.1136
    21BTZ    C6  978   0.404   2.229   3.395 -0.0571 -0.0202 -0.0205
    21BTZ    C7  979   0.431   2.363   3.384  0.1529 -0.0587  0.0268
    21BTZ    C8  980   0.423   2.146   3.280 -0.2410 -0.0001 -0.0659
    21BTZ    C9  981   0.478   2.421   3.261  0.1924 -0.0797  0.0319
    21BTZ   C10  982   0.498   2.346   3.149  0.0220 -0.0620 -0.0102
    21BTZ   C11  983   0.471   2.205   3.155 -0.2008 -0.0214 -0.0606
    21BTZ    N2  984   0.399   2.014   3.278 -0.4529  0.0374 -0.1140
    21BTZ    N3  985   0.486   2.121   3.052 -0.3804 -0.0010 -0.1044
    21BTZ    S3  986   0.438   1.959   3.113 -0.6133  0.0474 -0.1554
    31IDT   C12  987   0.546   2.424   3.025  0.3875  0.4534  0.0336
    31IDT   C13  988   0.566   2.559   3.014  0.7948  0.3856 -0.0758
    31IDT   C14  989   0.610   2.598   2.883  0.7268  0.1703 -0.1638
    31IDT   C15  990   0.623   2.494   2.795  0.2682  0.0729 -0.1221
    31IDT    S4  991   0.581   2.336   2.870 -0.1165  0.2478  0.0332
    4IDB    C16  992   0.661   2.542   2.665 -0.5777  0.5582  0.0354
    4IDB    C17  993   0.698   2.679   2.680  0.4767  0.2964 -0.0521
    51IDQ   C18  994   0.659   2.730   2.822 -0.9648 -0.6983 -0.1131
    4IDB    C19  995   0.753   2.750   2.573  0.7794 -0.1118 -0.1744
    51IDQ   C20  996   0.562   2.849   2.805 -0.1217  0.4693  0.2554
    51IDQ   C21  997   0.778   2.784   2.904 -0.7757 -0.0864  0.8629
    51IDQ   C22  998   0.921   2.732   2.874  0.0292 -0.1882 -0.2833
    51IDQ   C23  999   0.414   2.842   2.856 -0.8025  0.8794  0.1981
    51IDQ   C24 1000   1.018   2.814   2.964 -0.7100 -0.2845  0.2297
    51IDQ   C25 1001   1.163   2.774   2.955 -0.4072  0.1506 -0.0966
    51IDQ   C26 1002   1.261   2.849   3.051  0.2074  0.2123 -0.0813
    51IDQ   C27 1003   1.225   2.850   3.207  0.0781 -0.3665  0.8871
    51IDQ   C28 1004   1.205   2.716   3.266 -0.2700 -0.0621 -0.1052
    51IDQ   C29 1005   1.178   2.731   3.415  0.1360 -0.3980 -0.1109
    51IDQ   C30 1006   0.326   2.752   2.767  0.5362 -0.1551 -0.0343
    51IDQ   C31 1007   0.182   2.770   2.798  0.2773 -0.1451  0.0579
    51IDQ   C32 1008   0.089   2.702   2.700 -0.2845  0.5895 -0.4999
    51IDQ   C33 1009  -0.058   2.725   2.728  0.1291  0.0109 -0.6919
    51IDQ   C34 1010  -0.154   2.667   2.631  0.0468  0.2339  0.7431
    51IDQ   C35 1011  -0.287   2.740   2.640 -1.0948 -1.2188 -0.6026
    4IDB    C36 1012   0.678   2.475   2.543 -1.3400  0.4122  0.0006
    4IDB    C37 1013   0.733   2.549   2.435 -1.0164 -0.0058 -0.1249
    11RH    C38 1014   0.315   2.126   4.096 -0.0510 -0.1446  0.6451
    4IDB    C39 1015   0.770   2.683   2.451  0.0171 -0.2579 -0.2092
    62IDT   C40 1016   0.826   2.728   2.326 -0.0425 -0.1471 -0.1964
    72IDQ   C41 1017   0.762   2.500   2.288  0.0179 -0.7859 -0.3875
    62IDT   C42 1018   0.830   2.628   2.232  0.4058  0.0238 -0.3628
    72IDQ   C43 1019   0.621   2.472   2.222  0.1906 -0.1759 -0.4397
    72IDQ   C44 1020   0.842   2.362   2.299 -0.5971 -0.6089 -0.0774
    62IDT    S5 1021   0.881   2.886   2.258 -0.2635  0.1025  0.1980
    62IDT   C45 1022   0.909   2.803   2.099  0.2888  0.4414  0.1130
    62IDT   C46 1023   0.877   2.669   2.103  0.5937  0.3567 -0.1882
    82BTZ   C47 1024   0.945   2.878   1.977  0.0760  0.0996  0.0697
    82BTZ   C48 1025   0.995   2.804   1.873 -0.0281  0.1403 -0.0101
    82BTZ   C49 1026   1.035   2.866   1.749 -0.2659  0.1734 -0.0708
    82BTZ   C50 1027   1.024   3.001   1.729 -0.3993  0.1658 -0.0516
    82BTZ   C51 1028   0.931   3.020   1.961 -0.0565  0.0901  0.0930
    82BTZ   C52 1029   0.972   3.082   1.834 -0.2982  0.1238  0.0313
    92RH    C53 1030   1.056   3.056   1.600 -0.1322 -0.0829 -0.0882
    82BTZ    N4 1031   0.883   3.102   2.054  0.0255  0.0518  0.1687
    82BTZ    N5 1032   0.956   3.215   1.826 -0.4105  0.1126  0.0575
    82BTZ    S6 1033   0.888   3.267   1.984 -0.2077  0.0572  0.1644
    92RH    C54 1034   1.097   3.004   1.484 -0.0235 -0.1623 -0.0151
    92RH     S7 1035   1.150   2.831   1.453 -0.0364 -0.1950  0.1426
    92RH    C55 1036   1.106   3.082   1.358  0.1292 -0.2385 -0.0527
    92RH     O2 1037   1.077   3.202   1.346  0.1738 -0.2379 -0.1540
    92RH     N6 1038   1.152   3.003   1.251  0.2210 -0.3140  0.0423
    92RH    C56 1039   1.181   2.871   1.275  0.1605 -0.3076  0.1514
    92RH    C57 1040   1.170   3.063   1.114 -0.5314 -0.3652 -0.5488
    92RH    C58 1041   1.063   3.042   1.016  0.6762 -0.1479  0.2612
    92RH     S8 1042   1.238   2.756   1.166  0.2452 -0.3872  0.2780
    72IDQ   C59 1043   0.993   2.361   2.332  0.4163 -0.1945  0.6139
    72IDQ   C60 1044   1.092   2.399   2.220  0.0744  0.0940 -0.0125
    72IDQ   C61 1045   1.232   2.396   2.273 -0.1299 -0.4842 -1.3222
    72IDQ   C62 1046   1.322   2.450   2.162 -0.0014 -0.6715 -0.1508
    72IDQ   C63 1047   1.471   2.451   2.195  0.1966  0.5828  0.0786
    72IDQ   C64 1048   1.561   2.490   2.082 -0.0696 -0.0208  0.0303
    72IDQ   C65 1049   1.703   2.512   2.127  0.0062  0.0947  0.2413
    72IDQ   C66 1050   0.612   2.396   2.092  0.1514  0.1195 -0.7011
    72IDQ   C67 1051   0.663   2.460   1.964 -0.0241  0.7222  0.0211
    72IDQ   C68 1052   0.688   2.365   1.849  0.3981  0.3608  0.4646
    72IDQ   C69 1053   0.785   2.409   1.738  0.5099  0.1235 -0.3730
    72IDQ   C70 1054   0.931   2.405   1.779  0.6377 -0.0120 -0.3642
    72IDQ   C71 1055   1.023   2.438   1.662 -0.0693 -0.4934 -0.0192
    72IDQ   C72 1056   1.165   2.410   1.697 -0.2593 -0.1527  0.0186
    11RH     C1 1057   0.088   3.021   5.354  0.1644  0.0422  0.2768
    11RH     C2 1058   0.124   2.941   5.234  0.0781  0.0419  0.2508
    11RH     N1 1059   0.038   2.940   5.458 -0.0501  0.0780  0.2016
    11RH     S1 1060   0.089   2.763   5.267 -0.2795  0.0887  0.1293
    11RH     C3 1061   0.029   2.804   5.436 -0.2978  0.1064  0.1189
    11RH     C4 1062  -0.018   3.002   5.582  0.3910 -0.4204  0.3034
    11RH     S2 1063  -0.027   2.687   5.543 -0.5841  0.1512  0.0193
    11RH     O1 1064   0.100   3.145   5.364  0.3945  0.0150  0.3539
    11RH     C5 1065   0.174   2.993   5.122  0.2428  0.0116  0.3093
    21BTZ    C6 1066   0.220   2.931   4.999 -0.0480  0.0103  0.0871
    21BTZ    C7 1067   0.220   2.795   4.979 -0.1132  0.0190  0.0300
    21BTZ    C8 1068   0.269   3.016   4.895  0.0322  0.0283  0.1391
    21BTZ    C9 1069   0.267   2.737   4.855 -0.1029  0.0457  0.0213
    21BTZ   C10 1070   0.314   2.815   4.753 -0.0275  0.0637  0.0698
    21BTZ   C11 1071   0.317   2.957   4.770  0.0427  0.0556  0.1303
    21BTZ    N2 1072   0.274   3.149   4.903  0.1003  0.0222  0.1969
    21BTZ    N3 1073   0.361   3.043   4.677  0.1192  0.0712  0.1811
    21BTZ    S3 1074   0.342   3.206   4.748  0.1825  0.0515  0.2434
    31IDT   C12 1075   0.369   2.743   4.631 -0.4436 -0.2584 -0.3892
    31IDT   C13 1076   0.408   2.612   4.619 -0.5446 -0.2806 -0.4803
    31IDT   C14 1077   0.457   2.580   4.489 -0.2688 -0.1453 -0.4117
    31IDT   C15 1078   0.456   2.686   4.401  0.0436 -0.0194 -0.2679
    31IDT    S4 1079   0.392   2.836   4.476  0.0123 -0.0628 -0.2081
    4IDB    C16 1080   0.509   2.635   4.274  0.1924 -0.1718  0.1447
    4IDB    C17 1081   0.536   2.495   4.281  0.1948 -0.1803 -0.0350
    51IDQ   C18 1082   0.498   2.445   4.422 -0.1337 -0.1729  0.8445
    4IDB    C19 1083   0.581   2.426   4.169 -0.0410 -0.0857 -0.1898
    51IDQ   C20 1084   0.393   2.324   4.433 -0.1085 -0.0559 -0.1509
    51IDQ   C21 1085   0.620   2.396   4.498  0.5428  0.4211 -0.1578
    51IDQ   C22 1086   0.762   2.387   4.453  0.2806  0.8186  0.5832
    51IDQ   C23 1087   0.242   2.342   4.451 -0.3904  0.0111 -0.2852
    51IDQ   C24 1088   0.872   2.346   4.544  0.3120 -0.0013 -0.8097
    51IDQ   C25 1089   0.986   2.284   4.466  0.0289  0.0935 -0.0006
    51IDQ   C26 1090   1.125   2.268   4.536  0.2238 -0.6017  0.5044
    51IDQ   C27 1091   1.127   2.185   4.663 -0.2633 -0.0295 -0.6194
    51IDQ   C28 1092   1.070   2.047   4.672 -0.7864 -0.3618  0.4793
    51IDQ   C29 1093   1.080   1.979   4.805 -0.8381 -0.0750  0.8821
    51IDQ   C30 1094   0.157   2.379   4.331 -0.5560  0.2513  0.2615
    51IDQ   C31 1095   0.013   2.423   4.363  0.1869  0.2237  0.3692
    51IDQ   C32 1096  -0.079   2.456   4.245  0.0086  0.7679  0.7077
    51IDQ   C33 1097  -0.216   2.482   4.305 -0.5374  0.1167 -0.2064
    51IDQ   C34 1098  -0.303   2.566   4.227  1.5930 -0.5575  0.2774
    51IDQ   C35 1099  -0.454   2.570   4.276  0.8597 -0.2625  0.2578
    4IDB    C36 1100   0.527   2.707   4.155 -0.0475 -0.0681  0.1707
    4IDB    C37 1101   0.572   2.634   4.041 -0.2866  0.0277  0.0112
    11RH    C38 1102   0.079   3.038   5.701  0.3423  0.5233  0.7646
    4IDB    C39 1103   0.599   2.498   4.049 -0.2810  0.0181 -0.1637
    62IDT   C40 1104   0.654   2.448   3.921  0.3251 -0.0775  0.0277
    72IDQ   C41 1105   0.606   2.685   3.897  0.0864  0.5044 -0.8346
    62IDT   C42 1106   0.655   2.551   3.830  0.4395 -0.0041  0.1132
    72IDQ   C43 1107   0.464   2.723   3.837 -0.5568 -0.9570 -0.0520
    72IDQ   C44 1108   0.701   2.815   3.905  0.4181  0.2945  0.4739
    62IDT    S5 1109   0.715   2.295   3.850  0.2520 -0.0618 -0.0692
    62IDT   C45 1110   0.741   2.383   3.693  0.3866  0.0487  0.0150
    62IDT   C46 1111   0.705   2.515   3.701  0.4744  0.0673  0.1062
    82BTZ   C47 1112   0.771   2.317   3.563 -0.2009  0.2187 -0.0027
    82BTZ   C48 1113   0.828   2.391   3.463 -0.0249  0.1178  0.0215
    82BTZ   C49 1114   0.855   2.336   3.332  0.1811 -0.0064  0.1150
    82BTZ   C50 1115   0.824   2.206   3.302  0.2108 -0.0298  0.1842
    82BTZ   C51 1116   0.737   2.180   3.536 -0.1780  0.1991  0.0673
    82BTZ   C52 1117   0.764   2.123   3.403  0.0314  0.0727  0.1624
    92RH    C53 1118   0.833   2.150   3.168 -0.1232  0.2358  0.1220
    82BTZ    N4 1119   0.682   2.097   3.625 -0.3375  0.2899  0.0523
    82BTZ    N5 1120   0.730   1.996   3.385  0.0402  0.0619  0.2237
    82BTZ    S6 1121   0.661   1.941   3.541 -0.2243  0.2160  0.1614
    92RH    C54 1122   0.868   2.200   3.049 -0.1213  0.2133  0.1131
    92RH     S7 1123   0.939   2.366   3.017 -0.0641  0.1843  0.0899
    92RH    C55 1124   0.854   2.126   2.921 -0.1668  0.2083  0.1209
    92RH     O2 1125   0.809   2.011   2.909 -0.2113  0.2241  0.1364
    92RH     N6 1126   0.899   2.203   2.812 -0.1536  0.1829  0.1086
    92RH    C56 1127   0.947   2.330   2.836 -0.1031  0.1671  0.0916
    92RH    C57 1128   0.902   2.142   2.678 -0.0719  0.0441  0.3261
    92RH    C58 1129   0.770   2.127   2.601  0.4216  0.1069  0.2114
    92RH     S8 1130   1.006   2.441   2.724 -0.0775  0.1363  0.0745
    72IDQ   C59 1131   0.827   2.818   3.823 -0.2883 -0.5565  0.2182
    72IDQ   C60 1132   0.961   2.762   3.873  0.4659  0.5721 -0.4998
    72IDQ   C61 1133   1.074   2.794   3.791 -0.5835 -0.2585  0.6320
    72IDQ   C62 1134   1.212   2.738   3.836  0.0463  0.1507 -0.3116
    72IDQ   C63 1135   1.317   2.757   3.731 -0.6401  0.2975  0.5638
    72IDQ   C64 1136   1.455   2.713   3.779 -0.8222 -0.2215 -0.3047
    72IDQ   C65 1137   1.572   2.742   3.687  0.0619 -0.2455  0.3090
    72IDQ   C66 1138   0.470   2.756   3.691 -0.0716 -0.4069  0.4895
    72IDQ   C67 1139   0.331   2.759   3.627 -0.0317 -0.3109  0.8313
    72IDQ   C68 1140   0.341   2.815   3.479  0.1887 -0.3475  0.1437
    72IDQ   C69 1141   0.218   2.775   3.386  0.1366 -0.2350 -0.0380
    72IDQ   C70 1142   0.213   2.822   3.242  0.5145 -0.2370  0.0804
    72IDQ   C71 1143   0.093   2.777   3.150  0.0080  0.3066 -0.2121
    72IDQ   C72 1144  -0.049   2.807   3.192 -0.1964 -0.1961 -0.3215
    11RH     C1 1145   0.239   2.318   2.792 -0.0172 -0.0727  0.1771
    11RH     C2 1146   0.187   2.227   2.897 -0.2178 -0.1138  0.0442
    11RH     N1 1147   0.275   2.247   2.675  0.0380 -0.0075  0.1546
    11RH     S1 1148   0.190   2.054   2.835 -0.3206 -0.0642 -0.1017
    11RH     C3 1149   0.259   2.111   2.674 -0.0938  0.0085  0.0198
    11RH     C4 1150   0.355   2.313   2.572  0.0378  0.2480  0.2606
    11RH     S2 1151   0.295   2.004   2.549 -0.0644  0.0821 -0.0348
    11RH     O1 1152   0.250   2.442   2.802  0.0916 -0.0917  0.2946
    11RH     C5 1153   0.146   2.269   3.017 -0.3052 -0.1775  0.0364
    21BTZ    C6 1154   0.097   2.201   3.136 -0.0413  0.0629 -0.0163
    21BTZ    C7 1155   0.082   2.065   3.145  0.0999  0.0498  0.0338
    21BTZ    C8 1156   0.067   2.281   3.251 -0.0212  0.0641 -0.0118
    21BTZ    C9 1157   0.036   2.002   3.266  0.2668  0.0373  0.0904
    21BTZ   C10 1158   0.006   2.075   3.379  0.2922  0.0378  0.0968
    21BTZ   C11 1159   0.021   2.217   3.374  0.1484  0.0513  0.0457
    21BTZ    N2 1160   0.078   2.414   3.254 -0.1489  0.0761 -0.0573
    21BTZ    N3 1161  -0.005   2.298   3.477  0.1570  0.0532  0.0464
    21BTZ    S3 1162   0.029   2.464   3.419 -0.0558  0.0717 -0.0281
    31IDT   C12 1163  -0.039   2.000   3.500  0.1140 -0.2786  0.2363
    31IDT   C13 1164  -0.054   1.864   3.516 -0.2862 -0.2128  0.4339
    31IDT   C14 1165  -0.093   1.828   3.648 -0.4231  0.0968  0.4808
    31IDT   C15 1166  -0.107   1.935   3.734 -0.1289  0.2686  0.3196
    31IDT    S4 1167  -0.072   2.091   3.653  0.3487  0.0497  0.0940
    4IDB    C16 1168  -0.151   1.882   3.860  0.3132 -0.4524 -0.4654
    4IDB    C17 1169  -0.187   1.744   3.846 -0.2624 -0.3147 -0.4147
    51IDQ   C18 1170  -0.148   1.697   3.707 -0.8962  0.7887 -0.4612
    4IDB    C19 1171  -0.238   1.673   3.954 -0.2315 -0.1527 -0.2919
    51IDQ   C20 1172  -0.042   1.573   3.720  0.3217 -0.1639 -0.1837
    51IDQ   C21 1173  -0.269   1.651   3.612 -0.1190  0.3132 -0.3355
    51IDQ   C22 1174  -0.411   1.685   3.650  0.3117  0.2202 -0.3184
    51IDQ   C23 1175   0.114   1.591   3.702 -0.1143 -0.2608 -0.0642
    51IDQ   C24 1176  -0.532   1.643   3.558  0.3163 -0.8799  0.6559
    51IDQ   C25 1177  -0.528   1.706   3.414 -0.6239  0.3996 -0.9212
    51IDQ   C26 1178  -0.640   1.669   3.314  0.0320 -0.0372  0.1255
    51IDQ   C27 1179  -0.691   1.523   3.316 -0.2139 -0.5047  0.0720
    51IDQ   C28 1180  -0.802   1.488   3.219  0.5786 -0.3680  0.7286
    51IDQ   C29 1181  -0.815   1.337   3.231  0.3145 -0.2785  0.5479
    51IDQ   C30 1182   0.182   1.669   3.812  0.4027 -0.2009  0.3318
    51IDQ   C31 1183   0.334   1.674   3.807 -0.0893  0.6655  0.0468
    51IDQ   C32 1184   0.417   1.709   3.930 -0.3373 -0.5064 -0.4108
    51IDQ   C33 1185   0.568   1.740   3.912 -0.0666  0.4487 -0.0258
    51IDQ   C34 1186   0.653   1.624   3.865 -0.0640 -0.1627  0.0510
    51IDQ   C35 1187   0.796   1.658   3.838 -0.5203  0.6365  0.5804
    4IDB    C36 1188  -0.167   1.949   3.982  0.9267 -0.4288 -0.3931
    4IDB    C37 1189  -0.219   1.875   4.091  0.9489 -0.2624 -0.2679
    11RH    C38 1190   0.270   2.394   2.466  0.1756 -0.9108  0.5893
    4IDB    C39 1191  -0.253   1.740   4.076  0.3821 -0.1291 -0.2194
    62IDT   C40 1192  -0.301   1.692   4.204  0.2387  0.0879  0.0141
    72IDQ   C41 1193  -0.262   1.926   4.229  0.0129 -0.1279 -0.2363
    62IDT   C42 1194  -0.302   1.797   4.293  0.3550 -0.0306  0.1557
    72IDQ   C43 1195  -0.138   1.977   4.303 -0.4300 -0.0156  0.3485
    72IDQ   C44 1196  -0.367   2.042   4.219  0.0843  0.3622  0.5438
    62IDT    S5 1197  -0.364   1.540   4.277  0.0048  0.0739 -0.2107
    62IDT   C45 1198  -0.389   1.631   4.433  0.0805 -0.0999 -0.0958
    62IDT   C46 1199  -0.352   1.762   4.423  0.2658 -0.1370  0.0938
    82BTZ   C47 1200  -0.418   1.569   4.558  0.3026 -0.1555 -0.2404
    82BTZ   C48 1201  -0.482   1.640   4.656  0.2682 -0.1097 -0.2962
    82BTZ   C49 1202  -0.506   1.585   4.787  0.1453 -0.0797 -0.3058
    82BTZ   C50 1203  -0.466   1.458   4.819  0.0572 -0.0956 -0.2596
    82BTZ   C51 1204  -0.374   1.435   4.587  0.2136 -0.1738 -0.1906
    82BTZ   C52 1205  -0.399   1.379   4.720  0.0887 -0.1433 -0.2004
    92RH    C53 1206  -0.491   1.394   4.947 -0.1659 -0.1426 -0.2094
    82BTZ    N4 1207  -0.311   1.356   4.500  0.2362 -0.2177 -0.1342
    82BTZ    N5 1208  -0.355   1.254   4.740  0.0108 -0.1627 -0.1518
    82BTZ    S6 1209  -0.280   1.203   4.587  0.0956 -0.2221 -0.0903
    92RH    C54 1210  -0.544   1.435   5.062 -0.0942 -0.2134 -0.1501
    92RH     S7 1211  -0.596   1.606   5.104  0.0225 -0.2202  0.0233
    92RH    C55 1212  -0.571   1.345   5.177 -0.0986 -0.2999 -0.2186
    92RH     O2 1213  -0.547   1.223   5.180 -0.1678 -0.3170 -0.3365
    92RH     N6 1214  -0.628   1.416   5.285 -0.0128 -0.3627 -0.1324
    92RH    C56 1215  -0.650   1.551   5.271  0.0595 -0.3371 -0.0033
    92RH    C57 1216  -0.663   1.342   5.408 -0.1222 -0.6454 -0.0993
    92RH    C58 1217  -0.548   1.352   5.512  0.3683 -0.1092  0.3319
    92RH     S8 1218  -0.717   1.657   5.384  0.1681 -0.3986  0.1185
    72IDQ   C59 1219  -0.509   2.007   4.184  0.3307  0.7086 -0.5482
    72IDQ   C60 1220  -0.601   2.123   4.157  0.0948 -0.2381  0.3956
    72IDQ   C61 1221  -0.752   2.090   4.133 -0.3757  0.3963  0.4698
    72IDQ   C62 1222  -0.825   2.013   4.247  0.0444 -0.5641 -0.1648
    72IDQ   C63 1223  -0.835   2.085   4.380  0.0003  0.7419  0.0586
    72IDQ   C64 1224  -0.926   2.007   4.478 -0.2904 -0.2688 -0.1084
    72IDQ   C65 1225  -0.920   2.046   4.621 -0.0922  0.2342 -0.5744
    72IDQ   C66 1226  -0.122   1.998   4.459 -0.0498 -0.3246  0.4404
    72IDQ   C67 1227   0.022   2.012   4.512  0.4366  0.1147 -0.0713
    72IDQ   C68 1228   0.032   2.025   4.668  0.1651 -0.2088  0.2490
    72IDQ   C69 1229   0.181   2.048   4.707  0.4114  0.2838 -0.5593
    72IDQ   C70 1230   0.208   2.056   4.860  0.2072  0.1847  0.3541
    72IDQ   C71 1231   0.147   1.948   4.954 -0.3352 -0.0909  0.4169
    72IDQ   C72 1232   0.217   1.956   5.088 -0.0442 -0.6190 -0.5290
    11RH     C1 1233   0.061   1.406   4.439 -0.1026 -0.2231  0.0249
    11RH     C2 1234   0.027   1.496   4.552 -0.0223 -0.2166  0.0443
    11RH     N1 1235   0.092   1.479   4.322 -0.0664 -0.2263  0.0324
    11RH     S1 1236   0.037   1.671   4.497  0.0955 -0.2151  0.0713
    11RH     C3 1237   0.087   1.617   4.328  0.0329 -0.2231  0.0557
    11RH     C4 1238   0.153   1.413   4.204 -0.1793  0.2619  0.0939
    11RH     S2 1239   0.119   1.727   4.204  0.0942 -0.2259  0.0688
    11RH     O1 1240   0.064   1.282   4.443 -0.1910 -0.2255  0.0045
    11RH     C5 1241  -0.006   1.451   4.673 -0.0364 -0.2126  0.0419
    21BTZ    C6 1242  -0.060   1.513   4.794 -0.2758  0.1333 -0.1563
    21BTZ    C7 1243  -0.087   1.646   4.809 -0.4045  0.0944 -0.0305
    21BTZ    C8 1244  -0.096   1.424   4.901 -0.1239  0.0081 -0.2091
    21BTZ    C9 1245  -0.150   1.699   4.927 -0.3903 -0.0683  0.0495
    21BTZ   C10 1246  -0.187   1.617   5.031 -0.2477 -0.1919  0.0034
    21BTZ   C11 1247  -0.160   1.477   5.021 -0.1094 -0.1573 -0.1279
    21BTZ    N2 1248  -0.075   1.292   4.899  0.0103  0.0310 -0.3303
    21BTZ    N3 1249  -0.191   1.388   5.116  0.0361 -0.2674 -0.1836
    21BTZ    S3 1250  -0.138   1.229   5.054  0.1634 -0.1620 -0.3460
    31IDT   C12 1251  -0.237   1.682   5.159  0.4307 -0.4460  0.3275
    31IDT   C13 1252  -0.279   1.813   5.167  0.4187 -0.3951 -0.3848
    31IDT   C14 1253  -0.329   1.847   5.297  0.1470  0.2327 -0.6459
    31IDT   C15 1254  -0.325   1.743   5.387 -0.0493  0.6633 -0.1355
    31IDT    S4 1255  -0.258   1.592   5.315  0.0961  0.3040  0.7231
    4IDB    C16 1256  -0.392   1.784   5.514  0.1000 -0.2866 -0.3221
    4IDB    C17 1257  -0.440   1.918   5.500  0.2804 -0.2239 -0.3461
    51IDQ   C18 1258  -0.399   1.969   5.358 -0.0176  0.3563 -0.3615
    4IDB    C19 1259  -0.509   1.980   5.604  0.1509 -0.1989 -0.4464
    51IDQ   C20 1260  -0.304   2.089   5.402  0.1229  0.5534  0.3150
    51IDQ   C21 1261  -0.511   2.024   5.265  0.4789  0.2298 -0.5139
    51IDQ   C22 1262  -0.662   2.021   5.298  0.3324  0.2118 -0.4248
    51IDQ   C23 1263  -0.149   2.100   5.374  0.4980  0.3508 -0.0285
    51IDQ   C24 1264  -0.749   2.059   5.180 -0.2025  0.8678  0.1461
    51IDQ   C25 1265  -0.887   2.086   5.237  0.7768  0.2243  0.3360
    51IDQ   C26 1266  -0.973   2.149   5.130 -0.0038 -0.4645  0.4109
    51IDQ   C27 1267  -0.932   2.286   5.072  0.7697 -0.0056  1.0759
    51IDQ   C28 1268  -1.048   2.330   4.975 -0.6453  0.0059 -0.8076
    51IDQ   C29 1269  -1.034   2.471   4.911  0.0428  0.3593 -1.3506
    51IDQ   C30 1270  -0.062   2.005   5.454  0.2466  0.2493  0.0163
    51IDQ   C31 1271   0.085   2.040   5.442  0.0431  0.1490 -0.0517
    51IDQ   C32 1272   0.164   1.966   5.547 -0.4503  0.2485  0.6054
    51IDQ   C33 1273   0.305   1.948   5.496 -0.0974 -0.4392  0.0830
    51IDQ   C34 1274   0.401   1.908   5.609 -0.0186  0.4129 -0.0750
    51IDQ   C35 1275   0.526   1.835   5.561 -0.3284  0.3007 -0.7807
    4IDB    C36 1276  -0.413   1.711   5.632 -0.2133 -0.3249 -0.3984
    4IDB    C37 1277  -0.483   1.776   5.737 -0.3417 -0.2986 -0.5004
    11RH    C38 1278   0.049   1.368   4.102  0.1271  0.3960  0.2322
    4IDB    C39 1279  -0.529   1.907   5.722 -0.1622 -0.2372 -0.5228
    62IDT   C40 1280  -0.598   1.949   5.846 -0.4524  0.0173 -0.0124
    72IDQ   C41 1281  -0.521   1.721   5.876 -0.1826 -1.1310  0.0723
    62IDT   C42 1282  -0.596   1.846   5.938 -0.5015 -0.0346 -0.0691
    72IDQ   C43 1283  -0.390   1.694   5.960 -0.3342  0.1446 -0.3339
    72IDQ   C44 1284  -0.576   1.583   5.859  0.0025  0.3916 -1.2485
    62IDT    S5 1285  -0.663   2.101   5.916 -0.2367  0.0515  0.1156
    62IDT   C45 1286  -0.686   2.013   6.074 -0.2235 -0.0091  0.0840
    62IDT   C46 1287  -0.646   1.882   6.067 -0.3722 -0.0496 -0.0145
    82BTZ   C47 1288  -0.720   2.085   6.197  0.0721 -0.2453 -0.2202
    82BTZ   C48 1289  -0.783   2.016   6.297  0.1763 -0.3076 -0.1973
    82BTZ   C49 1290  -0.808   2.077   6.426  0.1843 -0.3407 -0.1804
    82BTZ   C50 1291  -0.771   2.205   6.454  0.0880 -0.3113 -0.1861
    82BTZ   C51 1292  -0.679   2.220   6.221 -0.0315 -0.2124 -0.2270
    82BTZ   C52 1293  -0.705   2.281   6.352 -0.0234 -0.2459 -0.2097
    92RH    C53 1294  -0.785   2.267   6.584 -0.1663 -0.1228 -0.0366
    82BTZ    N4 1295  -0.617   2.297   6.131 -0.1380 -0.1516 -0.2487
    82BTZ    N5 1296  -0.664   2.408   6.367 -0.1235 -0.2121 -0.2176
    82BTZ    S6 1297  -0.589   2.455   6.212 -0.2345 -0.1344 -0.2478
    92RH    C54 1298  -0.825   2.228   6.705 -0.1360 -0.0879 -0.0150
    92RH     S7 1299  -0.896   2.064   6.749 -0.3024 -0.0095  0.0119
    92RH    C55 1300  -0.819   2.314   6.825  0.0434 -0.1084 -0.0095
    92RH     O2 1301  -0.776   2.430   6.829  0.1843 -0.1592 -0.0239
    92RH     N6 1302  -0.868   2.246   6.939  0.0363 -0.0623  0.0147
    92RH    C56 1303  -0.913   2.117   6.925 -0.1268 -0.0076  0.0292
    92RH    C57 1304  -0.882   2.323   7.063 -0.0949  0.2534 -0.3327
    92RH    C58 1305  -0.765   2.343   7.164  0.1467  0.2754  0.1105
    92RH     S8 1306  -0.976   2.015   7.044 -0.1714  0.0543  0.0584
    72IDQ   C59 1307  -0.729   1.561   5.827  0.1300 -0.2059 -0.3634
    72IDQ   C60 1308  -0.825   1.591   5.936  0.6233  0.2506  0.1650
    72IDQ   C61 1309  -0.964   1.627   5.882 -0.8349  1.3173 -0.3918
    72IDQ   C62 1310  -1.050   1.665   6.003  0.4756 -0.0451  0.4856
    72IDQ   C63 1311  -1.196   1.714   5.973  0.2511  0.1930 -0.3098
    72IDQ   C64 1312  -1.297   1.681   6.084 -0.1826  0.7618  0.0617
    72IDQ   C65 1313  -1.433   1.731   6.038 -0.1082  0.2006 -0.0144
    72IDQ   C66 1314  -0.405   1.679   6.111  0.0278 -0.3016 -0.4200
    72IDQ   C67 1315  -0.272   1.623   6.168  0.0727  0.0066  0.1835
    72IDQ   C68 1316  -0.252   1.647   6.320  0.9582 -0.3129 -0.8748
    72IDQ   C69 1317  -0.124   1.593   6.370 -0.1607 -0.7013 -0.7123
    72IDQ   C70 1318  -0.113   1.621   6.517 -0.0914  0.2272 -0.0463
    72IDQ   C71 1319   0.033   1.598   6.564 -0.4269 -0.1241 -0.6799
    72IDQ   C72 1320   0.065   1.607   6.714 -0.0056 -0.3897 -0.5465
    11RH     C1 1321   0.686   2.113   0.446  0.2537  0.0355  0.1518
    11RH     C2 1322   0.742   2.200   0.340  0.2093  0.0955  0.1773
    11RH     N1 1323   0.648   2.187   0.559  0.1883 -0.0130  0.1622
    11RH     S1 1324   0.743   2.374   0.397  0.0844  0.0841  0.2133
    11RH     C3 1325   0.668   2.324   0.558  0.0968  0.0007  0.1929
    11RH     C4 1326   0.587   2.125   0.674 -0.1309  0.2522 -0.1703
    11RH     S2 1327   0.632   2.435   0.679  0.0059 -0.0482  0.2110
    11RH     O1 1328   0.672   1.989   0.438  0.3375  0.0276  0.1246
    11RH     C5 1329   0.786   2.154   0.222  0.2559  0.1488  0.1736
    21BTZ    C6 1330   0.835   2.219   0.099 -0.1704  0.2695 -0.3046
    21BTZ    C7 1331   0.852   2.354   0.085 -0.0967  0.2425 -0.4780
    21BTZ    C8 1332   0.863   2.134  -0.013 -0.0254  0.0933 -0.1369
    21BTZ    C9 1333   0.896   2.412  -0.040  0.1217  0.0424 -0.4953
    21BTZ   C10 1334   0.924   2.335  -0.149  0.2661 -0.1304 -0.3392
    21BTZ   C11 1335   0.908   2.193  -0.139  0.1966 -0.1101 -0.1544
    21BTZ    N2 1336   0.850   2.001  -0.011 -0.0782  0.1000  0.0398
    21BTZ    N3 1337   0.931   2.107  -0.239  0.3222 -0.2668  0.0082
    21BTZ    S3 1338   0.896   1.944  -0.175  0.1585 -0.1588  0.1943
    31IDT   C12 1339   0.985   2.406  -0.263  0.2324 -0.3436 -0.1735
    31IDT   C13 1340   1.016   2.539  -0.263  0.0736 -0.3063 -0.0788
    31IDT   C14 1341   1.079   2.581  -0.384 -0.1017 -0.1162 -0.1059
    31IDT   C15 1342   1.097   2.480  -0.477 -0.0777 -0.0077 -0.2208
    31IDT    S4 1343   1.035   2.322  -0.417  0.1709 -0.1390 -0.3046
    4IDB    C16 1344   1.150   2.532  -0.601 -0.0205 -0.2943 -0.0469
    4IDB    C17 1345   1.167   2.673  -0.593 -0.4905 -0.2286 -0.1420
    51IDQ   C18 1346   1.135   2.718  -0.446 -0.5216  0.1651  0.7401
    4IDB    C19 1347   1.214   2.746  -0.702 -0.2655 -0.2165 -0.0384
    51IDQ   C20 1348   1.035   2.840  -0.439  0.3015 -0.6004 -0.2958
    51IDQ   C21 1349   1.264   2.758  -0.361  0.4654  0.1856 -0.6325
    51IDQ   C22 1350   1.406   2.777  -0.416 -0.0504 -0.1212  0.1034
    51IDQ   C23 1351   0.896   2.834  -0.377 -0.0823 -0.4179 -0.2718
    51IDQ   C24 1352   1.486   2.874  -0.325  0.4617  0.5228  0.4933
    51IDQ   C25 1353   1.614   2.898  -0.395 -0.3099 -0.2029 -0.2904
    51IDQ   C26 1354   1.712   2.994  -0.324 -0.3322  0.4522  0.3167
    51IDQ   C27 1355   1.650   3.118  -0.262 -0.3417  0.1722 -0.0177
    51IDQ   C28 1356   1.679   3.127  -0.119  0.1346 -0.2967  0.0970
    51IDQ   C29 1357   1.611   3.250  -0.057 -0.3077  0.1589  0.3571
    51IDQ   C30 1358   0.789   2.749  -0.446 -0.0962 -0.2529 -0.0774
    51IDQ   C31 1359   0.760   2.792  -0.590 -0.0601 -0.0006 -0.4122
    51IDQ   C32 1360   0.673   2.700  -0.669 -0.3684 -0.2829  0.1359
    51IDQ   C33 1361   0.532   2.666  -0.621  0.0179  0.2820  0.0683
    51IDQ   C34 1362   0.444   2.581  -0.717 -0.1340 -0.5513 -0.1163
    51IDQ   C35 1363   0.292   2.582  -0.691  0.3255  0.4119  0.3218
    4IDB    C36 1364   1.179   2.462  -0.719  0.6816 -0.3486  0.1534
    4IDB    C37 1365   1.227   2.538  -0.829  0.9022 -0.3352  0.2568
    11RH    C38 1366   0.690   2.057   0.761 -0.1760  0.2737  0.0827
    4IDB    C39 1367   1.243   2.676  -0.820  0.4366 -0.2708  0.1619
    62IDT   C40 1368   1.275   2.729  -0.958 -0.4898  0.1358  0.0050
    72IDQ   C41 1369   1.255   2.486  -0.969  0.3855 -0.2090  0.3317
    62IDT   C42 1370   1.293   2.621  -1.042 -0.5472  0.1041  0.0336
    72IDQ   C43 1371   1.123   2.432  -1.037  0.2518  1.0869 -0.2951
    72IDQ   C44 1372   1.361   2.371  -0.973 -0.3225  0.1797  0.7125
    62IDT    S5 1373   1.313   2.885  -1.040  0.0601  0.0608  0.1046
    62IDT   C45 1374   1.352   2.791  -1.191  0.1897 -0.0131  0.1835
    62IDT   C46 1375   1.336   2.656  -1.174 -0.1632  0.0198  0.1347
    82BTZ   C47 1376   1.397   2.858  -1.313 -0.4592  0.1025 -0.0914
    82BTZ   C48 1377   1.457   2.785  -1.412 -0.4469  0.0122 -0.0178
    82BTZ   C49 1378   1.502   2.846  -1.535 -0.3415 -0.0815 -0.0265
    82BTZ   C50 1379   1.486   2.980  -1.558 -0.2487 -0.0847 -0.1090
    82BTZ   C51 1380   1.378   2.998  -1.333 -0.3644  0.1031 -0.1794
    82BTZ   C52 1381   1.423   3.061  -1.458 -0.2573  0.0079 -0.1882
    92RH    C53 1382   1.518   3.042  -1.693 -0.2899  0.0874 -0.0907
    82BTZ    N4 1383   1.320   3.080  -1.244 -0.3660  0.1863 -0.2563
    82BTZ    N5 1384   1.402   3.192  -1.469 -0.1728  0.0144 -0.2723
    82BTZ    S6 1385   1.321   3.243  -1.317 -0.2277  0.1454 -0.3450
    92RH    C54 1386   1.563   2.987  -1.807 -0.0890  0.0359  0.0136
    92RH     S7 1387   1.597   2.809  -1.837 -0.0723  0.0169  0.1411
    92RH    C55 1388   1.594   3.066  -1.929  0.1588 -0.0153  0.0418
    92RH     O2 1389   1.581   3.189  -1.940  0.2092 -0.0167 -0.0257
    92RH     N6 1390   1.640   2.983  -2.033  0.3365 -0.0638  0.1577
    92RH    C56 1391   1.650   2.847  -2.010  0.2613 -0.0577  0.2258
    92RH    C57 1392   1.668   3.045  -2.162 -0.2952 -0.3844 -0.0663
    92RH    C58 1393   1.552   3.082  -2.255 -0.5095  0.2781 -0.1264
    92RH     S8 1394   1.701   2.727  -2.116  0.4348 -0.1082  0.3656
    72IDQ   C59 1395   1.514   2.411  -0.945  0.7978 -0.0384 -0.0271
    72IDQ   C60 1396   1.616   2.296  -0.955  0.9018  0.1320  0.5622
    72IDQ   C61 1397   1.765   2.343  -0.958 -0.2792  1.2372 -0.4986
    72IDQ   C62 1398   1.808   2.417  -1.076 -0.6955 -0.3616  0.4835
    72IDQ   C63 1399   1.955   2.466  -1.059 -0.2181 -0.3801  0.3976
    72IDQ   C64 1400   2.011   2.544  -1.182 -0.3299  0.5478 -1.2607
    72IDQ   C65 1401   2.161   2.519  -1.173 -0.0798  0.2778 -0.0286
    72IDQ   C66 1402   1.120   2.380  -1.182 -0.2988  0.1728 -0.3202
    72IDQ   C67 1403   0.985   2.383  -1.244  0.0912 -0.0755 -0.0636
    72IDQ   C68 1404   1.000   2.359  -1.384  0.4960  0.7625  1.1126
    72IDQ   C69 1405   0.863   2.365  -1.453  0.5619 -0.1797  0.1065
    72IDQ   C70 1406   0.859   2.375  -1.604 -0.0020  0.0776 -0.3295
    72IDQ   C71 1407   0.713   2.363  -1.643 -0.2980  0.2675 -0.5476
    72IDQ   C72 1408   0.685   2.382  -1.791 -0.1616  0.0464 -0.4286
    11RH     C1 1409   0.490   4.597   2.061  0.3241  0.0007  0.0325
    11RH     C2 1410   0.541   4.515   1.948  0.1007  0.0319 -0.0913
    11RH     N1 1411   0.455   4.517   2.171  0.3926 -0.0440  0.0218
    11RH     S1 1412   0.539   4.338   1.995 -0.0046  0.0004 -0.2136
    11RH     C3 1413   0.472   4.380   2.161  0.2514 -0.0523 -0.0954
    11RH     C4 1414   0.384   4.582   2.291 -0.8741  0.2816 -0.0611
    11RH     S2 1415   0.438   4.263   2.277  0.2930 -0.1022 -0.1334
    11RH     O1 1416   0.479   4.721   2.061  0.4399  0.0117  0.1342
    11RH     C5 1417   0.581   4.567   1.831 -0.0026  0.0760 -0.1072
    21BTZ    C6 1418   0.642   4.503   1.714 -0.1985  0.1425 -0.2817
    21BTZ    C7 1419   0.661   4.368   1.705 -0.1781  0.1380 -0.1747
    21BTZ    C8 1420   0.667   4.584   1.598 -0.1031  0.0675 -0.3134
    21BTZ    C9 1421   0.705   4.305   1.583 -0.0639  0.0606 -0.0941
    21BTZ   C10 1422   0.730   4.378   1.470  0.0299 -0.0126 -0.1207
    21BTZ   C11 1423   0.712   4.520   1.474  0.0131 -0.0112 -0.2316
    21BTZ    N2 1424   0.652   4.716   1.594 -0.1120  0.0637 -0.4150
    21BTZ    N3 1425   0.733   4.601   1.370  0.0976 -0.0783 -0.2673
    21BTZ    S3 1426   0.696   4.767   1.428  0.0307 -0.0429 -0.4102
    31IDT   C12 1427   0.774   4.303   1.346 -0.3539  0.0865 -0.1851
    31IDT   C13 1428   0.785   4.167   1.335 -0.1650  0.0947 -0.0901
    31IDT   C14 1429   0.832   4.126   1.206  0.0192  0.0768 -0.0175
    31IDT   C15 1430   0.857   4.230   1.119 -0.0279  0.0552 -0.0565
    31IDT    S4 1431   0.821   4.389   1.193 -0.3118  0.0554 -0.1894
    4IDB    C16 1432   0.916   4.183   0.997  0.2617  0.2543  0.1538
    4IDB    C17 1433   0.932   4.041   1.007  0.4276  0.2723  0.1490
    51IDQ   C18 1434   0.881   3.992   1.150  0.0632  0.0400  0.6663
    4IDB    C19 1435   0.986   3.968   0.902  0.1632  0.2909 -0.0031
    51IDQ   C20 1436   0.770   3.875   1.127 -0.0213 -0.2447 -0.6021
    51IDQ   C21 1437   0.999   3.928   1.239  0.7916 -0.4000  0.0016
    51IDQ   C22 1438   1.147   3.942   1.189  0.4848  0.0874  0.6187
    51IDQ   C23 1439   0.620   3.889   1.156  0.3917  0.5373  0.7306
    51IDQ   C24 1440   1.242   3.900   1.301 -0.4403  0.2132 -0.2574
    51IDQ   C25 1441   1.385   3.945   1.294  0.2682  0.2181 -0.1465
    51IDQ   C26 1442   1.479   3.891   1.400  0.2021  0.9676 -0.2670
    51IDQ   C27 1443   1.497   3.735   1.398 -0.4176 -0.5539  0.0540
    51IDQ   C28 1444   1.558   3.692   1.534 -0.0287  0.5721  0.3785
    51IDQ   C29 1445   1.608   3.544   1.520 -0.4220 -0.1495 -0.3630
    51IDQ   C30 1446   0.536   3.977   1.051  0.0263  0.0437 -0.3042
    51IDQ   C31 1447   0.387   3.951   1.050  0.0591 -0.0324 -0.6404
    51IDQ   C32 1448   0.308   4.024   0.947 -0.0582 -0.0098  0.5043
    51IDQ   C33 1449   0.162   4.031   0.989 -0.1571 -0.3138  0.5545
    51IDQ   C34 1450   0.082   4.118   0.891  0.5835  0.1492 -0.2730
    51IDQ   C35 1451  -0.071   4.107   0.918 -0.2460 -0.2062 -0.0351
    4IDB    C36 1452   0.955   4.252   0.881 -0.1724  0.2550  0.0055
    4IDB    C37 1453   1.010   4.175   0.775 -0.4378  0.2743 -0.1488
    11RH    C38 1454   0.467   4.586   2.422  0.5556 -0.2292  0.4090
    4IDB    C39 1455   1.025   4.037   0.786 -0.2709  0.2916 -0.1515
    62IDT   C40 1456   1.069   3.978   0.662  0.1840 -0.2421  0.0434
    72IDQ   C41 1457   1.058   4.219   0.637  0.3369  1.2224  0.1179
    62IDT   C42 1458   1.095   4.080   0.574 -0.3485 -0.3135 -0.1993
    72IDQ   C43 1459   0.923   4.271   0.568  0.4960 -0.9409  0.1744
    72IDQ   C44 1460   1.169   4.335   0.644  0.3647 -0.2981 -0.4695
    62IDT    S5 1461   1.108   3.817   0.593  0.2693 -0.2623  0.1368
    62IDT   C45 1462   1.159   3.901   0.439 -0.4546 -0.3720 -0.1724
    62IDT   C46 1463   1.146   4.037   0.447 -0.7102 -0.3873 -0.3216
    82BTZ   C47 1464   1.199   3.822   0.321 -0.0782  0.2484 -0.2727
    82BTZ   C48 1465   1.246   3.895   0.215 -0.2569  0.2021 -0.3852
    82BTZ   C49 1466   1.283   3.833   0.090 -0.4054  0.1394 -0.3979
    82BTZ   C50 1467   1.273   3.697   0.072 -0.3750  0.1231 -0.2983
    82BTZ   C51 1468   1.187   3.680   0.306 -0.0393  0.2338 -0.1656
    82BTZ   C52 1469   1.224   3.616   0.179 -0.1903  0.1700 -0.1786
    92RH    C53 1470   1.300   3.638  -0.058  0.0672  0.0792 -0.4161
    82BTZ    N4 1471   1.142   3.598   0.402  0.1290  0.2748 -0.0512
    82BTZ    N5 1472   1.209   3.484   0.173 -0.1433  0.1598 -0.0747
    82BTZ    S6 1473   1.146   3.433   0.333  0.1010  0.2328  0.0467
    92RH    C54 1474   1.338   3.683  -0.178  0.0360  0.1057 -0.4160
    92RH     S7 1475   1.378   3.856  -0.223  0.0263  0.1154 -0.3876
    92RH    C55 1476   1.353   3.596  -0.297  0.0035  0.1322 -0.4395
    92RH     O2 1477   1.333   3.473  -0.299  0.0013  0.1329 -0.4618
    92RH     N6 1478   1.393   3.669  -0.410 -0.0255  0.1572 -0.4338
    92RH    C56 1479   1.413   3.805  -0.397 -0.0202  0.1539 -0.4083
    92RH    C57 1480   1.408   3.597  -0.545  0.1411 -1.1819 -0.0726
    92RH    C58 1481   1.275   3.581  -0.621  0.3385  0.4663 -0.0412
    92RH     S8 1482   1.460   3.915  -0.516 -0.0501  0.1799 -0.3964
    72IDQ   C59 1483   1.280   4.318   0.747 -0.0633 -0.7842 -0.0558
    72IDQ   C60 1484   1.385   4.427   0.746 -0.4691  0.2755  0.6701
    72IDQ   C61 1485   1.472   4.420   0.616  0.3269  0.0720  0.0157
    72IDQ   C62 1486   1.609   4.360   0.649  0.3158 -0.5090  0.2068
    72IDQ   C63 1487   1.669   4.326   0.510 -1.0395 -0.0273  0.2564
    72IDQ   C64 1488   1.806   4.249   0.524  0.3175  0.3103 -0.3096
    72IDQ   C65 1489   1.847   4.203   0.384  0.2995  0.0153 -0.3232
    72IDQ   C66 1490   0.918   4.284   0.416 -0.6919  0.7401  0.7728
    72IDQ   C67 1491   0.779   4.299   0.370 -0.4401  0.2862  0.0683
    72IDQ   C68 1492   0.782   4.314   0.222 -0.0241 -0.2507 -0.0115
    72IDQ   C69 1493   0.639   4.309   0.164  0.2012  0.1672 -0.0851
    72IDQ   C70 1494   0.638   4.315   0.015  0.4244  0.2830 -0.2063
    72IDQ   C71 1495   0.497   4.326  -0.034  0.5488  0.8115 -0.2817
    72IDQ   C72 1496   0.477   4.297  -0.179  0.3699 -0.4211  0.5022
    11RH     C1 1497   5.888   3.801   6.083 -0.0256  0.2640 -0.3750
    11RH     C2 1498   5.859   3.720   6.204  0.1156  0.2556 -0.3467
    11RH     N1 1499   5.924   3.719   5.974 -0.3470  0.2576 -0.4807
    11RH     S1 1500   5.882   3.542   6.166 -0.1833  0.2397 -0.4607
    11RH     C3 1501   5.928   3.582   5.993 -0.4803  0.2450 -0.5404
    11RH     C4 1502   5.960   3.784   5.847 -0.3387  0.1362  0.5381
    11RH     S2 1503   5.969   3.464   5.880 -0.8552  0.2352 -0.6672
    11RH     O1 1504   5.881   3.924   6.075  0.1146  0.2754 -0.3153
    11RH     C5 1505   5.822   3.773   6.321  0.4168  0.2593 -0.2514
    21BTZ    C6 1506   5.775   3.718   6.447 -0.7849 -0.0650 -0.1997
    21BTZ    C7 1507   5.765   3.582   6.463 -0.5964 -0.0700 -0.1159
    21BTZ    C8 1508   5.745   3.802   6.559 -0.5087 -0.0554 -0.1314
    21BTZ    C9 1509   5.725   3.523   6.588 -0.1301 -0.0657  0.0381
    21BTZ   C10 1510   5.696   3.600   6.698  0.1472 -0.0564  0.1081
    21BTZ   C11 1511   5.705   3.743   6.686 -0.0345 -0.0510  0.0253
    21BTZ    N2 1512   5.751   3.936   6.555 -0.6534 -0.0498 -0.2013
    21BTZ    N3 1513   5.678   3.828   6.786  0.2018 -0.0419  0.0809
    21BTZ    S3 1514   5.705   3.992   6.719 -0.1801 -0.0385 -0.0672
    31IDT   C12 1515   5.654   3.536   6.827 -0.4201 -0.0610 -0.0039
    31IDT   C13 1516   5.632   3.401   6.839 -0.5704 -0.0350  0.0108
    31IDT   C14 1517   5.586   3.364   6.969 -0.3281 -0.0073  0.1059
    31IDT   C15 1518   5.573   3.470   7.057  0.0075 -0.0118  0.1641
    31IDT    S4 1519   5.618   3.626   6.981  0.0432 -0.0519  0.1025
    4IDB    C16 1520   5.515   3.430   7.181  0.0074  0.1117 -0.3969
    4IDB    C17 1521   5.495   3.288   7.176  0.3665  0.0499 -0.1251
    51IDQ   C18 1522   5.531   3.236   7.035 -0.2166 -0.7004 -0.4837
    4IDB    C19 1523   5.446   3.219   7.286  0.2596  0.1812 -0.0895
    51IDQ   C20 1524   5.640   3.119   7.055  0.2954 -0.5239 -0.1009
    51IDQ   C21 1525   5.412   3.188   6.952  1.2191 -0.1886  0.4999
    51IDQ   C22 1526   5.265   3.199   6.990 -0.2789  0.6913 -1.0695
    51IDQ   C23 1527   5.785   3.132   7.021 -0.9147  0.4615 -0.1240
    51IDQ   C24 1528   5.166   3.135   6.892  0.6538  0.3957 -0.0909
    51IDQ   C25 1529   5.174   3.134   6.741 -0.4614 -0.8845  0.1067
    51IDQ   C26 1530   5.169   3.274   6.680 -0.2405  0.2665 -0.0878
    51IDQ   C27 1531   5.161   3.274   6.523  0.4235 -0.6325  0.0002
    51IDQ   C28 1532   5.285   3.239   6.448 -0.5716 -0.4898 -0.1356
    51IDQ   C29 1533   5.254   3.218   6.302  0.9205  0.1553 -0.0538
    51IDQ   C30 1534   5.866   3.225   7.111 -0.3858 -0.0387 -0.5553
    51IDQ   C31 1535   6.011   3.173   7.134  0.4609  0.0673 -0.1923
    51IDQ   C32 1536   6.112   3.283   7.168  0.0211  0.0447 -0.2585
    51IDQ   C33 1537   6.250   3.229   7.206  0.1158 -0.3470 -0.0029
    51IDQ   C34 1538   6.360   3.334   7.238  0.1618 -0.3702  0.8780
    51IDQ   C35 1539   6.507   3.279   7.254  0.4376 -1.1000 -0.1556
    4IDB    C36 1540   5.485   3.503   7.297 -0.4636  0.3065 -0.6362
    4IDB    C37 1541   5.435   3.430   7.409 -0.5662  0.4386 -0.5958
    11RH    C38 1542   5.854   3.813   5.740  0.3880  0.2146 -0.2240
    4IDB    C39 1543   5.416   3.292   7.402 -0.2114  0.3761 -0.3288
    62IDT   C40 1544   5.371   3.241   7.524 -0.3208 -0.0740  0.3276
    72IDQ   C41 1545   5.397   3.480   7.546  0.7234  0.7744 -0.6932
    62IDT   C42 1546   5.362   3.345   7.615 -0.2925  0.0209  0.2226
    72IDQ   C43 1547   5.519   3.546   7.621  0.1320  0.0582  0.4720
    72IDQ   C44 1548   5.272   3.582   7.536  0.3961  0.3039 -0.0834
    62IDT    S5 1549   5.328   3.083   7.598 -0.2891  0.0016  0.5083
    62IDT   C45 1550   5.299   3.170   7.756 -0.2366  0.1654  0.4285
    62IDT   C46 1551   5.321   3.304   7.746 -0.2449  0.1564  0.2794
    82BTZ   C47 1552   5.265   3.094   7.878 -0.0065  0.0377 -0.0645
    82BTZ   C48 1553   5.209   3.166   7.981  0.0126  0.1009 -0.0980
    82BTZ   C49 1554   5.166   3.102   8.103  0.0150  0.1727 -0.0595
    82BTZ   C50 1555   5.179   2.967   8.122 -0.0018  0.1813  0.0124
    82BTZ   C51 1556   5.281   2.953   7.894 -0.0247  0.0437  0.0108
    82BTZ   C52 1557   5.237   2.888   8.018 -0.0223  0.1168  0.0499
    92RH    C53 1558   5.143   2.907   8.248 -0.1487  0.2378 -0.1339
    82BTZ    N4 1559   5.334   2.872   7.801 -0.0441 -0.0137  0.0493
    82BTZ    N5 1560   5.254   2.756   8.024 -0.0398  0.1180  0.1198
    82BTZ    S6 1561   5.329   2.707   7.870 -0.0606  0.0239  0.1390
    92RH    C54 1562   5.095   2.950   8.365 -0.1270  0.1798 -0.1037
    92RH     S7 1563   5.071   3.125   8.417 -0.1992  0.1529 -0.0456
    92RH    C55 1564   5.053   2.860   8.475 -0.0379  0.1268 -0.1133
    92RH     O2 1565   5.057   2.735   8.471  0.0259  0.1297 -0.1496
    92RH     N6 1566   5.007   2.932   8.587 -0.0337  0.0711 -0.0755
    92RH    C56 1567   5.007   3.069   8.581 -0.1085  0.0728 -0.0368
    92RH    C57 1568   4.963   2.853   8.705  0.6606 -0.0904 -0.1461
    92RH    C58 1569   5.065   2.835   8.818 -0.3240  0.2437  0.4048
    92RH     S8 1570   4.957   3.178   8.700 -0.1208  0.0134  0.0125
    72IDQ   C59 1571   5.163   3.571   7.422 -0.2153  0.0099 -0.6753
    72IDQ   C60 1572   5.045   3.668   7.455 -0.9284 -0.4962 -0.2976
    72IDQ   C61 1573   4.943   3.653   7.563  0.0907  0.3521 -0.2978
    72IDQ   C62 1574   4.880   3.516   7.588 -0.5632  0.4715  0.4616
    72IDQ   C63 1575   4.739   3.536   7.630  0.2144  0.7662  0.1827
    72IDQ   C64 1576   4.647   3.420   7.598  0.1197 -0.6967 -0.6585
    72IDQ   C65 1577   4.537   3.401   7.706 -0.0122 -0.3271 -0.6476
    72IDQ   C66 1578   5.509   3.598   7.767 -0.6624  0.1373  0.3923
    72IDQ   C67 1579   5.640   3.642   7.826 -0.9501  0.4798  0.1001
    72IDQ   C68 1580   5.722   3.526   7.874  0.0254  0.2738 -0.6780
    72IDQ   C69 1581   5.851   3.554   7.958 -0.3403  0.4277  0.4893
    72IDQ   C70 1582   5.839   3.592   8.098 -0.2857  0.3178  0.2220
    72IDQ   C71 1583   5.961   3.548   8.175 -0.2476  0.0360  0.3357
    72IDQ   C72 1584   5.965   3.573   8.323 -0.0176 -0.0867 -0.6603
    11RH     C1 1585   0.495   2.933   1.170  0.0118 -0.0107 -0.0420
    11RH     C2 1586   0.447   3.020   1.280 -0.0132 -0.1109  0.0271
    11RH     N1 1587   0.540   3.009   1.060  0.0278  0.0897  0.0335
    11RH     S1 1588   0.465   3.196   1.231 -0.0141 -0.0664  0.1869
    11RH     C3 1589   0.535   3.146   1.068  0.0186  0.0823  0.1546
    11RH     C4 1590   0.589   2.938   0.936 -0.3787  0.8298  0.3098
    11RH     S2 1591   0.583   3.258   0.952  0.0337  0.1884  0.2630
    11RH     O1 1592   0.495   2.809   1.172  0.0184 -0.0125 -0.1522
    11RH     C5 1593   0.398   2.974   1.396 -0.0318 -0.2165 -0.0228
    21BTZ    C6 1594   0.351   3.030   1.527  0.4148 -0.0103  0.3624
    21BTZ    C7 1595   0.345   3.165   1.549  0.3736 -0.0077  0.3356
    21BTZ    C8 1596   0.312   2.941   1.632  0.2230  0.0019  0.3016
    21BTZ    C9 1597   0.301   3.219   1.675  0.1434  0.0068  0.2483
    21BTZ   C10 1598   0.262   3.139   1.778 -0.0451  0.0188  0.1879
    21BTZ   C11 1599   0.266   2.996   1.760 -0.0110  0.0166  0.2128
    21BTZ    N2 1600   0.313   2.808   1.623  0.2411  0.0008  0.3200
    21BTZ    N3 1601   0.231   2.908   1.854 -0.1808  0.0274  0.1599
    21BTZ    S3 1602   0.255   2.746   1.781 -0.0461  0.0190  0.2226
    31IDT   C12 1603   0.206   3.208   1.899  0.0571 -0.4348 -0.1660
    31IDT   C13 1604   0.172   3.340   1.906 -0.1823 -0.4573 -0.7476
    31IDT   C14 1605   0.125   3.379   2.036 -0.1524  0.0497 -0.8821
    31IDT   C15 1606   0.123   3.276   2.127  0.1093  0.4609 -0.4050
    31IDT    S4 1607   0.181   3.121   2.056  0.3403  0.2359  0.2577
    4IDB    C16 1608   0.069   3.328   2.257  0.6589  0.2470  0.0607
    4IDB    C17 1609   0.035   3.466   2.246  0.6788  0.2592  0.1533
    51IDQ   C18 1610   0.063   3.505   2.099 -0.2006 -0.6105  0.2654
    4IDB    C19 1611  -0.016   3.536   2.354  0.0171  0.0126  0.0061
    51IDQ   C20 1612   0.166   3.633   2.112  0.5056 -0.1422  0.1446
    51IDQ   C21 1613  -0.056   3.544   2.008  0.6115 -0.5382 -0.5472
    51IDQ   C22 1614  -0.208   3.531   2.033 -0.7037  0.0500  0.1615
    51IDQ   C23 1615   0.317   3.628   2.074 -0.1791 -0.3557  0.0522
    51IDQ   C24 1616  -0.295   3.519   1.918  0.5636 -0.4762 -0.4628
    51IDQ   C25 1617  -0.303   3.641   1.820 -0.2303  0.2129 -0.4459
    51IDQ   C26 1618  -0.323   3.779   1.873 -0.0022 -0.2035 -0.0984
    51IDQ   C27 1619  -0.296   3.874   1.762  0.4592 -0.6675 -0.3207
    51IDQ   C28 1620  -0.351   4.018   1.764  0.2315 -0.5575  0.1258
    51IDQ   C29 1621  -0.276   4.107   1.664 -0.0001  0.1313  0.2655
    51IDQ   C30 1622   0.397   3.552   2.181  0.0187 -0.3599  0.3542
    51IDQ   C31 1623   0.542   3.584   2.183 -0.9097 -0.2855 -0.0811
    51IDQ   C32 1624   0.639   3.498   2.269  0.3422 -0.2984  0.9121
    51IDQ   C33 1625   0.786   3.531   2.256 -0.2242 -0.3575 -0.5039
    51IDQ   C34 1626   0.872   3.433   2.328 -0.2486  0.0023  0.3738
    51IDQ   C35 1627   1.016   3.458   2.305  0.6226 -0.1055 -0.3794
    4IDB    C36 1628   0.052   3.258   2.377 -0.0275 -0.0139 -0.1812
    4IDB    C37 1629  -0.001   3.331   2.487 -0.6980 -0.2637 -0.3290
    11RH    C38 1630   0.492   2.904   0.823  0.6769 -0.4217  0.1609
    4IDB    C39 1631  -0.034   3.466   2.475 -0.6693 -0.2483 -0.2359
    62IDT   C40 1632  -0.092   3.517   2.596  0.0458 -0.2538 -0.3195
    72IDQ   C41 1633  -0.036   3.281   2.632  0.3994  0.4523  0.6726
    62IDT   C42 1634  -0.093   3.414   2.688 -0.5147 -0.4947 -0.5831
    72IDQ   C43 1635   0.103   3.236   2.702 -0.2960 -0.4335  0.2740
    72IDQ   C44 1636  -0.129   3.152   2.629  0.3039 -0.2867 -0.6218
    62IDT    S5 1637  -0.147   3.672   2.668  0.8029 -0.1519  0.0556
    62IDT   C45 1638  -0.169   3.585   2.827  0.2968 -0.4552 -0.1749
    62IDT   C46 1639  -0.137   3.453   2.819 -0.3736 -0.6090 -0.5016
    82BTZ   C47 1640  -0.197   3.666   2.950  0.2119 -0.0708  0.0024
    82BTZ   C48 1641  -0.230   3.594   3.062  0.0924 -0.0575 -0.0237
    82BTZ   C49 1642  -0.256   3.659   3.188 -0.0843 -0.0395 -0.0693
    82BTZ   C50 1643  -0.249   3.795   3.202 -0.1414 -0.0347 -0.0886
    82BTZ   C51 1644  -0.189   3.808   2.959  0.1585 -0.0665 -0.0164
    82BTZ   C52 1645  -0.216   3.874   3.087 -0.0211 -0.0481 -0.0627
    92RH    C53 1646  -0.287   3.855   3.333  0.3287 -0.0823  0.3619
    82BTZ    N4 1647  -0.158   3.889   2.857  0.2630 -0.0783  0.0056
    82BTZ    N5 1648  -0.206   4.008   3.088 -0.0612 -0.0451 -0.0779
    82BTZ    S6 1649  -0.162   4.056   2.922  0.1331 -0.0663 -0.0327
    92RH    C54 1650  -0.335   3.804   3.446  0.1572 -0.1125  0.2766
    92RH     S7 1651  -0.387   3.630   3.475 -0.0600 -0.0768  0.0988
    92RH    C55 1652  -0.353   3.883   3.571  0.1165 -0.1819  0.3149
    92RH     O2 1653  -0.327   4.003   3.584  0.2338 -0.2197  0.4281
    92RH     N6 1654  -0.405   3.803   3.675 -0.0759 -0.2010  0.2051
    92RH    C56 1655  -0.431   3.670   3.650 -0.1942 -0.1553  0.0835
    92RH    C57 1656  -0.425   3.869   3.812  0.4124 -0.3167  0.1405
    92RH    C58 1657  -0.312   3.844   3.915  0.8946 -0.4091  0.1144
    92RH     S8 1658  -0.493   3.555   3.756 -0.4274 -0.1654 -0.0618
    72IDQ   C59 1659  -0.259   3.148   2.549  0.0678  0.4372 -0.0428
    72IDQ   C60 1660  -0.363   3.226   2.630 -0.1145 -0.0215 -0.5854
    72IDQ   C61 1661  -0.500   3.211   2.577 -0.1009  0.5138  0.0092
    72IDQ   C62 1662  -0.597   3.275   2.673 -0.0116 -0.0752  0.5400
    72IDQ   C63 1663  -0.743   3.253   2.643 -0.2642 -0.1665 -0.3656
    72IDQ   C64 1664  -0.838   3.323   2.742  0.0161  0.8742  0.8467
    72IDQ   C65 1665  -0.817   3.319   2.893 -0.5272  0.8323  0.1667
    72IDQ   C66 1666   0.107   3.232   2.853  0.8430 -0.4740 -0.0564
    72IDQ   C67 1667   0.233   3.186   2.920 -0.8039 -0.4168  0.3089
    72IDQ   C68 1668   0.194   3.162   3.069  0.0541 -0.4738 -0.1642
    72IDQ   C69 1669   0.299   3.208   3.169 -0.4161  0.1345 -0.2066
    72IDQ   C70 1670   0.249   3.191   3.308  0.7306 -0.0424 -0.2883
    72IDQ   C71 1671   0.340   3.253   3.412  0.0768 -0.2874 -0.1513
    72IDQ   C72 1672   0.462   3.169   3.445  0.1625  0.1888 -0.4670
    11RH     C1 1673   0.295   3.676   3.758  0.0911  0.1580  0.2933
    11RH     C2 1674   0.338   3.762   3.645  0.1192  0.0266  0.2033
    11RH     N1 1675   0.267   3.752   3.873 -0.0923  0.3099  0.1509
    11RH     S1 1676   0.340   3.938   3.699 -0.0973  0.1116 -0.0628
    11RH     C3 1677   0.284   3.889   3.867 -0.2145  0.3164 -0.0422
    11RH     C4 1678   0.221   3.681   3.999  0.3503 -0.2511  0.1225
    11RH     S2 1679   0.258   4.002   3.990 -0.4390  0.4811 -0.2388
    11RH     O1 1680   0.283   3.552   3.754  0.2108  0.1402  0.4706
    11RH     C5 1681   0.371   3.715   3.524  0.2805 -0.1289  0.3059
    21BTZ    C6 1682   0.412   3.772   3.395 -0.4358 -0.2607 -0.0329
    21BTZ    C7 1683   0.425   3.908   3.376 -0.5038 -0.2441  0.0415
    21BTZ    C8 1684   0.451   3.684   3.289 -0.2862 -0.1867 -0.0402
    21BTZ    C9 1685   0.475   3.963   3.253 -0.4288 -0.1546  0.1118
    21BTZ   C10 1686   0.513   3.882   3.149 -0.2859 -0.0816  0.1078
    21BTZ   C11 1687   0.503   3.740   3.163 -0.2099 -0.0957  0.0313
    21BTZ    N2 1688   0.444   3.551   3.295 -0.2082 -0.1943 -0.1093
    21BTZ    N3 1689   0.537   3.652   3.069 -0.0708 -0.0300  0.0197
    21BTZ    S3 1690   0.504   3.490   3.138 -0.0304 -0.0831 -0.0853
    31IDT   C12 1691   0.570   3.941   3.023  0.0281 -0.0795 -0.1569
    31IDT   C13 1692   0.604   4.073   3.014 -0.3262 -0.0042 -0.4209
    31IDT   C14 1693   0.658   4.108   2.886 -0.3059 -0.1403 -0.4492
    31IDT   C15 1694   0.666   4.002   2.798  0.0630 -0.3197 -0.2075
    31IDT    S4 1695   0.604   3.850   2.870  0.4167 -0.3307  0.0773
    4IDB    C16 1696   0.715   4.047   2.670  0.2050 -0.0278  0.1236
    4IDB    C17 1697   0.742   4.187   2.676  0.1934 -0.0240  0.0862
    51IDQ   C18 1698   0.709   4.234   2.821  0.1489 -0.3071  0.5406
    4IDB    C19 1699   0.777   4.258   2.561  0.0118 -0.0162  0.0347
    51IDQ   C20 1700   0.610   4.362   2.808  0.6576  0.2888  0.2887
    51IDQ   C21 1701   0.834   4.280   2.911  0.0004  0.2354 -0.0415
    51IDQ   C22 1702   0.974   4.268   2.842  0.3938  0.1978  0.1803
    51IDQ   C23 1703   0.459   4.344   2.826 -0.1802  0.1479 -0.6253
    51IDQ   C24 1704   1.101   4.238   2.928  0.5905 -0.4709 -0.0616
    51IDQ   C25 1705   1.121   4.317   3.052  0.4623 -0.5451 -0.4727
    51IDQ   C26 1706   1.155   4.469   3.033  0.0823  0.3038 -0.3318
    51IDQ   C27 1707   1.178   4.556   3.161  0.6293 -0.1211 -0.2058
    51IDQ   C28 1708   1.179   4.706   3.143 -0.0091 -0.1665  0.3273
    51IDQ   C29 1709   1.272   4.771   3.247  0.1149  0.3482 -0.1921
    51IDQ   C30 1710   0.379   4.289   2.706 -0.4711 -0.6320  0.0486
    51IDQ   C31 1711   0.233   4.270   2.730  0.2633 -0.1379 -0.5485
    51IDQ   C32 1712   0.148   4.258   2.607 -0.0142 -0.1186 -0.0417
    51IDQ   C33 1713   0.003   4.250   2.662 -0.3488 -0.1847  0.1056
    51IDQ   C34 1714  -0.096   4.205   2.553 -0.1428 -0.1427 -0.4202
    51IDQ   C35 1715  -0.242   4.253   2.578 -0.2795 -0.2587 -0.0488
    4IDB    C36 1716   0.723   3.976   2.549  0.0337 -0.0238  0.1097
    4IDB    C37 1717   0.759   4.050   2.433 -0.1507 -0.0159  0.0569
    11RH    C38 1718   0.331   3.618   4.080 -0.0299 -0.3960  0.1133
    4IDB    C39 1719   0.785   4.187   2.440 -0.1595 -0.0123  0.0207
    62IDT   C40 1720   0.831   4.231   2.312  0.2170  0.1709  0.2945
    72IDQ   C41 1721   0.775   3.998   2.287  0.0543 -0.0387 -0.0559
    62IDT   C42 1722   0.836   4.127   2.222 -0.1283  0.3049  0.1141
    72IDQ   C43 1723   0.636   3.951   2.236 -0.0640  0.7408 -0.2373
    72IDQ   C44 1724   0.878   3.879   2.278  0.2046  0.7371  0.0530
    62IDT    S5 1725   0.883   4.386   2.237  0.1535  0.2403  0.3936
    62IDT   C45 1726   0.910   4.297   2.081 -0.3615  0.4574  0.1753
    62IDT   C46 1727   0.881   4.163   2.092 -0.4558  0.4672  0.0464
    82BTZ   C47 1728   0.940   4.366   1.955  0.1133  0.1769 -0.0291
    82BTZ   C48 1729   0.995   4.289   1.856  0.1268  0.0991  0.0387
    82BTZ   C49 1730   1.036   4.346   1.730  0.1923  0.0091  0.0197
    82BTZ   C50 1731   1.023   4.479   1.703  0.2441 -0.0032 -0.0671
    82BTZ   C51 1732   0.925   4.507   1.932  0.1660  0.1676 -0.1211
    82BTZ   C52 1733   0.967   4.564   1.804  0.2325  0.0763 -0.1405
    92RH    C53 1734   1.055   4.540   1.570 -0.4518 -0.3089  0.1169
    82BTZ    N4 1735   0.873   4.592   2.021  0.1590  0.2382 -0.1929
    82BTZ    N5 1736   0.949   4.696   1.790  0.2790  0.0732 -0.2278
    82BTZ    S6 1737   0.876   4.753   1.943  0.2389  0.1897 -0.2903
    92RH    C54 1738   1.105   4.502   1.452 -0.3932 -0.0944  0.0718
    92RH     S7 1739   1.145   4.331   1.400 -0.1808  0.0213 -0.1484
    92RH    C55 1740   1.137   4.597   1.342 -0.4957  0.0881  0.1982
    92RH     O2 1741   1.121   4.720   1.346 -0.6448  0.0647  0.3576
    92RH     N6 1742   1.189   4.530   1.229 -0.4022  0.2974  0.1149
    92RH    C56 1743   1.202   4.393   1.235 -0.2375  0.3051 -0.0628
    92RH    C57 1744   1.216   4.604   1.104 -0.4299 -0.0723  0.4826
    92RH    C58 1745   1.115   4.594   0.983 -0.6789  0.3393  0.3437
    92RH     S8 1746   1.260   4.289   1.115 -0.0999  0.5313 -0.1925
    72IDQ   C59 1747   1.011   3.869   2.357 -0.5490 -0.0658 -0.4280
    72IDQ   C60 1748   1.117   3.976   2.344 -0.2710  0.0628 -0.0590
    72IDQ   C61 1749   1.206   3.947   2.223  0.6061  0.4888 -0.0617
    72IDQ   C62 1750   1.339   4.027   2.223 -0.0241  0.4836 -0.6319
    72IDQ   C63 1751   1.436   3.982   2.126  0.1658  0.1146  0.2472
    72IDQ   C64 1752   1.581   4.014   2.162  0.8644 -0.2176 -0.1996
    72IDQ   C65 1753   1.684   4.011   2.046 -0.1927 -0.1105 -0.5042
    72IDQ   C66 1754   0.593   3.972   2.091  0.2203 -0.0975 -0.2622
    72IDQ   C67 1755   0.656   3.894   1.978 -0.1189 -0.0475 -0.3811
    72IDQ   C68 1756   0.605   3.929   1.837 -1.1039 -0.4894 -0.1278
    72IDQ   C69 1757   0.456   3.899   1.810 -0.1987  0.0363  0.3130
    72IDQ   C70 1758   0.401   3.967   1.681 -0.5671 -0.1141 -0.1266
    72IDQ   C71 1759   0.478   3.943   1.557 -0.4857 -0.1230  0.3230
    72IDQ   C72 1760   0.428   4.023   1.445  0.1866 -0.0970  0.0041
    11RH     C1 1761   0.094   4.523   5.387  0.2530  0.0061  0.0346
    11RH     C2 1762   0.118   4.429   5.274  0.2346 -0.0124  0.0461
    11RH     N1 1763   0.063   4.453   5.505  0.1704  0.0292  0.0266
    11RH     S1 1764   0.097   4.256   5.331  0.1100  0.0018  0.0454
    11RH     C3 1765   0.058   4.316   5.502  0.0882  0.0316  0.0300
    11RH     C4 1766   0.040   4.527   5.639 -0.3403  0.7269 -0.2042
    11RH     S2 1767   0.024   4.210   5.628 -0.0191  0.0571  0.0222
    11RH     O1 1768   0.100   4.647   5.381  0.3303  0.0021  0.0322
    11RH     C5 1769   0.149   4.470   5.150  0.3010 -0.0358  0.0551
    21BTZ    C6 1770   0.181   4.414   5.022  0.1534 -0.1878 -0.1381
    21BTZ    C7 1771   0.191   4.279   4.997  0.0880 -0.1529 -0.3545
    21BTZ    C8 1772   0.224   4.506   4.921  0.1659 -0.0448 -0.0039
    21BTZ    C9 1773   0.242   4.229   4.873  0.0318  0.0226 -0.4498
    21BTZ   C10 1774   0.285   4.313   4.773  0.0412  0.1634 -0.3283
    21BTZ   C11 1775   0.277   4.454   4.794  0.1088  0.1336 -0.1009
    21BTZ    N2 1776   0.220   4.639   4.933  0.2274 -0.0622  0.2087
    21BTZ    N3 1777   0.315   4.546   4.705  0.1244  0.2598  0.0342
    21BTZ    S3 1778   0.285   4.705   4.780  0.2146  0.1536  0.2963
    31IDT   C12 1779   0.335   4.255   4.654 -0.5765  0.1650  0.0223
    31IDT   C13 1780   0.377   4.125   4.643 -0.8573  0.0479  0.3186
    31IDT   C14 1781   0.427   4.093   4.513 -0.7138 -0.2950  0.4550
    31IDT   C15 1782   0.424   4.199   4.424 -0.3235 -0.4413  0.2642
    31IDT    S4 1783   0.357   4.348   4.499 -0.1055 -0.1532 -0.1066
    4IDB    C16 1784   0.488   4.157   4.302  0.2016 -0.1288 -0.2234
    4IDB    C17 1785   0.524   4.019   4.306  0.0258 -0.1836 -0.4767
    51IDQ   C18 1786   0.484   3.968   4.449  0.4095  0.9073  0.2750
    4IDB    C19 1787   0.580   3.957   4.195 -0.0402 -0.0481 -0.5866
    51IDQ   C20 1788   0.382   3.842   4.443  0.8077  0.2495  0.0487
    51IDQ   C21 1789   0.613   3.919   4.534  0.4951 -0.0345  0.5819
    51IDQ   C22 1790   0.760   3.940   4.494  0.0789  0.5555 -0.6560
    51IDQ   C23 1791   0.245   3.832   4.509  1.1858  0.0390 -0.2995
    51IDQ   C24 1792   0.876   3.879   4.572  0.2524 -0.0793 -0.3541
    51IDQ   C25 1793   0.867   3.729   4.612 -0.1344 -0.2550 -0.1182
    51IDQ   C26 1794   0.959   3.688   4.723 -0.2786 -0.3351 -0.0538
    51IDQ   C27 1795   1.042   3.570   4.683  0.8558  0.5710 -0.1743
    51IDQ   C28 1796   1.120   3.520   4.795  0.3421  0.1407  0.4222
    51IDQ   C29 1797   1.216   3.610   4.870 -0.3624 -0.5486 -0.5665
    51IDQ   C30 1798   0.132   3.929   4.470 -0.7368 -0.7287 -0.1815
    51IDQ   C31 1799   0.078   3.890   4.336 -0.4954  0.2151  0.7940
    51IDQ   C32 1800  -0.027   3.977   4.276  0.5844 -0.0903 -0.1881
    51IDQ   C33 1801  -0.177   3.975   4.328  0.5335 -0.3670  0.3315
    51IDQ   C34 1802  -0.252   4.066   4.236  0.8483 -0.6065 -0.1300
    51IDQ   C35 1803  -0.406   4.061   4.250 -0.4507 -0.2815 -0.2222
    4IDB    C36 1804   0.507   4.235   4.187  0.3131  0.0632 -0.0776
    4IDB    C37 1805   0.565   4.169   4.074  0.2434  0.1997 -0.1930
    11RH    C38 1806   0.164   4.566   5.713 -0.2830  0.2513 -0.6039
    4IDB    C39 1807   0.600   4.034   4.080  0.0713  0.1437 -0.4407
    62IDT   C40 1808   0.653   3.995   3.948 -0.3692 -0.5213  0.2862
    72IDQ   C41 1809   0.590   4.231   3.933 -0.1101  0.3435  0.0452
    62IDT   C42 1810   0.641   4.100   3.859 -0.7889 -0.3871  0.4937
    72IDQ   C43 1811   0.444   4.278   3.873 -0.3245  0.4501 -0.3204
    72IDQ   C44 1812   0.687   4.363   3.948 -0.0430  0.3348  0.5942
    62IDT    S5 1813   0.722   3.848   3.870  0.2829 -0.0765  0.0087
    62IDT   C45 1814   0.732   3.941   3.714 -0.0633  0.2853  0.1973
    62IDT   C46 1815   0.686   4.069   3.727 -0.6166  0.0691  0.4438
    82BTZ   C47 1816   0.767   3.871   3.586 -0.0254  0.0789  0.1002
    82BTZ   C48 1817   0.830   3.938   3.485 -0.0576  0.0864  0.0854
    82BTZ   C49 1818   0.861   3.874   3.359 -0.1313  0.1061  0.0566
    82BTZ   C50 1819   0.831   3.743   3.336 -0.1726  0.1183  0.0426
    82BTZ   C51 1820   0.733   3.733   3.567 -0.0665  0.0910  0.0865
    82BTZ   C52 1821   0.766   3.668   3.439 -0.1414  0.1110  0.0571
    92RH    C53 1822   0.848   3.673   3.206 -0.0424 -0.1109  0.2452
    82BTZ    N4 1823   0.673   3.657   3.658 -0.0412  0.0854  0.0985
    82BTZ    N5 1824   0.731   3.539   3.428 -0.1762  0.1215  0.0457
    82BTZ    S6 1825   0.654   3.495   3.584 -0.1135  0.1058  0.0725
    92RH    C54 1826   0.888   3.711   3.084  0.0296 -0.1448  0.2581
    92RH     S7 1827   0.954   3.875   3.037  0.1371 -0.1848  0.2690
    92RH    C55 1828   0.885   3.622   2.965  0.0330 -0.1556  0.2661
    92RH     O2 1829   0.845   3.504   2.964 -0.0290 -0.1348  0.2617
    92RH     N6 1830   0.933   3.688   2.850  0.1171 -0.1930  0.2795
    92RH    C56 1831   0.974   3.819   2.862  0.1814 -0.2137  0.2833
    92RH    C57 1832   0.921   3.621   2.718 -0.1127 -0.6044 -0.4913
    92RH    C58 1833   0.795   3.647   2.637  0.3095  0.3907  0.1943
    92RH     S8 1834   1.035   3.919   2.741  0.2861 -0.2586  0.2986
    72IDQ   C59 1835   0.839   4.335   3.979  0.0774  0.4104 -0.2306
    72IDQ   C60 1836   0.942   4.430   3.927  0.2842 -0.0197 -0.5940
    72IDQ   C61 1837   1.086   4.382   3.936 -0.7137  0.8402  0.2056
    72IDQ   C62 1838   1.155   4.337   3.810 -0.8786 -0.8016  0.6364
    72IDQ   C63 1839   1.307   4.313   3.819  0.3002 -0.0513  0.5941
    72IDQ   C64 1840   1.363   4.259   3.688 -0.5413 -0.2262  0.0602
    72IDQ   C65 1841   1.496   4.186   3.719  0.0579 -0.3681 -0.1668
    72IDQ   C66 1842   0.437   4.325   3.730 -0.3590 -0.4606  0.1623
    72IDQ   C67 1843   0.301   4.317   3.664 -0.1209 -0.7450  0.2451
    72IDQ   C68 1844   0.301   4.350   3.511  0.5492 -0.3922 -0.1779
    72IDQ   C69 1845   0.164   4.322   3.437 -0.4680  0.5130 -0.5972
    72IDQ   C70 1846   0.176   4.342   3.284 -0.3718 -0.2459 -0.2524
    72IDQ   C71 1847   0.049   4.295   3.224  0.1081 -0.2624 -0.1644
    72IDQ   C72 1848   0.067   4.307   3.073  0.4493  0.8906 -0.1924
    11RH     C1 1849   0.262   3.826   2.825  0.2753  0.0090  0.1152
    11RH     C2 1850   0.223   3.732   2.932  0.2112 -0.0256  0.0617
    11RH     N1 1851   0.306   3.758   2.709  0.0565  0.0404  0.0112
    11RH     S1 1852   0.247   3.559   2.875 -0.1325 -0.0145 -0.1218
    11RH     C3 1853   0.308   3.620   2.711 -0.1750  0.0352 -0.1190
    11RH     C4 1854   0.356   3.840   2.592  0.5031 -0.4783  0.2023
    11RH     S2 1855   0.355   3.516   2.588 -0.4621  0.0678 -0.2600
    11RH     O1 1856   0.257   3.950   2.832  0.4918  0.0109  0.2354
    11RH     C5 1857   0.177   3.771   3.052  0.3839 -0.0593  0.1390
    21BTZ    C6 1858   0.132   3.705   3.176 -0.0993  0.3077  0.0372
    21BTZ    C7 1859   0.122   3.570   3.192 -0.2313  0.3010 -0.1054
    21BTZ    C8 1860   0.094   3.790   3.286 -0.1123  0.2331  0.0906
    21BTZ    C9 1861   0.074   3.511   3.314 -0.3819  0.2213 -0.2021
    21BTZ   C10 1862   0.036   3.587   3.421 -0.4001  0.1484 -0.1561
    21BTZ   C11 1863   0.045   3.730   3.410 -0.2653  0.1521 -0.0077
    21BTZ    N2 1864   0.099   3.923   3.283  0.0078  0.2316  0.2272
    21BTZ    N3 1865   0.011   3.815   3.507 -0.2683  0.0855  0.0498
    21BTZ    S3 1866   0.041   3.979   3.443 -0.0714  0.1242  0.2359
    31IDT   C12 1867  -0.016   3.517   3.544  0.2472 -0.0727  0.1489
    31IDT   C13 1868  -0.050   3.385   3.551 -0.2037  0.0352  0.0868
    31IDT   C14 1869  -0.114   3.350   3.674 -0.6127  0.2570 -0.0604
    31IDT   C15 1870  -0.129   3.456   3.761 -0.4765  0.3197 -0.1113
    31IDT    S4 1871  -0.064   3.609   3.694  0.1864  0.1005  0.0245
    4IDB    C16 1872  -0.183   3.403   3.890 -0.0963  0.1538  0.0268
    4IDB    C17 1873  -0.206   3.263   3.875  0.7203 -0.0173  0.2989
    51IDQ   C18 1874  -0.180   3.223   3.728  0.0071 -0.2586 -0.4995
    4IDB    C19 1875  -0.257   3.187   3.980  0.5736  0.0115  0.2482
    51IDQ   C20 1876  -0.101   3.085   3.735 -0.1490 -0.3337 -0.0585
    51IDQ   C21 1877  -0.307   3.198   3.633  0.2990 -0.2511 -0.9868
    51IDQ   C22 1878  -0.438   3.177   3.714 -0.1220  0.1929  0.0710
    51IDQ   C23 1879   0.045   3.084   3.689  0.7410  0.4182  0.4747
    51IDQ   C24 1880  -0.555   3.116   3.639 -0.4308  0.1868  0.1731
    51IDQ   C25 1881  -0.599   3.161   3.504 -0.1516  0.1761 -0.0733
    51IDQ   C26 1882  -0.663   3.044   3.427  0.0708  0.4509 -0.4587
    51IDQ   C27 1883  -0.568   2.930   3.390  0.1105 -0.0155 -0.0966
    51IDQ   C28 1884  -0.651   2.805   3.353 -0.7372  0.4112 -0.5722
    51IDQ   C29 1885  -0.544   2.699   3.311 -0.1693 -0.3011  0.3902
    51IDQ   C30 1886   0.141   3.138   3.800  0.4093  0.0662  0.1193
    51IDQ   C31 1887   0.289   3.143   3.767 -0.0340  0.5017 -0.0734
    51IDQ   C32 1888   0.359   3.212   3.876  0.0810 -0.2942 -0.3159
    51IDQ   C33 1889   0.511   3.227   3.845 -0.0993 -0.2843  0.5648
    51IDQ   C34 1890   0.588   3.293   3.957 -0.1551  0.4708 -0.3308
    51IDQ   C35 1891   0.738   3.299   3.931 -0.2515  0.2643  0.4484
    4IDB    C36 1892  -0.212   3.469   4.010 -1.0705  0.3562 -0.2996
    4IDB    C37 1893  -0.265   3.390   4.116 -1.2060  0.3827 -0.3467
    11RH    C38 1894   0.248   3.888   2.490 -0.4677 -0.5656  0.4653
    4IDB    C39 1895  -0.286   3.253   4.100 -0.4005  0.2138 -0.0782
    62IDT   C40 1896  -0.330   3.198   4.226  0.2999 -0.3301 -0.0745
    72IDQ   C41 1897  -0.278   3.426   4.264  0.1808 -0.7959 -0.0570
    62IDT   C42 1898  -0.318   3.296   4.322 -0.0560 -0.1839 -0.1799
    72IDQ   C43 1899  -0.142   3.478   4.329  0.3458 -0.2104 -0.7918
    72IDQ   C44 1900  -0.386   3.551   4.269 -0.6909 -0.4154 -0.0746
    62IDT    S5 1901  -0.382   3.041   4.297  0.2700 -0.2848  0.0039
    62IDT   C45 1902  -0.387   3.121   4.460 -0.2475 -0.0597 -0.1158
    62IDT   C46 1903  -0.351   3.253   4.455 -0.3660 -0.0308 -0.2034
    82BTZ   C47 1904  -0.420   3.051   4.585 -0.1880 -0.0136 -0.1376
    82BTZ   C48 1905  -0.481   3.123   4.684 -0.1663  0.0106 -0.1421
    82BTZ   C49 1906  -0.517   3.064   4.811 -0.1018  0.0518 -0.1041
    82BTZ   C50 1907  -0.492   2.932   4.838 -0.0590  0.0686 -0.0618
    82BTZ   C51 1908  -0.391   2.912   4.609 -0.1448  0.0026 -0.0939
    82BTZ   C52 1909  -0.428   2.852   4.737 -0.0794  0.0443 -0.0554
    92RH    C53 1910  -0.522   2.867   4.966  0.2286 -0.1851  0.2147
    82BTZ    N4 1911  -0.332   2.831   4.521 -0.1606 -0.0182 -0.0854
    82BTZ    N5 1912  -0.398   2.722   4.752 -0.0424  0.0573 -0.0159
    82BTZ    S6 1913  -0.321   2.671   4.599 -0.0905  0.0157 -0.0263
    92RH    C54 1914  -0.572   2.913   5.081  0.1017 -0.1392  0.1423
    92RH     S7 1915  -0.634   3.083   5.114 -0.0292 -0.1553 -0.0221
    92RH    C55 1916  -0.584   2.831   5.204  0.0464 -0.0660  0.1862
    92RH     O2 1917  -0.550   2.712   5.214  0.1094 -0.0388  0.2929
    92RH     N6 1918  -0.639   2.905   5.310 -0.0900 -0.0295  0.0902
    92RH    C56 1919  -0.673   3.037   5.288 -0.1507 -0.0645 -0.0249
    92RH    C57 1920  -0.663   2.841   5.444 -0.4969 -0.4513 -0.0809
    92RH    C58 1921  -0.543   2.849   5.536 -0.8907  0.0355 -0.2772
    92RH     S8 1922  -0.740   3.146   5.397 -0.3109 -0.0331 -0.1538
    72IDQ   C59 1923  -0.531   3.524   4.248  0.1186  0.1826  0.3167
    72IDQ   C60 1924  -0.619   3.643   4.274  0.3492 -0.1799  0.7270
    72IDQ   C61 1925  -0.769   3.629   4.258 -0.3292  0.5963 -0.3060
    72IDQ   C62 1926  -0.841   3.524   4.341 -0.7618  0.5148 -0.5680
    72IDQ   C63 1927  -0.991   3.522   4.343  0.5956  0.2149  0.3345
    72IDQ   C64 1928  -1.063   3.443   4.454  0.5452 -0.2341 -0.5280
    72IDQ   C65 1929  -1.213   3.449   4.445  0.3791 -0.2562  0.3547
    72IDQ   C66 1930  -0.146   3.518   4.469  0.7741  0.7363 -1.1061
    72IDQ   C67 1931  -0.015   3.496   4.548 -0.2293  0.6387 -0.0008
    72IDQ   C68 1932  -0.040   3.539   4.696 -0.7728 -0.4769  0.1516
    72IDQ   C69 1933   0.065   3.488   4.798  0.2540  0.0916 -0.0401
    72IDQ   C70 1934   0.069   3.579   4.924 -0.1927  0.0270  0.3275
    72IDQ   C71 1935   0.176   3.543   5.022 -0.4504  0.2560  0.4656
    72IDQ   C72 1936   0.157   3.405   5.092  0.1939 -0.0825 -0.2217
    11RH     C1 1937   0.066   2.898   4.450 -0.1941  0.0511  0.2968
    11RH     C2 1938   0.020   2.987   4.560 -0.0513  0.1032  0.3150
    11RH     N1 1939   0.100   2.972   4.335 -0.0413  0.0232  0.3237
    11RH     S1 1940   0.024   3.162   4.504  0.2748  0.1122  0.3662
    11RH     C3 1941   0.087   3.109   4.338  0.2065  0.0468  0.3614
    11RH     C4 1942   0.158   2.896   4.223  0.2189  0.0643  0.5599
    11RH     S2 1943   0.120   3.220   4.215  0.4267  0.0224  0.3986
    11RH     O1 1944   0.074   2.775   4.456 -0.4191  0.0331  0.2624
    11RH     C5 1945  -0.019   2.942   4.680 -0.1518  0.1373  0.2957
    21BTZ    C6 1946  -0.071   3.000   4.804 -0.2274 -0.3069 -0.4958
    21BTZ    C7 1947  -0.080   3.135   4.827 -0.2581 -0.3020 -0.5344
    21BTZ    C8 1948  -0.116   2.910   4.905 -0.0627 -0.2901 -0.4063
    21BTZ    C9 1949  -0.133   3.187   4.951 -0.1293 -0.2807 -0.4876
    21BTZ   C10 1950  -0.178   3.105   5.050  0.0299 -0.2642 -0.4019
    21BTZ   C11 1951  -0.171   2.963   5.031  0.0682 -0.2685 -0.3586
    21BTZ    N2 1952  -0.113   2.777   4.894 -0.0174 -0.2928 -0.3614
    21BTZ    N3 1953  -0.211   2.872   5.120  0.2186 -0.2538 -0.2754
    21BTZ    S3 1954  -0.181   2.712   5.046  0.1988 -0.2673 -0.2543
    31IDT   C12 1955  -0.239   3.163   5.168  0.3377 -0.0212  0.0470
    31IDT   C13 1956  -0.273   3.295   5.178  0.5039  0.0079  0.2264
    31IDT   C14 1957  -0.325   3.329   5.307  0.5543 -0.0991  0.2754
    31IDT   C15 1958  -0.332   3.223   5.395  0.4274 -0.2099  0.1339
    31IDT    S4 1959  -0.271   3.071   5.322  0.2322 -0.1875 -0.0740
    4IDB    C16 1960  -0.388   3.269   5.521  0.3321 -0.0781  0.0146
    4IDB    C17 1961  -0.430   3.405   5.507  0.3465 -0.0753 -0.0020
    51IDQ   C18 1962  -0.388   3.451   5.365  0.1644 -0.1505 -0.4383
    4IDB    C19 1963  -0.485   3.474   5.614  0.1760 -0.1167 -0.0614
    51IDQ   C20 1964  -0.300   3.583   5.376 -0.3360 -0.0765  0.3704
    51IDQ   C21 1965  -0.513   3.496   5.279 -1.1273  0.3855  0.4247
    51IDQ   C22 1966  -0.656   3.484   5.322  0.5055 -0.2452 -0.2294
    51IDQ   C23 1967  -0.146   3.601   5.342  0.6191  0.5567  0.3394
    51IDQ   C24 1968  -0.765   3.480   5.215  1.2660  0.3186 -0.0197
    51IDQ   C25 1969  -0.781   3.603   5.114 -0.1605 -0.0897 -0.3013
    51IDQ   C26 1970  -0.823   3.736   5.164  0.2185  0.4745  0.0692
    51IDQ   C27 1971  -0.837   3.849   5.062 -0.6172  0.1213  0.4699
    51IDQ   C28 1972  -0.712   3.877   4.976 -0.4574  0.0964 -0.3963
    51IDQ   C29 1973  -0.697   4.009   4.905 -0.4868  0.2091  0.3941
    51IDQ   C30 1974  -0.071   3.540   5.454 -0.6867 -0.3943 -0.0373
    51IDQ   C31 1975   0.086   3.542   5.430 -0.2109 -0.5473 -0.1787
    51IDQ   C32 1976   0.165   3.466   5.530 -0.3856 -0.3976 -0.1961
    51IDQ   C33 1977   0.306   3.450   5.486  0.4834 -0.6384  0.3408
    51IDQ   C34 1978   0.397   3.392   5.594 -0.4126  0.2100  0.0643
    51IDQ   C35 1979   0.540   3.385   5.550 -0.0901 -0.2732  0.6014
    4IDB    C36 1980  -0.400   3.201   5.643  0.1454 -0.1227 -0.0283
    4IDB    C37 1981  -0.456   3.274   5.752 -0.0275 -0.1647 -0.0888
    11RH    C38 1982   0.054   2.827   4.128  0.6390 -0.6023  0.2162
    4IDB    C39 1983  -0.497   3.406   5.737 -0.0106 -0.1613 -0.1042
    62IDT   C40 1984  -0.537   3.463   5.858 -0.7201 -0.0733  0.0178
    72IDQ   C41 1985  -0.483   3.229   5.893  0.5346 -0.1058 -0.0549
    62IDT   C42 1986  -0.524   3.366   5.955 -0.7693 -0.1978 -0.0997
    72IDQ   C43 1987  -0.357   3.169   5.961  0.2809  0.1271  0.2758
    72IDQ   C44 1988  -0.600   3.124   5.901  0.5725  0.3247 -0.1251
    62IDT    S5 1989  -0.590   3.620   5.927 -0.3052 -0.0337  0.2577
    62IDT   C45 1990  -0.593   3.542   6.091 -0.2154 -0.1953  0.1832
    62IDT   C46 1991  -0.555   3.411   6.087 -0.4841 -0.2670 -0.0062
    82BTZ   C47 1992  -0.628   3.620   6.212  0.0377  0.0016 -0.1232
    82BTZ   C48 1993  -0.676   3.553   6.321 -0.1204  0.0690 -0.1516
    82BTZ   C49 1994  -0.708   3.621   6.444 -0.2952  0.1444 -0.2381
    82BTZ   C50 1995  -0.691   3.756   6.458 -0.3114  0.1524 -0.2955
    82BTZ   C51 1996  -0.608   3.762   6.222  0.0279  0.0069 -0.1808
    82BTZ   C52 1997  -0.640   3.831   6.347 -0.1497  0.0835 -0.2685
    92RH    C53 1998  -0.723   3.824   6.584 -0.2164  0.3243 -0.0490
    82BTZ    N4 1999  -0.561   3.838   6.122  0.1721 -0.0545 -0.1603
    82BTZ    N5 2000  -0.619   3.963   6.348 -0.1483  0.0838 -0.3185
    82BTZ    S6 2001  -0.556   4.005   6.186  0.0855 -0.0160 -0.2541
    92RH    C54 2002  -0.763   3.785   6.705 -0.0122  0.2763  0.0037
    92RH     S7 2003  -0.822   3.617   6.752 -0.2148  0.3373 -0.0321
    92RH    C55 2004  -0.766   3.874   6.824  0.4247  0.1626  0.1025
    92RH     O2 2005  -0.732   3.993   6.825  0.6493  0.0994  0.1475
    92RH     N6 2006  -0.813   3.806   6.938  0.5613  0.1332  0.1410
    92RH    C56 2007  -0.848   3.673   6.926  0.2873  0.2095  0.0852
    92RH    C57 2008  -0.818   3.881   7.068 -0.0603  0.3050  0.0972
    92RH    C58 2009  -0.688   3.874   7.148  0.0387 -0.9223 -0.5186
    92RH     S8 2010  -0.906   3.570   7.046  0.3718  0.1951  0.1138
    72IDQ   C59 2011  -0.739   3.153   5.838 -0.7666 -1.0335 -0.1762
    72IDQ   C60 2012  -0.844   3.044   5.842 -0.5185 -0.8008 -0.0160
    72IDQ   C61 2013  -0.987   3.083   5.846  0.2604 -0.7214 -0.2154
    72IDQ   C62 2014  -1.011   3.160   5.977  0.0118 -0.1710 -0.4682
    72IDQ   C63 2015  -1.158   3.191   5.977 -0.3987  0.2789 -0.8991
    72IDQ   C64 2016  -1.197   3.249   6.116  0.6929  0.3539  0.1358
    72IDQ   C65 2017  -1.347   3.290   6.127 -0.0118  0.3702  0.4344
    72IDQ   C66 2018  -0.338   3.163   6.107  0.3968 -0.1020  0.0023
    72IDQ   C67 2019  -0.192   3.144   6.143  0.0110  0.4858  0.0902
    72IDQ   C68 2020  -0.180   3.171   6.291 -0.8234 -0.0792  0.0022
    72IDQ   C69 2021  -0.055   3.127   6.374  0.2056 -0.0812 -0.0346
    72IDQ   C70 2022  -0.059   3.179   6.517  0.6405 -0.2529 -0.2227
    72IDQ   C71 2023   0.046   3.112   6.598 -0.1281 -0.5905 -0.0050
    72IDQ   C72 2024   0.047   3.177   6.733 -0.0181 -0.4455  0.1020
    11RH     C1 2025   0.733   3.660   0.477 -0.1651 -0.0536  0.1402
    11RH     C2 2026   0.775   3.744   0.362 -0.2773 -0.1506  0.0269
    11RH     N1 2027   0.694   3.738   0.587  0.2434  0.0365  0.2210
    11RH     S1 2028   0.761   3.921   0.408  0.1616 -0.1170  0.0338
    11RH     C3 2029   0.701   3.875   0.576  0.4721  0.0235  0.1861
    11RH     C4 2030   0.620   3.677   0.703 -0.7237 -0.0561  0.1504
    11RH     S2 2031   0.661   3.991   0.692  0.9622  0.1172  0.2649
    11RH     O1 2032   0.730   3.535   0.478 -0.3944 -0.0497  0.1637
    11RH     C5 2033   0.816   3.694   0.245 -0.6466 -0.2467 -0.0646
    21BTZ    C6 2034   0.859   3.752   0.118 -0.1460 -0.2006  0.0645
    21BTZ    C7 2035   0.856   3.887   0.091 -0.2199 -0.1970  0.0924
    21BTZ    C8 2036   0.898   3.662   0.014 -0.1049 -0.1585  0.0432
    21BTZ    C9 2037   0.890   3.938  -0.039 -0.2568 -0.1519  0.1007
    21BTZ   C10 2038   0.927   3.856  -0.142 -0.2199 -0.1106  0.0811
    21BTZ   C11 2039   0.933   3.715  -0.119 -0.1425 -0.1127  0.0516
    21BTZ    N2 2040   0.906   3.529   0.028 -0.0328 -0.1575  0.0153
    21BTZ    N3 2041   0.968   3.624  -0.211 -0.1006 -0.0748  0.0305
    21BTZ    S3 2042   0.958   3.465  -0.130 -0.0094 -0.0967 -0.0018
    31IDT   C12 2043   0.973   3.920  -0.267 -0.2826  0.4488 -0.0906
    31IDT   C13 2044   1.012   4.051  -0.274  0.4283  0.2416 -0.1155
    31IDT   C14 2045   1.066   4.087  -0.401  0.7253 -0.0987 -0.0879
    31IDT   C15 2046   1.068   3.983  -0.492  0.2441 -0.1532 -0.0418
    31IDT    S4 2047   1.001   3.832  -0.423 -0.6306  0.2257 -0.0297
    4IDB    C16 2048   1.124   4.027  -0.616 -0.1704  0.0166  0.0355
    4IDB    C17 2049   1.158   4.165  -0.606 -0.1280  0.0124 -0.0460
    51IDQ   C18 2050   1.120   4.218  -0.464 -0.4697 -0.3325  0.7055
    4IDB    C19 2051   1.217   4.232  -0.712 -0.0110 -0.0944 -0.0482
    51IDQ   C20 2052   1.015   4.327  -0.490  0.8529 -0.4249 -0.7646
    51IDQ   C21 2053   1.232   4.284  -0.372 -0.8117 -0.6335 -0.0648
    51IDQ   C22 2054   1.381   4.277  -0.403 -0.5444  0.5042 -0.2786
    51IDQ   C23 2055   0.858   4.302  -0.466 -0.2399 -0.4286 -0.1183
    51IDQ   C24 2056   1.458   4.345  -0.297  0.1861 -0.5890 -0.0405
    51IDQ   C25 2057   1.599   4.371  -0.345  0.8091 -0.1034  0.0897
    51IDQ   C26 2058   1.698   4.436  -0.245 -0.0975 -0.2083 -0.3912
    51IDQ   C27 2059   1.665   4.574  -0.191 -0.6306 -0.4791 -0.1261
    51IDQ   C28 2060   1.781   4.620  -0.106  0.2581 -0.6303 -0.0494
    51IDQ   C29 2061   1.752   4.759  -0.042 -0.0998  0.3440  0.4161
    51IDQ   C30 2062   0.780   4.261  -0.589  0.0965 -0.1636 -0.1519
    51IDQ   C31 2063   0.631   4.247  -0.554  0.3623  0.0670 -0.1051
    51IDQ   C32 2064   0.548   4.195  -0.673 -0.2191 -0.0246  0.0522
    51IDQ   C33 2065   0.405   4.156  -0.636  0.1439 -0.6665 -0.0874
    51IDQ   C34 2066   0.313   4.273  -0.633  0.0349 -0.3597 -0.2056
    51IDQ   C35 2067   0.171   4.226  -0.633  0.3116 -0.6462  0.2840
    4IDB    C36 2068   1.150   3.954  -0.733 -0.0955 -0.0864  0.1161
    4IDB    C37 2069   1.211   4.024  -0.840  0.0238 -0.1948  0.1127
    11RH    C38 2070   0.690   3.608   0.816  0.0350 -0.3734 -0.5602
    4IDB    C39 2071   1.243   4.160  -0.829  0.0639 -0.1974  0.0323
    62IDT   C40 2072   1.300   4.200  -0.953 -0.1951  0.0254  0.2647
    72IDQ   C41 2073   1.244   3.969  -0.982  0.7110  0.3599 -0.1660
    62IDT   C42 2074   1.288   4.102  -1.049 -0.6198  0.1125  0.2248
    72IDQ   C43 2075   1.105   3.919  -1.041  1.0317 -0.1562 -0.3483
    72IDQ   C44 2076   1.322   3.829  -0.967  0.2035  0.2823  0.1361
    62IDT    S5 2077   1.372   4.350  -1.020 -0.0454 -0.0753  0.1982
    62IDT   C45 2078   1.383   4.268  -1.182 -0.5916  0.0101  0.1157
    62IDT   C46 2079   1.335   4.140  -1.178 -0.8445  0.1040  0.1405
    82BTZ   C47 2080   1.414   4.350  -1.304 -0.2373  0.0609 -0.0835
    82BTZ   C48 2081   1.463   4.283  -1.413 -0.3180  0.1715 -0.1881
    82BTZ   C49 2082   1.485   4.349  -1.540 -0.2348  0.3424 -0.0843
    82BTZ   C50 2083   1.459   4.482  -1.556 -0.0710  0.4022  0.1241
    82BTZ   C51 2084   1.385   4.490  -1.317 -0.0658  0.1178  0.1351
    82BTZ   C52 2085   1.408   4.557  -1.445  0.0188  0.2915  0.2406
    92RH    C53 2086   1.474   4.550  -1.683 -0.3504  0.3857 -0.1040
    82BTZ    N4 2087   1.337   4.566  -1.218  0.0260  0.0219  0.2539
    82BTZ    N5 2088   1.378   4.687  -1.449  0.1785  0.3352  0.4442
    82BTZ    S6 2089   1.319   4.730  -1.286  0.2286  0.1524  0.5110
    92RH    C54 2090   1.522   4.514  -1.803 -0.2400  0.2720 -0.0259
    92RH     S7 2091   1.592   4.350  -1.848 -0.2413  0.2136  0.1814
    92RH    C55 2092   1.525   4.604  -1.920 -0.0951  0.1731 -0.0982
    92RH     O2 2093   1.485   4.721  -1.923 -0.0591  0.1832 -0.2369
    92RH     N6 2094   1.581   4.539  -2.033  0.0004  0.0627  0.0113
    92RH    C56 2095   1.622   4.409  -2.020 -0.0502  0.0614  0.1625
    92RH    C57 2096   1.601   4.612  -2.163 -0.5157 -0.6169  0.0237
    92RH    C58 2097   1.495   4.617  -2.273  0.1739  0.2151 -0.4072
    92RH     S8 2098   1.691   4.310  -2.138  0.0408 -0.0573  0.3140
    72IDQ   C59 2099   1.460   3.814  -1.048  0.4611  0.1570  0.2802
    72IDQ   C60 2100   1.575   3.885  -0.988 -0.3306 -0.3858 -0.7529
    72IDQ   C61 2101   1.711   3.845  -1.049 -0.6994  0.7410  0.4056
    72IDQ   C62 2102   1.828   3.946  -1.026  0.4040 -0.3409 -0.5687
    72IDQ   C63 2103   1.951   3.930  -1.111 -0.0803  0.1766  0.2641
    72IDQ   C64 2104   2.032   4.054  -1.115 -0.1890 -0.4419 -0.3428
    72IDQ   C65 2105   2.165   4.029  -1.186 -0.7550  0.2513 -0.1708
    72IDQ   C66 2106   1.092   3.897  -1.192 -0.0573 -0.0693 -0.2253
    72IDQ   C67 2107   0.943   3.917  -1.233  0.5032  0.2397  0.1243
    72IDQ   C68 2108   0.928   3.929  -1.380  0.0638  0.1568  0.3091
    72IDQ   C69 2109   0.790   3.895  -1.436 -0.1574 -0.1643  0.8317
    72IDQ   C70 2110   0.780   3.928  -1.585 -0.1169 -0.0375  0.3341
    72IDQ   C71 2111   0.649   3.868  -1.645 -0.4297 -0.2903  0.2398
    72IDQ   C72 2112   0.664   3.890  -1.794 -0.2326 -0.1998 -0.4535
    11RH     C1 2113   0.514   0.002   2.100  0.2683  0.1796  0.1052
    11RH     C2 2114   0.549  -0.084   1.984  0.2034  0.1316  0.1209
    11RH     N1 2115   0.480  -0.076   2.213  0.2729  0.2264  0.1386
    11RH     S1 2116   0.536  -0.261   2.031  0.1527  0.1509  0.1784
    11RH     C3 2117   0.484  -0.213   2.202  0.2196  0.2215  0.1791
    11RH     C4 2118   0.428  -0.009   2.331 -0.0362 -0.1762  0.1937
    11RH     S2 2119   0.449  -0.327   2.321  0.2125  0.2704  0.2242
    11RH     O1 2120   0.513   0.126   2.100  0.3137  0.1804  0.0677
    11RH     C5 2121   0.585  -0.036   1.865  0.1863  0.0825  0.0957
    21BTZ    C6 2122   0.622  -0.096   1.738 -0.0795  0.1950  0.2349
    21BTZ    C7 2123   0.621  -0.231   1.714 -0.0689  0.1785  0.3289
    21BTZ    C8 2124   0.665  -0.008   1.633  0.0960  0.1125  0.2388
    21BTZ    C9 2125   0.662  -0.286   1.588  0.1135  0.0811  0.4307
    21BTZ   C10 2126   0.705  -0.206   1.485  0.2849 -0.0000  0.4384
    21BTZ   C11 2127   0.708  -0.064   1.504  0.2814  0.0134  0.3422
    21BTZ    N2 2128   0.671   0.125   1.644  0.1043  0.1193  0.1528
    21BTZ    N3 2129   0.747   0.024   1.412  0.4387 -0.0595  0.3394
    21BTZ    S3 2130   0.732   0.185   1.487  0.3547 -0.0034  0.2015
    31IDT   C12 2131   0.749  -0.275   1.360  0.5807  0.3115  0.3064
    31IDT   C13 2132   0.764  -0.411   1.347  0.3894  0.2674  0.5094
    31IDT   C14 2133   0.812  -0.448   1.217 -0.1547 -0.0346  0.3897
    31IDT   C15 2134   0.833  -0.342   1.132 -0.3811 -0.2223  0.0954
    31IDT    S4 2135   0.794  -0.185   1.209  0.0812 -0.0295 -0.0543
    4IDB    C16 2136   0.874  -0.389   1.001 -0.2503 -0.2736 -0.1728
    4IDB    C17 2137   0.887  -0.532   1.002 -0.1577 -0.2657 -0.2241
    51IDQ   C18 2138   0.855  -0.584   1.148  0.2379 -0.3192 -0.0531
    4IDB    C19 2139   0.932  -0.600   0.890  0.1975 -0.1681 -0.1465
    51IDQ   C20 2140   0.732  -0.683   1.139 -0.1806  0.6853  0.3235
    51IDQ   C21 2141   0.973  -0.648   1.229  0.1285 -0.3739  0.2747
    51IDQ   C22 2142   1.119  -0.638   1.175  0.0678 -0.0212  0.2621
    51IDQ   C23 2143   0.586  -0.644   1.161 -0.1803 -0.6044 -0.4159
    51IDQ   C24 2144   1.236  -0.708   1.245 -0.2740  0.5844  0.1978
    51IDQ   C25 2145   1.260  -0.671   1.391 -0.0547 -0.1288  0.4181
    51IDQ   C26 2146   1.372  -0.741   1.470 -0.0514 -0.0436 -0.2557
    51IDQ   C27 2147   1.390  -0.893   1.474  0.5496  0.1167 -0.3695
    51IDQ   C28 2148   1.489  -0.939   1.567  0.2199 -0.6675  0.0090
    51IDQ   C29 2149   1.511  -1.082   1.561  0.4513  0.2324 -0.2755
    51IDQ   C30 2150   0.510  -0.591   1.040 -0.0154  0.1264  0.2648
    51IDQ   C31 2151   0.361  -0.600   1.060 -0.1713  0.4374 -0.3213
    51IDQ   C32 2152   0.293  -0.541   0.942  0.6122  0.2630 -0.3196
    51IDQ   C33 2153   0.139  -0.533   0.969 -1.0189 -0.4704 -0.3969
    51IDQ   C34 2154   0.047  -0.489   0.860  0.3269  0.1382  0.1501
    51IDQ   C35 2155  -0.097  -0.494   0.905 -0.0463 -0.2292  0.0555
    4IDB    C36 2156   0.906  -0.314   0.887  0.0135 -0.1832 -0.0426
    4IDB    C37 2157   0.951  -0.386   0.773  0.3751 -0.0840  0.0352
    11RH    C38 2158   0.528   0.042   2.433 -0.3111  0.5731  0.1593
    4IDB    C39 2159   0.963  -0.525   0.775  0.4614 -0.0779 -0.0164
    62IDT   C40 2160   1.005  -0.578   0.645  0.2213 -0.1464 -0.0748
    72IDQ   C41 2161   0.986  -0.336   0.630 -0.3294 -0.7095 -0.1324
    62IDT   C42 2162   1.033  -0.470   0.564  0.4428 -0.0923  0.0724
    72IDQ   C43 2163   0.850  -0.277   0.557 -0.2515  0.0005 -0.2934
    72IDQ   C44 2164   1.098  -0.225   0.630  0.6126 -0.2984 -0.2313
    62IDT    S5 2165   1.041  -0.734   0.564  0.0307 -0.1057 -0.2380
    62IDT   C45 2166   1.094  -0.640   0.417  0.2723 -0.0130 -0.0916
    62IDT   C46 2167   1.084  -0.505   0.435  0.4719 -0.0167  0.0631
    82BTZ   C47 2168   1.144  -0.716   0.297 -0.3770  0.1496 -0.4496
    82BTZ   C48 2169   1.200  -0.640   0.198 -0.4645  0.1463 -0.5023
    82BTZ   C49 2170   1.249  -0.699   0.076 -0.4333  0.1233 -0.4787
    82BTZ   C50 2171   1.242  -0.834   0.053 -0.3145  0.1036 -0.4024
    82BTZ   C51 2172   1.134  -0.858   0.277 -0.2514  0.1295 -0.3690
    82BTZ   C52 2173   1.184  -0.918   0.153 -0.2196  0.1061 -0.3450
    92RH    C53 2174   1.282  -0.887  -0.077 -0.0689 -0.0155 -0.0042
    82BTZ    N4 2175   1.081  -0.943   0.366 -0.1580  0.1305 -0.3123
    82BTZ    N5 2176   1.172  -1.050   0.142 -0.1008  0.0883 -0.2690
    82BTZ    S6 2177   1.094  -1.106   0.293 -0.0227  0.1008 -0.2239
    92RH    C54 2178   1.326  -0.831  -0.190 -0.0589  0.0492  0.0319
    92RH     S7 2179   1.359  -0.652  -0.218 -0.4828  0.1260  0.0024
    92RH    C55 2180   1.355  -0.907  -0.314  0.3107  0.0694  0.1038
    92RH     O2 2181   1.343  -1.030  -0.328  0.6483  0.0294  0.1385
    92RH     N6 2182   1.400  -0.822  -0.418  0.2344  0.1409  0.1294
    92RH    C56 2183   1.410  -0.687  -0.392 -0.1512  0.1807  0.0865
    92RH    C57 2184   1.419  -0.880  -0.552  0.0735 -0.4695  0.5648
    92RH    C58 2185   1.297  -0.873  -0.647 -0.0276  0.7703 -0.2573
    92RH     S8 2186   1.460  -0.566  -0.498 -0.3205  0.2667  0.1043
    72IDQ   C59 2187   1.231  -0.255   0.701 -0.4754  0.3432  0.0593
    72IDQ   C60 2188   1.323  -0.132   0.688  0.4714 -0.1875 -0.1795
    72IDQ   C61 2189   1.477  -0.147   0.679  0.6192 -0.1604  0.5743
    72IDQ   C62 2190   1.526  -0.251   0.584 -0.4155 -0.2128  0.5847
    72IDQ   C63 2191   1.677  -0.279   0.584 -0.0404 -0.3382 -0.5052
    72IDQ   C64 2192   1.729  -0.357   0.468 -0.0289 -0.8343 -0.3193
    72IDQ   C65 2193   1.874  -0.366   0.453  0.1787  0.4202  0.1524
    72IDQ   C66 2194   0.850  -0.260   0.406  0.4320 -0.3600  0.3627
    72IDQ   C67 2195   0.726  -0.204   0.340  0.1721  0.3396  0.4689
    72IDQ   C68 2196   0.738  -0.219   0.191 -0.9307 -1.0791  1.0197
    72IDQ   C69 2197   0.630  -0.149   0.100 -0.6375 -0.6382  0.1081
    72IDQ   C70 2198   0.595  -0.224  -0.028 -1.0116 -0.3671 -0.4881
    72IDQ   C71 2199   0.476  -0.161  -0.089  0.1968 -0.5186  0.0735
    72IDQ   C72 2200   0.397  -0.259  -0.180 -0.2770 -0.3620 -0.0452
    11RH     C1 2201   5.916   5.348   6.052 -0.0759 -0.2168  0.0851
    11RH     C2 2202   5.871   5.262   6.164 -0.1087 -0.2972  0.0103
    11RH     N1 2203   5.956   5.272   5.941  0.0284 -0.1386  0.0690
    11RH     S1 2204   5.886   5.085   6.116  0.0000 -0.2649 -0.0762
    11RH     C3 2205   5.950   5.134   5.950  0.0834 -0.1464 -0.0093
    11RH     C4 2206   6.026   5.339   5.829  0.0906 -0.3657  0.0056
    11RH     S2 2207   5.992   5.021   5.833  0.2080 -0.0643 -0.0441
    11RH     O1 2208   5.918   5.472   6.053 -0.1315 -0.2166  0.1537
    11RH     C5 2209   5.828   5.309   6.281 -0.2039 -0.3802  0.0087
    21BTZ    C6 2210   5.783   5.240   6.400  0.0825  0.1062  0.1722
    21BTZ    C7 2211   5.774   5.104   6.420  0.0459  0.1065  0.1574
    21BTZ    C8 2212   5.743   5.328   6.505  0.0141  0.1065  0.1457
    21BTZ    C9 2213   5.725   5.049   6.543 -0.0590  0.1070  0.1159
    21BTZ   C10 2214   5.685   5.129   6.647 -0.1270  0.1073  0.0895
    21BTZ   C11 2215   5.692   5.272   6.631 -0.0926  0.1072  0.1035
    21BTZ    N2 2216   5.747   5.461   6.498  0.0407  0.1063  0.1566
    21BTZ    N3 2217   5.656   5.360   6.725 -0.1518  0.1074  0.0807
    21BTZ    S3 2218   5.686   5.522   6.654 -0.0718  0.1068  0.1127
    31IDT   C12 2219   5.635   5.060   6.770 -0.3990 -0.5791 -0.0352
    31IDT   C13 2220   5.599   4.928   6.776 -0.1533 -0.6260  0.5109
    31IDT   C14 2221   5.554   4.888   6.906  0.1954 -0.2477  0.7505
    31IDT   C15 2222   5.556   4.990   6.999  0.2178  0.0895  0.3896
    31IDT    S4 2223   5.615   5.145   6.929 -0.2050 -0.0475 -0.2880
    4IDB    C16 2224   5.509   4.940   7.126 -0.6682 -0.0014 -0.3756
    4IDB    C17 2225   5.469   4.803   7.116 -0.5312 -0.0440 -0.3381
    51IDQ   C18 2226   5.496   4.759   6.965  0.6245  0.8060 -0.3695
    4IDB    C19 2227   5.415   4.736   7.225 -0.1061 -0.1810 -0.2087
    51IDQ   C20 2228   5.590   4.630   6.980  1.0936  0.5688  0.4412
    51IDQ   C21 2229   5.368   4.713   6.879  0.3751  0.3065 -0.2729
    51IDQ   C22 2230   5.228   4.720   6.943 -0.0361 -0.5263 -0.6231
    51IDQ   C23 2231   5.737   4.638   6.960 -0.6850  0.7455  0.6623
    51IDQ   C24 2232   5.126   4.672   6.840 -1.1175 -0.2354  0.3320
    51IDQ   C25 2233   4.998   4.621   6.898  0.0175 -0.3049  0.0859
    51IDQ   C26 2234   4.926   4.519   6.810  0.3594  0.2024  0.3010
    51IDQ   C27 2235   4.988   4.381   6.786 -0.0297 -0.5004 -0.0028
    51IDQ   C28 2236   5.072   4.378   6.661  0.2137 -0.4538 -0.1358
    51IDQ   C29 2237   5.150   4.251   6.627  0.2698  0.0325  0.3062
    51IDQ   C30 2238   5.819   4.708   7.062  0.4741 -0.2133 -0.1361
    51IDQ   C31 2239   5.971   4.696   7.050 -0.3100  0.1836  0.4410
    51IDQ   C32 2240   6.049   4.765   7.157 -0.1617 -0.5189  0.0076
    51IDQ   C33 2241   6.205   4.752   7.145 -0.3742 -0.5254 -0.1775
    51IDQ   C34 2242   6.294   4.824   7.243  0.1338  1.1036  0.1578
    51IDQ   C35 2243   6.438   4.816   7.202 -0.2134  0.1005  0.4151
    4IDB    C36 2244   5.494   5.011   7.246 -0.3787 -0.0966 -0.2832
    4IDB    C37 2245   5.439   4.941   7.357  0.0544 -0.2362 -0.1515
    11RH    C38 2246   5.947   5.394   5.703  0.1615  0.2293 -0.2240
    4IDB    C39 2247   5.401   4.807   7.346  0.1834 -0.2760 -0.1164
    62IDT   C40 2248   5.344   4.760   7.472 -0.1623  0.1278  0.3405
    72IDQ   C41 2249   5.409   4.994   7.494 -0.0792  0.2007 -1.0711
    62IDT   C42 2250   5.354   4.863   7.564 -0.1797  0.0021  0.4839
    72IDQ   C43 2251   5.540   5.057   7.553  0.2203 -0.4530 -0.8979
    72IDQ   C44 2252   5.306   5.114   7.493 -0.4725  0.3560  0.0016
    62IDT    S5 2253   5.279   4.610   7.546  0.0717 -0.0528  0.1830
    62IDT   C45 2254   5.268   4.698   7.705  0.1368 -0.3009  0.3263
    62IDT   C46 2255   5.311   4.828   7.696 -0.0107 -0.2408  0.4761
    82BTZ   C47 2256   5.233   4.628   7.831  0.1273  0.1114 -0.0273
    82BTZ   C48 2257   5.187   4.705   7.934  0.1440  0.0710  0.0106
    82BTZ   C49 2258   5.155   4.649   8.063  0.1217  0.0130 -0.0200
    82BTZ   C50 2259   5.170   4.515   8.089  0.0830 -0.0045 -0.0885
    82BTZ   C51 2260   5.250   4.487   7.853  0.0869  0.0950 -0.0992
    82BTZ   C52 2261   5.217   4.430   7.984  0.0644  0.0361 -0.1304
    92RH    C53 2262   5.155   4.456   8.221 -0.4983  0.0001 -0.1624
    82BTZ    N4 2263   5.294   4.401   7.760  0.0674  0.1305 -0.1415
    82BTZ    N5 2264   5.236   4.298   7.997  0.0267  0.0242 -0.1977
    82BTZ    S6 2265   5.296   4.240   7.839  0.0184  0.0894 -0.2246
    92RH    C54 2266   5.115   4.497   8.341 -0.2316  0.0187 -0.0795
    92RH     S7 2267   5.049   4.663   8.385  0.0890  0.1036  0.0909
    92RH    C55 2268   5.119   4.411   8.462 -0.1538 -0.0283 -0.1146
    92RH     O2 2269   5.158   4.294   8.466 -0.3222 -0.0893 -0.2228
    92RH     N6 2270   5.071   4.480   8.576  0.1421  0.0052 -0.0086
    92RH    C56 2271   5.030   4.611   8.560  0.3104  0.0730  0.1073
    92RH    C57 2272   5.054   4.403   8.706 -0.0458 -0.3370  0.6590
    92RH    C58 2273   5.164   4.433   8.806 -0.1541  0.0652 -0.1296
    92RH     S8 2274   4.969   4.715   8.679  0.6658  0.1242  0.2475
    72IDQ   C59 2275   5.154   5.092   7.476 -0.1840 -0.0166  0.1990
    72IDQ   C60 2276   5.074   5.229   7.504  0.6021 -0.7287 -0.0673
    72IDQ   C61 2277   4.920   5.238   7.505 -0.6507 -0.1168 -0.0073
    72IDQ   C62 2278   4.875   5.140   7.615 -0.4057  0.8877 -0.6181
    72IDQ   C63 2279   4.724   5.133   7.638  0.1633  0.3838  1.0112
    72IDQ   C64 2280   4.680   5.012   7.728  0.4167  0.0302  0.6866
    72IDQ   C65 2281   4.533   4.974   7.725 -0.2485  0.1642  0.2406
    72IDQ   C66 2282   5.548   5.067   7.708 -0.2095 -0.1281 -0.0521
    72IDQ   C67 2283   5.681   5.095   7.770  0.1304  0.1466  1.1448
    72IDQ   C68 2284   5.680   5.066   7.921  0.0437  0.3644 -0.0115
    72IDQ   C69 2285   5.809   5.101   8.003 -0.5709  0.3110 -0.6149
    72IDQ   C70 2286   5.788   5.073   8.152  0.3059 -0.2353 -0.3371
    72IDQ   C71 2287   5.916   5.064   8.229  0.0104  0.7306  0.5391
    72IDQ   C72 2288   5.900   5.051   8.378 -0.8275 -0.5341 -0.7314
    11RH     C1 2289   0.476   4.456   1.127 -0.0877  0.1169  0.3104
    11RH     C2 2290   0.433   4.546   1.237 -0.1059  0.1131  0.3063
    11RH     N1 2291   0.516   4.530   1.014 -0.1591  0.1185  0.2859
    11RH     S1 2292   0.448   4.721   1.184 -0.2157  0.1118  0.2707
    11RH     C3 2293   0.510   4.667   1.019 -0.2322  0.1165  0.2629
    11RH     C4 2294   0.593   4.459   0.904  0.8357  0.0170  0.0484
    11RH     S2 2295   0.552   4.777   0.898 -0.3254  0.1175  0.2315
    11RH     O1 2296   0.478   4.332   1.132 -0.0191  0.1186  0.3322
    11RH     C5 2297   0.390   4.502   1.356 -0.0490  0.1110  0.3262
    21BTZ    C6 2298   0.346   4.567   1.478  0.0909 -0.1487  0.1555
    21BTZ    C7 2299   0.331   4.701   1.498  0.1246 -0.1438  0.1482
    21BTZ    C8 2300   0.312   4.477   1.584  0.0133 -0.1374  0.1401
    21BTZ    C9 2301   0.282   4.754   1.623  0.0840 -0.1279  0.1256
    21BTZ   C10 2302   0.248   4.673   1.728  0.0098 -0.1170  0.1104
    21BTZ   C11 2303   0.262   4.531   1.711 -0.0279 -0.1212  0.1172
    21BTZ    N2 2304   0.322   4.344   1.577 -0.0256 -0.1408  0.1453
    21BTZ    N3 2305   0.232   4.441   1.806 -0.1000 -0.1117  0.1038
    21BTZ    S3 2306   0.267   4.281   1.735 -0.1186 -0.1231  0.1204
    31IDT   C12 2307   0.192   4.740   1.852 -0.0606 -0.2925  0.1888
    31IDT   C13 2308   0.160   4.872   1.870 -0.1227 -0.2890  0.0524
    31IDT   C14 2309   0.109   4.900   2.000 -0.1332 -0.1780  0.0247
    31IDT   C15 2310   0.101   4.789   2.083 -0.0794 -0.0963  0.1395
    31IDT    S4 2311   0.159   4.640   2.001 -0.0106 -0.1544  0.2930
    4IDB    C16 2312   0.059   4.827   2.210  0.3293 -0.0996 -0.0157
    4IDB    C17 2313   0.045   4.969   2.208  0.0184 -0.1311 -0.2519
    51IDQ   C18 2314   0.070   5.031   2.072 -0.1179  0.2336 -0.6964
    4IDB    C19 2315   0.010   5.039   2.323  0.2069  0.0131 -0.2795
    51IDQ   C20 2316   0.177   5.141   2.053 -0.4437 -0.2549  0.2836
    51IDQ   C21 2317  -0.064   5.085   2.002  0.5270 -0.3502  0.2789
    51IDQ   C22 2318  -0.206   5.073   2.067  0.0147 -0.0334 -0.2429
    51IDQ   C23 2319   0.294   5.167   2.153  0.1680 -0.0854 -0.3247
    51IDQ   C24 2320  -0.309   5.165   2.015  0.2240  0.5498  0.0292
    51IDQ   C25 2321  -0.274   5.314   2.003  1.2726 -0.9051  0.2128
    51IDQ   C26 2322  -0.392   5.404   1.956  0.5387  0.3855  0.2235
    51IDQ   C27 2323  -0.489   5.344   1.853 -0.7200 -0.3470  0.4783
    51IDQ   C28 2324  -0.611   5.434   1.809 -0.5055  0.5525  0.8576
    51IDQ   C29 2325  -0.593   5.576   1.767  0.1830 -0.5809  0.8382
    51IDQ   C30 2326   0.395   5.055   2.152 -0.0105  0.7012 -0.8026
    51IDQ   C31 2327   0.519   5.083   2.241  0.5373 -0.0522 -0.5725
    51IDQ   C32 2328   0.630   4.974   2.230  0.6371 -0.2295 -0.3475
    51IDQ   C33 2329   0.752   5.003   2.306  0.2251 -0.5699  0.6580
    51IDQ   C34 2330   0.860   4.908   2.273  0.1930  0.3601  0.0039
    51IDQ   C35 2331   1.003   4.922   2.328  0.0803  0.1624 -0.0759
    4IDB    C36 2332   0.037   4.754   2.327  0.8339  0.0771  0.1954
    4IDB    C37 2333   0.001   4.827   2.444  1.0202  0.2227  0.1637
    11RH    C38 2334   0.513   4.387   0.792  0.6181 -0.4151 -0.3144
    4IDB    C39 2335  -0.013   4.966   2.440  0.7117  0.1900 -0.0684
    62IDT   C40 2336  -0.057   5.015   2.567 -0.0958 -0.3628  0.0757
    72IDQ   C41 2337  -0.052   4.775   2.580 -0.3151 -0.1036 -0.0090
    62IDT   C42 2338  -0.089   4.909   2.649 -0.0417 -0.2203  0.2816
    72IDQ   C43 2339   0.068   4.705   2.652  0.0412 -0.2966 -0.1445
    72IDQ   C44 2340  -0.167   4.673   2.574  0.1267  0.3224  0.0136
    62IDT    S5 2341  -0.088   5.173   2.646  0.1232 -0.2240 -0.1139
    62IDT   C45 2342  -0.145   5.083   2.794  0.2840  0.0321  0.1059
    62IDT   C46 2343  -0.139   4.948   2.778  0.1729  0.0035  0.2990
    82BTZ   C47 2344  -0.188   5.158   2.920  0.1682 -0.1030  0.0131
    82BTZ   C48 2345  -0.246   5.082   3.018  0.3418 -0.2344  0.0153
    82BTZ   C49 2346  -0.284   5.139   3.145  0.4761 -0.3829  0.1224
    82BTZ   C50 2347  -0.264   5.271   3.174  0.4369 -0.3997  0.2274
    82BTZ   C51 2348  -0.165   5.297   2.945  0.1206 -0.1147  0.1206
    82BTZ   C52 2349  -0.204   5.355   3.075  0.2573 -0.2656  0.2297
    92RH    C53 2350  -0.289   5.334   3.299  0.1256  0.0336 -0.2378
    82BTZ    N4 2351  -0.109   5.382   2.858 -0.0437  0.0051  0.1298
    82BTZ    N5 2352  -0.179   5.485   3.091  0.2027 -0.2674  0.3265
    82BTZ    S6 2353  -0.103   5.541   2.939 -0.0305 -0.0719  0.2812
    92RH    C54 2354  -0.330   5.293   3.420  0.1172 -0.0284 -0.2617
    92RH     S7 2355  -0.396   5.128   3.463 -0.0466  0.0043 -0.3865
    92RH    C55 2356  -0.327   5.379   3.541  0.2437 -0.1366 -0.1877
    92RH     O2 2357  -0.287   5.497   3.545  0.3699 -0.1818 -0.0968
    92RH     N6 2358  -0.375   5.310   3.654  0.2035 -0.1838 -0.2334
    92RH    C56 2359  -0.417   5.180   3.639  0.0601 -0.1265 -0.3350
    92RH    C57 2360  -0.392   5.377   3.792 -0.3806  0.2355  0.4794
    92RH    C58 2361  -0.272   5.368   3.887 -0.1753 -0.2067  0.7599
    92RH     S8 2362  -0.478   5.076   3.757 -0.0156 -0.1644 -0.4072
    72IDQ   C59 2363  -0.315   4.719   2.570  0.0784 -0.1845 -0.7141
    72IDQ   C60 2364  -0.406   4.598   2.556 -0.2219 -0.0555  0.7991
    72IDQ   C61 2365  -0.559   4.616   2.569 -0.1334 -0.2616  0.3349
    72IDQ   C62 2366  -0.612   4.663   2.707 -0.1270  0.2648 -0.0873
    72IDQ   C63 2367  -0.723   4.766   2.701 -0.7667 -0.2641  0.7239
    72IDQ   C64 2368  -0.803   4.786   2.822 -0.4854  0.3344  0.2327
    72IDQ   C65 2369  -0.895   4.899   2.780  0.0432 -0.1440 -0.0984
    72IDQ   C66 2370   0.066   4.683   2.805  0.5411  0.1167  0.0868
    72IDQ   C67 2371   0.198   4.659   2.871  0.0221 -0.4926  0.2277
    72IDQ   C68 2372   0.201   4.684   3.016  0.3073  0.2473  0.2793
    72IDQ   C69 2373   0.335   4.675   3.077  0.2425 -0.2926 -0.7426
    72IDQ   C70 2374   0.328   4.697   3.225  0.1894  0.3278  0.1075
    72IDQ   C71 2375   0.461   4.697   3.297  0.5457 -1.1235 -0.5834
    72IDQ   C72 2376   0.442   4.698   3.449  0.9941 -0.2643  0.0237
    11RH     C1 2377   0.293   5.174   3.697  0.0171  0.1173  0.1064
    11RH     C2 2378   0.352   5.261   3.593  0.1051 -0.0113  0.0498
    11RH     N1 2379   0.263   5.248   3.814  0.0275  0.2379  0.0330
    11RH     S1 2380   0.364   5.433   3.654  0.1958  0.0345 -0.0962
    11RH     C3 2381   0.290   5.383   3.815  0.1131  0.2218 -0.0754
    11RH     C4 2382   0.203   5.181   3.933 -0.0602 -0.7178 -0.9486
    11RH     S2 2383   0.264   5.493   3.940  0.1436  0.3476 -0.1786
    11RH     O1 2384   0.272   5.053   3.687 -0.0573  0.1216  0.2054
    11RH     C5 2385   0.390   5.216   3.472  0.1141 -0.1398  0.1006
    21BTZ    C6 2386   0.440   5.274   3.346 -0.0777 -0.1572 -0.1729
    21BTZ    C7 2387   0.450   5.410   3.331 -0.1940 -0.1398 -0.0966
    21BTZ    C8 2388   0.474   5.190   3.235  0.1279 -0.0708 -0.1762
    21BTZ    C9 2389   0.493   5.469   3.207 -0.1148 -0.0374 -0.0201
    21BTZ   C10 2390   0.527   5.392   3.098  0.0806  0.0475 -0.0202
    21BTZ   C11 2391   0.518   5.250   3.109  0.2084  0.0333 -0.0985
    21BTZ    N2 2392   0.469   5.056   3.238  0.2560 -0.0780 -0.2468
    21BTZ    N3 2393   0.548   5.165   3.011  0.4012  0.1098 -0.1067
    21BTZ    S3 2394   0.521   5.001   3.076  0.4898  0.0509 -0.2162
    31IDT   C12 2395   0.580   5.474   2.979  0.3132 -0.1554 -0.0447
    31IDT   C13 2396   0.606   5.608   2.971  0.4386 -0.1891 -0.2068
    31IDT   C14 2397   0.654   5.648   2.843  0.3705 -0.3703 -0.2889
    31IDT   C15 2398   0.665   5.544   2.752  0.1932 -0.4759 -0.1904
    31IDT    S4 2399   0.614   5.387   2.823  0.0978 -0.3527  0.0160
    4IDB    C16 2400   0.720   5.592   2.628  0.1434  0.0137  0.1840
    4IDB    C17 2401   0.745   5.731   2.645  0.0339  0.0231  0.2694
    51IDQ   C18 2402   0.712   5.783   2.786 -0.9477  0.7706 -0.6652
    4IDB    C19 2403   0.792   5.809   2.540  0.1187  0.0933  0.3590
    51IDQ   C20 2404   0.606   5.896   2.770 -0.1890  0.1843  0.0722
    51IDQ   C21 2405   0.827   5.838   2.882 -0.3618  0.3527 -0.8115
    51IDQ   C22 2406   0.976   5.852   2.844  0.7191  0.1849  0.3870
    51IDQ   C23 2407   0.456   5.889   2.776 -0.0417  0.2594 -0.4558
    51IDQ   C24 2408   1.054   5.842   2.975 -0.6647  0.1319 -0.3681
    51IDQ   C25 2409   1.205   5.879   2.980  0.1206 -0.6153  0.7600
    51IDQ   C26 2410   1.261   6.021   2.976  0.2210  0.1102  0.4249
    51IDQ   C27 2411   1.229   6.089   3.107 -0.0075  0.2147 -0.1922
    51IDQ   C28 2412   1.309   6.212   3.116 -0.2853 -0.0886 -0.7898
    51IDQ   C29 2413   1.304   6.275   3.257  0.4893  0.1137 -0.0134
    51IDQ   C30 2414   0.378   5.790   2.690 -1.0298  0.2638  0.3499
    51IDQ   C31 2415   0.229   5.819   2.698  0.0470  0.0114 -0.0986
    51IDQ   C32 2416   0.130   5.715   2.639 -0.9754  0.0736  0.0767
    51IDQ   C33 2417  -0.000   5.760   2.680  0.4691  0.3003 -0.8175
    51IDQ   C34 2418  -0.104   5.688   2.595 -0.3962  0.0993  0.6270
    51IDQ   C35 2419  -0.239   5.740   2.624 -0.1040  0.0076  0.2819
    4IDB    C36 2420   0.742   5.528   2.504  0.3396  0.0749  0.1879
    4IDB    C37 2421   0.791   5.609   2.398  0.4237  0.1462  0.2801
    11RH    C38 2422   0.286   5.147   4.052 -0.1673 -0.4873 -0.0358
    4IDB    C39 2423   0.815   5.746   2.416  0.3148  0.1544  0.3628
    62IDT   C40 2424   0.848   5.799   2.286 -0.0055  0.1868 -0.0418
    72IDQ   C41 2425   0.819   5.563   2.257  0.7777 -0.7600  0.9348
    62IDT   C42 2426   0.852   5.697   2.193 -0.0886  0.1290  0.0184
    72IDQ   C43 2427   0.693   5.495   2.181  0.4873  0.0558  0.4501
    72IDQ   C44 2428   0.948   5.476   2.249 -0.8226 -0.3862 -0.2575
    62IDT    S5 2429   0.888   5.958   2.212 -0.2520  0.1690 -0.2156
    62IDT   C45 2430   0.909   5.874   2.052 -0.4648  0.0804 -0.1967
    62IDT   C46 2431   0.886   5.739   2.061 -0.3484  0.0687 -0.0691
    82BTZ   C47 2432   0.940   5.943   1.927 -0.0201 -0.0649  0.0408
    82BTZ   C48 2433   0.986   5.868   1.822 -0.0465 -0.1235  0.0710
    82BTZ   C49 2434   1.023   5.928   1.697 -0.1134 -0.1976  0.0154
    82BTZ   C50 2435   1.015   6.063   1.676 -0.1539 -0.2132 -0.0704
    82BTZ   C51 2436   0.929   6.085   1.910 -0.0605 -0.0786 -0.0485
    82BTZ   C52 2437   0.967   6.146   1.783 -0.1285 -0.1539 -0.1051
    92RH    C53 2438   1.047   6.127   1.552 -0.2805 -0.2002  0.1316
    82BTZ    N4 2439   0.885   6.169   2.005 -0.0404 -0.0261 -0.0855
    82BTZ    N5 2440   0.954   6.279   1.775 -0.1631 -0.1621 -0.1875
    82BTZ    S6 2441   0.891   6.332   1.934 -0.1090 -0.0718 -0.1966
    92RH    C54 2442   1.087   6.080   1.434 -0.1650 -0.0460  0.1091
    92RH     S7 2443   1.126   5.905   1.392  0.2293  0.0604  0.0166
    92RH    C55 2444   1.108   6.165   1.314 -0.3463  0.0657  0.1575
    92RH     O2 2445   1.090   6.288   1.310 -0.6209  0.0306  0.2233
    92RH     N6 2446   1.150   6.090   1.203 -0.1670  0.2208  0.1194
    92RH    C56 2447   1.167   5.954   1.219  0.1357  0.2471  0.0463
    92RH    C57 2448   1.165   6.157   1.067 -0.1935 -0.5921 -0.4062
    92RH    C58 2449   1.035   6.170   0.988 -0.2752 -0.7302  0.0467
    92RH     S8 2450   1.216   5.842   1.103  0.3967  0.4196 -0.0111
    72IDQ   C59 2451   1.095   5.519   2.281  0.1123  0.4438 -1.0957
    72IDQ   C60 2452   1.173   5.389   2.282  0.3642 -0.1689 -0.2374
    72IDQ   C61 2453   1.319   5.410   2.293 -0.2659 -0.5498 -0.0780
    72IDQ   C62 2454   1.401   5.503   2.206  0.3151  0.0279 -0.4745
    72IDQ   C63 2455   1.398   5.451   2.061 -0.0424 -0.3266 -0.5107
    72IDQ   C64 2456   1.504   5.492   1.972  0.0197 -0.2199  0.3779
    72IDQ   C65 2457   1.492   5.416   1.836  0.2917 -0.0389 -0.3811
    72IDQ   C66 2458   0.693   5.469   2.027  0.0846 -0.8928  0.1144
    72IDQ   C67 2459   0.571   5.415   1.970  0.4662  0.2919  0.4948
    72IDQ   C68 2460   0.553   5.446   1.820  0.4661  0.1683  0.1870
    72IDQ   C69 2461   0.408   5.449   1.767 -0.0992  0.7091 -0.0771
    72IDQ   C70 2462   0.401   5.436   1.613  0.1041  0.1399  0.8980
    72IDQ   C71 2463   0.256   5.422   1.578  0.2355 -0.6648 -0.0734
    72IDQ   C72 2464   0.220   5.397   1.427 -0.4660 -0.0602  0.0943
    11RH     C1 2465   0.072   0.030   5.353  0.1338  0.1191  0.1498
    11RH     C2 2466   0.107  -0.065   5.244  0.0504  0.1110  0.1304
    11RH     N1 2467   0.028  -0.038   5.469  0.1394  0.1316  0.1593
    11RH     S1 2468   0.078  -0.237   5.301 -0.0152  0.1204  0.1261
    11RH     C3 2469   0.022  -0.175   5.466  0.0706  0.1345  0.1498
    11RH     C4 2470  -0.016   0.036   5.584  0.2272 -0.7386  0.8497
    11RH     S2 2471  -0.027  -0.279   5.589  0.0610  0.1487  0.1581
    11RH     O1 2472   0.081   0.154   5.346  0.1925  0.1155  0.1572
    11RH     C5 2473   0.152  -0.027   5.124  0.0289  0.0987  0.1184
    21BTZ    C6 2474   0.206  -0.095   5.009  0.0642 -0.0511 -0.0956
    21BTZ    C7 2475   0.220  -0.231   5.001  0.1529 -0.0494  0.0284
    21BTZ    C8 2476   0.253  -0.015   4.900 -0.0041 -0.1211 -0.1767
    21BTZ    C9 2477   0.281  -0.295   4.887  0.1789 -0.1155  0.0784
    21BTZ   C10 2478   0.327  -0.222   4.780  0.1162 -0.1834  0.0044
    21BTZ   C11 2479   0.314  -0.079   4.784  0.0223 -0.1884 -0.1256
    21BTZ    N2 2480   0.244   0.119   4.896 -0.0927 -0.1301 -0.2990
    21BTZ    N3 2481   0.355   0.003   4.686 -0.0450 -0.2513 -0.2072
    21BTZ    S3 2482   0.316   0.169   4.740 -0.1472 -0.2268 -0.3553
    31IDT   C12 2483   0.387  -0.293   4.666  0.0975 -0.1174  0.0486
    31IDT   C13 2484   0.414  -0.426   4.656  0.1891 -0.0930 -0.0286
    31IDT   C14 2485   0.454  -0.465   4.524  0.2231  0.0117 -0.0490
    31IDT   C15 2486   0.457  -0.361   4.433  0.1578  0.0674  0.0120
    31IDT    S4 2487   0.410  -0.205   4.508  0.0471 -0.0088  0.1013
    4IDB    C16 2488   0.518  -0.404   4.308  0.4715  0.1512 -0.1324
    4IDB    C17 2489   0.548  -0.543   4.318  0.3649  0.1252 -0.1683
    51IDQ   C18 2490   0.516  -0.591   4.465  0.7665 -0.3761  0.6819
    4IDB    C19 2491   0.593  -0.615   4.208  0.0891  0.0664 -0.2437
    51IDQ   C20 2492   0.429  -0.724   4.452  0.2683 -0.2599  0.1217
    51IDQ   C21 2493   0.632  -0.635   4.549  0.3126 -0.2309 -0.2420
    51IDQ   C22 2494   0.775  -0.638   4.502 -0.3911  0.1992  0.2873
    51IDQ   C23 2495   0.269  -0.714   4.472 -0.8495 -0.2958  0.3583
    51IDQ   C24 2496   0.881  -0.698   4.601 -0.0314  0.0183  0.6961
    51IDQ   C25 2497   0.857  -0.848   4.630 -0.7645  0.1138 -0.2133
    51IDQ   C26 2498   0.985  -0.920   4.682  0.3947  0.5658  0.7548
    51IDQ   C27 2499   0.979  -1.076   4.695 -0.2341 -0.4248  0.0090
    51IDQ   C28 2500   0.854  -1.147   4.749 -0.4242 -0.0369 -0.8302
    51IDQ   C29 2501   0.873  -1.157   4.900  0.0388 -0.2041  0.2199
    51IDQ   C30 2502   0.194  -0.617   4.379 -0.5784 -0.0957 -0.1674
    51IDQ   C31 2503   0.043  -0.618   4.407 -0.0244 -0.0137 -0.0757
    51IDQ   C32 2504  -0.042  -0.561   4.297 -0.1122 -0.4621  0.0930
    51IDQ   C33 2505  -0.191  -0.601   4.306  0.0073 -0.0457 -0.2838
    51IDQ   C34 2506  -0.284  -0.512   4.220  0.0478 -0.4467  0.2941
    51IDQ   C35 2507  -0.422  -0.562   4.231  0.6803 -0.5708  0.3073
    4IDB    C36 2508   0.532  -0.336   4.186  0.3016  0.1184 -0.1718
    4IDB    C37 2509   0.578  -0.411   4.075  0.0203  0.0583 -0.2488
    11RH    C38 2510   0.093   0.055   5.685  0.0339 -0.0944  0.0274
    4IDB    C39 2511   0.608  -0.547   4.087 -0.0808  0.0333 -0.2833
    62IDT   C40 2512   0.660  -0.593   3.964  0.3583  0.1482  0.0811
    72IDQ   C41 2513   0.606  -0.360   3.935 -0.1387  0.1080  0.2675
    62IDT   C42 2514   0.658  -0.492   3.870  0.8240  0.2230  0.1431
    72IDQ   C43 2515   0.467  -0.319   3.873 -0.1132 -0.4588  0.0075
    72IDQ   C44 2516   0.702  -0.233   3.929  0.1058 -0.4409 -0.1770
    62IDT    S5 2517   0.713  -0.750   3.893 -0.0937  0.0108  0.0441
    62IDT   C45 2518   0.729  -0.666   3.732  0.3948  0.0646  0.1181
    62IDT   C46 2519   0.696  -0.533   3.738  0.8453  0.1761  0.1642
    82BTZ   C47 2520   0.768  -0.738   3.606  0.0998 -0.2502 -0.0577
    82BTZ   C48 2521   0.820  -0.665   3.503  0.1808 -0.2427 -0.0115
    82BTZ   C49 2522   0.843  -0.722   3.373  0.1917 -0.2073 -0.0250
    82BTZ   C50 2523   0.814  -0.853   3.346  0.1215 -0.1800 -0.0848
    82BTZ   C51 2524   0.736  -0.876   3.583  0.0243 -0.2223 -0.1210
    82BTZ   C52 2525   0.759  -0.935   3.451  0.0354 -0.1866 -0.1348
    92RH    C53 2526   0.834  -0.913   3.213 -0.1892 -0.0256 -0.1118
    82BTZ    N4 2527   0.685  -0.958   3.675 -0.0579 -0.2266 -0.1700
    82BTZ    N5 2528   0.727  -1.064   3.437 -0.0380 -0.1618 -0.1948
    82BTZ    S6 2529   0.664  -1.117   3.595 -0.1261 -0.1837 -0.2372
    92RH    C54 2530   0.884  -0.863   3.100 -0.2241  0.0501 -0.0933
    92RH     S7 2531   0.945  -0.691   3.074  0.1010 -0.0332  0.1052
    92RH    C55 2532   0.898  -0.940   2.975 -0.5433  0.2190 -0.2363
    92RH     O2 2533   0.866  -1.059   2.960 -0.8109  0.3086 -0.3871
    92RH     N6 2534   0.954  -0.862   2.871 -0.5084  0.2680 -0.1806
    92RH    C56 2535   0.986  -0.731   2.899 -0.2003  0.1590 -0.0104
    92RH    C57 2536   0.983  -0.928   2.738 -0.2879 -0.6830 -0.2743
    92RH    C58 2537   0.873  -0.913   2.631  0.0901 -0.0460  0.2667
    92RH     S8 2538   1.053  -0.617   2.794 -0.0931  0.1870  0.0880
    72IDQ   C59 2539   0.853  -0.248   3.967  0.6369 -0.1231  0.5903
    72IDQ   C60 2540   0.932  -0.128   3.954  0.5652  0.0026  0.0679
    72IDQ   C61 2541   1.078  -0.152   3.955 -0.1464 -0.0813  0.1090
    72IDQ   C62 2542   1.136  -0.229   3.833 -0.4589  0.3003  0.4932
    72IDQ   C63 2543   1.289  -0.228   3.832  0.1537 -0.2306 -0.1253
    72IDQ   C64 2544   1.362  -0.281   3.711  0.0918 -0.4322 -0.2156
    72IDQ   C65 2545   1.506  -0.302   3.749 -0.1505 -0.0912  0.2166
    72IDQ   C66 2546   0.474  -0.278   3.727 -0.4021  0.5684  0.0857
    72IDQ   C67 2547   0.339  -0.272   3.667  0.1098 -0.1048  0.0990
    72IDQ   C68 2548   0.361  -0.254   3.516  0.3133 -0.2411 -0.5190
    72IDQ   C69 2549   0.240  -0.294   3.432 -0.5499  0.0994  0.2361
    72IDQ   C70 2550   0.263  -0.289   3.275  0.3764  0.5406 -0.2418
    72IDQ   C71 2551   0.158  -0.362   3.187 -0.4153  0.2202  0.0706
    72IDQ   C72 2552   0.200  -0.378   3.039 -0.1906 -0.4790 -0.4292
    11RH     C1 2553   0.254   5.310   2.818 -0.1363  0.0492 -0.1453
    11RH     C2 2554   0.211   5.222   2.930 -0.1162  0.1553 -0.0543
    11RH     N1 2555   0.292   5.234   2.705 -0.0577 -0.0617 -0.0454
    11RH     S1 2556   0.224   5.046   2.879  0.0045  0.1023  0.1567
    11RH     C3 2557   0.285   5.097   2.712  0.0227 -0.0572  0.1146
    11RH     C4 2558   0.352   5.295   2.580  0.2509 -0.3670 -0.4770
    11RH     S2 2559   0.324   4.985   2.593  0.1252 -0.1754  0.2581
    11RH     O1 2560   0.257   5.434   2.820 -0.2117  0.0544 -0.2908
    11RH     C5 2561   0.170   5.269   3.048 -0.1788  0.2707 -0.1207
    21BTZ    C6 2562   0.125   5.208   3.169 -0.3756  0.1919 -0.3190
    21BTZ    C7 2563   0.112   5.073   3.186 -0.1020  0.1868 -0.1509
    21BTZ    C8 2564   0.087   5.295   3.277 -0.1497  0.2302 -0.2698
    21BTZ    C9 2565   0.063   5.016   3.309  0.4040  0.2186  0.0724
    21BTZ   C10 2566   0.026   5.094   3.415  0.6356  0.2556  0.1272
    21BTZ   C11 2567   0.037   5.237   3.402  0.3646  0.2626 -0.0429
    21BTZ    N2 2568   0.094   5.428   3.273 -0.3780  0.2389 -0.4194
    21BTZ    N3 2569   0.004   5.324   3.498  0.5497  0.2973 -0.0100
    21BTZ    S3 2570   0.036   5.487   3.431  0.0640  0.2900 -0.2732
    31IDT   C12 2571  -0.027   5.029   3.536 -0.2559  0.2810 -0.2820
    31IDT   C13 2572  -0.067   4.898   3.550 -0.2178  0.2627 -0.3431
    31IDT   C14 2573  -0.116   4.868   3.681  0.1223  0.0957 -0.2540
    31IDT   C15 2574  -0.113   4.975   3.768  0.3449 -0.0143 -0.1247
    31IDT    S4 2575  -0.048   5.124   3.690  0.1396  0.0860 -0.1055
    4IDB    C16 2576  -0.167   4.935   3.898 -0.2152 -0.5126 -0.3872
    4IDB    C17 2577  -0.197   4.796   3.895 -0.4352 -0.4674 -0.2425
    51IDQ   C18 2578  -0.165   4.743   3.756  0.2807  0.3563  0.1694
    4IDB    C19 2579  -0.247   4.731   4.008 -0.5352 -0.2730 -0.1746
    51IDQ   C20 2580  -0.053   4.635   3.789  0.5285  0.5509  0.4442
    51IDQ   C21 2581  -0.282   4.672   3.665  0.0613 -0.2381 -0.1569
    51IDQ   C22 2582  -0.428   4.683   3.713  0.0099 -0.1971  0.1916
    51IDQ   C23 2583   0.101   4.654   3.761 -0.5859 -0.3144  0.5414
    51IDQ   C24 2584  -0.524   4.621   3.617 -0.2011 -0.4060  0.6931
    51IDQ   C25 2585  -0.658   4.584   3.675  0.0239  1.0003 -0.1019
    51IDQ   C26 2586  -0.775   4.523   3.593 -0.0710  0.0739  0.6185
    51IDQ   C27 2587  -0.727   4.403   3.516  0.1679 -0.0391  0.3732
    51IDQ   C28 2588  -0.827   4.372   3.402  0.2390 -0.1406 -0.9136
    51IDQ   C29 2589  -0.784   4.272   3.297 -0.2021  0.2314  0.3369
    51IDQ   C30 2590   0.188   4.729   3.857 -0.6980 -0.1506 -0.1071
    51IDQ   C31 2591   0.335   4.691   3.836 -0.4439 -0.5929 -0.2748
    51IDQ   C32 2592   0.437   4.777   3.913  0.0676  0.4146 -0.2357
    51IDQ   C33 2593   0.583   4.766   3.875 -0.1444 -0.1502  0.2929
    51IDQ   C34 2594   0.672   4.859   3.954 -0.0367  0.4101  0.5081
    51IDQ   C35 2595   0.822   4.829   3.923 -0.0599  0.1289  0.2595
    4IDB    C36 2596  -0.186   5.011   4.014 -0.0929 -0.3622 -0.4652
    4IDB    C37 2597  -0.237   4.944   4.128 -0.1976 -0.1643 -0.3940
    11RH    C38 2598   0.243   5.352   2.491 -0.6296 -0.3193  0.0850
    4IDB    C39 2599  -0.266   4.808   4.124 -0.4127 -0.1226 -0.2525
    62IDT   C40 2600  -0.319   4.766   4.246  0.2465 -0.1853 -0.1562
    72IDQ   C41 2601  -0.262   4.996   4.277 -0.5960 -0.1351  0.7238
    62IDT   C42 2602  -0.302   4.865   4.340  0.8323 -0.4153 -0.0101
    72IDQ   C43 2603  -0.116   5.046   4.338  0.2879  0.6210  0.0880
    72IDQ   C44 2604  -0.366   5.118   4.280 -0.1440  0.1306 -0.4797
    62IDT    S5 2605  -0.400   4.621   4.314 -0.2427  0.0345 -0.2664
    62IDT   C45 2606  -0.408   4.706   4.474  0.4021 -0.2080 -0.1011
    62IDT   C46 2607  -0.352   4.831   4.470  0.9212 -0.4287  0.0212
    82BTZ   C47 2608  -0.446   4.640   4.600  0.3301  0.3520 -0.0064
    82BTZ   C48 2609  -0.495   4.715   4.704  0.3400  0.4209 -0.0513
    82BTZ   C49 2610  -0.532   4.655   4.830  0.2012  0.4820 -0.0621
    82BTZ   C50 2611  -0.520   4.521   4.851  0.0530  0.4741 -0.0283
    82BTZ   C51 2612  -0.432   4.499   4.618  0.1776  0.3408  0.0304
    82BTZ   C52 2613  -0.469   4.438   4.746  0.0365  0.4029  0.0192
    92RH    C53 2614  -0.562   4.454   4.975 -0.0659 -0.0998  0.0268
    82BTZ    N4 2615  -0.386   4.416   4.524  0.1528  0.2763  0.0756
    82BTZ    N5 2616  -0.453   4.306   4.755 -0.1014  0.3883  0.0554
    82BTZ    S6 2617  -0.388   4.252   4.597 -0.0561  0.2925  0.1062
    92RH    C54 2618  -0.609   4.499   5.092 -0.2246 -0.1839 -0.0039
    92RH     S7 2619  -0.653   4.672   5.134 -0.0840 -0.1784  0.1244
    92RH    C55 2620  -0.632   4.412   5.209 -0.5499 -0.2983 -0.1518
    92RH     O2 2621  -0.612   4.289   5.213 -0.7110 -0.3291 -0.2627
    92RH     N6 2622  -0.682   4.485   5.319 -0.6594 -0.3701 -0.1526
    92RH    C56 2623  -0.701   4.621   5.304 -0.4617 -0.3272 -0.0235
    92RH    C57 2624  -0.717   4.413   5.445 -0.2172 -0.4860  0.3955
    92RH    C58 2625  -0.611   4.410   5.558  0.0134 -0.2005 -0.3847
    92RH     S8 2626  -0.758   4.730   5.419 -0.5344 -0.3947  0.0046
    72IDQ   C59 2627  -0.511   5.100   4.239 -0.1845  0.3093  0.1447
    72IDQ   C60 2628  -0.604   5.060   4.358  0.0556 -0.8737  0.4182
    72IDQ   C61 2629  -0.745   5.038   4.301  0.0061 -0.2769 -0.1991
    72IDQ   C62 2630  -0.826   5.001   4.424  0.1921 -0.0730  0.4181
    72IDQ   C63 2631  -0.969   4.981   4.397 -0.2593 -0.8034 -0.8315
    72IDQ   C64 2632  -1.055   5.007   4.519  0.8373 -0.2637  0.0704
    72IDQ   C65 2633  -1.204   5.019   4.471  0.1915  0.4828  0.0666
    72IDQ   C66 2634  -0.097   5.100   4.479  0.0316  0.1704  0.2850
    72IDQ   C67 2635   0.047   5.087   4.521 -0.6187 -0.3679 -0.3916
    72IDQ   C68 2636   0.063   5.075   4.671 -0.5985  0.6476  0.1952
    72IDQ   C69 2637   0.207   5.093   4.716  0.3121 -0.0577 -0.1097
    72IDQ   C70 2638   0.225   5.096   4.864  0.4591 -0.3373 -0.5901
    72IDQ   C71 2639   0.364   5.079   4.918  0.2123  0.4872 -0.3889
    72IDQ   C72 2640   0.387   5.080   5.074 -0.0935  0.0062  0.5249
    11RH     C1 2641   0.035   4.431   4.444  0.2266 -0.0091 -0.1417
    11RH     C2 2642  -0.020   4.516   4.552  0.0176 -0.0808 -0.1911
    11RH     N1 2643   0.080   4.508   4.335  0.0970  0.0414 -0.1597
    11RH     S1 2644  -0.010   4.693   4.502 -0.3357 -0.0775 -0.2577
    11RH     C3 2645   0.067   4.645   4.341 -0.1901  0.0187 -0.2171
    11RH     C4 2646   0.139   4.446   4.211 -0.1831  0.0708 -1.0344
    11RH     S2 2647   0.112   4.759   4.225 -0.3945  0.0675 -0.2491
    11RH     O1 2648   0.043   4.307   4.447  0.4840  0.0064 -0.0910
    11RH     C5 2649  -0.069   4.468   4.666  0.0854 -0.1381 -0.1861
    21BTZ    C6 2650  -0.116   4.527   4.795 -0.5584  0.0594 -0.1411
    21BTZ    C7 2651  -0.118   4.662   4.822 -0.3803  0.0534 -0.0985
    21BTZ    C8 2652  -0.157   4.436   4.898 -0.3625  0.0637 -0.0596
    21BTZ    C9 2653  -0.159   4.713   4.950 -0.0032  0.0510  0.0253
    21BTZ   C10 2654  -0.198   4.630   5.051  0.1950  0.0549  0.1067
    21BTZ   C11 2655  -0.198   4.489   5.029  0.0206  0.0614  0.0664
    21BTZ    N2 2656  -0.160   4.304   4.884 -0.5064  0.0696 -0.0902
    21BTZ    N3 2657  -0.235   4.398   5.120  0.1849  0.0654  0.1369
    21BTZ    S3 2658  -0.217   4.238   5.041 -0.1504  0.0726  0.0435
    31IDT   C12 2659  -0.255   4.696   5.171  0.1621  0.0835 -0.0459
    31IDT   C13 2660  -0.273   4.831   5.186  0.0784  0.0815 -0.1246
    31IDT   C14 2661  -0.326   4.866   5.314 -0.0265  0.1160 -0.1773
    31IDT   C15 2662  -0.349   4.758   5.397 -0.0237  0.1446 -0.1394
    31IDT    S4 2663  -0.305   4.602   5.319  0.1135  0.1298 -0.0329
    4IDB    C16 2664  -0.405   4.804   5.522  0.4292 -0.1358  0.4214
    4IDB    C17 2665  -0.424   4.946   5.516  0.2835 -0.1696 -0.0288
    51IDQ   C18 2666  -0.373   4.992   5.383 -0.6870 -0.4296  0.3976
    4IDB    C19 2667  -0.479   5.015   5.624  0.2552  0.1221 -0.2291
    51IDQ   C20 2668  -0.257   5.108   5.412  0.5414  0.3808  0.3765
    51IDQ   C21 2669  -0.482   5.054   5.288 -0.5282  0.6524  0.2643
    51IDQ   C22 2670  -0.635   5.053   5.312 -0.5802 -0.1654 -0.2435
    51IDQ   C23 2671  -0.112   5.077   5.376  0.2021 -0.0108 -0.1241
    51IDQ   C24 2672  -0.713   5.155   5.223  0.0678 -0.2087 -0.3826
    51IDQ   C25 2673  -0.706   5.138   5.063  0.5194 -0.1505 -0.8497
    51IDQ   C26 2674  -0.786   5.248   4.985  0.1037  0.4828 -0.6416
    51IDQ   C27 2675  -0.738   5.393   5.012  0.0097  0.4963  0.8538
    51IDQ   C28 2676  -0.832   5.504   4.982  0.1007  0.3789  0.0421
    51IDQ   C29 2677  -0.970   5.500   5.047 -0.9905  0.2668  0.3821
    51IDQ   C30 2678  -0.033   4.996   5.482  0.5036 -0.2065  0.0854
    51IDQ   C31 2679   0.118   4.980   5.457 -0.5547  0.2791  0.4332
    51IDQ   C32 2680   0.208   4.955   5.587  0.8354 -0.9162  0.4041
    51IDQ   C33 2681   0.353   4.928   5.563 -0.9374  0.0590  0.4218
    51IDQ   C34 2682   0.432   5.043   5.490 -0.4013  0.3024  0.1065
    51IDQ   C35 2683   0.580   5.013   5.483  0.1320  0.1303 -0.3045
    4IDB    C36 2684  -0.442   4.731   5.636  0.5478  0.1922  0.6754
    4IDB    C37 2685  -0.498   4.803   5.744  0.5167  0.4876  0.4653
    11RH    C38 2686   0.047   4.426   4.102  0.1824  0.4217 -0.4274
    4IDB    C39 2687  -0.516   4.941   5.737  0.3738  0.4503  0.0250
    62IDT   C40 2688  -0.568   4.988   5.866 -0.1795 -0.1775  0.0513
    72IDQ   C41 2689  -0.550   4.749   5.889 -0.1855  0.1115  1.0989
    62IDT   C42 2690  -0.567   4.887   5.960  0.4565  0.2986  0.5809
    72IDQ   C43 2691  -0.437   4.657   5.948 -0.4246  0.0719  0.1012
    72IDQ   C44 2692  -0.673   4.656   5.869  0.2631 -0.2924 -0.2420
    62IDT    S5 2693  -0.615   5.146   5.939 -0.2709  0.0849 -0.5663
    62IDT   C45 2694  -0.632   5.062   6.099  0.5978  0.8621 -0.0507
    62IDT   C46 2695  -0.603   4.928   6.091  0.8967  0.8868  0.5239
    82BTZ   C47 2696  -0.673   5.130   6.219 -0.0038  0.2171 -0.1686
    82BTZ   C48 2697  -0.712   5.050   6.324 -0.0608  0.1848 -0.2143
    82BTZ   C49 2698  -0.732   5.103   6.456 -0.0900  0.1357 -0.1991
    82BTZ   C50 2699  -0.713   5.236   6.484 -0.0621  0.1189 -0.1379
    82BTZ   C51 2700  -0.652   5.270   6.243  0.0272  0.2015 -0.1040
    82BTZ   C52 2701  -0.672   5.324   6.378 -0.0024  0.1514 -0.0885
    92RH    C53 2702  -0.741   5.299   6.612  0.2814  0.0034  0.0323
    82BTZ    N4 2703  -0.614   5.358   6.150  0.0827  0.2294 -0.0554
    82BTZ    N5 2704  -0.651   5.455   6.393  0.0292  0.1392 -0.0274
    82BTZ    S6 2705  -0.603   5.516   6.232  0.0997  0.1924  0.0138
    92RH    C54 2706  -0.789   5.258   6.729  0.3089 -0.0327  0.0311
    92RH     S7 2707  -0.836   5.086   6.775  0.2043 -0.0260 -0.0507
    92RH    C55 2708  -0.813   5.348   6.845  0.4328 -0.0848  0.0982
    92RH     O2 2709  -0.792   5.470   6.846  0.5241 -0.1011  0.1624
    92RH     N6 2710  -0.864   5.278   6.956  0.4357 -0.1146  0.0807
    92RH    C56 2711  -0.885   5.142   6.944  0.3293 -0.0926  0.0078
    92RH    C57 2712  -0.890   5.341   7.082  0.5966  0.4278 -0.0258
    92RH    C58 2713  -0.766   5.337   7.182  0.1090 -0.2145 -0.0918
    92RH     S8 2714  -0.944   5.036   7.060  0.3082 -0.1196 -0.0275
    72IDQ   C59 2715  -0.819   4.704   5.891 -0.4096  0.6037  0.1050
    72IDQ   C60 2716  -0.927   4.598   5.858  0.1903 -0.3678  0.3136
    72IDQ   C61 2717  -1.071   4.638   5.900 -0.3121 -0.5757  0.1243
    72IDQ   C62 2718  -1.097   4.685   6.040  1.1362  0.3293 -0.6363
    72IDQ   C63 2719  -1.246   4.723   6.048 -0.7245 -0.5600 -0.1782
    72IDQ   C64 2720  -1.311   4.764   6.183 -0.0709 -0.0118 -0.0432
    72IDQ   C65 2721  -1.458   4.767   6.177  0.2861  0.1063  0.1207
    72IDQ   C66 2722  -0.300   4.718   5.969 -0.0250  0.3375 -0.5039
    72IDQ   C67 2723  -0.227   4.659   6.090  0.0603  0.4892  0.1144
    72IDQ   C68 2724  -0.104   4.740   6.129 -0.0497  0.3445 -0.1864
    72IDQ   C69 2725  -0.040   4.692   6.257 -0.3203 -0.2246 -0.0524
    72IDQ   C70 2726  -0.124   4.714   6.383  0.0669 -0.4547 -0.5957
    72IDQ   C71 2727  -0.046   4.656   6.502  0.1282  0.3683 -0.2367
    72IDQ   C72 2728  -0.111   4.708   6.633  0.1431 -0.2332  0.1224
    11RH     C1 2729   0.735   5.198   0.442  0.0825  0.0304 -0.1685
    11RH     C2 2730   0.746   5.297   0.332  0.0658  0.0411 -0.1606
    11RH     N1 2731   0.687   5.258   0.561  0.0575  0.0100 -0.1680
    11RH     S1 2732   0.694   5.462   0.392  0.0185  0.0235 -0.1531
    11RH     C3 2733   0.659   5.393   0.559  0.0229  0.0029 -0.1607
    11RH     C4 2734   0.649   5.176   0.680  0.4188 -0.7322  0.3671
    11RH     S2 2735   0.602   5.488   0.686 -0.0117 -0.0209 -0.1586
    11RH     O1 2736   0.762   5.077   0.434  0.1141  0.0380 -0.1748
    11RH     C5 2737   0.788   5.266   0.209  0.0837  0.0607 -0.1594
    21BTZ    C6 2738   0.834   5.334   0.090  0.4825 -0.0288 -0.0577
    21BTZ    C7 2739   0.839   5.470   0.073  0.5303 -0.0287 -0.0440
    21BTZ    C8 2740   0.875   5.250  -0.018  0.3271 -0.0335 -0.1127
    21BTZ    C9 2741   0.884   5.529  -0.050  0.4286 -0.0334 -0.0834
    21BTZ   C10 2742   0.924   5.453  -0.157  0.2792 -0.0380 -0.1366
    21BTZ   C11 2743   0.920   5.310  -0.144  0.2238 -0.0381 -0.1529
    21BTZ    N2 2744   0.874   5.116  -0.014  0.2672 -0.0340 -0.1310
    21BTZ    N3 2745   0.957   5.225  -0.241  0.0808 -0.0426 -0.2034
    21BTZ    S3 2746   0.933   5.061  -0.174  0.0721 -0.0406 -0.2016
    31IDT   C12 2747   0.976   5.521  -0.279 -0.3924  0.3119 -0.1498
    31IDT   C13 2748   0.983   5.656  -0.297 -0.1063  0.2882 -0.2356
    31IDT   C14 2749   1.034   5.693  -0.425  0.3461  0.1044 -0.1118
    31IDT   C15 2750   1.067   5.586  -0.506  0.4079 -0.0132  0.0687
    31IDT    S4 2751   1.035   5.429  -0.425 -0.1069  0.1009  0.0961
    4IDB    C16 2752   1.114   5.639  -0.629  0.5566  0.1921  0.1532
    4IDB    C17 2753   1.128   5.781  -0.625  0.9567  0.1547  0.2232
    51IDQ   C18 2754   1.074   5.824  -0.488  0.0555  0.2996  0.3290
    4IDB    C19 2755   1.177   5.852  -0.735  0.5290  0.1293  0.0094
    51IDQ   C20 2756   0.958   5.926  -0.532 -0.4025 -0.5476  0.3271
    51IDQ   C21 2757   1.171   5.899  -0.397  0.0859 -0.2580 -0.7719
    51IDQ   C22 2758   1.311   5.927  -0.433  0.1631 -0.6808  0.2193
    51IDQ   C23 2759   0.804   5.907  -0.510  0.2395 -0.3441 -0.3055
    51IDQ   C24 2760   1.382   6.001  -0.322  0.0422  0.6093 -0.0604
    51IDQ   C25 2761   1.534   6.028  -0.350  0.0333  0.0455 -0.4099
    51IDQ   C26 2762   1.603   6.114  -0.246  0.3327 -0.0812 -0.1602
    51IDQ   C27 2763   1.548   6.258  -0.205 -0.5881  0.1182 -0.4673
    51IDQ   C28 2764   1.610   6.302  -0.074 -0.5568 -0.3428 -0.0078
    51IDQ   C29 2765   1.508   6.379   0.001 -0.2157 -0.1591 -0.1049
    51IDQ   C30 2766   0.728   5.805  -0.596 -0.5547  0.2874 -0.0748
    51IDQ   C31 2767   0.583   5.808  -0.560 -0.8402 -0.7432 -0.0165
    51IDQ   C32 2768   0.492   5.746  -0.659  0.3395  0.4461 -0.7208
    51IDQ   C33 2769   0.345   5.756  -0.617 -0.6956  0.2463  0.2167
    51IDQ   C34 2770   0.270   5.645  -0.685 -0.0347  0.4436 -0.3049
    51IDQ   C35 2771   0.126   5.653  -0.634 -0.0379 -0.1475 -0.4150
    4IDB    C36 2772   1.151   5.566  -0.744 -0.2790  0.2046 -0.1330
    4IDB    C37 2773   1.201   5.640  -0.854 -0.7062  0.1783 -0.3487
    11RH    C38 2774   0.760   5.159   0.788  0.0893  0.3396  0.1609
    4IDB    C39 2775   1.213   5.779  -0.849 -0.3066  0.1417 -0.2769
    62IDT   C40 2776   1.266   5.823  -0.972 -0.1297  0.0663 -0.3263
    72IDQ   C41 2777   1.250   5.582  -0.988 -0.0751 -0.5158  0.8147
    62IDT   C42 2778   1.291   5.717  -1.056 -0.1976  0.0535 -0.3310
    72IDQ   C43 2779   1.121   5.537  -1.067 -0.3709  0.1799  0.2716
    72IDQ   C44 2780   1.359   5.465  -0.978  0.0579 -0.2909 -0.0077
    62IDT    S5 2781   1.305   5.981  -1.047  0.1396  0.0337 -0.2544
    62IDT   C45 2782   1.357   5.891  -1.197  0.1466  0.0031 -0.2338
    62IDT   C46 2783   1.343   5.756  -1.184 -0.0415  0.0178 -0.2787
    82BTZ   C47 2784   1.408   5.960  -1.324 -0.0960  0.1218  0.2776
    82BTZ   C48 2785   1.461   5.879  -1.421 -0.3272 -0.0106  0.2613
    82BTZ   C49 2786   1.505   5.932  -1.547 -0.5232 -0.1671  0.1256
    82BTZ   C50 2787   1.497   6.065  -1.577 -0.4876 -0.1908  0.0064
    82BTZ   C51 2788   1.398   6.101  -1.349 -0.0495  0.1032  0.1559
    82BTZ   C52 2789   1.443   6.154  -1.478 -0.2487 -0.0559  0.0180
    92RH    C53 2790   1.532   6.118  -1.709  0.2006 -0.1947 -0.0828
    82BTZ    N4 2791   1.348   6.189  -1.263  0.1679  0.2230  0.1583
    82BTZ    N5 2792   1.430   6.286  -1.495 -0.1914 -0.0638 -0.0905
    82BTZ    S6 2793   1.358   6.349  -1.344  0.1262  0.1358 -0.0195
    92RH    C54 2794   1.575   6.064  -1.824  0.1487 -0.1654 -0.1159
    92RH     S7 2795   1.610   5.886  -1.855  0.4187 -0.1170 -0.0905
    92RH    C55 2796   1.600   6.142  -1.947 -0.1460 -0.1681 -0.1804
    92RH     O2 2797   1.586   6.265  -1.959 -0.3755 -0.1970 -0.2109
    92RH     N6 2798   1.644   6.060  -2.053 -0.1369 -0.1330 -0.2040
    92RH    C56 2799   1.657   5.924  -2.029  0.1291 -0.1025 -0.1664
    92RH    C57 2800   1.659   6.123  -2.183 -0.6867  0.0622  0.6967
    92RH    C58 2801   1.539   6.112  -2.271  0.5686 -0.2019  0.4937
    92RH     S8 2802   1.707   5.805  -2.137  0.1992 -0.0579 -0.1831
    72IDQ   C59 2803   1.498   5.512  -0.952  0.3303  0.1697  0.4391
    72IDQ   C60 2804   1.584   5.390  -0.957 -0.1627 -1.0599 -0.0718
    72IDQ   C61 2805   1.733   5.414  -0.950 -0.4755 -0.2833  0.1875
    72IDQ   C62 2806   1.805   5.502  -1.054 -1.0493 -0.0506  0.1958
    72IDQ   C63 2807   1.957   5.500  -1.050  0.2099 -0.2047  0.3296
    72IDQ   C64 2808   2.015   5.584  -1.159  0.0301  0.4455  0.3904
    72IDQ   C65 2809   2.161   5.595  -1.149 -0.2852  0.5149  0.0516
    72IDQ   C66 2810   1.117   5.452  -1.193 -0.3512 -0.0324  0.0234
    72IDQ   C67 2811   0.974   5.412  -1.234 -0.8878  0.0414 -0.0686
    72IDQ   C68 2812   0.967   5.341  -1.368  0.4153  0.2928 -0.5483
    72IDQ   C69 2813   0.826   5.329  -1.425 -0.5675 -0.1727  0.2846
    72IDQ   C70 2814   0.816   5.343  -1.570  0.0475  0.0622  0.3504
    72IDQ   C71 2815   0.801   5.485  -1.643 -0.7826 -0.1847  0.1379
    72IDQ   C72 2816   0.754   5.459  -1.788 -0.5222 -0.2033  0.7677
    11RH     C1 2817   2.059   1.565   2.067 -0.0089 -0.0799  0.1907
    11RH     C2 2818   2.090   1.477   1.952  0.0265 -0.0424  0.1715
    11RH     N1 2819   2.013   1.491   2.178  0.1449 -0.1350  0.2178
    11RH     S1 2820   2.058   1.302   1.997  0.2595 -0.0819  0.1902
    11RH     C3 2821   2.004   1.354   2.166  0.2990 -0.1461  0.2225
    11RH     C4 2822   1.979   1.559   2.302  0.1664 -0.0564  0.6780
    11RH     S2 2823   1.953   1.244   2.282  0.4989 -0.2076  0.2526
    11RH     O1 2824   2.071   1.689   2.068 -0.1537 -0.0659  0.1845
    11RH     C5 2825   2.136   1.522   1.834 -0.0969  0.0119  0.1447
    21BTZ    C6 2826   2.183   1.454   1.711  0.0879 -0.3662 -0.0784
    21BTZ    C7 2827   2.191   1.318   1.700  0.2561 -0.3596 -0.0390
    21BTZ    C8 2828   2.205   1.534   1.594  0.1697 -0.3653 -0.0623
    21BTZ    C9 2829   2.221   1.253   1.575  0.5115 -0.3518  0.0179
    21BTZ   C10 2830   2.243   1.325   1.460  0.5982 -0.3507  0.0353
    21BTZ   C11 2831   2.236   1.468   1.466  0.4293 -0.3575 -0.0045
    21BTZ    N2 2832   2.200   1.667   1.591  0.0235 -0.3713 -0.0969
    21BTZ    N3 2833   2.256   1.549   1.362  0.4917 -0.3571  0.0075
    21BTZ    S3 2834   2.235   1.716   1.423  0.2155 -0.3671 -0.0561
    31IDT   C12 2835   2.277   1.252   1.336 -0.3293  0.2062 -0.1270
    31IDT   C13 2836   2.309   1.118   1.329 -0.2791  0.2095  0.0293
    31IDT   C14 2837   2.361   1.081   1.201  0.1941  0.1791  0.2280
    31IDT   C15 2838   2.369   1.184   1.111  0.5071  0.1527  0.2245
    31IDT    S4 2839   2.311   1.339   1.180  0.2242  0.1642 -0.0330
    4IDB    C16 2840   2.408   1.137   0.983  0.1814 -0.0127 -0.1885
    4IDB    C17 2841   2.449   1.001   0.994  0.4706  0.0892  0.0253
    51IDQ   C18 2842   2.415   0.955   1.137  0.5803  0.4163 -0.7218
    4IDB    C19 2843   2.507   0.935   0.886  0.4001 -0.0245  0.0567
    51IDQ   C20 2844   2.304   0.837   1.126 -0.2090  0.0196  0.3107
    51IDQ   C21 2845   2.527   0.895   1.231  0.2080  0.5575 -0.0398
    51IDQ   C22 2846   2.672   0.881   1.182 -0.1161 -0.5531  0.3161
    51IDQ   C23 2847   2.160   0.843   1.184 -0.1921  0.4039  0.2026
    51IDQ   C24 2848   2.763   0.831   1.293 -1.1568  0.1782 -0.0427
    51IDQ   C25 2849   2.910   0.855   1.270 -0.0805 -0.1986 -0.4866
    51IDQ   C26 2850   3.009   0.793   1.370  0.2134 -0.3960 -0.4248
    51IDQ   C27 2851   2.977   0.642   1.406  0.2557 -0.3653  0.1001
    51IDQ   C28 2852   3.077   0.579   1.502  0.1982 -0.0835  0.1438
    51IDQ   C29 2853   3.019   0.449   1.549 -0.9256 -0.4179  0.3937
    51IDQ   C30 2854   2.065   0.923   1.097  0.0782 -0.2570 -0.3736
    51IDQ   C31 2855   1.915   0.922   1.135 -0.0943 -0.1225 -0.0330
    51IDQ   C32 2856   1.835   0.989   1.027 -0.5881  0.6335 -0.0825
    51IDQ   C33 2857   1.685   0.962   1.042 -0.4644  0.0048 -0.0419
    51IDQ   C34 2858   1.626   1.013   0.918 -0.1415 -0.7734  0.2297
    51IDQ   C35 2859   1.481   1.017   0.922  0.0817 -0.1714 -0.1112
    4IDB    C36 2860   2.425   1.209   0.863 -0.1823 -0.2302 -0.3733
    4IDB    C37 2861   2.485   1.140   0.754 -0.2491 -0.3439 -0.3380
    11RH    C38 2862   2.100   1.594   2.387  0.3375 -0.8166 -0.5926
    4IDB    C39 2863   2.524   1.006   0.766  0.0363 -0.2421 -0.1281
    62IDT   C40 2864   2.579   0.959   0.645  0.3215 -0.0300  0.3292
    72IDQ   C41 2865   2.524   1.189   0.615  0.3790 -0.6993 -0.3206
    62IDT   C42 2866   2.570   1.060   0.551 -0.0685 -0.0422  0.3504
    72IDQ   C43 2867   2.397   1.238   0.534  0.3460  0.3142  0.2011
    72IDQ   C44 2868   2.618   1.314   0.631 -0.2058 -0.1786  0.1904
    62IDT    S5 2869   2.642   0.807   0.575  0.4355  0.0843  0.1828
    62IDT   C45 2870   2.654   0.891   0.414 -0.0752  0.1108  0.1567
    62IDT   C46 2871   2.612   1.021   0.420 -0.2933  0.0374  0.2530
    82BTZ   C47 2872   2.698   0.819   0.297  0.1981 -0.0315  0.0961
    82BTZ   C48 2873   2.756   0.896   0.200  0.2186 -0.0556  0.0891
    82BTZ   C49 2874   2.801   0.839   0.075  0.1252 -0.0647  0.0591
    82BTZ   C50 2875   2.789   0.705   0.048  0.0114 -0.0497  0.0362
    82BTZ   C51 2876   2.683   0.678   0.274  0.0805 -0.0149  0.0729
    82BTZ   C52 2877   2.729   0.620   0.147 -0.0145 -0.0242  0.0424
    92RH    C53 2878   2.824   0.639  -0.079  0.0727  0.0916  0.0824
    82BTZ    N4 2879   2.628   0.593   0.361  0.0496  0.0089  0.0769
    82BTZ    N5 2880   2.711   0.489   0.132 -0.1217 -0.0077  0.0219
    82BTZ    S6 2881   2.633   0.432   0.283 -0.1054  0.0209  0.0412
    92RH    C54 2882   2.861   0.682  -0.200  0.0814  0.0191  0.0592
    92RH     S7 2883   2.901   0.854  -0.248  0.2961 -0.0431  0.0117
    92RH    C55 2884   2.876   0.592  -0.318 -0.0877 -0.0231  0.0691
    92RH     O2 2885   2.857   0.470  -0.318 -0.2542  0.0030  0.0995
    92RH     N6 2886   2.917   0.664  -0.432 -0.0370 -0.0985  0.0398
    92RH    C56 2887   2.936   0.800  -0.421  0.1521 -0.1218  0.0073
    92RH    C57 2888   2.941   0.589  -0.554 -0.2970  0.5882  0.2613
    92RH    C58 2889   2.806   0.585  -0.633 -0.2255  0.3278 -0.2783
    92RH     S8 2890   2.983   0.908  -0.542  0.2492 -0.2080 -0.0318
    72IDQ   C59 2891   2.766   1.290   0.655  0.7657  0.7537  0.2224
    72IDQ   C60 2892   2.846   1.415   0.672  0.2933  0.1355  0.1132
    72IDQ   C61 2893   2.992   1.397   0.691 -0.6039  0.3560  0.0422
    72IDQ   C62 2894   3.070   1.319   0.583  0.6231 -0.3482  0.2927
    72IDQ   C63 2895   3.213   1.291   0.597 -0.6698 -0.0549 -0.7186
    72IDQ   C64 2896   3.257   1.169   0.526  0.2788  0.0488  0.2810
    72IDQ   C65 2897   3.407   1.139   0.520  0.3912 -0.1935  0.3053
    72IDQ   C66 2898   2.408   1.285   0.392  0.5499 -0.7489  0.2603
    72IDQ   C67 2899   2.289   1.247   0.311 -0.3478  0.6591 -0.1528
    72IDQ   C68 2900   2.304   1.273   0.159  0.2446  0.8185  0.0190
    72IDQ   C69 2901   2.179   1.254   0.074 -0.4247 -0.0862  0.1837
    72IDQ   C70 2902   2.069   1.349   0.103 -0.5418  0.7308  0.4385
    72IDQ   C71 2903   1.945   1.337   0.019  0.6293  0.2303  0.0266
    72IDQ   C72 2904   1.840   1.446   0.048  0.1396 -0.2657  0.2370
    11RH     C1 2905   1.312   0.813   6.095 -0.0542  0.0609 -0.2375
    11RH     C2 2906   1.286   0.718   6.206  0.0247  0.1705 -0.1245
    11RH     N1 2907   1.368   0.748   5.983 -0.0265 -0.0299 -0.1706
    11RH     S1 2908   1.337   0.549   6.156  0.1301  0.1471  0.0621
    11RH     C3 2909   1.391   0.612   5.991  0.0649 -0.0063 -0.0178
    11RH     C4 2910   1.399   0.824   5.861  0.1309 -1.0038 -0.1975
    11RH     S2 2911   1.457   0.512   5.873  0.1153 -0.0984  0.0883
    11RH     O1 2912   1.288   0.935   6.097 -0.1349  0.0479 -0.3741
    11RH     C5 2913   1.233   0.755   6.323  0.0172  0.2697 -0.1582
    21BTZ    C6 2914   1.194   0.684   6.443 -0.1687 -0.1778  0.1464
    21BTZ    C7 2915   1.210   0.549   6.461 -0.1314 -0.1658  0.2019
    21BTZ    C8 2916   1.149   0.764   6.553 -0.1180 -0.1334  0.1348
    21BTZ    C9 2917   1.182   0.486   6.588 -0.0430 -0.1100  0.2487
    21BTZ   C10 2918   1.139   0.558   6.696  0.0079 -0.0662  0.2399
    21BTZ   C11 2919   1.121   0.700   6.682 -0.0283 -0.0767  0.1824
    21BTZ    N2 2920   1.130   0.896   6.547 -0.1471 -0.1398  0.0826
    21BTZ    N3 2921   1.080   0.781   6.780  0.0148 -0.0375  0.1684
    21BTZ    S3 2922   1.074   0.945   6.710 -0.0591 -0.0723  0.0923
    31IDT   C12 2923   1.105   0.481   6.817  0.1501 -0.0184  0.0190
    31IDT   C13 2924   1.084   0.346   6.824  0.2555 -0.0305  0.0974
    31IDT   C14 2925   1.033   0.304   6.950  0.1604  0.0203  0.0761
    31IDT   C15 2926   1.014   0.406   7.041 -0.0176  0.0714 -0.0185
    31IDT    S4 2927   1.060   0.566   6.971 -0.0792  0.0589 -0.0885
    4IDB    C16 2928   0.966   0.361   7.168 -0.4235  0.0026  0.3132
    4IDB    C17 2929   0.936   0.222   7.157 -0.4417  0.0237  0.0749
    51IDQ   C18 2930   0.983   0.169   7.016  0.4764  0.0593 -0.1733
    4IDB    C19 2931   0.876   0.153   7.262 -0.5212 -0.1320 -0.0705
    51IDQ   C20 2932   1.079   0.044   7.020  0.1541 -0.6007  0.1501
    51IDQ   C21 2933   0.865   0.116   6.927 -0.1204 -0.0418  0.5718
    51IDQ   C22 2934   0.714   0.124   6.967 -0.0027  0.1637 -0.4377
    51IDQ   C23 2935   1.226   0.069   6.999 -0.1357 -0.1816  0.1921
    51IDQ   C24 2936   0.622   0.097   6.852  0.4849 -0.0802  0.4492
    51IDQ   C25 2937   0.581  -0.048   6.830 -0.2738  0.0263 -0.1082
    51IDQ   C26 2938   0.541  -0.063   6.682 -0.4546 -0.2268 -0.3693
    51IDQ   C27 2939   0.468  -0.196   6.659 -0.0762  0.4136  0.3693
    51IDQ   C28 2940   0.543  -0.331   6.672 -0.0582 -0.3600  0.2757
    51IDQ   C29 2941   0.635  -0.375   6.551 -0.0943 -0.1589 -0.2205
    51IDQ   C30 2942   1.314   0.144   7.104 -0.0006  0.1237 -0.0013
    51IDQ   C31 2943   1.454   0.162   7.058  0.1132  0.6731  0.0166
    51IDQ   C32 2944   1.542   0.220   7.157  0.1962 -0.1377 -0.0522
    51IDQ   C33 2945   1.695   0.208   7.143 -0.1812 -0.1548  0.0448
    51IDQ   C34 2946   1.758   0.272   7.266  0.6979  0.2886 -0.3837
    51IDQ   C35 2947   1.905   0.281   7.242 -0.1821 -0.4735  0.0394
    4IDB    C36 2948   0.936   0.433   7.284 -0.4853 -0.1754  0.4080
    4IDB    C37 2949   0.875   0.361   7.391 -0.5663 -0.3329  0.2568
    11RH    C38 2950   1.296   0.817   5.747  0.2374  0.6707 -0.2664
    4IDB    C39 2951   0.846   0.225   7.379 -0.5830 -0.3100  0.0242
    62IDT   C40 2952   0.790   0.177   7.501 -0.1688 -0.1952 -0.1869
    72IDQ   C41 2953   0.821   0.419   7.523 -0.4443 -0.0239  0.5789
    62IDT   C42 2954   0.774   0.286   7.584  0.4976 -0.1975 -0.0395
    72IDQ   C43 2955   0.949   0.488   7.599  0.6777  0.2975  0.5950
    72IDQ   C44 2956   0.719   0.535   7.486 -0.3206 -0.0009  0.4912
    62IDT    S5 2957   0.737   0.024   7.579 -0.4221 -0.0736 -0.1190
    62IDT   C45 2958   0.693   0.120   7.727  0.4277 -0.0302  0.1165
    62IDT   C46 2959   0.718   0.254   7.712  0.8357 -0.1043  0.1322
    82BTZ   C47 2960   0.633   0.048   7.845 -0.2021  0.1483 -0.0105
    82BTZ   C48 2961   0.586   0.127   7.946 -0.2825  0.1230 -0.0279
    82BTZ   C49 2962   0.544   0.072   8.072 -0.2811  0.1019 -0.0367
    82BTZ   C50 2963   0.549  -0.063   8.097 -0.1994  0.1064 -0.0280
    82BTZ   C51 2964   0.640  -0.094   7.866 -0.1148  0.1539 -0.0008
    82BTZ   C52 2965   0.597  -0.150   7.994 -0.1134  0.1328 -0.0097
    92RH    C53 2966   0.519  -0.122   8.228 -0.4232 -0.0487 -0.0891
    82BTZ    N4 2967   0.684  -0.181   7.775 -0.0319  0.1780  0.0162
    82BTZ    N5 2968   0.607  -0.283   8.006 -0.0294  0.1396  0.0002
    82BTZ    S6 2969   0.673  -0.343   7.851  0.0531  0.1741  0.0218
    92RH    C54 2970   0.485  -0.077   8.349 -0.2423 -0.1016 -0.0175
    92RH     S7 2971   0.447   0.097   8.395  0.0489 -0.0840  0.1665
    92RH    C55 2972   0.473  -0.163   8.469 -0.2515 -0.1856 -0.0790
    92RH     O2 2973   0.492  -0.286   8.472 -0.4239 -0.2161 -0.2015
    92RH     N6 2974   0.436  -0.089   8.583 -0.0361 -0.2279  0.0200
    92RH    C56 2975   0.417   0.047   8.570  0.1445 -0.1884  0.1533
    92RH    C57 2976   0.423  -0.157   8.716  0.5083 -0.2432 -0.0889
    92RH    C58 2977   0.546  -0.190   8.799 -0.1195  0.5133  0.2874
    92RH     S8 2978   0.372   0.158   8.689  0.4164 -0.2249  0.2898
    72IDQ   C59 2979   0.566   0.499   7.468 -0.5303  0.1236 -0.5280
    72IDQ   C60 2980   0.474   0.615   7.442  0.5399 -0.1731 -0.1182
    72IDQ   C61 2981   0.319   0.592   7.441 -0.1088  0.0559 -0.3824
    72IDQ   C62 2982   0.260   0.523   7.571 -0.0512 -0.1774 -0.2244
    72IDQ   C63 2983   0.108   0.499   7.557 -0.6278 -0.7421  0.0220
    72IDQ   C64 2984   0.050   0.443   7.686  0.8461  0.1778 -0.6881
    72IDQ   C65 2985  -0.095   0.391   7.668 -0.4041 -0.3957 -0.2324
    72IDQ   C66 2986   0.919   0.527   7.744  0.8883 -0.0964  0.0884
    72IDQ   C67 2987   1.026   0.578   7.828 -0.5192  0.4103 -0.4130
    72IDQ   C68 2988   1.123   0.469   7.877  0.0275 -0.1416  0.3423
    72IDQ   C69 2989   1.227   0.524   7.971  0.1128 -0.8713  0.2951
    72IDQ   C70 2990   1.187   0.491   8.115  0.2827 -0.0184 -0.4999
    72IDQ   C71 2991   1.304   0.526   8.214  0.5787  0.1506  0.2889
    72IDQ   C72 2992   1.269   0.479   8.353 -0.1159  0.1568 -0.7520
    11RH     C1 2993   1.968   5.951   1.155  0.0437  0.1104 -0.2506
    11RH     C2 2994   1.935   6.044   1.266  0.1315  0.0269 -0.1544
    11RH     N1 2995   2.020   6.020   1.043  0.1104  0.1758 -0.1787
    11RH     S1 2996   1.976   6.216   1.216  0.2962  0.0400  0.0243
    11RH     C3 2997   2.034   6.157   1.052  0.2410  0.1550 -0.0367
    11RH     C4 2998   2.063   5.944   0.926 -0.5726 -0.1004 -0.1034
    11RH     S2 2999   2.093   6.262   0.934  0.3422  0.2205  0.0726
    11RH     O1 3000   1.952   5.828   1.157 -0.0739  0.1230 -0.3785
    11RH     C5 3001   1.884   6.004   1.383  0.0927 -0.0453 -0.1960
    21BTZ    C6 3002   1.845   6.069   1.509  0.0736 -0.3400 -0.0112
    21BTZ    C7 3003   1.851   6.204   1.531  0.2460 -0.3257 -0.1463
    21BTZ    C8 3004   1.790   5.985   1.611  0.0350 -0.1761  0.1032
    21BTZ    C9 3005   1.805   6.263   1.654  0.3882 -0.1508 -0.1757
    21BTZ   C10 3006   1.752   6.187   1.755  0.3578  0.0096 -0.0698
    21BTZ   C11 3007   1.743   6.045   1.736  0.1796  0.0017  0.0734
    21BTZ    N2 3008   1.778   5.852   1.601 -0.1274 -0.1725  0.2392
    21BTZ    N3 3009   1.693   5.960   1.827  0.1334  0.1482  0.1853
    21BTZ    S3 3010   1.705   5.797   1.755 -0.1019  0.0634  0.3368
    31IDT   C12 3011   1.702   6.254   1.880 -0.0765 -0.7614 -0.1480
    31IDT   C13 3012   1.679   6.389   1.891  0.0605 -0.7178 -0.3766
    31IDT   C14 3013   1.631   6.426   2.021  0.1707 -0.4386 -0.4160
    31IDT   C15 3014   1.618   6.321   2.109  0.1186 -0.2678 -0.2182
    31IDT    S4 3015   1.665   6.165   2.034 -0.0758 -0.4491  0.0356
    4IDB    C16 3016   1.576   6.376   2.235 -0.2081 -0.3376  0.6081
    4IDB    C17 3017   1.543   6.514   2.221  0.0315 -0.3166  0.2298
    51IDQ   C18 3018   1.578   6.560   2.076  0.1635  0.1530 -0.6649
    4IDB    C19 3019   1.494   6.588   2.329 -0.1119 -0.0089 -0.0420
    51IDQ   C20 3020   1.684   6.676   2.089 -0.3044  0.3360 -0.0756
    51IDQ   C21 3021   1.450   6.605   1.997  0.1901 -0.3114 -0.4143
    51IDQ   C22 3022   1.303   6.606   2.041 -0.1075  0.1215  0.5262
    51IDQ   C23 3023   1.836   6.655   2.077  0.1370 -0.3517 -0.4180
    51IDQ   C24 3024   1.201   6.633   1.927  0.5928 -0.1717 -0.0117
    51IDQ   C25 3025   1.064   6.685   1.976  0.5702  0.3345 -0.3748
    51IDQ   C26 3026   0.956   6.687   1.867 -0.0820 -0.2943  0.0078
    51IDQ   C27 3027   0.973   6.767   1.734 -0.1274 -0.3780 -0.1850
    51IDQ   C28 3028   1.006   6.918   1.752 -0.2880  0.5660  0.2302
    51IDQ   C29 3029   1.005   6.976   1.614  0.1431  0.6812  0.0885
    51IDQ   C30 3030   1.906   6.591   2.202  0.4451  0.4326  0.5598
    51IDQ   C31 3031   2.051   6.553   2.181  0.3015 -0.0002  0.5940
    51IDQ   C32 3032   2.107   6.462   2.290 -0.0283  0.1219 -0.0493
    51IDQ   C33 3033   2.251   6.428   2.282  0.1863  0.0824 -0.7160
    51IDQ   C34 3034   2.348   6.552   2.294  0.7196  0.7942 -0.0891
    51IDQ   C35 3035   2.483   6.485   2.314 -0.1195 -0.2672  0.2002
    4IDB    C36 3036   1.561   6.310   2.358 -0.5950 -0.0490  0.7173
    4IDB    C37 3037   1.510   6.387   2.467 -0.7366  0.2633  0.4358
    11RH    C38 3038   1.949   5.902   0.832  0.2776  0.8380  0.5511
    4IDB    C39 3039   1.478   6.522   2.451 -0.4988  0.2797  0.0671
    62IDT   C40 3040   1.434   6.579   2.576 -0.0034 -0.6286  0.5770
    72IDQ   C41 3041   1.472   6.345   2.604 -0.2206 -0.2623  0.0989
    62IDT   C42 3042   1.429   6.479   2.671 -0.2992 -0.2343  0.9851
    72IDQ   C43 3043   1.599   6.288   2.682 -0.0472  0.3539 -0.0529
    72IDQ   C44 3044   1.365   6.228   2.603 -0.4234  0.6810  0.2937
    62IDT    S5 3045   1.379   6.736   2.641  0.1217 -0.2711 -0.1576
    62IDT   C45 3046   1.351   6.655   2.802 -0.2505  0.4267  0.1403
    62IDT   C46 3047   1.382   6.522   2.799 -0.4393  0.3629  0.7388
    82BTZ   C47 3048   1.316   6.721   2.927 -0.1565  0.1130 -0.3077
    82BTZ   C48 3049   1.266   6.638   3.025 -0.1372  0.0852 -0.3213
    82BTZ   C49 3050   1.221   6.690   3.152 -0.1276  0.0510 -0.3040
    82BTZ   C50 3051   1.226   6.824   3.181 -0.1374  0.0447 -0.2731
    82BTZ   C51 3052   1.322   6.862   2.952 -0.1673  0.1077 -0.2754
    82BTZ   C52 3053   1.277   6.914   3.081 -0.1577  0.0729 -0.2578
    92RH    C53 3054   1.196   6.875   3.315 -0.1613 -0.1842 -0.1656
    82BTZ    N4 3055   1.368   6.951   2.865 -0.1862  0.1328 -0.2596
    82BTZ    N5 3056   1.286   7.046   3.098 -0.1687  0.0701 -0.2278
    82BTZ    S6 3057   1.355   7.111   2.946 -0.1925  0.1125 -0.2206
    92RH    C54 3058   1.155   6.824   3.432 -0.0934 -0.1127 -0.1100
    92RH     S7 3059   1.115   6.648   3.467 -0.0031 -0.1025  0.0406
    92RH    C55 3060   1.133   6.906   3.554 -0.0808 -0.0281 -0.1644
    92RH     O2 3061   1.151   7.029   3.562 -0.1305 -0.0135 -0.2658
    92RH     N6 3062   1.089   6.827   3.662 -0.0038  0.0360 -0.0859
    92RH    C56 3063   1.073   6.691   3.642  0.0468  0.0130  0.0246
    92RH    C57 3064   1.025   6.889   3.781 -0.5538 -0.4336  0.3561
    92RH    C58 3065   1.099   6.930   3.906 -0.4544 -0.5439 -0.4201
    92RH     S8 3066   1.022   6.576   3.753  0.1409  0.0765  0.1339
    72IDQ   C59 3067   1.217   6.250   2.580  0.7324  0.0910 -0.2414
    72IDQ   C60 3068   1.137   6.122   2.546 -0.2302 -0.7251  0.3753
    72IDQ   C61 3069   0.984   6.147   2.549 -0.1678 -0.1237  0.5241
    72IDQ   C62 3070   0.925   6.185   2.686  0.2850 -0.0841  0.1455
    72IDQ   C63 3071   0.777   6.222   2.687 -0.4400  0.8694  0.0525
    72IDQ   C64 3072   0.731   6.269   2.822  0.4972  0.5434  0.2922
    72IDQ   C65 3073   0.580   6.289   2.809 -0.3284 -0.2380  0.3304
    72IDQ   C66 3074   1.586   6.242   2.832  0.8108  0.4782  0.0467
    72IDQ   C67 3075   1.718   6.229   2.900 -0.1238 -0.3188  0.1825
    72IDQ   C68 3076   1.724   6.222   3.048  0.5906  0.0371 -0.8705
    72IDQ   C69 3077   1.857   6.200   3.106 -0.2126 -0.2957 -0.4013
    72IDQ   C70 3078   1.864   6.234   3.252 -0.2124  0.1140  0.0036
    72IDQ   C71 3079   1.988   6.192   3.335  0.4948 -0.1809 -0.0367
    72IDQ   C72 3080   2.128   6.251   3.297 -0.2230 -0.0391 -0.6945
    11RH     C1 3081   1.804   0.611   3.697  0.0215 -0.0663 -0.1084
    11RH     C2 3082   1.852   0.707   3.596 -0.0011 -0.0421 -0.0961
    11RH     N1 3083   1.777   0.674   3.820  0.1333 -0.1105 -0.0617
    11RH     S1 3084   1.859   0.875   3.669  0.1260 -0.0791 -0.0239
    11RH     C3 3085   1.799   0.810   3.830  0.2030 -0.1248 -0.0135
    11RH     C4 3086   1.726   0.598   3.935  0.5967 -0.0991  0.2975
    11RH     S2 3087   1.775   0.909   3.965  0.3386 -0.1755  0.0477
    11RH     O1 3088   1.788   0.489   3.679 -0.0473 -0.0505 -0.1537
    11RH     C5 3089   1.884   0.673   3.470 -0.1005  0.0004 -0.1334
    21BTZ    C6 3090   1.926   0.741   3.352  0.1164  0.0686 -0.0775
    21BTZ    C7 3091   1.945   0.876   3.341  0.2074  0.0511 -0.1333
    21BTZ    C8 3092   1.953   0.658   3.238 -0.0727  0.0186 -0.0878
    21BTZ    C9 3093   1.993   0.937   3.219  0.1179 -0.0160 -0.2017
    21BTZ   C10 3094   2.021   0.862   3.108 -0.0625 -0.0655 -0.2142
    21BTZ   C11 3095   2.002   0.720   3.114 -0.1637 -0.0496 -0.1574
    21BTZ    N2 3096   1.938   0.526   3.236 -0.1759  0.0295 -0.0376
    21BTZ    N3 3097   2.025   0.636   3.012 -0.3399 -0.0935 -0.1630
    21BTZ    S3 3098   1.986   0.472   3.072 -0.3982 -0.0486 -0.0777
    31IDT   C12 3099   2.076   0.937   2.993  0.0196  0.0960 -0.0469
    31IDT   C13 3100   2.112   1.069   2.992  0.1519  0.0600 -0.0514
    31IDT   C14 3101   2.170   1.109   2.868  0.1920 -0.0012 -0.0532
    31IDT   C15 3102   2.178   1.009   2.774  0.0906 -0.0124 -0.0502
    31IDT    S4 3103   2.113   0.853   2.836 -0.0647  0.0544 -0.0447
    4IDB    C16 3104   2.228   1.058   2.647 -0.5545 -0.3397 -0.2161
    4IDB    C17 3105   2.260   1.196   2.661 -0.5475 -0.3535 -0.0902
    51IDQ   C18 3106   2.229   1.240   2.806  0.0092  0.5607 -1.0118
    4IDB    C19 3107   2.305   1.270   2.552 -0.1288 -0.3625  0.0701
    51IDQ   C20 3108   2.128   1.364   2.812 -0.5326 -0.7419  0.2693
    51IDQ   C21 3109   2.348   1.278   2.907 -0.1688 -0.3103 -0.1191
    51IDQ   C22 3110   2.491   1.250   2.861 -0.1720  0.0694  0.0389
    51IDQ   C23 3111   1.974   1.343   2.833 -0.3504  0.4176 -0.2988
    51IDQ   C24 3112   2.612   1.301   2.936  0.3499  0.3743 -0.5249
    51IDQ   C25 3113   2.617   1.253   3.088  0.9731 -0.5197  0.1385
    51IDQ   C26 3114   2.730   1.300   3.182  0.4575 -0.1454  0.2158
    51IDQ   C27 3115   2.770   1.445   3.163  0.0664  0.2338 -0.3566
    51IDQ   C28 3116   2.676   1.560   3.196 -0.7529 -0.0350  0.4005
    51IDQ   C29 3117   2.750   1.689   3.160  0.0135  0.2157 -0.0342
    51IDQ   C30 3118   1.905   1.284   2.714 -0.0354 -0.1138  0.0310
    51IDQ   C31 3119   1.761   1.253   2.751 -0.4469 -0.4296 -0.4321
    51IDQ   C32 3120   1.698   1.209   2.617  0.1472  0.1603  0.1777
    51IDQ   C33 3121   1.557   1.171   2.632  0.1928  0.4714 -0.5823
    51IDQ   C34 3122   1.483   1.090   2.523  0.4054  0.0851  0.2523
    51IDQ   C35 3123   1.342   1.052   2.558 -0.0941 -0.6596  0.2734
    4IDB    C36 3124   2.240   0.992   2.524 -0.1400 -0.3348 -0.1820
    4IDB    C37 3125   2.285   1.070   2.413  0.2846 -0.3442 -0.0176
    11RH    C38 3126   1.823   0.565   4.049 -0.0125 -0.6105 -0.0306
    4IDB    C39 3127   2.316   1.205   2.428  0.2857 -0.3577  0.1041
    62IDT   C40 3128   2.365   1.254   2.297 -0.4286  0.3374 -0.0939
    72IDQ   C41 3129   2.311   1.027   2.270 -0.5585  0.9140 -0.3401
    62IDT   C42 3130   2.363   1.150   2.205 -0.5758  0.4372 -0.2052
    72IDQ   C43 3131   2.180   0.976   2.206 -0.2327  0.3345  0.4280
    72IDQ   C44 3132   2.417   0.898   2.273  0.1214 -0.1685  0.0372
    62IDT    S5 3133   2.422   1.407   2.224  0.0868  0.2654  0.1489
    62IDT   C45 3134   2.442   1.320   2.066  0.0755  0.3797  0.0840
    62IDT   C46 3135   2.407   1.188   2.075 -0.2910  0.4613 -0.1048
    82BTZ   C47 3136   2.488   1.384   1.943  0.0595  0.0582 -0.0161
    82BTZ   C48 3137   2.527   1.301   1.841  0.1592 -0.0205  0.0854
    82BTZ   C49 3138   2.554   1.351   1.708  0.3523 -0.1131  0.0887
    82BTZ   C50 3139   2.542   1.484   1.678  0.4454 -0.1270 -0.0095
    82BTZ   C51 3140   2.474   1.524   1.916  0.1509  0.0473 -0.1213
    82BTZ   C52 3141   2.501   1.575   1.781  0.3471 -0.0468 -0.1179
    92RH    C53 3142   2.571   1.538   1.543 -0.0652  0.1350 -0.2677
    82BTZ    N4 3143   2.437   1.615   2.006  0.0687  0.1186 -0.2254
    82BTZ    N5 3144   2.486   1.707   1.763  0.4226 -0.0513 -0.2194
    82BTZ    S6 3145   2.435   1.773   1.922  0.2423  0.0671 -0.3257
    92RH    C54 3146   2.611   1.485   1.427 -0.1228  0.1405 -0.2904
    92RH     S7 3147   2.665   1.312   1.398 -0.0644  0.1616 -0.3087
    92RH    C55 3148   2.619   1.562   1.301 -0.2472  0.1298 -0.3044
    92RH     O2 3149   2.589   1.682   1.287 -0.3115  0.1149 -0.2971
    92RH     N6 3150   2.665   1.481   1.194 -0.2855  0.1388 -0.3277
    92RH    C56 3151   2.695   1.349   1.220 -0.2070  0.1553 -0.3340
    92RH    C57 3152   2.687   1.542   1.065 -0.6737  0.1751  0.1433
    92RH    C58 3153   2.584   1.533   0.956 -0.1397  0.7557 -0.0334
    92RH     S8 3154   2.751   1.233   1.112 -0.2303  0.1687 -0.3605
    72IDQ   C59 3155   2.560   0.921   2.312 -0.1528  0.2354  0.1254
    72IDQ   C60 3156   2.649   0.800   2.287  0.8648  0.1883  0.1125
    72IDQ   C61 3157   2.796   0.814   2.296  0.0193 -0.6050 -0.0462
    72IDQ   C62 3158   2.859   0.909   2.189 -0.0762  0.9220 -0.0478
    72IDQ   C63 3159   3.008   0.900   2.195 -0.1796 -0.3566  0.0599
    72IDQ   C64 3160   3.087   0.976   2.089  0.1028  0.5291  0.4412
    72IDQ   C65 3161   3.058   0.941   1.942 -0.5098 -0.0981 -0.2646
    72IDQ   C66 3162   2.158   0.854   2.123  0.5070  0.0869 -0.0442
    72IDQ   C67 3163   2.215   0.821   1.991  0.0021  0.0767  0.2026
    72IDQ   C68 3164   2.210   0.922   1.876  0.0770  0.1574  0.4650
    72IDQ   C69 3165   2.070   0.971   1.830 -0.1874  0.0746  0.0981
    72IDQ   C70 3166   1.982   0.898   1.732 -0.5621  0.1384  0.2375
    72IDQ   C71 3167   2.033   0.905   1.586  0.3875  0.2095 -0.7547
    72IDQ   C72 3168   1.932   0.873   1.494 -0.0016  0.5379  0.2575
    11RH     C1 3169   1.589   1.498   5.397 -0.1995 -0.0520 -0.0948
    11RH     C2 3170   1.632   1.413   5.283 -0.1473 -0.1768  0.0169
    11RH     N1 3171   1.548   1.419   5.507 -0.2312  0.0681 -0.0197
    11RH     S1 3172   1.617   1.236   5.328 -0.1432 -0.1283  0.2129
    11RH     C3 3173   1.554   1.282   5.495 -0.2107  0.0546  0.1380
    11RH     C4 3174   1.469   1.483   5.612 -0.7299  0.6348  0.0178
    11RH     S2 3175   1.512   1.166   5.610 -0.2401  0.1803  0.2543
    11RH     O1 3176   1.587   1.622   5.399 -0.2146 -0.0500 -0.2364
    11RH     C5 3177   1.676   1.463   5.167 -0.1098 -0.3039 -0.0242
    21BTZ    C6 3178   1.718   1.404   5.042 -0.1052  0.0950 -0.1351
    21BTZ    C7 3179   1.732   1.270   5.017  0.0286  0.0956 -0.0681
    21BTZ    C8 3180   1.755   1.498   4.940 -0.1201  0.0827 -0.1516
    21BTZ    C9 3181   1.782   1.222   4.890  0.1537  0.0843 -0.0147
    21BTZ   C10 3182   1.818   1.308   4.790  0.1448  0.0724 -0.0281
    21BTZ   C11 3183   1.806   1.449   4.812  0.0070  0.0712 -0.0973
    21BTZ    N2 3184   1.746   1.631   4.954 -0.2447  0.0808 -0.2149
    21BTZ    N3 3185   1.837   1.543   4.722 -0.0153  0.0601 -0.1169
    21BTZ    S3 3186   1.803   1.700   4.799 -0.2038  0.0639 -0.2073
    31IDT   C12 3187   1.878   1.244   4.665  0.4314 -0.3176 -0.1805
    31IDT   C13 3188   1.909   1.111   4.651  0.6813 -0.2282 -0.4971
    31IDT   C14 3189   1.965   1.080   4.523  0.4439  0.1246 -0.6890
    31IDT   C15 3190   1.977   1.189   4.439  0.0127  0.3062 -0.5209
    31IDT    S4 3191   1.917   1.340   4.516 -0.1277  0.0419 -0.1020
    4IDB    C16 3192   2.029   1.140   4.314  0.4333 -0.5845  0.3183
    4IDB    C17 3193   2.062   1.001   4.319 -0.1293 -0.7355  0.0563
    51IDQ   C18 3194   2.030   0.954   4.461  0.0310 -0.2766  0.2605
    4IDB    C19 3195   2.110   0.935   4.207 -0.1169 -0.6441  0.0075
    51IDQ   C20 3196   1.941   0.829   4.440  0.6173  0.3868  0.5968
    51IDQ   C21 3197   2.153   0.918   4.556  0.2379 -0.2117 -0.0044
    51IDQ   C22 3198   2.292   0.980   4.527  0.2001 -0.5300 -1.2951
    51IDQ   C23 3199   1.792   0.838   4.447  0.7216  0.1460 -0.2541
    51IDQ   C24 3200   2.410   0.944   4.629  0.4147 -0.0711  0.0969
    51IDQ   C25 3201   2.413   0.808   4.706  0.2549 -0.0629 -0.2457
    51IDQ   C26 3202   2.451   0.687   4.623  0.6870  0.2003  0.0801
    51IDQ   C27 3203   2.462   0.554   4.694  0.3119  0.4494  0.0613
    51IDQ   C28 3204   2.363   0.491   4.802  0.5814  0.7372  0.5182
    51IDQ   C29 3205   2.218   0.498   4.765 -0.0734 -0.0810 -0.1046
    51IDQ   C30 3206   1.725   0.899   4.327  0.2727 -0.9696 -0.0371
    51IDQ   C31 3207   1.570   0.904   4.333 -0.4242  0.2208 -0.1854
    51IDQ   C32 3208   1.516   0.973   4.209 -0.4942  0.1425 -0.4078
    51IDQ   C33 3209   1.368   0.961   4.189 -0.0403  0.1942 -0.7926
    51IDQ   C34 3210   1.281   1.025   4.298  0.3894 -0.0053 -0.6485
    51IDQ   C35 3211   1.128   1.013   4.269 -0.6212  0.4155  0.1374
    4IDB    C36 3212   2.043   1.213   4.196  1.0152 -0.3396  0.5345
    4IDB    C37 3213   2.093   1.144   4.082  1.0188 -0.2493  0.4809
    11RH    C38 3214   1.562   1.538   5.726  0.1473  0.1901  0.1417
    4IDB    C39 3215   2.125   1.008   4.088  0.4649 -0.3992  0.2235
    62IDT   C40 3216   2.171   0.965   3.955 -0.4824  0.1115 -0.3222
    72IDQ   C41 3217   2.120   1.199   3.937  0.5574  0.2136 -0.3738
    62IDT   C42 3218   2.167   1.069   3.865 -0.6551  0.0179 -0.4230
    72IDQ   C43 3219   1.991   1.265   3.870 -0.3489  0.4970 -0.4146
    72IDQ   C44 3220   2.220   1.319   3.955  0.1322  0.5465 -0.2457
    62IDT    S5 3221   2.229   0.812   3.879  0.2081  0.2381 -0.0694
    62IDT   C45 3222   2.244   0.902   3.721  0.2281  0.1537 -0.1157
    62IDT   C46 3223   2.208   1.034   3.732 -0.2537  0.0417 -0.3063
    82BTZ   C47 3224   2.264   0.821   3.601  0.0745 -0.1420 -0.0212
    82BTZ   C48 3225   2.324   0.888   3.497  0.0274 -0.1187 -0.0334
    82BTZ   C49 3226   2.349   0.825   3.370 -0.0893 -0.0706 -0.0802
    82BTZ   C50 3227   2.313   0.694   3.346 -0.1588 -0.0457 -0.1147
    82BTZ   C51 3228   2.226   0.684   3.581  0.0052 -0.1174 -0.0563
    82BTZ   C52 3229   2.251   0.620   3.451 -0.1134 -0.0685 -0.1038
    92RH    C53 3230   2.334   0.630   3.219 -0.1985 -0.1703 -0.3751
    82BTZ    N4 3231   2.167   0.609   3.674  0.0413 -0.1363 -0.0487
    82BTZ    N5 3232   2.212   0.493   3.441 -0.1726 -0.0480 -0.1344
    82BTZ    S6 3233   2.140   0.449   3.599 -0.0772 -0.0913 -0.1032
    92RH    C54 3234   2.386   0.672   3.103 -0.1258 -0.0404 -0.2961
    92RH     S7 3235   2.442   0.842   3.063  0.0934 -0.0407 -0.0007
    92RH    C55 3236   2.407   0.583   2.986 -0.2155  0.1292 -0.4415
    92RH     O2 3237   2.379   0.462   2.982 -0.3654  0.1706 -0.6495
    92RH     N6 3238   2.463   0.654   2.878 -0.1085  0.2419 -0.3137
    92RH    C56 3239   2.490   0.788   2.894  0.0558  0.1832 -0.0836
    92RH    C57 3240   2.499   0.579   2.761 -0.4377  0.2006  0.0653
    92RH    C58 3241   2.406   0.580   2.641  0.4830 -0.7161  0.8347
    92RH     S8 3242   2.557   0.894   2.781  0.2080  0.2908  0.1056
    72IDQ   C59 3243   2.368   1.277   3.947  0.4934  0.1692  0.5791
    72IDQ   C60 3244   2.446   1.397   3.901  0.5300 -0.1910 -0.4999
    72IDQ   C61 3245   2.598   1.382   3.903  0.0302  0.8982 -0.4086
    72IDQ   C62 3246   2.655   1.274   3.796 -0.1244 -0.0767 -0.9017
    72IDQ   C63 3247   2.806   1.252   3.802  0.6368  0.1878 -0.6767
    72IDQ   C64 3248   2.866   1.146   3.711 -0.4634  0.0150  0.0300
    72IDQ   C65 3249   3.015   1.131   3.720 -0.3909 -0.4272 -0.5581
    72IDQ   C66 3250   1.995   1.283   3.723  1.1324 -0.1274  0.9253
    72IDQ   C67 3251   1.857   1.307   3.678 -0.4895 -0.0022 -0.0899
    72IDQ   C68 3252   1.837   1.304   3.524  0.3889 -0.2088  0.4659
    72IDQ   C69 3253   1.687   1.312   3.479  0.0957 -0.8437  1.0131
    72IDQ   C70 3254   1.674   1.321   3.327 -0.4255  0.2011 -0.4147
    72IDQ   C71 3255   1.537   1.371   3.297 -0.0545  0.1181 -0.1750
    72IDQ   C72 3256   1.505   1.371   3.152  0.2577 -0.0158  0.3390
    11RH     C1 3257   1.765   0.774   2.773 -0.1899  0.0107  0.1515
    11RH     C2 3258   1.721   0.685   2.883 -0.0739  0.0248  0.2093
    11RH     N1 3259   1.804   0.700   2.659 -0.4002 -0.0008  0.0849
    11RH     S1 3260   1.735   0.510   2.830 -0.2489  0.0219  0.1722
    11RH     C3 3261   1.798   0.563   2.665 -0.4669  0.0023  0.0822
    11RH     C4 3262   1.868   0.770   2.544 -0.6155 -0.5981  0.2194
    11RH     S2 3263   1.838   0.453   2.544 -0.7076 -0.0093  0.0101
    11RH     O1 3264   1.767   0.898   2.777 -0.1157  0.0090  0.1591
    11RH     C5 3265   1.679   0.730   3.002  0.1281  0.0374  0.2775
    21BTZ    C6 3266   1.625   0.675   3.128 -0.2262 -0.0651  0.0791
    21BTZ    C7 3267   1.610   0.539   3.143 -0.3116 -0.0503  0.1250
    21BTZ    C8 3268   1.593   0.760   3.239 -0.0710 -0.0147  0.0857
    21BTZ    C9 3269   1.562   0.482   3.267 -0.2495  0.0143  0.1793
    21BTZ   C10 3270   1.530   0.560   3.375 -0.1020  0.0640  0.1877
    21BTZ   C11 3271   1.545   0.702   3.364 -0.0078  0.0509  0.1408
    21BTZ    N2 3272   1.604   0.894   3.236  0.0235 -0.0231  0.0442
    21BTZ    N3 3273   1.517   0.788   3.463  0.1374  0.0953  0.1438
    21BTZ    S3 3274   1.552   0.951   3.398  0.2010  0.0542  0.0745
    31IDT   C12 3275   1.495   0.494   3.506 -0.1494  0.1782  0.0572
    31IDT   C13 3276   1.488   0.358   3.521  0.1788  0.1713  0.1467
    31IDT   C14 3277   1.436   0.319   3.648  0.5697  0.1251  0.2962
    31IDT   C15 3278   1.402   0.425   3.730  0.5423  0.0966  0.3217
    31IDT    S4 3279   1.434   0.583   3.652  0.0144  0.1262  0.1568
    4IDB    C16 3280   1.363   0.377   3.861  0.1397 -0.2980  0.0035
    4IDB    C17 3281   1.349   0.235   3.854 -0.2949 -0.2603  0.0315
    51IDQ   C18 3282   1.395   0.181   3.721  0.1913 -0.1252  0.8469
    4IDB    C19 3283   1.311   0.162   3.966 -0.3821 -0.1352  0.0838
    51IDQ   C20 3284   1.511   0.071   3.751 -0.1030 -0.1477 -0.2840
    51IDQ   C21 3285   1.287   0.112   3.622 -0.1336 -0.2080 -0.2213
    51IDQ   C22 3286   1.136   0.124   3.655 -0.1861  0.0814 -0.3890
    51IDQ   C23 3287   1.661   0.106   3.730  0.0638 -0.0970 -0.1278
    51IDQ   C24 3288   1.053   0.119   3.528  0.0092  0.2799 -0.0798
    51IDQ   C25 3289   0.899   0.136   3.539  0.1471 -0.4962  0.8494
    51IDQ   C26 3290   0.821   0.022   3.596  0.6650 -0.4874 -0.4141
    51IDQ   C27 3291   0.845  -0.122   3.559 -0.2207  0.7414  0.2197
    51IDQ   C28 3292   0.812  -0.154   3.412 -0.4756 -0.4604  0.4578
    51IDQ   C29 3293   0.841  -0.298   3.373  0.4777 -0.3502 -0.0696
    51IDQ   C30 3294   1.716   0.194   3.842  0.6991 -0.9552 -0.9211
    51IDQ   C31 3295   1.864   0.200   3.837 -0.1810 -0.4143 -0.0578
    51IDQ   C32 3296   1.927   0.187   3.973 -0.2426  0.0374  0.0416
    51IDQ   C33 3297   2.076   0.193   3.969 -1.0687  0.6267  0.0613
    51IDQ   C34 3298   2.141   0.318   3.905  0.1395  0.7515 -0.0526
    51IDQ   C35 3299   2.281   0.349   3.956  0.1661 -0.1929  0.3394
    4IDB    C36 3300   1.338   0.447   3.980  0.4916 -0.2101  0.0279
    4IDB    C37 3301   1.299   0.370   4.093  0.3962 -0.0826  0.0814
    11RH    C38 3302   1.790   0.803   2.422  0.5826 -0.0932  0.5321
    4IDB    C39 3303   1.286   0.232   4.085 -0.0301 -0.0472  0.1082
    62IDT   C40 3304   1.243   0.186   4.214  0.0681  0.3783  0.4303
    72IDQ   C41 3305   1.266   0.420   4.235 -0.6591 -0.3480 -0.0749
    62IDT   C42 3306   1.239   0.289   4.306 -0.3581  0.1349  0.6926
    72IDQ   C43 3307   1.397   0.496   4.292  0.0916  1.1256  0.4116
    72IDQ   C44 3308   1.140   0.516   4.237 -0.2649  0.1294 -0.1894
    62IDT    S5 3309   1.200   0.028   4.289  0.2910  0.0777 -0.0632
    62IDT   C45 3310   1.177   0.115   4.448 -0.2292 -0.3837  0.1202
    62IDT   C46 3311   1.201   0.249   4.438 -0.5268 -0.2962  0.5178
    82BTZ   C47 3312   1.142   0.046   4.572  0.0778 -0.2201 -0.2312
    82BTZ   C48 3313   1.102   0.125   4.677  0.2640 -0.1470 -0.2128
    82BTZ   C49 3314   1.067   0.068   4.805  0.3807 -0.0689 -0.1462
    82BTZ   C50 3315   1.073  -0.067   4.828  0.3111 -0.0640 -0.0983
    82BTZ   C51 3316   1.150  -0.095   4.591 -0.0017 -0.2182 -0.1829
    82BTZ   C52 3317   1.115  -0.153   4.721  0.1170 -0.1388 -0.1153
    92RH    C53 3318   1.036  -0.128   4.957  0.4790  0.2317  0.1368
    82BTZ    N4 3319   1.189  -0.182   4.497 -0.1810 -0.2853 -0.1951
    82BTZ    N5 3320   1.125  -0.286   4.732  0.0331 -0.1420 -0.0731
    82BTZ    S6 3321   1.181  -0.344   4.572 -0.2062 -0.2489 -0.1188
    92RH    C54 3322   0.987  -0.072   5.069  0.3184  0.1509  0.1082
    92RH     S7 3323   0.955   0.106   5.097 -0.0608  0.0906  0.0667
    92RH    C55 3324   0.952  -0.149   5.190  0.4279  0.0967  0.1061
    92RH     O2 3325   0.962  -0.273   5.203  0.6762  0.1187  0.1297
    92RH     N6 3326   0.903  -0.065   5.293  0.2125  0.0146  0.0730
    92RH    C56 3327   0.896   0.070   5.268 -0.0563 -0.0035  0.0483
    92RH    C57 3328   0.891  -0.129   5.430 -0.0696 -0.5474 -0.6397
    92RH    C58 3329   1.029  -0.130   5.502  0.9130  0.2179 -0.5267
    92RH     S8 3330   0.842   0.191   5.373 -0.3483 -0.0957  0.0074
    72IDQ   C59 3331   0.997   0.475   4.218  0.0657  0.2718  0.0884
    72IDQ   C60 3332   0.898   0.585   4.242  0.0645  0.1359 -0.7368
    72IDQ   C61 3333   0.748   0.559   4.264  0.3980  0.2579  0.0009
    72IDQ   C62 3334   0.700   0.455   4.361 -0.1432  0.4938  0.1361
    72IDQ   C63 3335   0.552   0.432   4.327 -0.3657 -0.0856 -0.8915
    72IDQ   C64 3336   0.483   0.383   4.452  0.0868  0.5534 -0.2820
    72IDQ   C65 3337   0.454   0.476   4.565  0.0705 -0.5277  0.3675
    72IDQ   C66 3338   1.410   0.524   4.446  0.5751  0.1026  0.0587
    72IDQ   C67 3339   1.552   0.541   4.501  0.9079 -0.7660 -0.8771
    72IDQ   C68 3340   1.572   0.501   4.650 -0.4942  0.0367 -0.0371
    72IDQ   C69 3341   1.704   0.563   4.705 -0.2862  0.1097 -0.2616
    72IDQ   C70 3342   1.739   0.517   4.850  0.2724 -0.6418  0.5377
    72IDQ   C71 3343   1.628   0.553   4.951 -0.2263  0.1971  0.1666
    72IDQ   C72 3344   1.659   0.478   5.076  0.2021 -0.0394 -0.3095
    11RH     C1 3345   1.560   5.982   4.433 -0.1167 -0.1527 -0.5475
    11RH     C2 3346   1.526   6.065   4.551  0.0630 -0.3170 -0.3787
    11RH     N1 3347   1.602   6.061   4.324 -0.0574 -0.0156 -0.4258
    11RH     S1 3348   1.553   6.242   4.511  0.2984 -0.2804 -0.0708
    11RH     C3 3349   1.607   6.197   4.340  0.1479 -0.0499 -0.1800
    11RH     C4 3350   1.651   5.987   4.204 -0.1490 -0.1083 -1.1617
    11RH     S2 3351   1.653   6.313   4.227  0.2581  0.0893  0.0062
    11RH     O1 3352   1.552   5.858   4.428 -0.2979 -0.1345 -0.7687
    11RH     C5 3353   1.484   6.015   4.668  0.0491 -0.4666 -0.4479
    21BTZ    C6 3354   1.440   6.080   4.791  0.3332 -0.3341 -0.0366
    21BTZ    C7 3355   1.431   6.216   4.803  0.4240 -0.3148 -0.1857
    21BTZ    C8 3356   1.407   5.999   4.904  0.2659 -0.1886  0.0482
    21BTZ    C9 3357   1.388   6.279   4.925  0.4531 -0.1526 -0.2583
    21BTZ   C10 3358   1.355   6.206   5.036  0.3914 -0.0100 -0.1817
    21BTZ   C11 3359   1.363   6.063   5.029  0.2955 -0.0238 -0.0255
    21BTZ    N2 3360   1.412   5.865   4.905  0.1756 -0.1913  0.1938
    21BTZ    N3 3361   1.334   5.981   5.130  0.2289  0.1060  0.0609
    21BTZ    S3 3362   1.360   5.815   5.069  0.1233  0.0211  0.2440
    31IDT   C12 3363   1.314   6.281   5.164  0.1828 -0.0352 -0.0817
    31IDT   C13 3364   1.299   6.416   5.176  0.2350 -0.0069 -0.3158
    31IDT   C14 3365   1.245   6.455   5.303  0.1590  0.2263 -0.4184
    31IDT   C15 3366   1.219   6.349   5.387  0.0485  0.3770 -0.2632
    31IDT    S4 3367   1.260   6.191   5.312  0.0321  0.2339  0.0271
    4IDB    C16 3368   1.166   6.398   5.517  0.0049 -0.0602  0.0266
    4IDB    C17 3369   1.141   6.538   5.504  0.1267 -0.0363  0.0424
    51IDQ   C18 3370   1.187   6.587   5.366  0.1776  0.4392 -0.2816
    4IDB    C19 3371   1.093   6.611   5.612  0.1212 -0.0222  0.0303
    51IDQ   C20 3372   1.280   6.708   5.390  0.1443  0.1891 -0.0147
    51IDQ   C21 3373   1.082   6.644   5.274  0.8376 -0.1816  0.2416
    51IDQ   C22 3374   0.926   6.635   5.290  0.3739  0.1963 -0.4680
    51IDQ   C23 3375   1.429   6.704   5.358 -0.0836 -0.1401  0.2626
    51IDQ   C24 3376   0.862   6.707   5.171 -0.1192 -0.3822  0.5877
    51IDQ   C25 3377   0.711   6.702   5.167  0.6624 -0.1895  0.4212
    51IDQ   C26 3378   0.637   6.738   5.034  0.4552  0.0562  0.0154
    51IDQ   C27 3379   0.645   6.892   4.989  0.0807  0.6097 -0.5970
    51IDQ   C28 3380   0.546   6.946   4.892  0.3114  0.1388 -0.5006
    51IDQ   C29 3381   0.402   6.887   4.887  0.2780 -0.3453  0.0322
    51IDQ   C30 3382   1.507   6.642   5.470 -0.1947  0.7046 -0.2510
    51IDQ   C31 3383   1.658   6.644   5.460  0.2122  0.5115  0.1080
    51IDQ   C32 3384   1.726   6.569   5.579  0.6161 -0.1372 -0.0468
    51IDQ   C33 3385   1.878   6.551   5.557  0.1006 -0.6133  0.4081
    51IDQ   C34 3386   1.941   6.440   5.640  0.0824 -0.1109 -0.4588
    51IDQ   C35 3387   2.090   6.424   5.612 -0.2204  0.3538 -0.5308
    4IDB    C36 3388   1.145   6.330   5.638 -0.1237 -0.0702 -0.0015
    4IDB    C37 3389   1.096   6.408   5.747 -0.1273 -0.0555 -0.0136
    11RH    C38 3390   1.540   5.954   4.112 -0.2101 -0.1976 -0.4475
    4IDB    C39 3391   1.072   6.544   5.733 -0.0075 -0.0322  0.0021
    62IDT   C40 3392   1.029   6.599   5.855  0.4968  0.3673 -0.1155
    72IDQ   C41 3393   1.064   6.359   5.891 -0.3324 -0.5478 -0.0788
    62IDT   C42 3394   1.028   6.497   5.947  0.7665  0.1338 -0.3698
    72IDQ   C43 3395   1.201   6.295   5.953  0.3434 -0.3054  0.6072
    72IDQ   C44 3396   0.949   6.253   5.882  0.0110  0.0146  0.2405
    62IDT    S5 3397   0.962   6.751   5.923 -0.1089 -0.0331  0.1981
    62IDT   C45 3398   0.935   6.664   6.081  0.0419 -0.5188 -0.0429
    62IDT   C46 3399   0.975   6.533   6.075  0.5097 -0.3675 -0.3290
    82BTZ   C47 3400   0.882   6.739   6.198 -0.0168 -0.1001 -0.1239
    82BTZ   C48 3401   0.833   6.661   6.299  0.0120 -0.1593 -0.1554
    82BTZ   C49 3402   0.790   6.718   6.425 -0.0110 -0.2258 -0.1332
    82BTZ   C50 3403   0.795   6.853   6.448 -0.0627 -0.2330 -0.0794
    82BTZ   C51 3404   0.890   6.881   6.218 -0.0711 -0.1050 -0.0674
    82BTZ   C52 3405   0.846   6.939   6.345 -0.0944 -0.1726 -0.0447
    92RH    C53 3406   0.770   6.907   6.585  0.1349  0.5081  0.3443
    82BTZ    N4 3407   0.936   6.968   6.127 -0.1031 -0.0511 -0.0324
    82BTZ    N5 3408   0.857   7.072   6.357 -0.1452 -0.1730  0.0085
    82BTZ    S6 3409   0.925   7.130   6.202 -0.1658 -0.0852  0.0323
    92RH    C54 3410   0.742   6.853   6.704  0.2061  0.2430  0.2416
    92RH     S7 3411   0.710   6.676   6.739  0.1879  0.1690 -0.1402
    92RH    C55 3412   0.733   6.931   6.830  0.3143 -0.0404  0.4289
    92RH     O2 3413   0.749   7.054   6.839  0.3513 -0.0660  0.6976
    92RH     N6 3414   0.702   6.849   6.940  0.3724 -0.2853  0.2632
    92RH    C56 3415   0.686   6.714   6.918  0.3240 -0.2327 -0.0340
    92RH    C57 3416   0.685   6.906   7.074 -0.0496 -0.1966 -0.1729
    92RH    C58 3417   0.810   6.887   7.163  0.3251 -0.2792  0.4569
    92RH     S8 3418   0.649   6.595   7.031  0.3754 -0.4835 -0.2791
    72IDQ   C59 3419   0.803   6.293   5.874  0.3978 -0.2098 -0.0191
    72IDQ   C60 3420   0.708   6.186   5.823 -0.6852 -0.1962  0.4363
    72IDQ   C61 3421   0.557   6.207   5.815  0.0081 -0.2286 -0.2624
    72IDQ   C62 3422   0.494   6.250   5.951 -0.0450 -0.2790 -0.0587
    72IDQ   C63 3423   0.341   6.256   5.942 -0.2151  0.0493 -0.2345
    72IDQ   C64 3424   0.270   6.297   6.061  0.1783 -0.2083 -0.1129
    72IDQ   C65 3425   0.137   6.357   6.020 -0.0365 -0.3546 -0.5001
    72IDQ   C66 3426   1.211   6.222   6.082 -0.4057  0.1769  0.3577
    72IDQ   C67 3427   1.160   6.296   6.202  0.2913 -0.1850  0.1387
    72IDQ   C68 3428   1.221   6.251   6.333 -0.0259  0.4494 -0.3818
    72IDQ   C69 3429   1.376   6.237   6.351 -0.1633 -0.6040  0.3060
    72IDQ   C70 3430   1.453   6.202   6.475  0.1944 -0.0658 -0.7559
    72IDQ   C71 3431   1.394   6.262   6.601  0.1773  0.2055 -0.0056
    72IDQ   C72 3432   1.500   6.285   6.702 -0.0293 -0.6204 -0.2951
    11RH     C1 3433   2.280   0.637   0.425 -0.0783 -0.2440 -0.1861
    11RH     C2 3434   2.304   0.725   0.308  0.0633 -0.1286 -0.0705
    11RH     N1 3435   2.239   0.711   0.538 -0.0701 -0.3393 -0.1205
    11RH     S1 3436   2.272   0.900   0.355  0.1978 -0.1529  0.1169
    11RH     C3 3437   2.228   0.848   0.526  0.0606 -0.3144  0.0335
    11RH     C4 3438   2.223   0.632   0.667 -0.4122 -0.1906  0.3760
    11RH     S2 3439   2.182   0.958   0.645  0.0990 -0.4110  0.1387
    11RH     O1 3440   2.293   0.513   0.426 -0.1913 -0.2577 -0.3237
    11RH     C5 3441   2.344   0.680   0.188  0.0850 -0.0243 -0.1027
    21BTZ    C6 3442   2.381   0.742   0.063 -0.0701  0.0979  0.1631
    21BTZ    C7 3443   2.375   0.877   0.039 -0.1096  0.0870  0.1131
    21BTZ    C8 3444   2.432   0.656  -0.039 -0.0778  0.0708  0.1823
    21BTZ    C9 3445   2.418   0.933  -0.087 -0.1583  0.0490  0.0796
    21BTZ   C10 3446   2.467   0.854  -0.188 -0.1673  0.0220  0.0960
    21BTZ   C11 3447   2.475   0.713  -0.167 -0.1272  0.0321  0.1482
    21BTZ    N2 3448   2.443   0.523  -0.027 -0.0423  0.0781  0.2303
    21BTZ    N3 3449   2.521   0.626  -0.257 -0.1314  0.0084  0.1688
    21BTZ    S3 3450   2.511   0.464  -0.182 -0.0711  0.0350  0.2337
    31IDT   C12 3451   2.513   0.925  -0.311 -0.3903 -0.0684 -0.0640
    31IDT   C13 3452   2.548   1.057  -0.318 -0.4300 -0.0528  0.0302
    31IDT   C14 3453   2.601   1.094  -0.445 -0.3053  0.0201  0.1026
    31IDT   C15 3454   2.606   0.990  -0.536 -0.1701  0.0606  0.0645
    31IDT    S4 3455   2.544   0.837  -0.467 -0.1905  0.0089 -0.0676
    4IDB    C16 3456   2.663   1.039  -0.661 -0.1119  0.4193  0.2000
    4IDB    C17 3457   2.694   1.178  -0.651 -0.4580  0.5324 -0.2245
    51IDQ   C18 3458   2.652   1.225  -0.508 -0.5062  0.3086 -0.7211
    4IDB    C19 3459   2.750   1.247  -0.758 -0.2131  0.2362 -0.2903
    51IDQ   C20 3460   2.549   1.346  -0.504 -0.0239  0.2167 -0.4125
    51IDQ   C21 3461   2.781   1.275  -0.418  0.2162 -0.0538  0.4213
    51IDQ   C22 3462   2.927   1.264  -0.464  0.0816 -0.0163 -0.4364
    51IDQ   C23 3463   2.397   1.341  -0.470 -0.1016 -0.2700  0.0613
    51IDQ   C24 3464   3.009   1.310  -0.349  0.2138 -0.7335 -0.1259
    51IDQ   C25 3465   3.135   1.382  -0.384 -0.7630  0.1590  0.1633
    51IDQ   C26 3466   3.199   1.438  -0.255 -0.1603  0.0157  0.1361
    51IDQ   C27 3467   3.113   1.556  -0.205 -0.1014 -0.0924  0.0408
    51IDQ   C28 3468   3.180   1.626  -0.086 -0.0022  0.2419  0.0649
    51IDQ   C29 3469   3.097   1.743  -0.034 -0.5980 -0.0392 -0.3778
    51IDQ   C30 3470   2.323   1.246  -0.561 -0.1581  0.1155  0.0652
    51IDQ   C31 3471   2.171   1.276  -0.564  0.4955 -0.4970  0.3723
    51IDQ   C32 3472   2.094   1.179  -0.655  0.1667  0.2112 -0.9292
    51IDQ   C33 3473   1.951   1.222  -0.677 -0.9367 -0.2646  0.1261
    51IDQ   C34 3474   1.867   1.105  -0.714 -0.1338 -0.2882 -0.3350
    51IDQ   C35 3475   1.716   1.128  -0.722 -0.1968  0.1712 -0.2396
    4IDB    C36 3476   2.688   0.968  -0.780  0.4850  0.0065  0.5630
    4IDB    C37 3477   2.745   1.040  -0.888  0.7278 -0.2920  0.4895
    11RH    C38 3478   2.353   0.624   0.742  0.5542  0.5438  0.0360
    4IDB    C39 3479   2.775   1.176  -0.876  0.3838 -0.1766  0.0727
    62IDT   C40 3480   2.815   1.227  -1.002 -0.3425 -0.0329  0.2416
    72IDQ   C41 3481   2.776   0.993  -1.033 -0.4832  0.1817 -0.0450
    62IDT   C42 3482   2.814   1.126  -1.096  0.1487 -0.3865  0.6098
    72IDQ   C43 3483   2.646   0.934  -1.087 -0.7452 -0.0721  0.6896
    72IDQ   C44 3484   2.887   0.880  -1.020  0.2600  0.8002 -0.3072
    62IDT    S5 3485   2.874   1.382  -1.071 -0.2184 -0.2286 -0.0960
    62IDT   C45 3486   2.896   1.297  -1.231  0.5275 -0.8062  0.2977
    62IDT   C46 3487   2.860   1.165  -1.225  0.6413 -0.8242  0.6419
    82BTZ   C47 3488   2.941   1.374  -1.354  0.1012 -0.0387  0.1016
    82BTZ   C48 3489   2.974   1.299  -1.464 -0.0270 -0.0496  0.0699
    82BTZ   C49 3490   2.998   1.359  -1.593 -0.1736 -0.0621  0.0367
    82BTZ   C50 3491   2.988   1.494  -1.612 -0.1918 -0.0636  0.0357
    82BTZ   C51 3492   2.929   1.516  -1.369  0.0880 -0.0398  0.1018
    82BTZ   C52 3493   2.953   1.577  -1.500 -0.0610 -0.0524  0.0682
    92RH    C53 3494   3.018   1.552  -1.743 -0.2361  0.0311 -0.0820
    82BTZ    N4 3495   2.898   1.600  -1.270  0.2046 -0.0297  0.1310
    82BTZ    N5 3496   2.941   1.710  -1.507 -0.0643 -0.0526  0.0706
    82BTZ    S6 3497   2.897   1.764  -1.342  0.1270 -0.0362  0.1165
    92RH    C54 3498   3.069   1.507  -1.858 -0.0133 -0.0000  0.0274
    92RH     S7 3499   3.121   1.335  -1.895  0.1463  0.0102  0.2051
    92RH    C55 3500   3.090   1.593  -1.977  0.1426 -0.0490  0.0206
    92RH     O2 3501   3.065   1.714  -1.984  0.0872 -0.0669 -0.0850
    92RH     N6 3502   3.145   1.519  -2.084  0.3679 -0.0739  0.1510
    92RH    C56 3503   3.170   1.385  -2.066  0.4114 -0.0508  0.2618
    92RH    C57 3504   3.147   1.578  -2.217  0.4198  0.0573 -0.1514
    92RH    C58 3505   3.012   1.570  -2.290  0.1855 -0.0827  0.2114
    92RH     S8 3506   3.234   1.275  -2.176  0.6629 -0.0722  0.4269
    72IDQ   C59 3507   3.028   0.928  -0.993  0.0246  0.0590 -0.4099
    72IDQ   C60 3508   3.136   0.829  -0.962  0.4131  0.5101 -0.0272
    72IDQ   C61 3509   3.278   0.876  -0.937 -0.4549 -0.3744 -0.0246
    72IDQ   C62 3510   3.341   0.927  -1.060  0.3464 -0.6311  0.3438
    72IDQ   C63 3511   3.484   0.974  -1.049  0.1443 -1.1214 -0.0437
    72IDQ   C64 3512   3.541   1.027  -1.186  0.1772 -0.0178  0.1902
    72IDQ   C65 3513   3.675   1.096  -1.174 -0.2436  0.7066  0.1344
    72IDQ   C66 3514   2.641   0.911  -1.242  0.8591  0.2197  0.1063
    72IDQ   C67 3515   2.501   0.891  -1.312 -0.0104  0.6489  0.2841
    72IDQ   C68 3516   2.512   0.902  -1.465 -0.5834 -0.4420 -0.4201
    72IDQ   C69 3517   2.381   0.869  -1.530 -0.6671 -0.5566  0.0781
    72IDQ   C70 3518   2.371   0.925  -1.674  0.2489 -0.6972 -0.2923
    72IDQ   C71 3519   2.251   0.865  -1.758  0.1776 -0.2374 -0.4737
    72IDQ   C72 3520   2.254   0.910  -1.903 -0.0560  0.5342  0.2069
    11RH     C1 3521   2.031   3.057   2.078 -0.2893  0.3294 -0.3536
    11RH     C2 3522   2.069   2.969   1.964 -0.1459  0.3088 -0.2890
    11RH     N1 3523   1.990   2.981   2.190  0.0020  0.3427 -0.2388
    11RH     S1 3524   2.051   2.793   2.013  0.3626  0.3083 -0.0815
    11RH     C3 3525   1.992   2.844   2.180  0.3613  0.3353 -0.0900
    11RH     C4 3526   1.928   3.053   2.305 -0.1630  0.5367 -0.0766
    11RH     S2 3527   1.950   2.731   2.299  0.7552  0.3480  0.0669
    11RH     O1 3528   2.032   3.181   2.077 -0.6214  0.3347 -0.4907
    11RH     C5 3529   2.111   3.016   1.846 -0.3640  0.2933 -0.3734
    21BTZ    C6 3530   2.153   2.946   1.722 -0.2610 -0.0428  0.0552
    21BTZ    C7 3531   2.154   2.811   1.697 -0.2791 -0.0300 -0.0126
    21BTZ    C8 3532   2.194   3.036   1.619 -0.1036 -0.0044  0.1492
    21BTZ    C9 3533   2.194   2.758   1.569 -0.1445  0.0208  0.0084
    21BTZ   C10 3534   2.234   2.840   1.466  0.0081  0.0588  0.0972
    21BTZ   C11 3535   2.235   2.982   1.488  0.0333  0.0473  0.1705
    21BTZ    N2 3536   2.198   3.169   1.631 -0.0707 -0.0122  0.2212
    21BTZ    N3 3537   2.271   3.072   1.396  0.1761  0.0809  0.2597
    21BTZ    S3 3538   2.255   3.232   1.474  0.1410  0.0474  0.3214
    31IDT   C12 3539   2.303   2.782   1.346 -0.0927  0.4068  0.1303
    31IDT   C13 3540   2.343   2.651   1.338  0.4158  0.5219  0.6595
    31IDT   C14 3541   2.399   2.618   1.211  0.5799  0.2386  0.8063
    31IDT   C15 3542   2.403   2.722   1.122  0.1988 -0.0935  0.3911
    31IDT    S4 3543   2.335   2.873   1.192 -0.4032 -0.0730 -0.2238
    4IDB    C16 3544   2.460   2.676   0.992 -0.1855 -0.0348 -0.2600
    4IDB    C17 3545   2.497   2.539   1.007  0.0111  0.0603  0.1623
    51IDQ   C18 3546   2.462   2.489   1.145  0.4206 -0.8334 -0.3567
    4IDB    C19 3547   2.547   2.467   0.900  0.1266 -0.1961  0.3872
    51IDQ   C20 3548   2.365   2.370   1.126  0.1193  0.0673 -0.1093
    51IDQ   C21 3549   2.582   2.436   1.237  0.5947  0.0152  0.3107
    51IDQ   C22 3550   2.732   2.440   1.181  0.6490 -0.9276  0.3460
    51IDQ   C23 3551   2.212   2.371   1.152  0.2064  0.5324 -0.2594
    51IDQ   C24 3552   2.842   2.382   1.264 -0.1484 -0.8716  0.1677
    51IDQ   C25 3553   2.871   2.434   1.400  0.4892  0.0848  0.3041
    51IDQ   C26 3554   2.974   2.349   1.475 -0.0137 -0.0805  0.0224
    51IDQ   C27 3555   2.918   2.219   1.529 -0.1164 -0.0816 -0.0012
    51IDQ   C28 3556   3.022   2.119   1.590 -0.0551  0.3880 -0.3334
    51IDQ   C29 3557   2.968   2.002   1.669 -0.0920 -0.1358 -0.1074
    51IDQ   C30 3558   2.124   2.450   1.053 -0.0914 -0.1734 -0.2373
    51IDQ   C31 3559   1.973   2.447   1.089  0.4145  0.0785 -0.7483
    51IDQ   C32 3560   1.887   2.508   0.985  0.3596  0.1113  0.3620
    51IDQ   C33 3561   1.742   2.468   1.002  0.1125 -1.1697 -0.1908
    51IDQ   C34 3562   1.663   2.521   0.889 -0.2287 -0.2671  0.0938
    51IDQ   C35 3563   1.509   2.501   0.916 -0.1828  0.8321  0.0895
    4IDB    C36 3564   2.474   2.742   0.869 -0.2682 -0.3890 -0.4608
    4IDB    C37 3565   2.526   2.666   0.760 -0.1479 -0.6473 -0.2259
    11RH    C38 3566   2.016   3.096   2.416 -0.1704  0.5174 -0.2664
    4IDB    C39 3567   2.561   2.532   0.776  0.0440 -0.5502  0.1865
    62IDT   C40 3568   2.602   2.483   0.645 -0.2023 -0.2072  0.2544
    72IDQ   C41 3569   2.558   2.718   0.616  0.1896  0.5002  0.1318
    62IDT   C42 3570   2.588   2.583   0.552 -0.2463 -0.0421  0.4368
    72IDQ   C43 3571   2.422   2.772   0.555  1.1173  0.8625  0.3959
    72IDQ   C44 3572   2.660   2.834   0.622  0.2366 -0.1157  0.2333
    62IDT    S5 3573   2.664   2.331   0.572 -0.2352 -0.0795 -0.0420
    62IDT   C45 3574   2.669   2.416   0.411 -0.3104  0.2043  0.1034
    62IDT   C46 3575   2.626   2.546   0.419 -0.3074  0.1909  0.3517
    82BTZ   C47 3576   2.701   2.345   0.290 -0.0016 -0.2255  0.1423
    82BTZ   C48 3577   2.760   2.414   0.188 -0.0560 -0.1577  0.1567
    82BTZ   C49 3578   2.797   2.350   0.064 -0.0571 -0.0907  0.1215
    82BTZ   C50 3579   2.775   2.216   0.043 -0.0037 -0.0918  0.0721
    82BTZ   C51 3580   2.676   2.205   0.272  0.0556 -0.2294  0.0909
    82BTZ   C52 3581   2.714   2.139   0.147  0.0545 -0.1614  0.0552
    92RH    C53 3582   2.796   2.147  -0.088  0.0934  0.0286  0.2919
    82BTZ    N4 3583   2.619   2.126   0.365  0.1116 -0.2922  0.0725
    82BTZ    N5 3584   2.687   2.009   0.138  0.1095 -0.1696  0.0080
    82BTZ    S6 3585   2.611   1.963   0.293  0.1662 -0.2664  0.0072
    92RH    C54 3586   2.832   2.185  -0.211  0.1517  0.0175  0.3051
    92RH     S7 3587   2.894   2.349  -0.263  0.5988 -0.1190  0.4006
    92RH    C55 3588   2.825   2.095  -0.329 -0.1485  0.1180  0.2421
    92RH     O2 3589   2.787   1.976  -0.327 -0.4827  0.2222  0.1709
    92RH     N6 3590   2.869   2.160  -0.446 -0.0082  0.0811  0.2730
    92RH    C56 3591   2.909   2.291  -0.437  0.3676 -0.0367  0.3529
    92RH    C57 3592   2.875   2.089  -0.575  0.0184 -0.0573 -0.3051
    92RH    C58 3593   2.750   2.105  -0.661  0.3216 -0.2748  0.0047
    92RH     S8 3594   2.964   2.391  -0.561  0.6034 -0.1031  0.4040
    72IDQ   C59 3595   2.811   2.809   0.665  0.3331  0.2688 -0.3125
    72IDQ   C60 3596   2.898   2.932   0.655 -0.3457  0.5618 -1.2822
    72IDQ   C61 3597   3.053   2.920   0.663  0.7245  1.0670 -1.0266
    72IDQ   C62 3598   3.124   2.828   0.563 -0.2783  0.5694  0.8984
    72IDQ   C63 3599   3.129   2.868   0.418 -0.1433  0.0114 -0.0076
    72IDQ   C64 3600   3.236   2.778   0.349  0.0565  0.6262 -0.5970
    72IDQ   C65 3601   3.245   2.835   0.211 -0.0638 -0.1418 -0.0859
    72IDQ   C66 3602   2.424   2.834   0.415 -0.4898 -0.6841 -0.5818
    72IDQ   C67 3603   2.334   2.747   0.331 -0.2403 -0.1797 -0.2391
    72IDQ   C68 3604   2.308   2.802   0.189 -0.4123  0.9521 -0.1333
    72IDQ   C69 3605   2.199   2.725   0.115  0.8454 -0.1577  0.1350
    72IDQ   C70 3606   2.163   2.807  -0.016  0.0543 -0.6454  0.3449
    72IDQ   C71 3607   2.051   2.753  -0.109  0.0049 -0.1450  0.1796
    72IDQ   C72 3608   1.912   2.759  -0.049 -0.1689  0.1341 -0.0340
    11RH     C1 3609   1.334   2.280   6.058  0.3918  0.0430  0.0139
    11RH     C2 3610   1.300   2.194   6.173  0.2970 -0.0174 -0.0591
    11RH     N1 3611   1.371   2.204   5.945  0.3488  0.0988 -0.0381
    11RH     S1 3612   1.319   2.017   6.125  0.1575  0.0031 -0.1912
    11RH     C3 3613   1.370   2.067   5.955  0.2312  0.0905 -0.1438
    11RH     C4 3614   1.421   2.283   5.830 -0.4176  0.2992  0.8458
    11RH     S2 3615   1.410   1.953   5.837  0.1585  0.1485 -0.2233
    11RH     O1 3616   1.331   2.404   6.057  0.4963  0.0457  0.1088
    11RH     C5 3617   1.262   2.241   6.292  0.3142 -0.0770 -0.0301
    21BTZ    C6 3618   1.221   2.169   6.421  0.1206 -0.0454  0.2270
    21BTZ    C7 3619   1.212   2.034   6.441  0.1029 -0.0314  0.3171
    21BTZ    C8 3620   1.181   2.257   6.527  0.1767  0.0301  0.1862
    21BTZ    C9 3621   1.163   1.978   6.564  0.1391  0.0570  0.3716
    21BTZ   C10 3622   1.123   2.058   6.668  0.1930  0.1311  0.3357
    21BTZ   C11 3623   1.131   2.200   6.653  0.2135  0.1199  0.2415
    21BTZ    N2 3624   1.185   2.390   6.520  0.1988  0.0249  0.0991
    21BTZ    N3 3625   1.095   2.288   6.747  0.2652  0.1868  0.1987
    21BTZ    S3 3626   1.124   2.450   6.677  0.2690  0.1370  0.0838
    31IDT   C12 3627   1.064   1.988   6.790 -0.0855 -0.0512 -0.0291
    31IDT   C13 3628   1.031   1.855   6.803 -0.2138 -0.0238 -0.0803
    31IDT   C14 3629   0.976   1.824   6.931 -0.1614 -0.0388 -0.0618
    31IDT   C15 3630   0.968   1.931   7.017  0.0069 -0.0776  0.0034
    31IDT    S4 3631   1.029   2.082   6.942  0.1129 -0.0984  0.0469
    4IDB    C16 3632   0.918   1.879   7.143  0.2327 -0.0471  0.0097
    4IDB    C17 3633   0.886   1.740   7.136  0.1429 -0.0302  0.0827
    51IDQ   C18 3634   0.923   1.701   6.992  0.2620  0.7543  0.1438
    4IDB    C19 3635   0.833   1.674   7.246 -0.0219  0.0918  0.0766
    51IDQ   C20 3636   1.024   1.581   7.024 -0.0063 -0.4309  0.0267
    51IDQ   C21 3637   0.803   1.639   6.898 -0.7723  0.0827 -0.8351
    51IDQ   C22 3638   0.657   1.672   6.936 -0.2864  0.3823 -0.2334
    51IDQ   C23 3639   1.178   1.595   7.012  0.1580 -0.1604 -0.1429
    51IDQ   C24 3640   0.546   1.602   6.863  0.0908  0.3565 -0.1174
    51IDQ   C25 3641   0.542   1.613   6.707 -0.1147 -0.0703 -0.0703
    51IDQ   C26 3642   0.510   1.737   6.632 -0.1547  0.3081  0.8870
    51IDQ   C27 3643   0.536   1.734   6.478  0.4027 -0.1445  0.0290
    51IDQ   C28 3644   0.686   1.717   6.447 -0.4522  0.6641  0.3085
    51IDQ   C29 3645   0.709   1.724   6.300  0.1743 -0.3015  0.7490
    51IDQ   C30 3646   1.247   1.669   7.123 -0.7676 -0.9988  0.5516
    51IDQ   C31 3647   1.402   1.653   7.110 -0.2316 -0.2187  0.1664
    51IDQ   C32 3648   1.483   1.729   7.211 -0.5173 -0.5719  0.8319
    51IDQ   C33 3649   1.628   1.760   7.173  0.1216  0.8159 -0.4019
    51IDQ   C34 3650   1.694   1.849   7.270  0.2679  0.6417  0.2194
    51IDQ   C35 3651   1.836   1.899   7.216  0.2313 -0.2130 -0.5946
    4IDB    C36 3652   0.897   1.953   7.260  0.1574  0.0587 -0.0703
    4IDB    C37 3653   0.842   1.884   7.371 -0.0111  0.1827 -0.0753
    11RH    C38 3654   1.332   2.291   5.700 -0.1997  0.3495  0.2958
    4IDB    C39 3655   0.811   1.748   7.363 -0.0972  0.1976 -0.0034
    62IDT   C40 3656   0.764   1.703   7.497  0.2094  0.1074  0.2355
    72IDQ   C41 3657   0.791   1.937   7.508  0.1031  0.5253  0.7619
    62IDT   C42 3658   0.766   1.808   7.586  0.1747  0.1435  0.1938
    72IDQ   C43 3659   0.913   2.013   7.576 -0.0174 -0.1251  0.3434
    72IDQ   C44 3660   0.668   2.038   7.485 -0.3816 -0.2650 -0.0457
    62IDT    S5 3661   0.718   1.548   7.576 -0.0266  0.1789  0.2387
    62IDT   C45 3662   0.703   1.639   7.733 -0.1666  0.2575  0.1806
    62IDT   C46 3663   0.731   1.772   7.720 -0.0379  0.2284  0.1626
    82BTZ   C47 3664   0.656   1.565   7.852 -0.1306  0.0550  0.0880
    82BTZ   C48 3665   0.616   1.641   7.958 -0.3404  0.1342 -0.0463
    82BTZ   C49 3666   0.582   1.582   8.085 -0.5195  0.2348 -0.0465
    82BTZ   C50 3667   0.588   1.447   8.106 -0.4883  0.2561  0.0876
    82BTZ   C51 3668   0.664   1.423   7.868 -0.0896  0.0735  0.2314
    82BTZ   C52 3669   0.630   1.363   7.997 -0.2716  0.1757  0.2313
    92RH    C53 3670   0.557   1.381   8.235 -0.3480 -0.1971 -0.0762
    82BTZ    N4 3671   0.702   1.338   7.772  0.1075  0.0027  0.3696
    82BTZ    N5 3672   0.640   1.230   8.005 -0.2207  0.1870  0.3693
    82BTZ    S6 3673   0.695   1.175   7.844  0.0679  0.0650  0.5083
    92RH    C54 3674   0.517   1.434   8.350 -0.1845 -0.1104 -0.0589
    92RH     S7 3675   0.452   1.604   8.377  0.0437 -0.0216 -0.0574
    92RH    C55 3676   0.520   1.361   8.479 -0.1633 -0.0722 -0.0377
    92RH     O2 3677   0.559   1.244   8.495 -0.2916 -0.1148 -0.0334
    92RH     N6 3678   0.472   1.441   8.585  0.0243  0.0209 -0.0224
    92RH    C56 3679   0.431   1.570   8.557  0.1560  0.0618 -0.0288
    92RH    C57 3680   0.448   1.379   8.721  0.1974  0.5299  0.1865
    92RH    C58 3681   0.565   1.383   8.821  0.2122 -0.2369  0.3233
    92RH     S8 3682   0.371   1.685   8.664  0.3872  0.1709 -0.0139
    72IDQ   C59 3683   0.524   1.978   7.475  0.5217  0.3301  0.1139
    72IDQ   C60 3684   0.422   2.089   7.458 -0.7168  0.2121 -0.7211
    72IDQ   C61 3685   0.281   2.045   7.458  0.0243 -0.2029  0.1810
    72IDQ   C62 3686   0.236   1.963   7.572  0.2025 -0.1473 -0.5553
    72IDQ   C63 3687   0.096   1.918   7.540 -0.1851  0.0430 -1.0152
    72IDQ   C64 3688   0.023   1.878   7.662 -0.0535  0.1755  0.4049
    72IDQ   C65 3689  -0.120   1.865   7.637  0.1619 -0.7445 -0.5252
    72IDQ   C66 3690   0.889   2.082   7.710 -0.0332  0.1551  0.6958
    72IDQ   C67 3691   1.018   2.126   7.767 -0.5322  0.0047 -0.6132
    72IDQ   C68 3692   1.037   2.094   7.919 -0.6353 -0.1267  0.4038
    72IDQ   C69 3693   1.174   2.062   7.968 -0.3372  0.5341 -0.0031
    72IDQ   C70 3694   1.172   2.043   8.119  0.8492  0.3500 -0.2449
    72IDQ   C71 3695   1.308   2.025   8.175 -0.9160 -0.3505 -0.5819
    72IDQ   C72 3696   1.320   2.032   8.327  0.2802 -0.4510 -0.3174
    11RH     C1 3697   1.959   1.436   1.144 -0.0216 -0.0677  0.1408
    11RH     C2 3698   1.931   1.520   1.262  0.0478  0.0105  0.1016
    11RH     N1 3699   1.995   1.514   1.032 -0.0193 -0.1457  0.0867
    11RH     S1 3700   1.955   1.697   1.220  0.1116 -0.0235 -0.0039
    11RH     C3 3701   2.001   1.651   1.047  0.0434 -0.1395  0.0089
    11RH     C4 3702   2.034   1.448   0.907  0.3184 -0.3116 -0.5228
    11RH     S2 3703   2.041   1.766   0.930  0.0601 -0.2217 -0.0669
    11RH     O1 3704   1.951   1.312   1.140 -0.0758 -0.0668  0.2120
    11RH     C5 3705   1.894   1.471   1.381  0.0599  0.0925  0.1396
    21BTZ    C6 3706   1.855   1.529   1.509  0.0383 -0.2714 -0.1439
    21BTZ    C7 3707   1.842   1.663   1.536 -0.1613 -0.2855 -0.1626
    21BTZ    C8 3708   1.822   1.436   1.613  0.1477 -0.3073 -0.1411
    21BTZ    C9 3709   1.797   1.711   1.664 -0.2628 -0.3353 -0.1795
    21BTZ   C10 3710   1.764   1.625   1.766 -0.1645 -0.3708 -0.1776
    21BTZ   C11 3711   1.776   1.484   1.743  0.0446 -0.3578 -0.1583
    21BTZ    N2 3712   1.830   1.303   1.599  0.3424 -0.2980 -0.1236
    21BTZ    N3 3713   1.747   1.391   1.834  0.1564 -0.3892 -0.1546
    21BTZ    S3 3714   1.778   1.233   1.755  0.4035 -0.3546 -0.1285
    31IDT   C12 3715   1.708   1.690   1.884  0.3420 -0.0748  0.4433
    31IDT   C13 3716   1.663   1.819   1.894  0.6763  0.0467  0.3949
    31IDT   C14 3717   1.618   1.852   2.026  0.4494  0.1083  0.3033
    31IDT   C15 3718   1.628   1.748   2.116 -0.0580  0.0345  0.2816
    31IDT    S4 3719   1.696   1.600   2.041 -0.2901 -0.1203  0.3759
    4IDB    C16 3720   1.578   1.791   2.244  0.1015 -0.0745 -0.0003
    4IDB    C17 3721   1.534   1.926   2.234  0.2988 -0.0093  0.0061
    51IDQ   C18 3722   1.562   1.979   2.093  0.0068 -0.1678  0.2922
    4IDB    C19 3723   1.476   1.990   2.343  0.1527 -0.0148 -0.0674
    51IDQ   C20 3724   1.664   2.104   2.102  0.1506  0.8889 -0.4385
    51IDQ   C21 3725   1.439   2.034   2.010 -0.0747 -0.2710 -0.0568
    51IDQ   C22 3726   1.289   2.051   2.055  0.2750 -0.7043  0.4916
    51IDQ   C23 3727   1.816   2.103   2.067  0.0427 -0.2157  0.2730
    51IDQ   C24 3728   1.193   2.089   1.939 -0.1919  0.2480 -0.5297
    51IDQ   C25 3729   1.174   1.992   1.821 -0.5359  0.2182 -0.3308
    51IDQ   C26 3730   1.073   2.048   1.716 -0.2289  0.1530 -0.3531
    51IDQ   C27 3731   1.061   1.964   1.591  0.0752 -0.1785  0.2488
    51IDQ   C28 3732   0.941   1.972   1.498 -0.2475 -0.3262  0.4287
    51IDQ   C29 3733   0.928   2.106   1.435 -0.0726 -0.4863  0.5932
    51IDQ   C30 3734   1.903   2.048   2.182  0.7818  0.0394  0.3212
    51IDQ   C31 3735   2.052   2.025   2.144 -0.8697  0.8260  0.5199
    51IDQ   C32 3736   2.143   1.980   2.269 -0.1566 -0.4678  0.5051
    51IDQ   C33 3737   2.290   1.985   2.233 -0.4486  0.5583 -0.4348
    51IDQ   C34 3738   2.383   1.907   2.327  0.1309 -0.2520  0.4793
    51IDQ   C35 3739   2.524   1.917   2.279  0.0562  0.0946  0.1155
    4IDB    C36 3740   1.565   1.718   2.363 -0.2452 -0.1460 -0.0808
    4IDB    C37 3741   1.505   1.786   2.473 -0.3902 -0.1507 -0.1552
    11RH    C38 3742   1.935   1.374   0.812  0.1335 -1.1398 -0.1465
    4IDB    C39 3743   1.463   1.918   2.462 -0.1941 -0.0864 -0.1479
    62IDT   C40 3744   1.405   1.964   2.585 -0.5367 -0.3685 -0.1353
    72IDQ   C41 3745   1.478   1.731   2.620  0.2659 -0.0269  0.9975
    62IDT   C42 3746   1.423   1.865   2.680 -0.8535 -0.4982 -0.2088
    72IDQ   C43 3747   1.620   1.689   2.673  0.1431 -0.1767 -0.5646
    72IDQ   C44 3748   1.396   1.597   2.594  0.0121 -0.4843 -0.2321
    62IDT    S5 3749   1.336   2.114   2.656  0.2880 -0.0651  0.0445
    62IDT   C45 3750   1.335   2.031   2.818  0.1543 -0.1329  0.0090
    62IDT   C46 3751   1.383   1.903   2.812 -0.4635 -0.3652 -0.1273
    82BTZ   C47 3752   1.297   2.104   2.941 -0.2165  0.0191 -0.0078
    82BTZ   C48 3753   1.241   2.032   3.043 -0.1009 -0.0451  0.0104
    82BTZ   C49 3754   1.211   2.091   3.171  0.0414 -0.1250  0.0820
    82BTZ   C50 3755   1.237   2.224   3.197  0.0679 -0.1404  0.1354
    82BTZ   C51 3756   1.326   2.243   2.963 -0.1943  0.0061  0.0461
    82BTZ   C52 3757   1.295   2.304   3.093 -0.0497 -0.0750  0.1189
    92RH    C53 3758   1.209   2.284   3.327 -0.2973 -0.0499 -0.1816
    82BTZ    N4 3759   1.381   2.324   2.872 -0.2984  0.0638  0.0349
    82BTZ    N5 3760   1.325   2.433   3.106 -0.0376 -0.0826  0.1662
    82BTZ    S6 3761   1.395   2.484   2.950 -0.2141  0.0159  0.1187
    92RH    C54 3762   1.161   2.236   3.442 -0.2477  0.0449 -0.1206
    92RH     S7 3763   1.100   2.065   3.473  0.0694 -0.0238  0.1339
    92RH    C55 3764   1.149   2.316   3.566 -0.4496  0.2263 -0.2552
    92RH     O2 3765   1.182   2.435   3.578 -0.6841  0.3105 -0.4366
    92RH     N6 3766   1.095   2.240   3.672 -0.3429  0.2949 -0.1513
    92RH    C56 3767   1.063   2.108   3.648 -0.0802  0.1904  0.0502
    92RH    C57 3768   1.085   2.309   3.806 -0.7898  0.6119  0.2282
    92RH    C58 3769   1.216   2.291   3.883  0.3199 -0.9823 -0.2181
    92RH     S8 3770   0.998   1.996   3.756  0.0938  0.2403  0.2074
    72IDQ   C59 3771   1.245   1.604   2.591  0.2622 -0.4658  0.0413
    72IDQ   C60 3772   1.174   1.480   2.537 -0.2705 -0.9186 -0.2651
    72IDQ   C61 3773   1.027   1.494   2.564  0.7740  0.0558 -0.4150
    72IDQ   C62 3774   0.953   1.617   2.504 -0.5857  0.8032 -0.5133
    72IDQ   C63 3775   0.811   1.651   2.555 -0.3557 -0.1379  0.5677
    72IDQ   C64 3776   0.807   1.714   2.694  0.2576 -0.3041  0.0935
    72IDQ   C65 3777   0.663   1.752   2.747 -1.0254  0.1020  0.0323
    72IDQ   C66 3778   1.653   1.656   2.822  0.8840  0.4714  0.4708
    72IDQ   C67 3779   1.796   1.673   2.856 -0.4022 -0.0109 -0.2093
    72IDQ   C68 3780   1.834   1.658   3.009 -0.0532 -0.8321 -0.5557
    72IDQ   C69 3781   1.988   1.655   3.044 -0.8157 -0.2871 -0.2010
    72IDQ   C70 3782   2.014   1.604   3.189  0.2672 -0.0474  0.3290
    72IDQ   C71 3783   1.970   1.703   3.301 -0.1833  0.1871  0.4628
    72IDQ   C72 3784   2.001   1.643   3.435  0.4132 -0.0537  0.0309
    11RH     C1 3785   1.772   2.204   3.705 -0.1277  0.1392 -0.0503
    11RH     C2 3786   1.854   2.286   3.613  0.0510  0.0358  0.0155
    11RH     N1 3787   1.739   2.276   3.822 -0.1918  0.2053 -0.1089
    11RH     S1 3788   1.882   2.452   3.686  0.1230  0.0322 -0.0040
    11RH     C3 3789   1.784   2.405   3.835 -0.0864  0.1675 -0.0981
    11RH     C4 3790   1.650   2.214   3.927 -0.6644  0.2333  0.6432
    11RH     S2 3791   1.758   2.511   3.964 -0.1314  0.2299 -0.1585
    11RH     O1 3792   1.736   2.087   3.685 -0.2132  0.1664 -0.0550
    11RH     C5 3793   1.899   2.242   3.495  0.1416 -0.0414  0.0784
    21BTZ    C6 3794   1.966   2.307   3.384  0.3062  0.0144 -0.0204
    21BTZ    C7 3795   2.002   2.438   3.372  0.1722  0.0445 -0.0953
    21BTZ    C8 3796   1.981   2.221   3.270  0.3229 -0.0180  0.0063
    21BTZ    C9 3797   2.054   2.492   3.248  0.0486  0.0440 -0.1475
    21BTZ   C10 3798   2.070   2.413   3.137  0.0593  0.0137 -0.1246
    21BTZ   C11 3799   2.034   2.275   3.144  0.1973 -0.0184 -0.0468
    21BTZ    N2 3800   1.950   2.091   3.269  0.4478 -0.0488  0.0780
    21BTZ    N3 3801   2.045   2.189   3.043  0.2213 -0.0495 -0.0177
    21BTZ    S3 3802   1.987   2.031   3.105  0.4094 -0.0803  0.0808
    31IDT   C12 3803   2.120   2.471   3.006 -0.5219  0.0521  0.0760
    31IDT   C13 3804   2.161   2.601   2.994 -0.8575  0.1560  0.0065
    31IDT   C14 3805   2.200   2.636   2.861 -0.4662  0.0322  0.0843
    31IDT   C15 3806   2.187   2.533   2.770  0.1687 -0.1662  0.2133
    31IDT    S4 3807   2.126   2.383   2.847  0.3218 -0.2123  0.2467
    4IDB    C16 3808   2.248   2.569   2.645 -0.2115  0.2424 -0.0793
    4IDB    C17 3809   2.297   2.702   2.657  0.7907 -0.1144 -0.0458
    51IDQ   C18 3810   2.258   2.762   2.795 -0.4101 -0.0670  1.0295
    4IDB    C19 3811   2.354   2.768   2.548  0.5371 -0.2299 -0.2479
    51IDQ   C20 3812   2.160   2.887   2.776  0.2905 -0.1751 -0.4855
    51IDQ   C21 3813   2.390   2.816   2.875 -0.4439  0.3249 -0.2967
    51IDQ   C22 3814   2.542   2.815   2.827 -0.0238 -0.1542  0.0181
    51IDQ   C23 3815   2.016   2.882   2.824 -0.2542  0.2564  0.3653
    51IDQ   C24 3816   2.644   2.828   2.940 -0.3128  0.1216 -0.4378
    51IDQ   C25 3817   2.621   2.745   3.068  0.6934  0.3688 -0.3141
    51IDQ   C26 3818   2.720   2.775   3.178 -0.5617 -0.4972  0.6506
    51IDQ   C27 3819   2.723   2.690   3.305 -0.1566  0.4126 -0.0812
    51IDQ   C28 3820   2.804   2.754   3.414 -0.1678 -0.4937 -0.2765
    51IDQ   C29 3821   2.939   2.827   3.392 -0.2594 -0.0583 -0.4136
    51IDQ   C30 3822   1.928   2.826   2.720  0.4820 -0.7992  0.0528
    51IDQ   C31 3823   1.784   2.823   2.775 -0.8080  0.9242  0.3506
    51IDQ   C32 3824   1.709   2.758   2.659  0.5945  0.3511  0.2994
    51IDQ   C33 3825   1.562   2.724   2.679 -1.1102  0.3153  0.1348
    51IDQ   C34 3826   1.504   2.655   2.562 -0.1436  0.3361 -0.3987
    51IDQ   C35 3827   1.360   2.614   2.595 -0.2513 -0.0167 -0.3334
    4IDB    C36 3828   2.255   2.500   2.523 -1.4809  0.4872 -0.3166
    4IDB    C37 3829   2.313   2.568   2.413 -1.7220  0.3645 -0.5209
    11RH    C38 3830   1.715   2.123   4.029  0.1464  0.0960 -0.3394
    4IDB    C39 3831   2.360   2.698   2.426 -0.7324  0.0150 -0.4852
    62IDT   C40 3832   2.411   2.742   2.297  0.0394  0.1439  0.4226
    72IDQ   C41 3833   2.354   2.515   2.271  0.2887 -0.0229  0.1316
    62IDT   C42 3834   2.397   2.642   2.204  0.5218 -0.3419  0.8529
    72IDQ   C43 3835   2.220   2.456   2.204 -0.1332  0.1820  0.2373
    72IDQ   C44 3836   2.459   2.399   2.277  0.0862 -0.0507 -0.2708
    62IDT    S5 3837   2.471   2.895   2.223 -0.5948  0.0925 -0.2203
    62IDT   C45 3838   2.473   2.811   2.062 -0.1527 -0.6177  0.1444
    62IDT   C46 3839   2.432   2.680   2.070  0.4139 -0.7731  0.6964
    82BTZ   C47 3840   2.507   2.884   1.937  0.2444  0.2643  0.1422
    82BTZ   C48 3841   2.558   2.812   1.831  0.0506  0.1261  0.1412
    82BTZ   C49 3842   2.583   2.874   1.703 -0.2010 -0.0457  0.0077
    82BTZ   C50 3843   2.557   3.007   1.681 -0.2585 -0.0789 -0.1246
    82BTZ   C51 3844   2.478   3.023   1.918  0.1937  0.2362  0.0065
    82BTZ   C52 3845   2.504   3.085   1.788 -0.0620  0.0616 -0.1293
    92RH    C53 3846   2.582   3.080   1.552  0.3720 -0.2811  0.2777
    82BTZ    N4 3847   2.429   3.103   2.013  0.3666  0.3604 -0.0065
    82BTZ    N5 3848   2.475   3.215   1.779 -0.0947  0.0456 -0.2513
    82BTZ    S6 3849   2.412   3.264   1.939  0.2066  0.2573 -0.1968
    92RH    C54 3850   2.626   3.043   1.431  0.1448 -0.2077  0.1727
    92RH     S7 3851   2.667   2.873   1.376  0.0266 -0.1764 -0.0136
    92RH    C55 3852   2.648   3.139   1.320 -0.0520 -0.1382  0.1925
    92RH     O2 3853   2.629   3.262   1.325 -0.0306 -0.1395  0.3061
    92RH     N6 3854   2.694   3.073   1.204 -0.2727 -0.0682  0.0639
    92RH    C56 3855   2.711   2.936   1.209 -0.2770 -0.0731 -0.0563
    92RH    C57 3856   2.714   3.146   1.073 -0.0033 -0.9165 -0.2903
    92RH    C58 3857   2.591   3.167   0.988 -0.1514 -0.5305  0.3143
    92RH     S8 3858   2.765   2.835   1.085 -0.5149  0.0009 -0.2214
    72IDQ   C59 3859   2.611   2.430   2.306  0.4610 -0.1336  0.4629
    72IDQ   C60 3860   2.694   2.302   2.310 -0.1484 -0.4706  0.1582
    72IDQ   C61 3861   2.846   2.324   2.304 -0.2079 -0.4548  0.2291
    72IDQ   C62 3862   2.899   2.424   2.198 -0.3674  0.0847  0.3140
    72IDQ   C63 3863   3.044   2.461   2.202 -0.3420  0.0030 -0.2574
    72IDQ   C64 3864   3.083   2.552   2.083  0.0154  0.9042 -0.1256
    72IDQ   C65 3865   3.234   2.592   2.080  0.6109 -0.1523 -0.5957
    72IDQ   C66 3866   2.220   2.425   2.054  0.3714 -0.1048  0.3560
    72IDQ   C67 3867   2.089   2.372   2.001 -0.0537 -0.2189  0.5701
    72IDQ   C68 3868   2.081   2.406   1.855 -0.0318 -0.1374 -0.3435
    72IDQ   C69 3869   1.955   2.353   1.791 -0.2385  0.5574  0.6249
    72IDQ   C70 3870   1.931   2.434   1.656  0.0313  0.2061  0.8051
    72IDQ   C71 3871   1.789   2.391   1.612 -0.5103  0.7260 -0.7258
    72IDQ   C72 3872   1.749   2.446   1.478  0.5710  0.8542 -0.2010
    11RH     C1 3873   1.600   3.086   5.377  0.0192 -0.0983 -0.0011
    11RH     C2 3874   1.642   2.996   5.267  0.0311 -0.0660 -0.0228
    11RH     N1 3875   1.556   3.012   5.490  0.0608 -0.1314 -0.0065
    11RH     S1 3876   1.622   2.821   5.319  0.0960 -0.0814 -0.0488
    11RH     C3 3877   1.558   2.875   5.483  0.1044 -0.1297 -0.0296
    11RH     C4 3878   1.490   3.089   5.604 -0.1744  0.0279  0.2070
    11RH     S2 3879   1.512   2.765   5.602  0.1588 -0.1647 -0.0407
    11RH     O1 3880   1.602   3.210   5.374 -0.0215 -0.0972  0.0194
    11RH     C5 3881   1.688   3.040   5.150 -0.0018 -0.0315 -0.0226
    21BTZ    C6 3882   1.735   2.970   5.027  0.0910  0.1302  0.0238
    21BTZ    C7 3883   1.747   2.834   5.011  0.1492  0.1189  0.1639
    21BTZ    C8 3884   1.776   3.055   4.919  0.0679  0.0373 -0.0585
    21BTZ    C9 3885   1.799   2.776   4.890  0.1875  0.0163  0.2295
    21BTZ   C10 3886   1.839   2.853   4.784  0.1674 -0.0748  0.1550
    21BTZ   C11 3887   1.829   2.996   4.796  0.1068 -0.0670  0.0081
    21BTZ    N2 3888   1.770   3.189   4.922  0.0120  0.0380 -0.1959
    21BTZ    N3 3889   1.865   3.081   4.700  0.0822 -0.1500 -0.0756
    21BTZ    S3 3890   1.833   3.245   4.764  0.0067 -0.0971 -0.2466
    31IDT   C12 3891   1.894   2.787   4.663  0.0807 -0.0044  0.1105
    31IDT   C13 3892   1.921   2.653   4.651 -0.1593 -0.0396 -0.0684
    31IDT   C14 3893   1.982   2.620   4.526 -0.5633 -0.0425 -0.2671
    31IDT   C15 3894   2.001   2.728   4.442 -0.6339 -0.0096 -0.2411
    31IDT    S4 3895   1.943   2.881   4.515 -0.1901  0.0279  0.0397
    4IDB    C16 3896   2.052   2.686   4.313 -0.1852 -0.3057  0.6755
    4IDB    C17 3897   2.079   2.546   4.321  0.3036 -0.2306  0.3642
    51IDQ   C18 3898   2.049   2.492   4.460  0.1940 -0.1624  0.4574
    4IDB    C19 3899   2.124   2.476   4.209  0.2234  0.1060  0.1179
    51IDQ   C20 3900   1.954   2.363   4.438  0.2835 -0.1033  0.3165
    51IDQ   C21 3901   2.166   2.446   4.548 -0.1232 -0.1565 -0.4710
    51IDQ   C22 3902   2.311   2.432   4.498 -0.2399  0.0010  0.2851
    51IDQ   C23 3903   1.805   2.360   4.468 -0.3025  0.6328 -0.0802
    51IDQ   C24 3904   2.406   2.395   4.614 -0.0509  0.4335 -0.1109
    51IDQ   C25 3905   2.543   2.349   4.572  0.3930 -0.1664 -0.4456
    51IDQ   C26 3906   2.642   2.321   4.691  0.2344  0.0809  0.1329
    51IDQ   C27 3907   2.619   2.207   4.790  0.4132  0.2221  0.6830
    51IDQ   C28 3908   2.607   2.065   4.731 -0.2685 -0.5282 -0.5687
    51IDQ   C29 3909   2.559   1.966   4.835  0.2650  0.3426  0.2213
    51IDQ   C30 3910   1.723   2.422   4.362  0.4261  0.0667  0.3146
    51IDQ   C31 3911   1.575   2.407   4.367  0.2719  0.0647 -0.0213
    51IDQ   C32 3912   1.497   2.471   4.257  0.1055 -0.4650  0.5384
    51IDQ   C33 3913   1.356   2.487   4.297  0.0882 -0.2363  0.7474
    51IDQ   C34 3914   1.263   2.542   4.182  0.9110 -0.7245 -0.5538
    51IDQ   C35 3915   1.122   2.551   4.232  0.3237  0.0290 -0.7155
    4IDB    C36 3916   2.069   2.757   4.194 -0.7606 -0.0428  0.7423
    4IDB    C37 3917   2.115   2.684   4.081 -0.8341  0.2995  0.4878
    11RH    C38 3918   1.583   3.129   5.716 -0.2898  0.0318 -0.0350
    4IDB    C39 3919   2.141   2.547   4.089 -0.3520  0.3688  0.1849
    62IDT   C40 3920   2.186   2.493   3.960 -0.3960 -0.1025 -0.8294
    72IDQ   C41 3921   2.165   2.732   3.944 -0.4420 -0.0267  0.1639
    62IDT   C42 3922   2.198   2.596   3.869 -0.4804 -0.3908 -1.1684
    72IDQ   C43 3923   2.050   2.801   3.854 -0.6694 -0.3566 -0.6334
    72IDQ   C44 3924   2.291   2.831   3.972  0.5921  0.3367  0.0718
    62IDT    S5 3925   2.245   2.337   3.893  0.2496 -0.1713 -0.1273
    62IDT   C45 3926   2.284   2.423   3.738  0.3777 -0.6074 -0.3395
    62IDT   C46 3927   2.253   2.556   3.743 -0.0432 -0.6766 -0.8920
    82BTZ   C47 3928   2.325   2.349   3.612  0.1521  0.0538 -0.0311
    82BTZ   C48 3929   2.386   2.421   3.512 -0.0285  0.0392 -0.1526
    82BTZ   C49 3930   2.415   2.363   3.384 -0.2221  0.0075 -0.1826
    82BTZ   C50 3931   2.383   2.232   3.355 -0.2349 -0.0098 -0.0910
    82BTZ   C51 3932   2.290   2.213   3.587  0.1467  0.0367  0.0682
    82BTZ   C52 3933   2.319   2.153   3.456 -0.0500  0.0044  0.0377
    92RH    C53 3934   2.394   2.177   3.220 -0.3607 -0.0448 -0.0538
    82BTZ    N4 3935   2.230   2.133   3.676  0.3123  0.0482  0.1901
    82BTZ    N5 3936   2.284   2.025   3.440 -0.0427 -0.0101  0.1351
    82BTZ    S6 3937   2.209   1.975   3.595  0.2216  0.0177  0.2728
    92RH    C54 3938   2.431   2.225   3.101 -0.0814 -0.1363 -0.0052
    92RH     S7 3939   2.482   2.397   3.063  0.1328 -0.1962  0.0063
    92RH    C55 3940   2.437   2.143   2.978  0.1023 -0.2050  0.0486
    92RH     O2 3941   2.408   2.022   2.970  0.0218 -0.1867  0.0550
    92RH     N6 3942   2.479   2.219   2.867  0.3876 -0.2964  0.0930
    92RH    C56 3943   2.508   2.353   2.886  0.4547 -0.3092  0.0815
    92RH    C57 3944   2.490   2.146   2.736  0.1066  0.4634 -0.5583
    92RH    C58 3945   2.356   2.120   2.661 -0.2216 -0.0505 -0.0768
    92RH     S8 3946   2.560   2.465   2.772  0.7760 -0.4101  0.1267
    72IDQ   C59 3947   2.415   2.840   3.891 -0.0686 -0.2954 -0.2634
    72IDQ   C60 3948   2.524   2.929   3.956  0.9114 -0.2761  0.7238
    72IDQ   C61 3949   2.655   2.916   3.875  1.0349  0.2277  0.0635
    72IDQ   C62 3950   2.731   2.781   3.860 -0.2700 -0.3199  0.9517
    72IDQ   C63 3951   2.870   2.793   3.798 -0.7342  0.6933 -0.3860
    72IDQ   C64 3952   2.947   2.664   3.808  0.0272  0.5963 -0.3971
    72IDQ   C65 3953   3.077   2.660   3.740  0.0786  0.0246  0.1683
    72IDQ   C66 3954   2.086   2.858   3.717  0.2634  0.2085  0.1257
    72IDQ   C67 3955   1.958   2.896   3.633  0.3020  0.1409 -0.9404
    72IDQ   C68 3956   1.990   2.932   3.497  0.3245  0.2133 -0.2760
    72IDQ   C69 3957   1.881   2.981   3.404 -0.1663 -0.6206 -0.2931
    72IDQ   C70 3958   1.786   2.881   3.333  0.5900  0.3276  0.0997
    72IDQ   C71 3959   1.850   2.777   3.244  0.2227 -0.2930  0.1564
    72IDQ   C72 3960   1.759   2.693   3.161  0.0222 -0.1895 -0.0047
    11RH     C1 3961   1.775   2.284   2.792  0.5838  0.0048  0.3075
    11RH     C2 3962   1.729   2.189   2.896  0.2741 -0.0062  0.1605
    11RH     N1 3963   1.814   2.218   2.674  0.6246  0.0418  0.3000
    11RH     S1 3964   1.739   2.017   2.830  0.0567  0.0328  0.0219
    11RH     C3 3965   1.804   2.080   2.670  0.3855  0.0618  0.1649
    11RH     C4 3966   1.866   2.291   2.557  0.5757  0.6312  0.4276
    11RH     S2 3967   1.843   1.978   2.542  0.3751  0.1059  0.1262
    11RH     O1 3968   1.780   2.408   2.805  0.7860 -0.0153  0.4241
    11RH     C5 3969   1.687   2.226   3.017  0.1767 -0.0399  0.1370
    21BTZ    C6 3970   1.637   2.157   3.137 -0.2006  0.2186  0.0448
    21BTZ    C7 3971   1.612   2.022   3.148 -0.1330  0.2081  0.0665
    21BTZ    C8 3972   1.608   2.241   3.249 -0.2056  0.2166  0.0451
    21BTZ    C9 3973   1.559   1.964   3.268 -0.0673  0.1952  0.0895
    21BTZ   C10 3974   1.530   2.041   3.378 -0.0693  0.1927  0.0907
    21BTZ   C11 3975   1.553   2.182   3.372 -0.1388  0.2034  0.0684
    21BTZ    N2 3976   1.627   2.373   3.250 -0.2682  0.2260  0.0252
    21BTZ    N3 3977   1.529   2.267   3.472 -0.1478  0.2022  0.0672
    21BTZ    S3 3978   1.575   2.429   3.412 -0.2440  0.2182  0.0356
    31IDT   C12 3979   1.494   1.971   3.503 -0.0667  0.4729 -0.0309
    31IDT   C13 3980   1.525   1.842   3.538 -0.0962  0.3780 -0.3498
    31IDT   C14 3981   1.475   1.806   3.666 -0.0660  0.0843 -0.4197
    31IDT   C15 3982   1.406   1.906   3.731 -0.0134 -0.0464 -0.1553
    31IDT    S4 3983   1.398   2.056   3.632  0.0022  0.1947  0.2060
    4IDB    C16 3984   1.360   1.860   3.858  0.1245 -0.2185  0.0621
    4IDB    C17 3985   1.385   1.720   3.870  0.3934 -0.1420  0.4184
    51IDQ   C18 3986   1.472   1.677   3.750  0.1159  0.1748 -0.1297
    4IDB    C19 3987   1.346   1.650   3.983  0.0698 -0.0285  0.3778
    51IDQ   C20 3988   1.610   1.632   3.813  0.0602 -0.0925  0.4113
    51IDQ   C21 3989   1.416   1.557   3.658 -0.3240  0.6243 -0.2810
    51IDQ   C22 3990   1.282   1.491   3.675  0.6221 -0.1314  0.1196
    51IDQ   C23 3991   1.741   1.708   3.771  0.1030  0.0778  0.0716
    51IDQ   C24 3992   1.148   1.577   3.645 -0.4759 -0.3124 -0.3438
    51IDQ   C25 3993   1.139   1.655   3.520  0.1658  0.1430 -0.0251
    51IDQ   C26 3994   1.140   1.583   3.386  0.4953  1.0228  0.0480
    51IDQ   C27 3995   1.019   1.619   3.295  0.2240 -0.0837  0.9136
    51IDQ   C28 3996   1.002   1.763   3.242 -0.5960  0.3790  0.2675
    51IDQ   C29 3997   0.893   1.779   3.149  0.5777  0.7424  0.2637
    51IDQ   C30 3998   1.855   1.710   3.879  0.2621  0.2902 -0.0941
    51IDQ   C31 3999   1.975   1.783   3.819  0.4832  0.2286 -0.2901
    51IDQ   C32 4000   2.049   1.850   3.936 -0.6797 -0.7926  0.4908
    51IDQ   C33 4001   2.202   1.856   3.949  0.3256 -0.5840  0.3082
    51IDQ   C34 4002   2.269   1.725   3.937  0.3185 -0.2357  0.1304
    51IDQ   C35 4003   2.410   1.752   3.975 -0.5961 -0.0262 -0.0458
    4IDB    C36 4004   1.294   1.931   3.960 -0.4735 -0.1817 -0.3394
    4IDB    C37 4005   1.254   1.858   4.075 -0.7973 -0.0655 -0.3749
    11RH    C38 4006   1.755   2.359   2.476  0.6691 -0.1308  0.2384
    4IDB    C39 4007   1.280   1.721   4.085 -0.5282  0.0083 -0.0238
    62IDT   C40 4008   1.223   1.670   4.210  0.0240 -0.0153  0.2116
    72IDQ   C41 4009   1.184   1.907   4.204  1.1353 -0.4092  0.6468
    62IDT   C42 4010   1.160   1.771   4.279  0.1476 -0.0041  0.3086
    72IDQ   C43 4011   1.274   1.994   4.301  0.9320  0.3235 -0.0761
    72IDQ   C44 4012   1.057   1.991   4.161  0.3742  0.0702 -0.0549
    62IDT    S5 4013   1.228   1.517   4.305  0.1975  0.0009  0.2287
    62IDT   C45 4014   1.141   1.603   4.439  0.4398  0.0230  0.3732
    62IDT   C46 4015   1.114   1.734   4.408  0.3828  0.0176  0.4001
    82BTZ   C47 4016   1.113   1.541   4.575  0.0340  0.2191  0.3136
    82BTZ   C48 4017   1.071   1.624   4.675  0.0805  0.1801  0.3654
    82BTZ   C49 4018   1.032   1.572   4.804 -0.0377  0.1116  0.3029
    82BTZ   C50 4019   1.036   1.438   4.832 -0.2021  0.0822  0.1886
    82BTZ   C51 4020   1.119   1.400   4.599 -0.1368  0.1906  0.1942
    82BTZ   C52 4021   1.080   1.348   4.730 -0.2569  0.1209  0.1305
    92RH    C53 4022   0.993   1.384   4.961  0.0593  0.0116  0.1974
    82BTZ    N4 4023   1.159   1.310   4.509 -0.1971  0.2235  0.1345
    82BTZ    N5 4024   1.088   1.215   4.745 -0.4136  0.0979  0.0197
    82BTZ    S6 4025   1.148   1.151   4.589 -0.4145  0.1656 -0.0089
    92RH    C54 4026   0.948   1.438   5.075 -0.1284  0.1231  0.0733
    92RH     S7 4027   0.916   1.615   5.109 -0.2231  0.1519 -0.1645
    92RH    C55 4028   0.917   1.357   5.196 -0.2934  0.2444  0.1115
    92RH     O2 4029   0.928   1.234   5.206 -0.2781  0.2570  0.2596
    92RH     N6 4030   0.872   1.439   5.302 -0.4753  0.3469 -0.0440
    92RH    C56 4031   0.863   1.575   5.281 -0.4761  0.3227 -0.2021
    92RH    C57 4032   0.836   1.363   5.426  0.9015 -0.2865  0.0097
    92RH    C58 4033   0.932   1.368   5.548 -0.5105  0.4692  0.6579
    92RH     S8 4034   0.813   1.693   5.390 -0.6714  0.4272 -0.4046
    72IDQ   C59 4035   0.921   1.911   4.124 -0.4043  0.6105  1.1848
    72IDQ   C60 4036   0.791   1.981   4.108 -0.1502 -0.1783 -0.3596
    72IDQ   C61 4037   0.687   1.984   4.219 -0.0927 -0.0950  0.2648
    72IDQ   C62 4038   0.741   2.029   4.360 -0.3517  0.3090 -0.2863
    72IDQ   C63 4039   0.646   1.992   4.475  0.0795 -1.2273  0.1327
    72IDQ   C64 4040   0.686   2.034   4.615 -0.5376  0.0439  0.0933
    72IDQ   C65 4041   0.573   2.009   4.711 -0.5715  0.0889 -0.2119
    72IDQ   C66 4042   1.427   1.977   4.298 -0.6502  0.3042  0.3386
    72IDQ   C67 4043   1.504   2.050   4.404  0.1993  0.2949  0.1797
    72IDQ   C68 4044   1.471   2.001   4.547  0.4474 -0.0359 -0.2159
    72IDQ   C69 4045   1.580   2.045   4.651  0.4161 -0.2251 -0.4160
    72IDQ   C70 4046   1.521   2.040   4.795 -0.0328 -0.2975 -0.9778
    72IDQ   C71 4047   1.624   2.068   4.903  0.2396  0.0067  0.6930
    72IDQ   C72 4048   1.628   1.969   5.011 -0.0774 -0.0783 -0.2155
    11RH     C1 4049   1.577   1.357   4.418  0.2891 -0.0198 -0.2527
    11RH     C2 4050   1.535   1.455   4.520  0.4097 -0.0525 -0.1707
    11RH     N1 4051   1.631   1.421   4.304 -0.0382  0.0240 -0.3861
    11RH     S1 4052   1.568   1.625   4.460  0.0850 -0.0234 -0.2737
    11RH     C3 4053   1.637   1.559   4.303 -0.1945  0.0305 -0.4205
    11RH     C4 4054   1.684   1.336   4.194  1.0080 -0.3032 -0.0712
    11RH     S2 4055   1.696   1.659   4.181 -0.5810  0.0789 -0.5711
    11RH     O1 4056   1.568   1.233   4.428  0.4496 -0.0289 -0.2127
    11RH     C5 4057   1.480   1.421   4.637  0.7118 -0.0962 -0.0410
    21BTZ    C6 4058   1.428   1.490   4.759  0.1985  0.2039  0.1309
    21BTZ    C7 4059   1.426   1.626   4.775  0.2439  0.1945  0.2192
    21BTZ    C8 4060   1.395   1.407   4.871  0.0455  0.1436  0.0430
    21BTZ    C9 4061   1.392   1.687   4.901  0.1420  0.1257  0.2258
    21BTZ   C10 4062   1.361   1.612   5.011 -0.0051  0.0665  0.1437
    21BTZ   C11 4063   1.361   1.469   5.000 -0.0581  0.0737  0.0496
    21BTZ    N2 4064   1.394   1.273   4.868 -0.0120  0.1462 -0.0472
    21BTZ    N3 4065   1.332   1.385   5.100 -0.1988  0.0201 -0.0354
    21BTZ    S3 4066   1.348   1.220   5.033 -0.2049  0.0575 -0.1293
    31IDT   C12 4067   1.324   1.682   5.143 -0.0618  0.1431  0.0861
    31IDT   C13 4068   1.302   1.817   5.153 -0.4466  0.0840  0.0774
    31IDT   C14 4069   1.248   1.855   5.280 -0.6119 -0.0667  0.0536
    31IDT   C15 4070   1.229   1.750   5.367 -0.3548 -0.1233  0.0441
    31IDT    S4 4071   1.277   1.593   5.295  0.1209  0.0110  0.0648
    4IDB    C16 4072   1.167   1.793   5.488 -0.0462  0.0788 -0.0787
    4IDB    C17 4073   1.153   1.935   5.483  0.8458  0.1933  0.2258
    51IDQ   C18 4074   1.197   1.984   5.344  0.5007 -0.5631 -0.0855
    4IDB    C19 4075   1.107   2.006   5.593  0.3296  0.1168  0.0642
    51IDQ   C20 4076   1.301   2.110   5.346  0.7173  0.0364  0.3185
    51IDQ   C21 4077   1.079   2.044   5.249  0.0513 -0.3312 -0.6386
    51IDQ   C22 4078   0.922   2.028   5.282 -0.4491  0.7019 -0.4097
    51IDQ   C23 4079   1.455   2.112   5.316  0.3301 -0.5596  0.2381
    51IDQ   C24 4080   0.825   2.086   5.178  0.1659  0.0666 -0.7686
    51IDQ   C25 4081   0.676   2.067   5.209  0.0324 -0.0473 -0.1705
    51IDQ   C26 4082   0.593   2.192   5.235  0.1345  0.1337  0.7985
    51IDQ   C27 4083   0.601   2.313   5.136  0.0069  0.3533  0.4742
    51IDQ   C28 4084   0.548   2.288   4.990 -0.0851 -0.5204  0.5487
    51IDQ   C29 4085   0.573   2.415   4.900  0.1368  0.3039 -0.3706
    51IDQ   C30 4086   1.527   2.026   5.416  0.0802 -0.5025 -0.0598
    51IDQ   C31 4087   1.669   2.008   5.377 -0.5267  0.1579 -0.1298
    51IDQ   C32 4088   1.737   1.925   5.487  0.4041  0.0676  0.1302
    51IDQ   C33 4089   1.884   1.939   5.491 -0.3315 -0.3494 -0.1376
    51IDQ   C34 4090   1.949   1.876   5.615  0.0594 -0.0620  0.2349
    51IDQ   C35 4091   2.094   1.886   5.600 -0.2552 -0.4069  0.3103
    4IDB    C36 4092   1.136   1.721   5.604 -1.4687 -0.1141 -0.5502
    4IDB    C37 4093   1.089   1.795   5.716 -1.9778 -0.1899 -0.7092
    11RH    C38 4094   1.597   1.334   4.066  0.2785 -0.5396 -0.4313
    4IDB    C39 4095   1.075   1.934   5.709 -1.0930 -0.0762 -0.4072
    62IDT   C40 4096   1.022   1.986   5.829 -0.3346  0.2582  0.2149
    72IDQ   C41 4097   1.053   1.749   5.857 -0.4447 -0.3384 -0.5151
    62IDT   C42 4098   1.008   1.885   5.922 -0.2571  0.2124  0.1773
    72IDQ   C43 4099   1.180   1.694   5.939 -0.1078 -0.2254  0.4168
    72IDQ   C44 4100   0.954   1.628   5.845 -0.4999 -0.6995 -0.6484
    62IDT    S5 4101   0.961   2.144   5.891 -0.2559  0.2339  0.3547
    62IDT   C45 4102   0.917   2.060   6.047 -0.1154  0.1596  0.3551
    62IDT   C46 4103   0.948   1.927   6.045 -0.1330  0.1567  0.2565
    82BTZ   C47 4104   0.877   2.135   6.169  0.1549 -0.0046 -0.0252
    82BTZ   C48 4105   0.825   2.059   6.270  0.2213  0.0114  0.0215
    82BTZ   C49 4106   0.796   2.115   6.399  0.3319  0.0255  0.0399
    82BTZ   C50 4107   0.820   2.247   6.428  0.3760  0.0237  0.0119
    82BTZ   C51 4108   0.904   2.274   6.193  0.1973 -0.0072 -0.0561
    82BTZ   C52 4109   0.875   2.331   6.325  0.3098  0.0072 -0.0373
    92RH    C53 4110   0.792   2.314   6.557  0.0722  0.0060 -0.0425
    82BTZ    N4 4111   0.955   2.358   6.103  0.1406 -0.0222 -0.1019
    82BTZ    N5 4112   0.903   2.461   6.341  0.3435  0.0037 -0.0679
    82BTZ    S6 4113   0.968   2.517   6.185  0.2306 -0.0184 -0.1236
    92RH    C54 4114   0.749   2.270   6.676  0.0047 -0.0963 -0.1047
    92RH     S7 4115   0.697   2.099   6.717 -0.0403 -0.1274 -0.2874
    92RH    C55 4116   0.736   2.357   6.795 -0.0454 -0.2035 -0.0323
    92RH     O2 4117   0.763   2.478   6.800 -0.0314 -0.2113  0.0921
    92RH     N6 4118   0.688   2.284   6.907 -0.1130 -0.2985 -0.1229
    92RH    C56 4119   0.661   2.150   6.891 -0.1231 -0.2805 -0.2591
    92RH    C57 4120   0.677   2.352   7.038  0.0014 -0.6708  0.0778
    92RH    C58 4121   0.791   2.345   7.136 -0.0026 -0.3010 -0.2990
    92RH     S8 4122   0.604   2.042   7.006 -0.1979 -0.3783 -0.3873
    72IDQ   C59 4123   0.811   1.649   5.816  0.1953 -0.3189  0.5655
    72IDQ   C60 4124   0.714   1.595   5.927 -0.3960 -0.0278  1.0238
    72IDQ   C61 4125   0.573   1.633   5.891  0.5321  0.0810  0.5023
    72IDQ   C62 4126   0.471   1.639   6.006 -0.0096 -0.1415  0.3778
    72IDQ   C63 4127   0.341   1.706   5.964 -0.2790  0.2580 -0.2089
    72IDQ   C64 4128   0.245   1.700   6.086 -0.0314 -0.1540  0.2675
    72IDQ   C65 4129   0.112   1.760   6.058  0.6780  0.3553  0.3039
    72IDQ   C66 4130   1.168   1.658   6.084  0.0879 -0.2005  0.0069
    72IDQ   C67 4131   1.302   1.660   6.149  0.7766 -0.3950 -0.1675
    72IDQ   C68 4132   1.279   1.630   6.301 -0.0837  0.0064  0.7161
    72IDQ   C69 4133   1.402   1.651   6.382 -0.1739  0.2837 -0.0566
    72IDQ   C70 4134   1.381   1.655   6.529 -0.1565 -0.2735  1.0694
    72IDQ   C71 4135   1.512   1.682   6.593 -0.2041 -0.0435 -0.3411
    72IDQ   C72 4136   1.481   1.702   6.745  0.0188 -0.8733  0.5326
    11RH     C1 4137   2.259   2.135   0.474 -0.2277  0.0294  0.0585
    11RH     C2 4138   2.296   2.220   0.358 -0.2174 -0.0533  0.0014
    11RH     N1 4139   2.221   2.214   0.585 -0.1145  0.1105  0.0401
    11RH     S1 4140   2.279   2.397   0.402 -0.0593 -0.0191 -0.0727
    11RH     C3 4141   2.223   2.351   0.572 -0.0146  0.1028 -0.0247
    11RH     C4 4142   2.171   2.149   0.710 -0.3610  0.7649 -0.9988
    11RH     S2 4143   2.183   2.466   0.688  0.1296  0.1880 -0.0592
    11RH     O1 4144   2.260   2.011   0.476 -0.3226  0.0296  0.1157
    11RH     C5 4145   2.336   2.170   0.240 -0.3114 -0.1388  0.0055
    21BTZ    C6 4146   2.378   2.246   0.119  0.2968  0.1571 -0.1706
    21BTZ    C7 4147   2.389   2.382   0.110  0.5855  0.1394 -0.1088
    21BTZ    C8 4148   2.406   2.166   0.003  0.1152  0.1500 -0.2104
    21BTZ    C9 4149   2.428   2.447  -0.013  0.7098  0.1139 -0.0832
    21BTZ   C10 4150   2.455   2.375  -0.126  0.5449  0.1061 -0.1195
    21BTZ   C11 4151   2.445   2.232  -0.121  0.2413  0.1240 -0.1844
    21BTZ    N2 4152   2.399   2.033   0.000 -0.1690  0.1656 -0.2713
    21BTZ    N3 4153   2.470   2.151  -0.225  0.0587  0.1187 -0.2244
    21BTZ    S3 4154   2.443   1.985  -0.166 -0.2897  0.1473 -0.2984
    31IDT   C12 4155   2.497   2.447  -0.252 -0.2997 -0.0740 -0.3449
    31IDT   C13 4156   2.529   2.580  -0.261 -0.3358 -0.0502 -0.1334
    31IDT   C14 4157   2.575   2.617  -0.392 -0.0778  0.1100  0.0013
    31IDT   C15 4158   2.578   2.513  -0.482  0.1562  0.2090 -0.1058
    31IDT    S4 4159   2.523   2.359  -0.409  0.0672  0.1063 -0.3885
    4IDB    C16 4160   2.629   2.557  -0.608  0.1329  0.1404  0.1513
    4IDB    C17 4161   2.666   2.695  -0.598 -0.1611  0.2388 -0.0782
    51IDQ   C18 4162   2.637   2.743  -0.456  0.8181 -0.2624  0.0702
    4IDB    C19 4163   2.717   2.763  -0.707 -0.3439  0.1786 -0.2029
    51IDQ   C20 4164   2.533   2.872  -0.462 -0.4039  0.7955  0.8385
    51IDQ   C21 4165   2.755   2.797  -0.365  0.1730 -0.8109  0.3516
    51IDQ   C22 4166   2.897   2.808  -0.417 -0.0267 -0.2928  0.4895
    51IDQ   C23 4167   2.377   2.871  -0.458  0.4562 -0.0512  0.6487
    51IDQ   C24 4168   2.990   2.868  -0.320 -0.1449 -0.5608 -0.1905
    51IDQ   C25 4169   3.136   2.901  -0.373  0.0545  0.4629 -1.1142
    51IDQ   C26 4170   3.231   2.976  -0.280  0.0131 -0.8218 -0.3198
    51IDQ   C27 4171   3.189   3.099  -0.203  0.6202 -0.0433 -0.5034
    51IDQ   C28 4172   3.286   3.113  -0.084  0.0892  0.1270  0.2993
    51IDQ   C29 4173   3.247   3.231   0.001 -0.9915  0.0930  0.4660
    51IDQ   C30 4174   2.310   2.786  -0.562 -0.5755  0.3995  0.1550
    51IDQ   C31 4175   2.160   2.783  -0.544  1.1076  0.0858  0.1040
    51IDQ   C32 4176   2.086   2.719  -0.664 -0.0459  0.2047 -0.2106
    51IDQ   C33 4177   1.931   2.725  -0.642  0.0957  0.1752  0.0316
    51IDQ   C34 4178   1.839   2.635  -0.724  0.7443 -0.2127  0.7442
    51IDQ   C35 4179   1.686   2.656  -0.694 -0.2608 -0.4474  0.0932
    4IDB    C36 4180   2.643   2.487  -0.728  0.2464 -0.0196  0.2578
    4IDB    C37 4181   2.696   2.558  -0.839  0.0564 -0.0789  0.1278
    11RH    C38 4182   2.278   2.113   0.815  0.4824  0.1460  0.0488
    4IDB    C39 4183   2.732   2.692  -0.828 -0.2304  0.0187 -0.0963
    62IDT   C40 4184   2.789   2.738  -0.953 -0.0564  0.5417  0.2675
    72IDQ   C41 4185   2.732   2.506  -0.986 -0.1091 -0.0766 -0.2778
    62IDT   C42 4186   2.779   2.640  -1.050 -0.2939  0.3810  0.4516
    72IDQ   C43 4187   2.602   2.470  -1.066  0.3892  0.5602  0.1787
    72IDQ   C44 4188   2.831   2.376  -0.972  0.2773 -0.0871 -0.1303
    62IDT    S5 4189   2.860   2.890  -1.018  0.2104  0.2847 -0.0470
    62IDT   C45 4190   2.874   2.809  -1.181 -0.0246 -0.0422  0.0943
    62IDT   C46 4191   2.827   2.680  -1.179 -0.2763  0.0508  0.3542
    82BTZ   C47 4192   2.931   2.886  -1.298  0.0203 -0.1277  0.0290
    82BTZ   C48 4193   2.981   2.810  -1.400  0.1086 -0.0800  0.0361
    82BTZ   C49 4194   3.013   2.867  -1.529  0.2205 -0.0197  0.0904
    82BTZ   C50 4195   2.995   3.000  -1.555  0.2438 -0.0074  0.1373
    82BTZ   C51 4196   2.910   3.026  -1.320  0.0405 -0.1171  0.0768
    82BTZ   C52 4197   2.943   3.084  -1.451  0.1543 -0.0558  0.1318
    92RH    C53 4198   3.024   3.066  -1.682  0.4554  0.1238  0.1501
    82BTZ    N4 4199   2.862   3.110  -1.229 -0.0385 -0.1599  0.0752
    82BTZ    N5 4200   2.921   3.215  -1.464  0.1665 -0.0495  0.1745
    82BTZ    S6 4201   2.857   3.271  -1.307  0.0304 -0.1230  0.1453
    92RH    C54 4202   3.071   3.026  -1.800  0.2874  0.0009  0.1243
    92RH     S7 4203   3.135   2.859  -1.841  0.1254 -0.0740  0.1763
    92RH    C55 4204   3.080   3.113  -1.919  0.2048 -0.0964  0.0467
    92RH     O2 4205   3.045   3.232  -1.924  0.2795 -0.0764 -0.0026
    92RH     N6 4206   3.134   3.044  -2.030  0.0265 -0.2182  0.0346
    92RH    C56 4207   3.170   2.912  -2.014 -0.0437 -0.2303  0.0932
    92RH    C57 4208   3.150   3.114  -2.167  0.0109  0.0675 -0.6387
    92RH    C58 4209   3.039   3.095  -2.270  0.2537  0.9025 -0.2757
    92RH     S8 4210   3.236   2.808  -2.129 -0.2508 -0.3635  0.0936
    72IDQ   C59 4211   2.978   2.401  -0.964  0.0577 -0.0815 -0.4432
    72IDQ   C60 4212   3.061   2.404  -1.092 -0.4030 -0.5095 -0.2374
    72IDQ   C61 4213   3.212   2.413  -1.059  0.2270  0.7117  0.0060
    72IDQ   C62 4214   3.284   2.448  -1.190 -0.2105 -0.0972  0.2736
    72IDQ   C63 4215   3.440   2.440  -1.187  0.1537  0.1418 -0.4543
    72IDQ   C64 4216   3.515   2.552  -1.109  0.2947  0.9581 -0.2401
    72IDQ   C65 4217   3.670   2.545  -1.111  0.6110 -0.6187 -0.5000
    72IDQ   C66 4218   2.619   2.392  -1.191 -0.1262 -0.2694  0.1001
    72IDQ   C67 4219   2.517   2.443  -1.292  0.0401  0.0327 -0.0617
    72IDQ   C68 4220   2.520   2.381  -1.430  0.0138 -0.1853  0.8133
    72IDQ   C69 4221   2.408   2.415  -1.533  0.1848  0.6028 -0.0419
    72IDQ   C70 4222   2.263   2.372  -1.495  0.3960 -0.0793 -0.5583
    72IDQ   C71 4223   2.157   2.406  -1.603 -0.2847 -0.1070  0.2421
    72IDQ   C72 4224   2.009   2.398  -1.568  0.0962  0.4053 -0.1774
    11RH     C1 4225   2.048   4.622   2.077  0.0643  0.1512 -0.4471
    11RH     C2 4226   2.086   4.531   1.967 -0.0117 -0.0566 -0.3043
    11RH     N1 4227   2.010   4.549   2.192  0.0755  0.3652 -0.3078
    11RH     S1 4228   2.069   4.356   2.021 -0.0637  0.0431  0.0038
    11RH     C3 4229   2.012   4.412   2.187  0.0176  0.3545 -0.0709
    11RH     C4 4230   1.937   4.626   2.293  0.4432 -0.0937  0.0304
    11RH     S2 4231   1.972   4.303   2.310  0.0164  0.5816  0.1323
    11RH     O1 4232   2.049   4.746   2.073  0.1131  0.1434 -0.6620
    11RH     C5 4233   2.126   4.574   1.846 -0.0365 -0.2803 -0.3937
    21BTZ    C6 4234   2.170   4.510   1.725 -0.0436 -0.3752 -0.3693
    21BTZ    C7 4235   2.170   4.375   1.705 -0.0259 -0.3716 -0.3933
    21BTZ    C8 4236   2.218   4.595   1.620 -0.0811 -0.3487 -0.3653
    21BTZ    C9 4237   2.217   4.316   1.582 -0.0442 -0.3421 -0.4144
    21BTZ   C10 4238   2.264   4.393   1.479 -0.0801 -0.3162 -0.4114
    21BTZ   C11 4239   2.266   4.535   1.495 -0.0997 -0.3188 -0.3867
    21BTZ    N2 4240   2.223   4.728   1.627 -0.1012 -0.3493 -0.3428
    21BTZ    N3 4241   2.310   4.621   1.402 -0.1348 -0.2953 -0.3815
    21BTZ    S3 4242   2.291   4.785   1.471 -0.1456 -0.3107 -0.3483
    31IDT   C12 4243   2.313   4.319   1.360 -0.7812 -0.0320 -0.2226
    31IDT   C13 4244   2.353   4.188   1.359 -0.8942 -0.0690 -0.0248
    31IDT   C14 4245   2.401   4.146   1.231 -0.2600 -0.1006  0.2189
    31IDT   C15 4246   2.399   4.245   1.134  0.3392 -0.0877  0.2086
    31IDT    S4 4247   2.334   4.400   1.198  0.1449 -0.0345 -0.1135
    4IDB    C16 4248   2.448   4.191   1.014 -0.2163 -0.0891  0.0192
    4IDB    C17 4249   2.472   4.050   1.019 -0.6493 -0.1742 -0.2234
    51IDQ   C18 4250   2.453   4.015   1.171  0.4030 -0.5361 -0.4469
    4IDB    C19 4251   2.522   3.982   0.909 -0.3124 -0.0327 -0.1611
    51IDQ   C20 4252   2.347   3.903   1.172  0.1181  0.7729 -0.0463
    51IDQ   C21 4253   2.578   3.966   1.253  0.0942  0.5707 -0.1758
    51IDQ   C22 4254   2.719   3.969   1.201  0.1599  0.2066 -0.7942
    51IDQ   C23 4255   2.190   3.902   1.199 -0.9035 -0.0323  0.2718
    51IDQ   C24 4256   2.819   3.938   1.308 -0.9517 -0.0810  0.5047
    51IDQ   C25 4257   2.955   3.902   1.244 -0.2466 -0.8504  0.0550
    51IDQ   C26 4258   3.067   3.892   1.345  0.4194  0.3920 -0.2380
    51IDQ   C27 4259   3.055   3.805   1.470 -0.1168  0.6129 -0.0356
    51IDQ   C28 4260   3.032   3.650   1.454 -0.6760  0.4199  0.4293
    51IDQ   C29 4261   3.029   3.578   1.588  0.1758  0.4019  0.0712
    51IDQ   C30 4262   2.110   3.973   1.094 -1.1283  0.1292 -0.4737
    51IDQ   C31 4263   1.960   3.962   1.102  0.0872 -0.2771 -0.3302
    51IDQ   C32 4264   1.875   4.028   0.994 -0.2654 -0.4408 -0.6154
    51IDQ   C33 4265   1.723   3.995   0.992 -0.5424  0.8786 -0.2135
    51IDQ   C34 4266   1.622   4.083   0.921 -0.3422 -0.4925 -0.3261
    51IDQ   C35 4267   1.481   4.033   0.929 -0.2561 -0.7267 -0.3575
    4IDB    C36 4268   2.474   4.265   0.898  0.5611  0.1397  0.3274
    4IDB    C37 4269   2.525   4.194   0.786  0.8956  0.2819  0.3867
    11RH    C38 4270   2.041   4.679   2.397 -0.3350 -0.2361  0.6331
    4IDB    C39 4271   2.548   4.056   0.793  0.4649  0.1961  0.1472
    62IDT   C40 4272   2.591   4.011   0.665 -0.0764 -0.0982 -0.1979
    72IDQ   C41 4273   2.556   4.244   0.648 -0.4851 -0.0433  0.6646
    62IDT   C42 4274   2.597   4.118   0.578 -0.1482 -0.1647 -0.2838
    72IDQ   C43 4275   2.424   4.294   0.568  0.0210 -0.4860  0.1379
    72IDQ   C44 4276   2.673   4.353   0.638  0.1761  0.2121 -0.4348
    62IDT    S5 4277   2.639   3.857   0.587  0.0088 -0.1325 -0.0784
    62IDT   C45 4278   2.666   3.949   0.433 -0.0605 -0.2404 -0.1546
    62IDT   C46 4279   2.640   4.082   0.446 -0.1393 -0.2452 -0.2595
    82BTZ   C47 4280   2.702   3.874   0.307  0.1417  0.0360  0.2586
    82BTZ   C48 4281   2.754   3.949   0.204  0.1302  0.1057  0.3039
    82BTZ   C49 4282   2.790   3.890   0.078  0.0693  0.2000  0.2418
    82BTZ   C50 4283   2.775   3.756   0.054  0.0202  0.2244  0.1347
    82BTZ   C51 4284   2.684   3.733   0.287  0.0917  0.0580  0.1467
    82BTZ   C52 4285   2.722   3.673   0.158  0.0299  0.1538  0.0837
    92RH    C53 4286   2.807   3.690  -0.075  0.1652  0.1544 -0.4088
    82BTZ    N4 4287   2.635   3.650   0.378  0.0972 -0.0038  0.0937
    82BTZ    N5 4288   2.702   3.541   0.147 -0.0142  0.1690 -0.0201
    82BTZ    S6 4289   2.634   3.487   0.303  0.0221  0.0592 -0.0420
    92RH    C54 4290   2.849   3.739  -0.193  0.1814  0.1734 -0.3951
    92RH     S7 4291   2.893   3.913  -0.231  0.1934  0.1784 -0.3588
    92RH    C55 4292   2.866   3.655  -0.314  0.1923  0.1944 -0.4081
    92RH     O2 4293   2.845   3.533  -0.321  0.1880  0.1965 -0.4321
    92RH     N6 4294   2.911   3.732  -0.424  0.2088  0.2119 -0.3887
    92RH    C56 4295   2.932   3.866  -0.405  0.2124  0.2078 -0.3622
    92RH    C57 4296   2.927   3.664  -0.559 -0.3981  0.0963  0.0864
    92RH    C58 4297   2.810   3.663  -0.660 -0.8349 -0.5454  0.2212
    92RH     S8 4298   2.986   3.979  -0.518  0.2310  0.2256 -0.3357
    72IDQ   C59 4299   2.819   4.327   0.685 -0.3237 -0.1242  0.1933
    72IDQ   C60 4300   2.897   4.458   0.690  0.2983 -0.4949  0.3788
    72IDQ   C61 4301   3.049   4.442   0.689  0.5289 -0.7053 -0.2756
    72IDQ   C62 4302   3.120   4.333   0.603  0.0933  0.5978 -0.7051
    72IDQ   C63 4303   3.274   4.345   0.624 -0.0557  0.2642 -0.6949
    72IDQ   C64 4304   3.356   4.266   0.529 -0.1839  0.3763  0.5083
    72IDQ   C65 4305   3.492   4.228   0.588  0.3406  0.4340  0.2977
    72IDQ   C66 4306   2.439   4.347   0.424  0.2537 -0.2517 -0.5026
    72IDQ   C67 4307   2.301   4.350   0.372  0.9859  0.7171 -0.2466
    72IDQ   C68 4308   2.307   4.342   0.220 -0.6004  0.1585 -0.5868
    72IDQ   C69 4309   2.177   4.339   0.158 -0.3614 -0.0880  0.6525
    72IDQ   C70 4310   2.187   4.331   0.009  0.4743 -0.7110  0.0135
    72IDQ   C71 4311   2.049   4.317  -0.060  0.3818 -0.0576 -0.7052
    72IDQ   C72 4312   2.075   4.268  -0.209  0.0528  0.3045  0.1240
    11RH     C1 4313   1.340   3.818   6.060 -0.0002 -0.0734 -0.0893
    11RH     C2 4314   1.301   3.734   6.176 -0.1017 -0.0135 -0.0790
    11RH     N1 4315   1.376   3.740   5.949  0.0356 -0.1310 -0.0376
    11RH     S1 4316   1.315   3.556   6.130 -0.1436 -0.0367 -0.0018
    11RH     C3 4317   1.371   3.603   5.961 -0.0249 -0.1244  0.0129
    11RH     C4 4318   1.425   3.811   5.826  0.3371  0.7142 -0.3709
    11RH     S2 4319   1.408   3.487   5.843 -0.0002 -0.1848  0.0800
    11RH     O1 4320   1.341   3.942   6.059  0.0489 -0.0744 -0.1369
    11RH     C5 4321   1.263   3.783   6.294 -0.1527  0.0474 -0.1206
    21BTZ    C6 4322   1.223   3.719   6.414  0.0948  0.0752 -0.0087
    21BTZ    C7 4323   1.212   3.584   6.432 -0.1582  0.0904 -0.0429
    21BTZ    C8 4324   1.194   3.805   6.525  0.0673  0.1082 -0.0412
    21BTZ    C9 4325   1.172   3.526   6.558 -0.4491  0.1387 -0.1107
    21BTZ   C10 4326   1.144   3.605   6.667 -0.4864  0.1715 -0.1443
    21BTZ   C11 4327   1.154   3.747   6.654 -0.2283  0.1572 -0.1103
    21BTZ    N2 4328   1.201   3.939   6.521  0.2971  0.0976 -0.0130
    21BTZ    N3 4329   1.129   3.833   6.752 -0.2362  0.1860 -0.1374
    21BTZ    S3 4330   1.156   3.996   6.684  0.1420  0.1510 -0.0747
    31IDT   C12 4331   1.104   3.541   6.795  0.7208  0.1769  0.0917
    31IDT   C13 4332   1.073   3.408   6.808  1.2345  0.0459  0.0202
    31IDT   C14 4333   1.030   3.373   6.940  0.8320 -0.0718 -0.1379
    31IDT   C15 4334   1.028   3.479   7.028  0.0109 -0.0313 -0.1878
    31IDT    S4 4335   1.081   3.632   6.951 -0.3194  0.1607 -0.0371
    4IDB    C16 4336   0.969   3.436   7.151  0.0394  0.0960  0.3153
    4IDB    C17 4337   0.928   3.300   7.134 -0.3641  0.2668 -0.1179
    51IDQ   C18 4338   0.973   3.244   6.998  0.1501  0.3916  0.0098
    4IDB    C19 4339   0.862   3.231   7.235 -0.2044  0.0151 -0.1824
    51IDQ   C20 4340   1.086   3.131   7.011  0.2614 -0.2330  0.3516
    51IDQ   C21 4341   0.856   3.185   6.907  0.1664  0.2295 -0.4276
    51IDQ   C22 4342   0.706   3.182   6.941 -0.2615 -0.1442 -0.7091
    51IDQ   C23 4343   1.235   3.162   6.989  0.4535  0.7643  0.3663
    51IDQ   C24 4344   0.628   3.098   6.844 -0.1372 -0.1992 -0.8350
    51IDQ   C25 4345   0.483   3.102   6.896 -0.4729  0.4688 -0.3365
    51IDQ   C26 4346   0.383   3.015   6.812 -0.9928 -0.4996  1.0265
    51IDQ   C27 4347   0.409   2.867   6.792 -0.1122 -0.0754  0.5138
    51IDQ   C28 4348   0.325   2.795   6.697  0.3388 -0.3411  0.0614
    51IDQ   C29 4349   0.342   2.818   6.547 -0.5295 -0.1668 -0.0276
    51IDQ   C30 4350   1.310   3.235   7.095  0.4081 -0.1575  0.3365
    51IDQ   C31 4351   1.456   3.227   7.074  0.0953 -0.3699 -0.0428
    51IDQ   C32 4352   1.545   3.313   7.162  0.3150 -0.3354  0.2387
    51IDQ   C33 4353   1.696   3.310   7.128  0.2781 -0.4673 -0.0380
    51IDQ   C34 4354   1.790   3.408   7.191 -0.4311 -0.0643  0.6463
    51IDQ   C35 4355   1.934   3.355   7.200  0.0329  0.1456  0.7720
    4IDB    C36 4356   0.944   3.504   7.271  0.6085 -0.3302  0.6886
    4IDB    C37 4357   0.876   3.432   7.374  0.7639 -0.5826  0.6162
    11RH    C38 4358   1.316   3.846   5.721 -0.5829  0.5256  0.0353
    4IDB    C39 4359   0.837   3.300   7.355  0.3647 -0.4110  0.1909
    62IDT   C40 4360   0.781   3.251   7.479 -0.0369  0.1828 -0.2990
    72IDQ   C41 4361   0.840   3.479   7.518  0.6631 -0.3232  0.3984
    62IDT   C42 4362   0.793   3.348   7.576 -0.3484  0.4103 -0.4804
    72IDQ   C43 4363   0.971   3.524   7.584 -0.3633 -0.4746 -0.0726
    72IDQ   C44 4364   0.758   3.616   7.526  0.3074  0.1443  0.3190
    62IDT    S5 4365   0.715   3.098   7.544  0.3969  0.1130 -0.0220
    62IDT   C45 4366   0.708   3.176   7.708  0.1207  0.4096 -0.1735
    62IDT   C46 4367   0.752   3.305   7.706 -0.2598  0.5388 -0.4097
    82BTZ   C47 4368   0.675   3.108   7.832 -0.1250  0.1493  0.0051
    82BTZ   C48 4369   0.629   3.183   7.937 -0.2910  0.1807 -0.0899
    82BTZ   C49 4370   0.597   3.124   8.064 -0.5204  0.2145 -0.1304
    82BTZ   C50 4371   0.612   2.990   8.087 -0.5835  0.2167 -0.0759
    82BTZ   C51 4372   0.692   2.967   7.851 -0.1826  0.1503  0.0651
    82BTZ   C52 4373   0.660   2.907   7.980 -0.4158  0.1846  0.0240
    92RH    C53 4374   0.580   2.926   8.214  0.3285  0.1933  0.0337
    82BTZ    N4 4375   0.736   2.884   7.756 -0.0359  0.1215  0.1586
    82BTZ    N5 4376   0.678   2.775   7.990 -0.4565  0.1835  0.0844
    82BTZ    S6 4377   0.739   2.721   7.831 -0.1930  0.1374  0.1988
    92RH    C54 4378   0.539   2.963   8.336  0.3255  0.0057  0.0912
    92RH     S7 4379   0.474   3.128   8.384  0.1428 -0.1270  0.3012
    92RH    C55 4380   0.541   2.874   8.454  0.4753 -0.1273 -0.0106
    92RH     O2 4381   0.579   2.756   8.455  0.6185 -0.0820 -0.1580
    92RH     N6 4382   0.492   2.939   8.569  0.4360 -0.3166  0.0814
    92RH    C56 4383   0.451   3.071   8.558  0.2730 -0.3517  0.2445
    92RH    C57 4384   0.471   2.860   8.694 -0.7679 -0.2492 -0.6007
    92RH    C58 4385   0.599   2.877   8.783  0.0254  0.2263  0.2220
    92RH     S8 4386   0.390   3.171   8.679  0.1940 -0.5627  0.3802
    72IDQ   C59 4387   0.610   3.625   7.559  0.0413  0.4024  0.1220
    72IDQ   C60 4388   0.517   3.617   7.436 -0.1723  0.2017 -0.2831
    72IDQ   C61 4389   0.380   3.668   7.456  0.1412 -0.1407 -0.4377
    72IDQ   C62 4390   0.307   3.575   7.553 -0.5416 -0.0177  0.1590
    72IDQ   C63 4391   0.168   3.620   7.597 -0.3303  0.9907  0.1322
    72IDQ   C64 4392   0.103   3.534   7.707  0.2309 -0.4727 -0.3423
    72IDQ   C65 4393   0.039   3.401   7.663 -0.3436  0.1017 -0.9077
    72IDQ   C66 4394   0.988   3.544   7.732 -0.4132  0.5962 -0.1338
    72IDQ   C67 4395   1.132   3.587   7.767 -0.1330 -0.4184  0.0010
    72IDQ   C68 4396   1.167   3.608   7.917  0.3859 -0.5325  0.0060
    72IDQ   C69 4397   1.129   3.493   8.017  0.3780  0.6160  0.3270
    72IDQ   C70 4398   1.164   3.515   8.165  0.4484  0.3642  0.0161
    72IDQ   C71 4399   1.309   3.526   8.206  0.2938 -0.1899  0.5342
    72IDQ   C72 4400   1.328   3.520   8.359 -0.4524 -0.0799  0.2558
    11RH     C1 4401   1.975   2.900   1.176  0.2568 -0.1453  0.1455
    11RH     C2 4402   1.936   2.986   1.290  0.0745 -0.0805  0.0345
    11RH     N1 4403   2.014   2.977   1.064  0.3337 -0.2084  0.1289
    11RH     S1 4404   1.953   3.163   1.243  0.0158 -0.1066 -0.0845
    11RH     C3 4405   2.011   3.114   1.075  0.2351 -0.2019  0.0180
    11RH     C4 4406   2.064   2.903   0.945  0.0350 -0.0958  0.2474
    11RH     S2 4407   2.052   3.228   0.957  0.2952 -0.2679 -0.0249
    11RH     O1 4408   1.975   2.776   1.176  0.3354 -0.1459  0.2421
    11RH     C5 4409   1.895   2.938   1.408 -0.0276 -0.0139  0.0263
    21BTZ    C6 4410   1.854   3.001   1.533  0.0865  0.0233 -0.1807
    21BTZ    C7 4411   1.842   3.137   1.547  0.0862  0.0396 -0.3336
    21BTZ    C8 4412   1.816   2.917   1.643  0.0644  0.1455 -0.0939
    21BTZ    C9 4413   1.793   3.196   1.669  0.0644  0.1759 -0.4086
    21BTZ   C10 4414   1.755   3.120   1.776  0.0429  0.2957 -0.3306
    21BTZ   C11 4415   1.766   2.977   1.766  0.0422  0.2840 -0.1702
    21BTZ    N2 4416   1.823   2.784   1.641  0.0624  0.1431  0.0555
    21BTZ    N3 4417   1.732   2.893   1.864  0.0224  0.3929 -0.0820
    21BTZ    S3 4418   1.764   2.728   1.801  0.0314  0.3215  0.1062
    31IDT   C12 4419   1.700   3.196   1.895  0.2364 -0.1622  0.1899
    31IDT   C13 4420   1.668   3.329   1.896  0.3652 -0.1310  0.2989
    31IDT   C14 4421   1.622   3.374   2.024  0.3273 -0.2117  0.3141
    31IDT   C15 4422   1.620   3.276   2.121  0.1698 -0.3049  0.2170
    31IDT    S4 4423   1.676   3.117   2.057  0.0561 -0.2974  0.0976
    4IDB    C16 4424   1.578   3.324   2.243 -0.4147  0.1550 -0.2093
    4IDB    C17 4425   1.528   3.456   2.223 -0.3315  0.2151 -0.0254
    51IDQ   C18 4426   1.564   3.508   2.084 -0.4123 -0.3525  0.6275
    4IDB    C19 4427   1.460   3.522   2.324 -0.0960  0.2033  0.1428
    51IDQ   C20 4428   1.670   3.624   2.104 -0.0366  0.5525  0.7938
    51IDQ   C21 4429   1.455   3.567   1.987 -0.2552  0.3041 -0.3961
    51IDQ   C22 4430   1.312   3.528   2.021  0.1741 -0.0499  0.8059
    51IDQ   C23 4431   1.815   3.628   2.063 -0.9641 -0.1202  0.1089
    51IDQ   C24 4432   1.205   3.576   1.923  0.0437 -0.0339 -0.2498
    51IDQ   C25 4433   1.197   3.728   1.909 -0.5404  0.3217 -0.0835
    51IDQ   C26 4434   1.104   3.773   1.797  0.1241 -0.3173 -0.0937
    51IDQ   C27 4435   1.105   3.927   1.783 -0.3207 -0.9883 -0.1508
    51IDQ   C28 4436   1.047   3.982   1.654 -0.1999 -0.0980 -0.7094
    51IDQ   C29 4437   0.909   3.931   1.610  0.1012 -0.0386 -0.4721
    51IDQ   C30 4438   1.896   3.526   2.145 -0.6260  0.0640  0.0921
    51IDQ   C31 4439   2.041   3.576   2.178  0.6335  0.2739  0.7815
    51IDQ   C32 4440   2.134   3.464   2.244  0.3164  0.3826  0.0997
    51IDQ   C33 4441   2.267   3.522   2.259 -0.3308  0.2846 -0.7666
    51IDQ   C34 4442   2.385   3.419   2.271  0.0230  0.2937  0.3700
    51IDQ   C35 4443   2.535   3.453   2.288 -0.1028  0.7970 -0.2595
    4IDB    C36 4444   1.560   3.257   2.366 -0.2616  0.0821 -0.2261
    4IDB    C37 4445   1.490   3.327   2.468 -0.0215  0.0710 -0.0528
    11RH    C38 4446   1.957   2.882   0.842 -0.1437 -0.5246 -0.4825
    4IDB    C39 4447   1.442   3.456   2.447  0.0571  0.1304  0.1260
    62IDT   C40 4448   1.393   3.512   2.569  0.4841  0.2043 -0.0505
    72IDQ   C41 4449   1.451   3.281   2.611 -0.6645  0.0361 -0.1117
    62IDT   C42 4450   1.415   3.417   2.667  0.6263  0.4483  0.1576
    72IDQ   C43 4451   1.585   3.231   2.677 -0.1358  0.2150 -0.3053
    72IDQ   C44 4452   1.348   3.162   2.609 -0.6640 -0.8716 -0.3596
    62IDT    S5 4453   1.313   3.659   2.635 -0.0885  0.0756 -0.4470
    62IDT   C45 4454   1.313   3.580   2.799 -0.1062  0.3729 -0.3035
    62IDT   C46 4455   1.369   3.455   2.797  0.2928  0.5440  0.0148
    82BTZ   C47 4456   1.276   3.650   2.924  0.1813 -0.0577  0.1836
    82BTZ   C48 4457   1.229   3.576   3.030  0.2400 -0.0072  0.2453
    82BTZ   C49 4458   1.216   3.632   3.162  0.1520  0.1074  0.1885
    82BTZ   C50 4459   1.250   3.762   3.188  0.0055  0.1710  0.0701
    82BTZ   C51 4460   1.313   3.786   2.947  0.0284  0.0057  0.0593
    82BTZ   C52 4461   1.300   3.843   3.081 -0.0610  0.1220  0.0016
    92RH    C53 4462   1.238   3.821   3.320 -0.4014  0.1781  0.0772
    82BTZ    N4 4463   1.360   3.868   2.852 -0.0412 -0.0344 -0.0103
    82BTZ    N5 4464   1.337   3.971   3.095 -0.2024  0.1755 -0.1144
    82BTZ    S6 4465   1.391   4.025   2.933 -0.2279  0.0775 -0.1556
    92RH    C54 4466   1.195   3.782   3.441 -0.1922  0.1372  0.1385
    92RH     S7 4467   1.128   3.617   3.485  0.0738  0.0562  0.2465
    92RH    C55 4468   1.196   3.869   3.561 -0.1431  0.1519  0.1273
    92RH     O2 4469   1.236   3.986   3.564 -0.2867  0.2030  0.0614
    92RH     N6 4470   1.146   3.801   3.674  0.0917  0.1002  0.2021
    92RH    C56 4471   1.104   3.671   3.659  0.2369  0.0457  0.2718
    92RH    C57 4472   1.141   3.861   3.807  0.2888  0.0273  0.0448
    92RH    C58 4473   1.271   3.845   3.881  0.0489 -0.0511 -0.4938
    92RH     S8 4474   1.041   3.569   3.778  0.5218 -0.0222  0.3679
    72IDQ   C59 4475   1.201   3.196   2.601 -0.1429  0.2571 -0.1134
    72IDQ   C60 4476   1.100   3.082   2.577  0.1337 -0.7598  0.4302
    72IDQ   C61 4477   0.950   3.122   2.590 -0.3477  0.1453  0.5100
    72IDQ   C62 4478   0.908   3.194   2.720 -0.5648 -0.4189 -0.3305
    72IDQ   C63 4479   0.754   3.212   2.727 -0.5641 -0.1551  0.3660
    72IDQ   C64 4480   0.714   3.244   2.861 -0.2998 -0.0379 -0.4271
    72IDQ   C65 4481   0.574   3.297   2.846 -0.4548 -0.2044 -0.3092
    72IDQ   C66 4482   1.590   3.228   2.833  0.3495 -0.1362 -0.3893
    72IDQ   C67 4483   1.545   3.098   2.900  0.0895  0.0115 -0.5881
    72IDQ   C68 4484   1.553   3.066   3.051  0.2739 -0.0938 -0.3877
    72IDQ   C69 4485   1.496   3.173   3.144  0.4829 -0.2255  0.7892
    72IDQ   C70 4486   1.353   3.225   3.115  0.6695  0.2284 -0.4866
    72IDQ   C71 4487   1.259   3.218   3.233 -0.0483 -0.5812  0.6624
    72IDQ   C72 4488   1.115   3.245   3.183 -0.3004  0.7722  0.2954
    11RH     C1 4489   1.803   3.700   3.761  0.0936 -0.1029 -0.0963
    11RH     C2 4490   1.841   3.788   3.648  0.0175 -0.0226 -0.0592
    11RH     N1 4491   1.767   3.774   3.875  0.2432 -0.1844  0.0054
    11RH     S1 4492   1.826   3.963   3.699  0.1477 -0.0597  0.1068
    11RH     C3 4493   1.771   3.912   3.868  0.2963 -0.1793  0.1193
    11RH     C4 4494   1.708   3.711   3.994  0.0861  0.1714 -0.1073
    11RH     S2 4495   1.733   4.023   3.988  0.4688 -0.2655  0.2543
    11RH     O1 4496   1.802   3.575   3.759  0.0360 -0.1007 -0.2024
    11RH     C5 4497   1.879   3.742   3.529 -0.1248  0.0627 -0.1381
    21BTZ    C6 4498   1.924   3.802   3.399  0.0954  0.0770  0.0739
    21BTZ    C7 4499   1.933   3.937   3.379  0.0883  0.0691  0.0175
    21BTZ    C8 4500   1.960   3.714   3.292 -0.0521  0.0362  0.0582
    21BTZ    C9 4501   1.976   3.992   3.253 -0.0630  0.0209 -0.0565
    21BTZ   C10 4502   2.011   3.912   3.147 -0.2070 -0.0193 -0.0740
    21BTZ   C11 4503   2.004   3.770   3.164 -0.2059 -0.0128 -0.0169
    21BTZ    N2 4504   1.955   3.580   3.299 -0.0608  0.0393  0.1084
    21BTZ    N3 4505   2.035   3.681   3.068 -0.3383 -0.0491 -0.0272
    21BTZ    S3 4506   2.009   3.520   3.140 -0.2703 -0.0216  0.0606
    31IDT   C12 4507   2.062   3.985   3.031  0.0145 -0.2978  0.0758
    31IDT   C13 4508   2.094   4.118   3.021  0.4500 -0.3694  0.4280
    31IDT   C14 4509   2.140   4.154   2.891  0.4010 -0.1420  0.4736
    31IDT   C15 4510   2.144   4.049   2.801 -0.0708  0.1042  0.1572
    31IDT    S4 4511   2.089   3.895   2.875 -0.4938  0.0665 -0.2265
    4IDB    C16 4512   2.194   4.099   2.671 -0.4813  0.3701 -0.4047
    4IDB    C17 4513   2.222   4.238   2.682 -0.1513  0.3014 -0.3637
    51IDQ   C18 4514   2.190   4.283   2.824  0.4359 -0.0142 -0.7726
    4IDB    C19 4515   2.278   4.309   2.576  0.0641  0.1902 -0.3250
    51IDQ   C20 4516   2.077   4.392   2.798  0.0774  0.3069  0.3224
    51IDQ   C21 4517   2.308   4.344   2.913  0.2593 -0.2844  0.0230
    51IDQ   C22 4518   2.457   4.313   2.865  0.1359 -0.2593 -0.7543
    51IDQ   C23 4519   1.929   4.361   2.806 -0.1626  0.7602  0.3814
    51IDQ   C24 4520   2.559   4.389   2.952 -0.2171 -0.6373  0.4551
    51IDQ   C25 4521   2.561   4.368   3.109 -0.5362 -0.1843  0.7481
    51IDQ   C26 4522   2.578   4.226   3.158 -0.2923  0.6018  0.2266
    51IDQ   C27 4523   2.551   4.200   3.308  0.1280 -1.1021 -0.0403
    51IDQ   C28 4524   2.425   4.245   3.374  0.5829 -0.2529  0.1387
    51IDQ   C29 4525   2.448   4.257   3.524 -0.0061  0.1947  0.2296
    51IDQ   C30 4526   1.860   4.289   2.691 -0.6272 -0.3441  0.3090
    51IDQ   C31 4527   1.716   4.248   2.710 -0.2938 -0.4336  0.7835
    51IDQ   C32 4528   1.650   4.175   2.586 -0.1787 -0.8989 -0.1853
    51IDQ   C33 4529   1.495   4.164   2.598 -0.4867  0.1040 -0.2399
    51IDQ   C34 4530   1.424   4.285   2.564  0.3774  0.5123 -1.0130
    51IDQ   C35 4531   1.279   4.238   2.566 -0.0254 -0.1526 -0.3103
    4IDB    C36 4532   2.221   4.029   2.553 -0.5981  0.3277 -0.4072
    4IDB    C37 4533   2.279   4.102   2.445 -0.3744  0.2140 -0.3673
    11RH    C38 4534   1.802   3.674   4.109 -0.3540 -0.3360 -0.2701
    4IDB    C39 4535   2.306   4.238   2.458 -0.0528  0.1479 -0.3275
    62IDT   C40 4536   2.357   4.285   2.334 -0.0710  0.4176  0.3353
    72IDQ   C41 4537   2.301   4.054   2.300 -0.1366  0.3191  0.6887
    62IDT   C42 4538   2.347   4.187   2.238 -0.2690  0.1831  0.5925
    72IDQ   C43 4539   2.162   4.010   2.235  0.0905  0.3496 -0.4625
    72IDQ   C44 4540   2.399   3.929   2.288  0.1091 -0.1523  0.9886
    62IDT    S5 4541   2.429   4.436   2.268  0.0393  0.1732 -0.1147
    62IDT   C45 4542   2.443   4.354   2.107 -0.1998 -0.2541  0.0782
    62IDT   C46 4543   2.395   4.226   2.109 -0.3421 -0.1968  0.4475
    82BTZ   C47 4544   2.486   4.428   1.989  0.2418  0.0460  0.1726
    82BTZ   C48 4545   2.539   4.351   1.889  0.2344  0.0695  0.1504
    82BTZ   C49 4546   2.575   4.407   1.761  0.0882  0.0720  0.1101
    82BTZ   C50 4547   2.558   4.540   1.733 -0.0503  0.0509  0.0920
    82BTZ   C51 4548   2.466   4.568   1.965  0.0999  0.0231  0.1550
    82BTZ   C52 4549   2.502   4.625   1.835 -0.0486  0.0256  0.1140
    92RH    C53 4550   2.585   4.597   1.601 -0.1557 -0.0378 -0.0369
    82BTZ    N4 4551   2.415   4.654   2.054  0.0922 -0.0010  0.1736
    82BTZ    N5 4552   2.481   4.756   1.820 -0.1757  0.0033  0.0997
    82BTZ    S6 4553   2.412   4.814   1.974 -0.1095 -0.0219  0.1388
    92RH    C54 4554   2.630   4.550   1.484 -0.0269  0.0302 -0.0154
    92RH     S7 4555   2.691   4.380   1.450  0.1035  0.0781 -0.0238
    92RH    C55 4556   2.637   4.632   1.361  0.0314  0.0783  0.0196
    92RH     O2 4557   2.604   4.751   1.350 -0.0307  0.0620  0.0331
    92RH     N6 4558   2.688   4.557   1.252  0.1692  0.1470  0.0366
    92RH    C56 4559   2.723   4.425   1.274  0.2285  0.1597  0.0194
    92RH    C57 4560   2.692   4.625   1.120  0.7845  0.2737  0.1099
    92RH    C58 4561   2.571   4.611   1.026 -0.4538  0.2379  0.2637
    92RH     S8 4562   2.785   4.315   1.163  0.3899  0.2364  0.0336
    72IDQ   C59 4563   2.540   3.941   2.346  0.1054  0.6609 -0.0095
    72IDQ   C60 4564   2.619   3.816   2.332 -0.0209  0.1396  0.2296
    72IDQ   C61 4565   2.771   3.846   2.347  0.0694  0.5525 -0.2982
    72IDQ   C62 4566   2.846   3.890   2.221  0.0435  0.1997  0.3200
    72IDQ   C63 4567   2.978   3.960   2.235  0.3725 -0.0412 -0.2721
    72IDQ   C64 4568   3.030   4.002   2.105  0.1787 -0.0934  0.8562
    72IDQ   C65 4569   3.168   4.058   2.128  0.2031 -0.1210 -0.3541
    72IDQ   C66 4570   2.145   4.005   2.083 -0.0288 -0.1951 -0.0655
    72IDQ   C67 4571   2.188   3.880   2.004 -0.7132  0.0832  0.2239
    72IDQ   C68 4572   2.173   3.896   1.850 -0.1642  0.3274  0.1689
    72IDQ   C69 4573   2.026   3.915   1.798  0.4137  0.2892 -0.3733
    72IDQ   C70 4574   2.008   3.931   1.647  0.2486  0.1063 -0.1669
    72IDQ   C71 4575   1.858   3.908   1.602  0.3036  0.1593  0.0137
    72IDQ   C72 4576   1.835   3.929   1.456  0.0765  0.2582  0.1331
    11RH     C1 4577   1.614   4.601   5.353 -0.1501 -0.0520 -0.2875
    11RH     C2 4578   1.654   4.513   5.240  0.0591 -0.0559 -0.2126
    11RH     N1 4579   1.577   4.526   5.466 -0.2188 -0.0469 -0.3068
    11RH     S1 4580   1.638   4.337   5.290  0.1516 -0.0527 -0.1725
    11RH     C3 4581   1.581   4.388   5.458 -0.0904 -0.0463 -0.2565
    11RH     C4 4582   1.521   4.596   5.589 -0.1322 -0.1103  0.2699
    11RH     S2 4583   1.542   4.276   5.578 -0.1350 -0.0405 -0.2661
    11RH     O1 4584   1.614   4.725   5.351 -0.2550 -0.0532 -0.3291
    11RH     C5 4585   1.694   4.559   5.121  0.1597 -0.0610 -0.1809
    21BTZ    C6 4586   1.747   4.493   5.002 -0.2395  0.0423 -0.1392
    21BTZ    C7 4587   1.770   4.358   4.990 -0.2094  0.0517 -0.1853
    21BTZ    C8 4588   1.774   4.578   4.890 -0.1571  0.1010 -0.0741
    21BTZ    C9 4589   1.821   4.301   4.868 -0.0975  0.1190 -0.1698
    21BTZ   C10 4590   1.849   4.379   4.758 -0.0159  0.1767 -0.1082
    21BTZ   C11 4591   1.827   4.520   4.766 -0.0433  0.1694 -0.0583
    21BTZ    N2 4592   1.756   4.711   4.890 -0.1763  0.0983 -0.0250
    21BTZ    N3 4593   1.850   4.606   4.667  0.0289  0.2216  0.0036
    21BTZ    S3 4594   1.805   4.768   4.728 -0.0471  0.1849  0.0449
    31IDT   C12 4595   1.902   4.303   4.635 -0.0475  0.1033  0.1237
    31IDT   C13 4596   1.932   4.169   4.632 -0.0100  0.1044  0.3884
    31IDT   C14 4597   1.981   4.126   4.505 -0.1869 -0.1732  0.4117
    31IDT   C15 4598   1.990   4.227   4.411 -0.3599 -0.3876  0.1655
    31IDT    S4 4599   1.935   4.385   4.476 -0.3119 -0.2529 -0.1176
    4IDB    C16 4600   2.039   4.176   4.281 -0.1285  0.0751 -0.4146
    4IDB    C17 4601   2.076   4.039   4.295 -0.8394 -0.1210 -0.3895
    51IDQ   C18 4602   2.046   4.000   4.446 -0.1961 -0.1246  0.8322
    4IDB    C19 4603   2.123   3.966   4.185 -0.3537 -0.1215 -0.1849
    51IDQ   C20 4604   1.961   3.871   4.439  0.5902  0.4776 -0.0843
    51IDQ   C21 4605   2.173   3.962   4.528 -0.1139  0.6175 -0.3548
    51IDQ   C22 4606   2.314   3.962   4.479 -0.0343  0.3365  0.2174
    51IDQ   C23 4607   1.808   3.864   4.471 -0.3009  0.8911 -0.0749
    51IDQ   C24 4608   2.422   3.952   4.587 -0.6330  0.4085 -0.1555
    51IDQ   C25 4609   2.429   3.823   4.672 -0.4519 -1.1247 -0.8558
    51IDQ   C26 4610   2.476   3.693   4.603  0.1526 -0.1115 -0.5066
    51IDQ   C27 4611   2.472   3.561   4.672 -0.1294  0.3939 -0.0689
    51IDQ   C28 4612   2.333   3.519   4.724  0.2067 -0.5084  0.3310
    51IDQ   C29 4613   2.348   3.423   4.848  0.4067 -0.2146  0.4635
    51IDQ   C30 4614   1.715   3.927   4.367 -0.9873 -0.1772  0.5553
    51IDQ   C31 4615   1.566   3.926   4.403 -0.3444 -0.5782  0.0038
    51IDQ   C32 4616   1.474   3.979   4.290 -0.0830  0.5683 -0.2553
    51IDQ   C33 4617   1.323   3.966   4.322  0.0501  0.1020  0.7462
    51IDQ   C34 4618   1.242   4.029   4.205 -0.2482 -0.3988 -0.5599
    51IDQ   C35 4619   1.093   4.000   4.215  0.3368 -0.2738  0.2295
    4IDB    C36 4620   2.049   4.242   4.158  1.0799  0.2729 -0.2339
    4IDB    C37 4621   2.098   4.167   4.048  1.5609  0.2691 -0.0262
    11RH    C38 4622   1.626   4.639   5.691  0.3557 -0.3237  0.1387
    4IDB    C39 4623   2.133   4.033   4.062  0.8548  0.0762 -0.0043
    62IDT   C40 4624   2.179   3.980   3.939  0.0655 -0.0134 -0.1265
    72IDQ   C41 4625   2.126   4.213   3.899  0.6424  0.4966 -0.4973
    62IDT   C42 4626   2.164   4.076   3.841 -0.0222 -0.1105 -0.2086
    72IDQ   C43 4627   1.991   4.265   3.835  0.3237  0.1245 -0.0345
    72IDQ   C44 4628   2.222   4.331   3.904 -0.2440 -0.0030  0.1923
    62IDT    S5 4629   2.237   3.824   3.872  0.0790 -0.0573 -0.0123
    62IDT   C45 4630   2.238   3.899   3.707 -0.0404 -0.2121 -0.0851
    62IDT   C46 4631   2.198   4.030   3.709 -0.0821 -0.2228 -0.1852
    82BTZ   C47 4632   2.275   3.823   3.587 -0.0881  0.0201  0.0453
    82BTZ   C48 4633   2.322   3.901   3.485 -0.0647  0.0638  0.0893
    82BTZ   C49 4634   2.345   3.848   3.353  0.0232  0.1060  0.0870
    82BTZ   C50 4635   2.320   3.716   3.324  0.0877  0.1043  0.0407
    82BTZ   C51 4636   2.248   3.685   3.562 -0.0230  0.0165 -0.0041
    82BTZ   C52 4637   2.271   3.630   3.427  0.0665  0.0592 -0.0064
    92RH    C53 4638   2.340   3.657   3.193 -0.0002 -0.1283  0.2457
    82BTZ    N4 4639   2.202   3.599   3.653 -0.0377 -0.0242 -0.0495
    82BTZ    N5 4640   2.243   3.501   3.411  0.1235  0.0529 -0.0537
    82BTZ    S6 4641   2.186   3.442   3.570  0.0642 -0.0092 -0.0983
    92RH    C54 4642   2.381   3.713   3.078 -0.0083 -0.1765  0.2195
    92RH     S7 4643   2.438   3.885   3.054 -0.1131 -0.1559  0.1204
    92RH    C55 4644   2.387   3.639   2.950  0.0694 -0.2567  0.2688
    92RH     O2 4645   2.356   3.520   2.933  0.1496 -0.2881  0.3387
    92RH     N6 4646   2.434   3.722   2.845  0.0414 -0.2943  0.2262
    92RH    C56 4647   2.467   3.852   2.875 -0.0491 -0.2541  0.1489
    92RH    C57 4648   2.438   3.674   2.699 -0.4825 -0.3844 -0.1309
    92RH    C58 4649   2.306   3.696   2.622  0.3294 -0.2784 -0.0689
    92RH     S8 4650   2.525   3.970   2.769 -0.0998 -0.2854  0.0856
    72IDQ   C59 4651   2.370   4.309   3.934 -0.8940  0.6317 -0.0362
    72IDQ   C60 4652   2.458   4.434   3.944  0.2749  0.0168  0.4578
    72IDQ   C61 4653   2.603   4.421   3.972 -0.2839 -0.3166  0.0044
    72IDQ   C62 4654   2.676   4.384   3.848 -0.3932  0.4610 -0.6706
    72IDQ   C63 4655   2.817   4.334   3.883  0.2817 -0.5782 -0.2751
    72IDQ   C64 4656   2.860   4.231   3.781 -0.4682 -0.0079 -0.1921
    72IDQ   C65 4657   2.999   4.181   3.793 -0.0729 -0.0701  0.1265
    72IDQ   C66 4658   1.981   4.328   3.694 -0.5308 -0.2173 -0.1006
    72IDQ   C67 4659   1.838   4.338   3.634 -0.7106  1.0516 -0.3321
    72IDQ   C68 4660   1.843   4.338   3.485 -0.3085  0.1609  0.4419
    72IDQ   C69 4661   1.712   4.310   3.414  0.2289  0.1945  0.1663
    72IDQ   C70 4662   1.700   4.357   3.271 -0.7214 -0.1680  1.2252
    72IDQ   C71 4663   1.563   4.327   3.201 -0.2292  0.0198  0.2665
    72IDQ   C72 4664   1.563   4.354   3.053 -0.4391  0.3388 -0.2277
    11RH     C1 4665   1.774   3.797   2.773 -0.0685 -0.1233  0.2400
    11RH     C2 4666   1.739   3.707   2.886  0.0044 -0.1450  0.2457
    11RH     N1 4667   1.805   3.723   2.657 -0.2196 -0.0984  0.1839
    11RH     S1 4668   1.749   3.532   2.832 -0.1305 -0.1314  0.1767
    11RH     C3 4669   1.799   3.586   2.662 -0.2767 -0.0976  0.1438
    11RH     C4 4670   1.864   3.793   2.542 -0.2254 -0.9074  0.7612
    11RH     S2 4671   1.830   3.475   2.539 -0.4518 -0.0707  0.0745
    11RH     O1 4672   1.777   3.921   2.777 -0.0073 -0.1260  0.2789
    11RH     C5 4673   1.706   3.752   3.008  0.1474 -0.1706  0.2944
    21BTZ    C6 4674   1.655   3.686   3.129 -0.1835 -0.0358 -0.0672
    21BTZ    C7 4675   1.638   3.552   3.148 -0.2006 -0.0336 -0.0682
    21BTZ    C8 4676   1.615   3.777   3.232 -0.0631 -0.0383 -0.0178
    21BTZ    C9 4677   1.580   3.500   3.270 -0.1008 -0.0342 -0.0211
    21BTZ   C10 4678   1.540   3.582   3.372  0.0158 -0.0366  0.0270
    21BTZ   C11 4679   1.556   3.724   3.356  0.0383 -0.0388  0.0300
    21BTZ    N2 4680   1.627   3.909   3.224 -0.0350 -0.0405 -0.0117
    21BTZ    N3 4681   1.522   3.815   3.448  0.1479 -0.0414  0.0746
    21BTZ    S3 4682   1.563   3.974   3.378  0.1256 -0.0434  0.0569
    31IDT   C12 4683   1.487   3.522   3.494  0.1252  0.3238  0.1033
    31IDT   C13 4684   1.450   3.390   3.504  0.2153  0.2658 -0.3148
    31IDT   C14 4685   1.405   3.354   3.634  0.1992 -0.1710 -0.4368
    31IDT   C15 4686   1.406   3.458   3.725  0.0969 -0.4481 -0.1134
    31IDT    S4 4687   1.466   3.611   3.651  0.0123 -0.1751  0.3754
    4IDB    C16 4688   1.382   3.411   3.858  0.2738  0.3511  0.2513
    4IDB    C17 4689   1.336   3.276   3.851 -0.1742  0.5093  0.0837
    51IDQ   C18 4690   1.348   3.233   3.704 -0.1200  0.6942  0.1490
    4IDB    C19 4691   1.293   3.210   3.965 -0.1479  0.4267  0.0456
    51IDQ   C20 4692   1.460   3.118   3.700  0.6525 -0.7155 -0.6575
    51IDQ   C21 4693   1.217   3.184   3.629 -0.5285 -0.2884  0.1561
    51IDQ   C22 4694   1.080   3.199   3.699  0.5226  0.1458  0.4101
    51IDQ   C23 4695   1.607   3.128   3.671  0.3333  0.5337  0.2186
    51IDQ   C24 4696   0.961   3.186   3.599  0.4928 -0.0623 -0.3022
    51IDQ   C25 4697   0.936   3.060   3.521  0.4599 -0.2472 -0.0488
    51IDQ   C26 4698   0.824   3.077   3.420 -0.2255 -0.0983 -1.1971
    51IDQ   C27 4699   0.782   2.962   3.327 -0.5106 -0.1092 -0.2386
    51IDQ   C28 4700   0.746   2.836   3.403  0.5345 -0.9153 -0.2130
    51IDQ   C29 4701   0.730   2.724   3.305  0.7483 -0.4224  0.0295
    51IDQ   C30 4702   1.692   3.191   3.783 -0.0646  0.3704  0.4988
    51IDQ   C31 4703   1.838   3.207   3.752  0.6158 -0.0906  0.3947
    51IDQ   C32 4704   1.918   3.245   3.873  0.4621 -0.0204 -0.2238
    51IDQ   C33 4705   2.071   3.226   3.853  0.3922 -0.1817 -0.3137
    51IDQ   C34 4706   2.158   3.283   3.968 -0.1789  0.4876  0.0839
    51IDQ   C35 4707   2.290   3.348   3.928  0.4374  0.4229  0.4780
    4IDB    C36 4708   1.385   3.481   3.980  0.7537  0.1079  0.3825
    4IDB    C37 4709   1.340   3.411   4.096  0.7733  0.0267  0.3409
    11RH    C38 4710   1.751   3.829   2.438 -0.4554 -0.0081 -0.4094
    4IDB    C39 4711   1.296   3.279   4.087  0.3320  0.1835  0.1767
    62IDT   C40 4712   1.245   3.232   4.218 -0.6283 -0.0253 -0.2327
    72IDQ   C41 4713   1.316   3.459   4.239  0.5995 -0.0723  1.0467
    62IDT   C42 4714   1.258   3.335   4.310 -0.8372  0.1032 -0.3438
    72IDQ   C43 4715   1.452   3.506   4.308  0.2681  0.1382  0.8832
    72IDQ   C44 4716   1.218   3.582   4.236  0.1050 -0.1069 -0.3427
    62IDT    S5 4717   1.183   3.082   4.295  0.1467 -0.2215  0.0255
    62IDT   C45 4718   1.179   3.170   4.454  0.1474 -0.1142 -0.0336
    62IDT   C46 4719   1.221   3.300   4.443 -0.3990  0.0531 -0.2316
    82BTZ   C47 4720   1.135   3.104   4.579  0.0041 -0.2109 -0.1890
    82BTZ   C48 4721   1.091   3.181   4.683  0.0752 -0.1871 -0.1764
    82BTZ   C49 4722   1.053   3.124   4.809  0.1232 -0.1621 -0.1506
    82BTZ   C50 4723   1.059   2.989   4.832  0.1000 -0.1610 -0.1373
    82BTZ   C51 4724   1.143   2.962   4.597 -0.0228 -0.2108 -0.1760
    82BTZ   C52 4725   1.105   2.903   4.726  0.0260 -0.1854 -0.1497
    92RH    C53 4726   1.018   2.932   4.964  0.1346 -0.0543  0.0727
    82BTZ    N4 4727   1.185   2.876   4.504 -0.0909 -0.2327 -0.1861
    82BTZ    N5 4728   1.115   2.770   4.736 -0.0029 -0.1869 -0.1388
    82BTZ    S6 4729   1.176   2.713   4.578 -0.0957 -0.2215 -0.1619
    92RH    C54 4730   0.968   2.974   5.080  0.0692  0.0044  0.0231
    92RH     S7 4731   0.918   3.146   5.122 -0.0081  0.0151 -0.1107
    92RH    C55 4732   0.944   2.885   5.196  0.0490  0.0721  0.0712
    92RH     O2 4733   0.967   2.763   5.200  0.0893  0.0822  0.1611
    92RH     N6 4734   0.890   2.956   5.306 -0.0232  0.1251  0.0012
    92RH    C56 4735   0.868   3.091   5.291 -0.0634  0.1082 -0.0969
    92RH    C57 4736   0.851   2.880   5.428 -0.6362  0.2110 -0.4670
    92RH    C58 4737   0.974   2.868   5.527 -0.1759 -0.4784  0.1948
    92RH     S8 4738   0.805   3.198   5.406 -0.1500  0.1614 -0.1941
    72IDQ   C59 4739   1.073   3.537   4.200 -0.2450  0.6738  0.4913
    72IDQ   C60 4740   0.975   3.647   4.188  0.2612  0.3173  0.2883
    72IDQ   C61 4741   0.830   3.599   4.169  0.0234  0.4333 -0.9803
    72IDQ   C62 4742   0.769   3.514   4.285  0.5059  0.7192 -0.2049
    72IDQ   C63 4743   0.612   3.488   4.288  0.2038  0.3253 -0.6680
    72IDQ   C64 4744   0.568   3.415   4.412  0.2084 -0.3830  0.0428
    72IDQ   C65 4745   0.421   3.395   4.423  0.1958  0.0821 -0.2748
    72IDQ   C66 4746   1.446   3.580   4.438  0.0704 -0.3896 -0.2434
    72IDQ   C67 4747   1.568   3.572   4.525 -0.0739  0.0865 -0.3936
    72IDQ   C68 4748   1.540   3.610   4.668  0.1047 -0.8553 -0.3089
    72IDQ   C69 4749   1.675   3.591   4.748  0.6005  0.1829 -0.7140
    72IDQ   C70 4750   1.663   3.612   4.898  0.0752 -0.3633 -0.1661
    72IDQ   C71 4751   1.792   3.601   4.974 -0.0094  0.1749 -0.1166
    72IDQ   C72 4752   1.792   3.627   5.123 -0.6319  0.1154  0.1726
    11RH     C1 4753   1.602   2.888   4.440  0.1254  0.0660  0.1895
    11RH     C2 4754   1.550   2.981   4.544  0.0778 -0.0391  0.2613
    11RH     N1 4755   1.642   2.957   4.324 -0.0787  0.1596  0.1735
    11RH     S1 4756   1.559   3.154   4.481 -0.2322 -0.0080  0.3023
    11RH     C3 4757   1.630   3.095   4.322 -0.2840  0.1423  0.2230
    11RH     C4 4758   1.699   2.873   4.218  0.5849  0.2844  0.6502
    11RH     S2 4759   1.670   3.200   4.197 -0.5496  0.2387  0.2167
    11RH     O1 4760   1.609   2.765   4.452  0.3182  0.0735  0.1483
    11RH     C5 4761   1.506   2.942   4.663  0.2414 -0.1398  0.2896
    21BTZ    C6 4762   1.464   3.014   4.783  0.0108 -0.3186  0.1887
    21BTZ    C7 4763   1.453   3.150   4.802  0.1714 -0.2962  0.1299
    21BTZ    C8 4764   1.420   2.926   4.887  0.0557 -0.2169  0.2939
    21BTZ    C9 4765   1.397   3.205   4.923  0.3829 -0.1736  0.1714
    21BTZ   C10 4766   1.354   3.125   5.025  0.4334 -0.0736  0.2713
    21BTZ   C11 4767   1.364   2.983   5.010  0.2707 -0.0923  0.3361
    21BTZ    N2 4768   1.426   2.793   4.881 -0.0873 -0.2270  0.3587
    21BTZ    N3 4769   1.325   2.894   5.103  0.3004 -0.0024  0.4346
    21BTZ    S3 4770   1.359   2.732   5.035  0.0496 -0.0746  0.4788
    31IDT   C12 4771   1.288   3.192   5.135  0.3541 -0.2417 -0.1139
    31IDT   C13 4772   1.249   3.324   5.142 -0.0234 -0.3152 -0.6621
    31IDT   C14 4773   1.195   3.359   5.270 -0.5285 -0.0417 -0.9465
    31IDT   C15 4774   1.192   3.255   5.360 -0.5394  0.2413 -0.6179
    31IDT    S4 4775   1.258   3.103   5.291  0.0950  0.1830  0.0839
    4IDB    C16 4776   1.141   3.301   5.486 -0.1828 -0.2969 -0.0507
    4IDB    C17 4777   1.094   3.436   5.472 -0.2936 -0.3614 -0.3102
    51IDQ   C18 4778   1.131   3.488   5.332 -0.4824  0.5316 -0.3185
    4IDB    C19 4779   1.037   3.503   5.579 -0.3160 -0.1892 -0.4294
    51IDQ   C20 4780   1.224   3.619   5.333  0.2492  0.2477 -0.0100
    51IDQ   C21 4781   1.009   3.522   5.246  0.3327 -0.0101  0.4211
    51IDQ   C22 4782   0.859   3.509   5.285 -0.0399  0.4911  0.0867
    51IDQ   C23 4783   1.364   3.628   5.273  0.0601 -0.0160 -0.5919
    51IDQ   C24 4784   0.764   3.544   5.169 -0.1722 -0.2363  0.0255
    51IDQ   C25 4785   0.624   3.588   5.194  0.4988  0.2235 -0.0065
    51IDQ   C26 4786   0.527   3.628   5.075 -0.4285  0.0750 -0.2315
    51IDQ   C27 4787   0.567   3.740   4.975  0.5372 -0.1291  0.0327
    51IDQ   C28 4788   0.633   3.865   5.037 -0.7199 -0.4998  0.0202
    51IDQ   C29 4789   0.677   3.970   4.936  0.5245  0.7839 -0.1072
    51IDQ   C30 4790   1.478   3.555   5.340 -0.7589 -0.3533  0.2383
    51IDQ   C31 4791   1.500   3.570   5.493 -0.0457  0.2760  0.5540
    51IDQ   C32 4792   1.615   3.485   5.553  0.2962 -0.5257  0.1350
    51IDQ   C33 4793   1.760   3.532   5.559  0.5899  0.4533  0.6789
    51IDQ   C34 4794   1.856   3.413   5.557  0.0019  0.1036 -0.0391
    51IDQ   C35 4795   2.005   3.438   5.573 -0.1965  0.4038 -0.1550
    4IDB    C36 4796   1.130   3.233   5.609 -0.0931 -0.0582  0.0916
    4IDB    C37 4797   1.071   3.304   5.717 -0.1176  0.1153 -0.0336
    11RH    C38 4798   1.614   2.869   4.090  0.2733  0.1041  0.2873
    4IDB    C39 4799   1.026   3.435   5.702 -0.2264  0.0493 -0.2870
    62IDT   C40 4800   0.970   3.482   5.827 -0.2523 -0.2855 -0.0989
    72IDQ   C41 4801   1.040   3.255   5.863 -0.3231 -0.3942  0.7812
    62IDT   C42 4802   0.999   3.389   5.924 -0.4978 -0.4326 -0.1651
    72IDQ   C43 4803   1.171   3.198   5.930  0.5592 -0.3800 -0.3408
    72IDQ   C44 4804   0.923   3.141   5.862 -0.7660  0.1075 -0.1308
    62IDT    S5 4805   0.895   3.631   5.895  0.0114 -0.1919 -0.0096
    62IDT   C45 4806   0.907   3.555   6.060 -0.2363 -0.3652 -0.0696
    62IDT   C46 4807   0.963   3.431   6.056 -0.4891 -0.4779 -0.1485
    82BTZ   C47 4808   0.881   3.631   6.188  0.3675 -0.0583  0.0352
    82BTZ   C48 4809   0.834   3.557   6.294  0.3624 -0.0534  0.0366
    82BTZ   C49 4810   0.804   3.618   6.421  0.2438 -0.0274 -0.0036
    82BTZ   C50 4811   0.821   3.753   6.443  0.1307 -0.0065 -0.0448
    82BTZ   C51 4812   0.900   3.772   6.206  0.2515 -0.0372 -0.0069
    82BTZ   C52 4813   0.870   3.834   6.335  0.1311 -0.0108 -0.0477
    92RH    C53 4814   0.797   3.822   6.572 -0.0252  0.0633  0.0405
    82BTZ    N4 4815   0.945   3.854   6.110  0.2443 -0.0396 -0.0126
    82BTZ    N5 4816   0.890   3.966   6.344  0.0271  0.0079 -0.0861
    82BTZ    S6 4817   0.950   4.017   6.183  0.0798 -0.0077 -0.0713
    92RH    C54 4818   0.765   3.785   6.697  0.0862  0.0752  0.0735
    92RH     S7 4819   0.727   3.614   6.754  0.2800  0.0597  0.1553
    92RH    C55 4820   0.754   3.879   6.810  0.0684  0.1040  0.0478
    92RH     O2 4821   0.773   4.002   6.804 -0.0491  0.1199 -0.0062
    92RH     N6 4822   0.718   3.813   6.930  0.2040  0.1112  0.0929
    92RH    C56 4823   0.699   3.677   6.926  0.3282  0.0918  0.1516
    92RH    C57 4824   0.703   3.894   7.058 -0.7583  0.7017  0.0537
    92RH    C58 4825   0.818   3.869   7.156  1.1979  0.0170  0.0133
    92RH     S8 4826   0.656   3.575   7.053  0.5017  0.0952  0.2133
    72IDQ   C59 4827   0.774   3.180   5.849 -0.2949 -0.0894  0.6772
    72IDQ   C60 4828   0.692   3.051   5.827  0.3995 -0.6098  0.1746
    72IDQ   C61 4829   0.531   3.066   5.824 -0.5192 -0.0345 -0.2044
    72IDQ   C62 4830   0.474   3.135   5.953 -0.7645  0.4685 -0.5998
    72IDQ   C63 4831   0.328   3.164   5.941  0.5942 -0.2394 -0.4213
    72IDQ   C64 4832   0.271   3.210   6.075  0.0086  0.0213 -0.3218
    72IDQ   C65 4833   0.141   3.280   6.039 -0.1175  0.4541 -0.4927
    72IDQ   C66 4834   1.168   3.154   6.081 -0.3826 -0.4363 -0.5701
    72IDQ   C67 4835   1.312   3.169   6.136  0.1969  1.0662  0.0221
    72IDQ   C68 4836   1.307   3.169   6.284  0.2168 -0.6120 -0.1197
    72IDQ   C69 4837   1.441   3.185   6.362 -0.1801 -0.0468 -0.1411
    72IDQ   C70 4838   1.410   3.204   6.504  0.3250 -0.4723 -0.2454
    72IDQ   C71 4839   1.541   3.207   6.578  0.6866  0.6103 -0.0063
    72IDQ   C72 4840   1.514   3.225   6.722  0.0528 -0.5573  0.7677
    11RH     C1 4841   2.275   3.682   0.471  0.1401  0.2171  0.2162
    11RH     C2 4842   2.303   3.771   0.356  0.1534  0.1730  0.1852
    11RH     N1 4843   2.232   3.756   0.584 -0.0083  0.2478  0.1404
    11RH     S1 4844   2.271   3.946   0.403 -0.0302  0.1748  0.0585
    11RH     C3 4845   2.222   3.892   0.573 -0.1156  0.2337  0.0525
    11RH     C4 4846   2.190   3.677   0.709 -1.0885 -0.0599  0.6935
    11RH     S2 4847   2.174   4.002   0.692 -0.2992  0.2633 -0.0488
    11RH     O1 4848   2.286   3.559   0.471  0.2442  0.2269  0.2978
    11RH     C5 4849   2.345   3.727   0.237  0.2821  0.1381  0.2433
    21BTZ    C6 4850   2.381   3.788   0.117 -0.6831 -0.1056  0.2456
    21BTZ    C7 4851   2.394   3.924   0.101 -0.6970 -0.0943  0.3299
    21BTZ    C8 4852   2.411   3.703   0.006 -0.4372 -0.0474  0.2662
    21BTZ    C9 4853   2.437   3.982  -0.024 -0.4715 -0.0258  0.4379
    21BTZ   C10 4854   2.467   3.904  -0.133 -0.2324  0.0313  0.4614
    21BTZ   C11 4855   2.455   3.762  -0.121 -0.2079  0.0222  0.3759
    21BTZ    N2 4856   2.402   3.570   0.009 -0.3993 -0.0519  0.1909
    21BTZ    N3 4857   2.481   3.676  -0.220  0.0142  0.0739  0.3887
    21BTZ    S3 4858   2.450   3.513  -0.154 -0.0618  0.0347  0.2584
    31IDT   C12 4859   2.504   3.971  -0.263  0.0693  0.1969 -0.0599
    31IDT   C13 4860   2.509   4.107  -0.280  0.2899  0.1718 -0.1923
    31IDT   C14 4861   2.562   4.145  -0.408  0.4684 -0.0353 -0.1807
    31IDT   C15 4862   2.597   4.038  -0.488  0.3852 -0.1693 -0.0399
    31IDT    S4 4863   2.565   3.880  -0.408  0.0715 -0.0425  0.0904
    4IDB    C16 4864   2.643   4.088  -0.620 -0.1332  0.2489 -0.0909
    4IDB    C17 4865   2.652   4.231  -0.614  0.0453  0.2404 -0.1564
    51IDQ   C18 4866   2.603   4.278  -0.476  0.3956 -0.3526  0.1651
    4IDB    C19 4867   2.711   4.303  -0.717  0.1820  0.1156 -0.1663
    51IDQ   C20 4868   2.481   4.374  -0.505  0.3117 -0.0481 -0.3640
    51IDQ   C21 4869   2.701   4.354  -0.379 -0.3193  0.0182  0.2580
    51IDQ   C22 4870   2.849   4.368  -0.416 -0.4156 -0.6174  1.0636
    51IDQ   C23 4871   2.326   4.356  -0.479 -0.1398  0.0401 -0.1149
    51IDQ   C24 4872   2.923   4.431  -0.305 -0.3056 -0.1413  0.4661
    51IDQ   C25 4873   3.060   4.480  -0.348  0.2206 -0.3202 -0.6310
    51IDQ   C26 4874   3.151   4.550  -0.243 -0.8435 -0.0502  0.3217
    51IDQ   C27 4875   3.071   4.642  -0.149  0.0002  0.5120  0.1753
    51IDQ   C28 4876   3.162   4.737  -0.067 -0.1729  0.3808 -0.3195
    51IDQ   C29 4877   3.081   4.835   0.010  0.7198 -0.3187  0.2648
    51IDQ   C30 4878   2.242   4.255  -0.565 -0.4596 -0.2035 -0.5382
    51IDQ   C31 4879   2.100   4.306  -0.570 -0.2742 -0.0718  0.1390
    51IDQ   C32 4880   1.998   4.233  -0.661 -0.6988  0.7907 -0.5972
    51IDQ   C33 4881   1.861   4.301  -0.662 -0.1087 -0.0527  0.4524
    51IDQ   C34 4882   1.744   4.227  -0.725  0.1721  0.2988 -0.2470
    51IDQ   C35 4883   1.602   4.284  -0.696  0.0925  0.0103 -0.3260
    4IDB    C36 4884   2.693   4.017  -0.730 -0.1762  0.1317 -0.0343
    4IDB    C37 4885   2.753   4.092  -0.834 -0.0348  0.0049 -0.0453
    11RH    C38 4886   2.297   3.637   0.807 -0.5258 -0.1130 -0.0276
    4IDB    C39 4887   2.761   4.231  -0.827  0.1390 -0.0016 -0.1098
    62IDT   C40 4888   2.812   4.283  -0.952  0.4294  0.1175 -0.0397
    72IDQ   C41 4889   2.828   4.045  -0.964  0.5535 -0.2395  0.4133
    62IDT   C42 4890   2.851   4.180  -1.035  0.6496  0.1520  0.0201
    72IDQ   C43 4891   2.737   3.960  -1.062  0.3848 -0.0180 -0.5963
    72IDQ   C44 4892   2.953   3.955  -0.931  0.0182 -0.1620 -0.3080
    62IDT    S5 4893   2.827   4.443  -1.031 -0.0233  0.0987 -0.1728
    62IDT   C45 4894   2.889   4.359  -1.180  0.1160  0.1402 -0.1388
    62IDT   C46 4895   2.895   4.223  -1.165  0.4728  0.1646 -0.0360
    82BTZ   C47 4896   2.936   4.436  -1.302  0.0451  0.0533  0.0772
    82BTZ   C48 4897   3.005   4.365  -1.397  0.0796  0.0912  0.0737
    82BTZ   C49 4898   3.040   4.423  -1.524  0.0366  0.1092  0.0700
    82BTZ   C50 4899   3.007   4.552  -1.556 -0.0409  0.0893  0.0699
    82BTZ   C51 4900   2.900   4.572  -1.330 -0.0361  0.0315  0.0771
    82BTZ   C52 4901   2.935   4.631  -1.460 -0.0798  0.0497  0.0734
    92RH    C53 4902   3.019   4.603  -1.691  0.1640  0.0683  0.2549
    82BTZ    N4 4903   2.833   4.651  -1.246 -0.0761 -0.0055  0.0805
    82BTZ    N5 4904   2.898   4.758  -1.479 -0.1550  0.0273  0.0737
    82BTZ    S6 4905   2.813   4.808  -1.329 -0.1736 -0.0189  0.0787
    92RH    C54 4906   3.073   4.553  -1.802  0.0902  0.1168  0.1972
    92RH     S7 4907   3.137   4.382  -1.827  0.0825  0.1303  0.0836
    92RH    C55 4908   3.091   4.631  -1.927  0.0004  0.1692  0.2172
    92RH     O2 4909   3.058   4.750  -1.943 -0.0169  0.1739  0.2885
    92RH     N6 4910   3.150   4.553  -2.029 -0.0652  0.2141  0.1441
    92RH    C56 4911   3.183   4.422  -2.001 -0.0389  0.2042  0.0681
    92RH    C57 4912   3.173   4.613  -2.163 -0.1345 -0.4701  0.8541
    92RH    C58 4913   3.057   4.611  -2.268 -0.5610 -0.2938 -0.1224
    92RH     S8 4914   3.254   4.309  -2.104 -0.1033  0.2503 -0.0274
    72IDQ   C59 4915   3.094   4.021  -0.930  0.6879 -0.1963  0.2972
    72IDQ   C60 4916   3.204   3.913  -0.922 -0.2381 -0.8557 -0.3747
    72IDQ   C61 4917   3.348   3.956  -0.956 -0.3222 -0.5033  0.0206
    72IDQ   C62 4918   3.380   3.994  -1.105  0.1473  0.1085  0.6327
    72IDQ   C63 4919   3.529   4.009  -1.116 -0.4110  0.0385 -0.1895
    72IDQ   C64 4920   3.603   3.986  -1.248 -0.1400 -0.6731  0.2460
    72IDQ   C65 4921   3.754   4.010  -1.240 -0.1094  0.1084  0.3890
    72IDQ   C66 4922   2.581   3.974  -1.082 -0.6452 -0.2944 -0.0278
    72IDQ   C67 4923   2.523   3.924  -1.216  0.2713 -0.2283  0.0123
    72IDQ   C68 4924   2.568   3.995  -1.337 -0.4380  0.1732  0.0093
    72IDQ   C69 4925   2.523   3.958  -1.475  0.2570 -0.1033 -0.4539
    72IDQ   C70 4926   2.371   3.962  -1.521 -0.4809  0.5707  0.0268
    72IDQ   C71 4927   2.381   3.954  -1.673 -0.3134  0.6167 -0.3964
    72IDQ   C72 4928   2.251   3.996  -1.736  0.0773  0.2896  0.1166
    11RH     C1 4929   1.979   6.062   2.105  0.0670 -0.0200 -0.1768
    11RH     C2 4930   2.017   5.982   1.987  0.1231 -0.1339 -0.0824
    11RH     N1 4931   1.938   5.980   2.212 -0.0475  0.0848 -0.1390
    11RH     S1 4932   1.997   5.804   2.023  0.0218 -0.0960  0.0501
    11RH     C3 4933   1.939   5.843   2.194 -0.0899  0.0685 -0.0257
    11RH     C4 4934   1.884   6.039   2.338 -0.4218  0.4060  0.2475
    11RH     S2 4935   1.896   5.723   2.304 -0.2222  0.1773  0.0406
    11RH     O1 4936   1.981   6.186   2.113  0.1126 -0.0145 -0.2773
    11RH     C5 4937   2.060   6.036   1.872  0.2315 -0.2458 -0.0954
    21BTZ    C6 4938   2.111   5.974   1.747 -0.1705 -0.3166 -0.2896
    21BTZ    C7 4939   2.122   5.839   1.722 -0.0470 -0.3095 -0.2744
    21BTZ    C8 4940   2.155   6.065   1.646 -0.1498 -0.2879 -0.2545
    21BTZ    C9 4941   2.176   5.789   1.599  0.1020 -0.2738 -0.2244
    21BTZ   C10 4942   2.219   5.873   1.499  0.1274 -0.2455 -0.1897
    21BTZ   C11 4943   2.210   6.014   1.520  0.0017 -0.2517 -0.2038
    21BTZ    N2 4944   2.149   6.198   1.657 -0.2611 -0.2916 -0.2649
    21BTZ    N3 4945   2.248   6.106   1.430  0.0122 -0.2264 -0.1734
    21BTZ    S3 4946   2.215   6.265   1.505 -0.1752 -0.2481 -0.2091
    31IDT   C12 4947   2.274   5.808   1.377 -0.0760 -0.2422 -0.0395
    31IDT   C13 4948   2.324   5.681   1.368  0.4909 -0.0533  0.2930
    31IDT   C14 4949   2.377   5.651   1.239  1.0458 -0.0081  0.5078
    31IDT   C15 4950   2.369   5.755   1.149  0.9061 -0.1617  0.3409
    31IDT    S4 4951   2.292   5.901   1.221  0.0531 -0.3777 -0.1053
    4IDB    C16 4952   2.414   5.710   1.020 -0.1204  0.0321 -0.0153
    4IDB    C17 4953   2.454   5.574   1.033 -0.0528  0.0597  0.0662
    51IDQ   C18 4954   2.430   5.526   1.176 -0.2013 -0.3561 -0.4133
    4IDB    C19 4955   2.507   5.504   0.925 -0.0673  0.0060  0.0937
    51IDQ   C20 4956   2.332   5.398   1.163  0.1702 -0.1322  0.1938
    51IDQ   C21 4957   2.552   5.485   1.274  0.2578 -0.1458  0.5452
    51IDQ   C22 4958   2.686   5.446   1.217 -0.1595 -0.2802 -0.4980
    51IDQ   C23 4959   2.181   5.397   1.190  0.1312 -0.4536  0.7509
    51IDQ   C24 4960   2.775   5.395   1.332 -0.4568 -0.0664 -0.7048
    51IDQ   C25 4961   2.914   5.331   1.300  0.2215  0.0171 -0.0397
    51IDQ   C26 4962   2.973   5.247   1.418 -0.5995 -0.9025  0.4861
    51IDQ   C27 4963   2.891   5.143   1.494  0.3819 -0.0380  0.5932
    51IDQ   C28 4964   2.966   5.073   1.603 -0.3750 -0.1317  0.2473
    51IDQ   C29 4965   2.887   4.994   1.701  0.4415 -0.5468  0.3678
    51IDQ   C30 4966   2.099   5.485   1.091  0.2788  0.8241  0.3290
    51IDQ   C31 4967   1.955   5.441   1.101  0.0714 -0.3096 -0.1739
    51IDQ   C32 4968   1.868   5.534   1.025  0.1850 -0.4757  0.4085
    51IDQ   C33 4969   1.707   5.514   1.027 -0.7185 -0.5801  0.2094
    51IDQ   C34 4970   1.640   5.628   0.951 -0.3593  0.2131 -0.0016
    51IDQ   C35 4971   1.490   5.603   0.953  0.7478  0.1397  0.0330
    4IDB    C36 4972   2.427   5.778   0.898 -0.2034 -0.0498 -0.0700
    4IDB    C37 4973   2.482   5.705   0.789 -0.2170 -0.1040 -0.0408
    11RH    C38 4974   1.991   6.074   2.446  0.1871 -0.7682 -0.2621
    4IDB    C39 4975   2.520   5.572   0.803 -0.1502 -0.0762  0.0390
    62IDT   C40 4976   2.561   5.519   0.673  0.3237 -0.0917  0.2365
    72IDQ   C41 4977   2.515   5.752   0.647  0.4649 -0.3466 -0.0188
    62IDT   C42 4978   2.560   5.617   0.576  0.1813  0.1353  0.4674
    72IDQ   C43 4979   2.384   5.806   0.572  0.4765 -0.3236  0.2405
    72IDQ   C44 4980   2.618   5.871   0.657 -0.3987 -0.4310 -0.1072
    62IDT    S5 4981   2.612   5.360   0.606  0.0547  0.0223 -0.2518
    62IDT   C45 4982   2.631   5.439   0.443 -0.2509  0.3887 -0.1112
    62IDT   C46 4983   2.600   5.573   0.446 -0.1438  0.4072  0.2712
    82BTZ   C47 4984   2.681   5.361   0.326  0.0085 -0.2209 -0.1518
    82BTZ   C48 4985   2.731   5.435   0.222  0.0181 -0.1465 -0.0947
    82BTZ   C49 4986   2.770   5.373   0.097  0.0247 -0.0572 -0.1368
    82BTZ   C50 4987   2.760   5.238   0.077  0.0217 -0.0423 -0.2361
    82BTZ   C51 4988   2.669   5.219   0.310  0.0051 -0.2089 -0.2562
    82BTZ   C52 4989   2.709   5.157   0.183  0.0118 -0.1180 -0.2990
    92RH    C53 4990   2.795   5.176  -0.051 -0.1915  0.2369  0.0634
    82BTZ    N4 4991   2.622   5.137   0.404 -0.0041 -0.2762 -0.3194
    82BTZ    N5 4992   2.695   5.024   0.176  0.0080 -0.1123 -0.3967
    82BTZ    S6 4993   2.628   4.972   0.334 -0.0045 -0.2252 -0.4389
    92RH    C54 4994   2.838   5.223  -0.168 -0.0754  0.1621  0.0758
    92RH     S7 4995   2.891   5.395  -0.205  0.5007  0.0065  0.1619
    92RH    C55 4996   2.849   5.140  -0.291 -0.4086  0.1956  0.0197
    92RH     O2 4997   2.821   5.019  -0.299 -0.8264  0.2946 -0.0441
    92RH     N6 4998   2.897   5.215  -0.400 -0.1923  0.0993  0.0479
    92RH    C56 4999   2.926   5.348  -0.380  0.2735 -0.0069  0.1196
    92RH    C57 5000   2.924   5.151  -0.531 -0.1091  0.0021 -0.1691
    92RH    C58 5001   2.811   5.161  -0.629  0.4736  0.5069  0.1808
    92RH     S8 5002   2.984   5.459  -0.493  0.6111 -0.1341  0.1659
    72IDQ   C59 5003   2.768   5.845   0.647  0.9934  0.2437 -0.1526
    72IDQ   C60 5004   2.849   5.971   0.672 -0.7632 -0.1506  0.2184
    72IDQ   C61 5005   3.005   5.949   0.663  0.3676  0.1945 -0.1067
    72IDQ   C62 5006   3.066   5.875   0.534  0.6699  0.2550  0.2135
    72IDQ   C63 5007   3.219   5.852   0.538 -0.1807  0.2722  0.1947
    72IDQ   C64 5008   3.284   5.787   0.415  0.0715  0.4179 -0.1763
    72IDQ   C65 5009   3.430   5.753   0.443 -0.0280  0.1834 -0.1115
    72IDQ   C66 5010   2.396   5.838   0.423 -0.1787 -0.2748 -0.1437
    72IDQ   C67 5011   2.273   5.844   0.339  0.0558  0.0876  0.1122
    72IDQ   C68 5012   2.307   5.873   0.198  0.6520  0.1040 -0.3631
    72IDQ   C69 5013   2.191   5.846   0.097 -0.5814  0.1541  0.2158
    72IDQ   C70 5014   2.083   5.957   0.091  0.6131  0.1657 -0.1233
    72IDQ   C71 5015   1.959   5.910   0.018  0.4615  0.4088  0.5236
    72IDQ   C72 5016   1.974   5.883  -0.130  0.4494 -0.5210 -0.3128
    11RH     C1 5017   1.340   5.421   6.088  0.1166 -0.1358  0.0082
    11RH     C2 5018   1.286   5.330   6.192  0.0288 -0.1676 -0.0654
    11RH     N1 5019   1.372   5.350   5.969  0.0039 -0.0628 -0.0656
    11RH     S1 5020   1.280   5.158   6.127 -0.1962 -0.0993 -0.2270
    11RH     C3 5021   1.349   5.215   5.966 -0.1634 -0.0321 -0.1894
    11RH     C4 5022   1.436   5.428   5.857  0.1533  0.2538 -0.2230
    11RH     S2 5023   1.378   5.109   5.838 -0.3222  0.0532 -0.2967
    11RH     O1 5024   1.357   5.543   6.100  0.2695 -0.1678  0.1206
    11RH     C5 5025   1.248   5.371   6.313  0.1067 -0.2360 -0.0178
    21BTZ    C6 5026   1.196   5.301   6.431 -0.4163  0.2781 -0.2150
    21BTZ    C7 5027   1.173   5.166   6.441 -0.4716  0.2838 -0.2642
    21BTZ    C8 5028   1.164   5.384   6.544 -0.1977  0.2248 -0.1128
    21BTZ    C9 5029   1.118   5.106   6.560 -0.3160  0.2378 -0.2156
    21BTZ   C10 5030   1.087   5.182   6.670 -0.1054  0.1862 -0.1180
    21BTZ   C11 5031   1.108   5.323   6.665 -0.0396  0.1781 -0.0634
    21BTZ    N2 5032   1.181   5.516   6.547 -0.1245  0.2141 -0.0570
    21BTZ    N3 5033   1.081   5.407   6.766  0.1608  0.1296  0.0321
    21BTZ    S3 5034   1.126   5.570   6.708  0.1557  0.1421  0.0634
    31IDT   C12 5035   1.042   5.102   6.794  0.0834  0.3130  0.0959
    31IDT   C13 5036   1.017   4.968   6.801  0.6075  0.2056 -0.0243
    31IDT   C14 5037   0.975   4.926   6.931  0.7088 -0.0656 -0.0771
    31IDT   C15 5038   0.968   5.028   7.023  0.2638 -0.1664  0.0024
    31IDT    S4 5039   1.014   5.187   6.952 -0.3235  0.0766  0.1516
    4IDB    C16 5040   0.917   4.974   7.144 -0.0999  0.0152  0.0845
    4IDB    C17 5041   0.889   4.834   7.135  0.0081  0.0000 -0.0163
    51IDQ   C18 5042   0.937   4.791   6.994  0.4717  0.7396  0.5412
    4IDB    C19 5043   0.839   4.764   7.244  0.0106 -0.1071 -0.0831
    51IDQ   C20 5044   1.054   4.687   7.007  0.4285 -0.3888 -0.3217
    51IDQ   C21 5045   0.831   4.716   6.904  0.2686 -0.5140  0.1244
    51IDQ   C22 5046   0.675   4.722   6.917  0.1841  0.2042 -0.2165
    51IDQ   C23 5047   1.196   4.727   6.993  0.0276 -0.2171  0.4120
    51IDQ   C24 5048   0.594   4.686   6.792  0.8024 -0.2950  0.5906
    51IDQ   C25 5049   0.437   4.691   6.813 -0.4841  0.0432  0.4941
    51IDQ   C26 5050   0.371   4.569   6.881  0.0723 -0.1544 -0.1488
    51IDQ   C27 5051   0.365   4.433   6.807 -0.0124  0.5834 -0.0707
    51IDQ   C28 5052   0.292   4.439   6.674 -0.0181  0.4209  0.4990
    51IDQ   C29 5053   0.288   4.303   6.599  0.1704 -0.3536 -0.0606
    51IDQ   C30 5054   1.272   4.754   7.125  0.3211 -0.0384  0.3809
    51IDQ   C31 5055   1.413   4.737   7.078 -0.1330  0.2634  0.6314
    51IDQ   C32 5056   1.512   4.730   7.198  0.1817 -0.4043  0.9663
    51IDQ   C33 5057   1.659   4.729   7.147  0.5653  0.2759  0.3204
    51IDQ   C34 5058   1.762   4.787   7.250  0.0174 -0.0965  0.0162
    51IDQ   C35 5059   1.899   4.829   7.191  0.9498 -0.1115 -0.7375
    4IDB    C36 5060   0.893   5.045   7.262 -0.2067 -0.0772  0.1191
    4IDB    C37 5061   0.841   4.972   7.373 -0.2024 -0.1858  0.0497
    11RH    C38 5062   1.335   5.497   5.761 -0.5787  0.1749  0.1740
    4IDB    C39 5063   0.815   4.835   7.363 -0.0961 -0.1994 -0.0485
    62IDT   C40 5064   0.769   4.784   7.488 -0.0538 -0.0391 -0.3193
    72IDQ   C41 5065   0.800   5.020   7.516  0.0382  0.3195  0.3210
    62IDT   C42 5066   0.761   4.885   7.581 -0.4145  0.0902 -0.4859
    72IDQ   C43 5067   0.926   5.078   7.585 -0.0265  0.3423 -0.0387
    72IDQ   C44 5068   0.693   5.133   7.510 -0.4618 -0.1138  0.2025
    62IDT    S5 5069   0.729   4.624   7.558 -0.0043  0.0117 -0.1759
    62IDT   C45 5070   0.703   4.706   7.719 -0.4979  0.2151 -0.3576
    62IDT   C46 5071   0.724   4.841   7.712 -0.6660  0.2341 -0.5078
    82BTZ   C47 5072   0.680   4.623   7.845 -0.2272 -0.1873  0.0629
    82BTZ   C48 5073   0.631   4.690   7.954 -0.2856 -0.2546  0.0780
    82BTZ   C49 5074   0.603   4.621   8.078 -0.2238 -0.3073  0.0632
    82BTZ   C50 5075   0.623   4.487   8.092 -0.1036 -0.2928  0.0333
    82BTZ   C51 5076   0.703   4.482   7.855 -0.1013 -0.1695  0.0316
    82BTZ   C52 5077   0.674   4.413   7.980 -0.0385 -0.2232  0.0165
    92RH    C53 5078   0.591   4.419   8.221 -0.2057  0.0631 -0.0832
    82BTZ    N4 5079   0.750   4.407   7.755 -0.0346 -0.1059  0.0144
    82BTZ    N5 5080   0.697   4.281   7.982  0.0786 -0.2025 -0.0128
    82BTZ    S6 5081   0.759   4.240   7.819  0.1144 -0.1119 -0.0224
    92RH    C54 5082   0.540   4.466   8.335 -0.0285  0.0287  0.0115
    92RH     S7 5083   0.468   4.632   8.364  0.2306  0.1031  0.2382
    92RH    C55 5084   0.533   4.386   8.460 -0.0153 -0.0787 -0.0559
    92RH     O2 5085   0.573   4.270   8.474 -0.1636 -0.1482 -0.2048
    92RH     N6 5086   0.474   4.460   8.565  0.1905 -0.0936  0.0718
    92RH    C56 5087   0.432   4.589   8.539  0.3438 -0.0113  0.2331
    92RH    C57 5088   0.462   4.401   8.699  0.3017  0.7458  0.0165
    92RH    C58 5089   0.583   4.427   8.777 -0.0957  0.1092  0.1600
    92RH     S8 5090   0.359   4.697   8.646  0.5993 -0.0087  0.4066
    72IDQ   C59 5091   0.562   5.101   7.441 -0.0702  0.0168  0.0550
    72IDQ   C60 5092   0.454   5.209   7.423 -0.7568  0.3491 -0.0708
    72IDQ   C61 5093   0.312   5.156   7.406 -0.8834  0.2360 -0.2168
    72IDQ   C62 5094   0.235   5.071   7.513 -0.1458  0.0870  0.0685
    72IDQ   C63 5095   0.257   5.086   7.657 -0.2571  0.0737  0.3002
    72IDQ   C64 5096   0.167   5.001   7.743  0.6407 -0.4162  0.6034
    72IDQ   C65 5097   0.185   5.036   7.886  0.8632 -0.4076 -0.1241
    72IDQ   C66 5098   0.944   5.087   7.738  0.1168 -0.3104 -0.1850
    72IDQ   C67 5099   1.085   5.121   7.787  0.6458 -0.2657 -0.2614
    72IDQ   C68 5100   1.088   5.117   7.942  0.6307  0.1475  0.3481
    72IDQ   C69 5101   1.234   5.118   7.998  0.0230  0.0794 -0.7322
    72IDQ   C70 5102   1.247   5.105   8.149  0.1184 -0.3890 -0.0707
    72IDQ   C71 5103   1.390   5.125   8.192  0.5292 -0.3343 -0.6168
    72IDQ   C72 5104   1.414   5.117   8.344  0.1776  0.7319  0.0566
    11RH     C1 5105   1.969   4.462   1.175  0.0909  0.1448  0.0161
    11RH     C2 5106   1.936   4.548   1.290  0.0598  0.1895 -0.0261
    11RH     N1 5107   2.008   4.538   1.062  0.1234  0.1015 -0.0024
    11RH     S1 5108   1.958   4.724   1.244  0.0752  0.1717 -0.0876
    11RH     C3 5109   2.009   4.675   1.074  0.1220  0.1057 -0.0544
    11RH     C4 5110   2.075   4.475   0.949 -0.1406 -0.1066  0.4438
    11RH     S2 5111   2.051   4.789   0.956  0.1565  0.0602 -0.0861
    11RH     O1 5112   1.965   4.337   1.174  0.0894  0.1444  0.0623
    11RH     C5 5113   1.897   4.501   1.409  0.0260  0.2353 -0.0190
    21BTZ    C6 5114   1.857   4.565   1.539  0.2658 -0.0275  0.0180
    21BTZ    C7 5115   1.851   4.700   1.561  0.2262 -0.0374  0.0696
    21BTZ    C8 5116   1.826   4.476   1.647  0.3731 -0.0784  0.0074
    21BTZ    C9 5117   1.815   4.755   1.690  0.2897 -0.0978  0.1132
    21BTZ   C10 5118   1.784   4.674   1.796  0.3926 -0.1480  0.1050
    21BTZ   C11 5119   1.789   4.532   1.778  0.4376 -0.1398  0.0516
    21BTZ    N2 5120   1.828   4.343   1.638  0.4205 -0.0745 -0.0412
    21BTZ    N3 5121   1.761   4.443   1.873  0.5368 -0.1851  0.0387
    21BTZ    S3 5122   1.781   4.281   1.799  0.5523 -0.1504 -0.0322
    31IDT   C12 5123   1.739   4.739   1.921  0.0672 -0.0672 -0.0626
    31IDT   C13 5124   1.731   4.874   1.940  0.3509 -0.0237 -0.2343
    31IDT   C14 5125   1.675   4.909   2.067  0.4747  0.2552 -0.2536
    31IDT   C15 5126   1.640   4.800   2.145  0.2867  0.4261 -0.0972
    31IDT    S4 5127   1.675   4.645   2.062 -0.0650  0.2453  0.0883
    4IDB    C16 5128   1.592   4.848   2.275  0.2664  0.7944 -0.4874
    4IDB    C17 5129   1.581   4.990   2.273  0.0130  0.7856 -0.0572
    51IDQ   C18 5130   1.622   5.041   2.131 -0.2028  0.1051  0.2060
    4IDB    C19 5131   1.542   5.060   2.386 -0.1085  0.3758  0.1602
    51IDQ   C20 5132   1.716   5.167   2.148  0.4100 -0.2710 -0.1203
    51IDQ   C21 5133   1.505   5.088   2.039  0.3347  0.0251 -0.5944
    51IDQ   C22 5134   1.358   5.077   2.082  0.2189  0.0456  0.3571
    51IDQ   C23 5135   1.865   5.153   2.130 -0.5051 -0.2972  0.6639
    51IDQ   C24 5136   1.272   5.097   1.956  0.0757 -0.1415 -0.7514
    51IDQ   C25 5137   1.122   5.112   1.977  1.0019 -0.9705  0.3901
    51IDQ   C26 5138   1.049   5.199   1.864  0.4204  0.3901  0.2623
    51IDQ   C27 5139   1.103   5.334   1.841 -1.2016 -0.8100  0.6123
    51IDQ   C28 5140   1.065   5.425   1.723 -0.4623  0.1256 -0.2352
    51IDQ   C29 5141   0.934   5.501   1.729 -0.1160  0.3714  0.0632
    51IDQ   C30 5142   1.953   5.101   2.246 -0.1090  0.1244 -0.1511
    51IDQ   C31 5143   2.102   5.092   2.208 -0.3366 -0.1167  0.4596
    51IDQ   C32 5144   2.193   5.035   2.315  0.1652 -0.2864  0.1608
    51IDQ   C33 5145   2.342   5.048   2.280  0.1903  0.0178 -0.8118
    51IDQ   C34 5146   2.433   4.973   2.372  0.2818 -0.7227  0.2672
    51IDQ   C35 5147   2.576   5.035   2.384 -0.4111  0.1149  0.1133
    4IDB    C36 5148   1.564   4.775   2.392  0.4005  0.3906 -0.7041
    4IDB    C37 5149   1.524   4.848   2.506  0.2732 -0.0249 -0.4768
    11RH    C38 5150   1.986   4.447   0.828 -0.2148 -0.3463  0.0441
    4IDB    C39 5151   1.513   4.988   2.502  0.0255 -0.0280 -0.0565
    62IDT   C40 5152   1.466   5.042   2.623 -0.0375 -0.2285  0.0555
    72IDQ   C41 5153   1.490   4.801   2.655 -1.0215 -0.1160  1.2407
    62IDT   C42 5154   1.441   4.939   2.711 -0.5411 -0.1221  0.0424
    72IDQ   C43 5155   1.630   4.765   2.722  0.5763  0.7722  0.9668
    72IDQ   C44 5156   1.398   4.671   2.640  0.5926 -0.8703 -0.5753
    62IDT    S5 5157   1.432   5.202   2.696  0.5098 -0.0819 -0.0048
    62IDT   C45 5158   1.383   5.117   2.849  0.0043  0.1258 -0.0464
    62IDT   C46 5159   1.394   4.981   2.839 -0.5182  0.0784 -0.0151
    82BTZ   C47 5160   1.335   5.199   2.965 -0.0909 -0.0362  0.0458
    82BTZ   C48 5161   1.271   5.132   3.067 -0.0642 -0.0066  0.0823
    82BTZ   C49 5162   1.231   5.199   3.188  0.0370  0.0123  0.1057
    82BTZ   C50 5163   1.254   5.332   3.208  0.1114  0.0016  0.0925
    82BTZ   C51 5164   1.361   5.339   2.982 -0.0157 -0.0486  0.0308
    82BTZ   C52 5165   1.320   5.407   3.105  0.0871 -0.0294  0.0545
    92RH    C53 5166   1.235   5.398   3.336 -0.5008  0.0872 -0.0219
    82BTZ    N4 5167   1.422   5.415   2.890 -0.0325 -0.0772 -0.0043
    82BTZ    N5 5168   1.349   5.537   3.113  0.1530 -0.0426  0.0386
    82BTZ    S6 5169   1.430   5.580   2.960  0.0849 -0.0809 -0.0084
    92RH    C54 5170   1.195   5.345   3.452 -0.2657  0.0492  0.0418
    92RH     S7 5171   1.145   5.171   3.482 -0.1005  0.0135  0.1105
    92RH    C55 5172   1.185   5.422   3.578 -0.0980  0.0298  0.0669
    92RH     O2 5173   1.212   5.543   3.592 -0.1539  0.0460  0.0329
    92RH     N6 5174   1.141   5.341   3.685  0.1391 -0.0104  0.1360
    92RH    C56 5175   1.114   5.208   3.660  0.1820 -0.0255  0.1692
    92RH    C57 5176   1.132   5.401   3.818  0.2765  0.3583 -0.2520
    92RH    C58 5177   1.252   5.390   3.904  0.4663  0.1615 -0.3026
    92RH     S8 5178   1.060   5.091   3.769  0.4462 -0.0720  0.2508
    72IDQ   C59 5179   1.248   4.689   2.624 -0.1434  0.1420  0.3558
    72IDQ   C60 5180   1.168   4.575   2.563 -0.5679 -0.6736  0.0130
    72IDQ   C61 5181   1.019   4.592   2.567 -0.3538 -0.5704 -0.2110
    72IDQ   C62 5182   0.960   4.634   2.704  0.2941  0.1508  0.4500
    72IDQ   C63 5183   0.811   4.663   2.679 -0.4660  0.2677 -0.2426
    72IDQ   C64 5184   0.739   4.748   2.784  0.0379  0.3459  0.6357
    72IDQ   C65 5185   0.597   4.776   2.747  0.4872  0.2329 -0.2963
    72IDQ   C66 5186   1.628   4.733   2.873  0.0686  0.9342  0.3105
    72IDQ   C67 5187   1.772   4.691   2.910 -0.4387 -0.1311  0.7254
    72IDQ   C68 5188   1.794   4.691   3.060  0.2308  0.7416  0.5595
    72IDQ   C69 5189   1.936   4.654   3.099 -0.0458 -0.1835 -0.3673
    72IDQ   C70 5190   1.958   4.663   3.252  0.4620 -0.0005  0.9101
    72IDQ   C71 5191   2.102   4.613   3.284  0.3844 -0.3647 -0.1630
    72IDQ   C72 5192   2.120   4.617   3.437  0.3798  0.2798 -0.2138
    11RH     C1 5193   1.857   5.232   3.752 -0.0842 -0.1500 -0.1835
    11RH     C2 5194   1.902   5.312   3.635 -0.0986 -0.0756 -0.1382
    11RH     N1 5195   1.816   5.314   3.858 -0.0180 -0.2177 -0.1051
    11RH     S1 5196   1.887   5.491   3.673 -0.0242 -0.0996  0.0045
    11RH     C3 5197   1.822   5.451   3.841  0.0223 -0.2066 -0.0026
    11RH     C4 5198   1.771   5.251   3.989  0.1435  0.1095  0.0883
    11RH     S2 5199   1.779   5.571   3.952  0.1024 -0.2768  0.1048
    11RH     O1 5200   1.855   5.108   3.758 -0.1241 -0.1540 -0.2780
    11RH     C5 5201   1.946   5.258   3.521 -0.1576 -0.0030 -0.1955
    21BTZ    C6 5202   1.975   5.321   3.395  0.1645  0.0099  0.0606
    21BTZ    C7 5203   1.975   5.457   3.377  0.0983  0.0166  0.1122
    21BTZ    C8 5204   2.011   5.238   3.284  0.0606  0.0639 -0.0147
    21BTZ    C9 5205   2.010   5.517   3.251 -0.0722  0.0764  0.0927
    21BTZ   C10 5206   2.045   5.441   3.142 -0.1761  0.1293  0.0215
    21BTZ   C11 5207   2.047   5.299   3.156 -0.1127  0.1247 -0.0345
    21BTZ    N2 5208   2.015   5.104   3.289  0.1108  0.0633 -0.0697
    21BTZ    N3 5209   2.080   5.214   3.057 -0.2017  0.1729 -0.1056
    21BTZ    S3 5210   2.066   5.050   3.126 -0.0649  0.1420 -0.1512
    31IDT   C12 5211   2.092   5.508   3.023 -0.3253 -0.1322  0.3840
    31IDT   C13 5212   2.129   5.640   3.015 -0.2734 -0.1312  0.6016
    31IDT   C14 5213   2.166   5.679   2.882 -0.0212  0.0108  0.7135
    31IDT   C15 5214   2.159   5.577   2.790  0.1207  0.1189  0.5824
    31IDT    S4 5215   2.103   5.423   2.863 -0.0558  0.0485  0.3045
    4IDB    C16 5216   2.204   5.625   2.661 -0.1598  0.5546  0.4872
    4IDB    C17 5217   2.241   5.762   2.672  0.2060  0.4842  0.1907
    51IDQ   C18 5218   2.212   5.814   2.814  0.6184  0.3999 -0.1864
    4IDB    C19 5219   2.294   5.831   2.564  0.2822  0.1424  0.0073
    51IDQ   C20 5220   2.098   5.927   2.815 -0.5859  0.2021 -0.4171
    51IDQ   C21 5221   2.333   5.875   2.899 -0.0536 -0.9760  0.5985
    51IDQ   C22 5222   2.473   5.884   2.843 -0.0563 -0.4688  0.4646
    51IDQ   C23 5223   1.954   5.906   2.843 -0.0896 -0.1503  0.8163
    51IDQ   C24 5224   2.552   5.979   2.936 -0.3324  0.0273 -0.6773
    51IDQ   C25 5225   2.709   5.975   2.931  0.0917  0.2726 -0.6906
    51IDQ   C26 5226   2.775   6.043   3.057 -0.2259  0.5051 -0.3938
    51IDQ   C27 5227   2.736   5.993   3.200  0.2811 -0.1580 -0.3929
    51IDQ   C28 5228   2.745   5.841   3.221  0.5895 -0.5034 -0.2576
    51IDQ   C29 5229   2.718   5.807   3.366 -0.2171  0.2169 -0.2052
    51IDQ   C30 5230   1.883   5.824   2.739  0.2595 -0.0432  0.4766
    51IDQ   C31 5231   1.738   5.863   2.722  0.4964  0.5102  0.2744
    51IDQ   C32 5232   1.670   5.789   2.604 -0.0375 -0.2582 -0.0592
    51IDQ   C33 5233   1.519   5.791   2.611 -0.1049  0.7373  0.3012
    51IDQ   C34 5234   1.447   5.657   2.570 -0.3293 -0.3563  0.2827
    51IDQ   C35 5235   1.301   5.667   2.596  0.3474  0.5346  0.5184
    4IDB    C36 5236   2.219   5.555   2.540 -0.4532  0.2819  0.6025
    4IDB    C37 5237   2.274   5.628   2.430 -0.3700 -0.0657  0.4119
    11RH    C38 5238   1.874   5.185   4.076 -0.0782 -0.2042 -0.4074
    4IDB    C39 5239   2.310   5.762   2.443 -0.0111 -0.1301  0.1227
    62IDT   C40 5240   2.356   5.813   2.316  0.0244  0.1010  0.3159
    72IDQ   C41 5241   2.310   5.583   2.289 -0.2741  0.3597  0.4789
    62IDT   C42 5242   2.345   5.714   2.221 -0.0851  0.0198  0.4120
    72IDQ   C43 5243   2.186   5.502   2.229  0.9184  0.4205 -0.3893
    72IDQ   C44 5244   2.427   5.480   2.301  0.1602 -0.0493  0.2324
    62IDT    S5 5245   2.411   5.969   2.246 -0.0197  0.0311  0.1267
    62IDT   C45 5246   2.417   5.887   2.083 -0.1921 -0.1110  0.1905
    62IDT   C46 5247   2.380   5.756   2.089 -0.2075 -0.0999  0.3413
    82BTZ   C47 5248   2.469   5.960   1.963  0.2188  0.3165  0.1562
    82BTZ   C48 5249   2.524   5.884   1.863  0.1688  0.3207  0.1252
    82BTZ   C49 5250   2.557   5.941   1.734 -0.0726  0.2826  0.0453
    82BTZ   C50 5251   2.535   6.073   1.706 -0.2635  0.2404 -0.0036
    82BTZ   C51 5252   2.444   6.099   1.938  0.0250  0.2731  0.1073
    82BTZ   C52 5253   2.477   6.156   1.807 -0.2203  0.2344  0.0260
    92RH    C53 5254   2.556   6.128   1.568 -0.2340 -0.0709  0.0993
    82BTZ    N4 5255   2.390   6.183   2.027  0.0512  0.2650  0.1307
    82BTZ    N5 5256   2.451   6.286   1.791 -0.3913  0.1950 -0.0159
    82BTZ    S6 5257   2.380   6.342   1.946 -0.2429  0.2062  0.0480
    92RH    C54 5258   2.594   6.074   1.452 -0.1621 -0.0765  0.1254
    92RH     S7 5259   2.633   5.897   1.421  0.0995 -0.0366  0.2173
    92RH    C55 5260   2.611   6.152   1.327 -0.2885 -0.1178  0.0822
    92RH     O2 5261   2.593   6.274   1.315 -0.4721 -0.1512  0.0179
    92RH     N6 5262   2.652   6.070   1.220 -0.1737 -0.1147  0.1233
    92RH    C56 5263   2.670   5.935   1.244  0.0292 -0.0761  0.1941
    92RH    C57 5264   2.658   6.119   1.071  0.8549 -0.3635  0.2521
    92RH    C58 5265   2.521   6.135   1.004  0.4439 -0.1063 -0.0701
    92RH     S8 5266   2.717   5.816   1.135  0.1985 -0.0639  0.2543
    72IDQ   C59 5267   2.571   5.526   2.324  0.3043  0.3218 -0.1682
    72IDQ   C60 5268   2.672   5.412   2.343  0.9663 -0.0916 -0.2917
    72IDQ   C61 5269   2.820   5.458   2.366  0.7434  0.0524  0.3357
    72IDQ   C62 5270   2.909   5.484   2.244  0.8533  0.4049 -0.4641
    72IDQ   C63 5271   3.035   5.564   2.259 -0.2651  0.3831  0.1072
    72IDQ   C64 5272   3.122   5.554   2.133  0.1422 -0.2467 -0.6402
    72IDQ   C65 5273   3.224   5.657   2.101 -1.0007  0.1390 -0.3606
    72IDQ   C66 5274   2.193   5.456   2.084 -0.5079 -0.3845 -0.1726
    72IDQ   C67 5275   2.056   5.419   2.027 -0.0293  0.0177  0.4220
    72IDQ   C68 5276   2.063   5.465   1.888  0.1530  0.5689  1.0402
    72IDQ   C69 5277   1.927   5.435   1.818  0.1275  0.2446 -0.0428
    72IDQ   C70 5278   1.928   5.471   1.665  0.6094  0.2314  0.4781
    72IDQ   C71 5279   1.793   5.458   1.604  0.4664 -0.4202  0.3252
    72IDQ   C72 5280   1.788   5.512   1.468  0.2377  0.2336  0.7505
    11RH     C1 5281   1.607   0.029   5.382  0.0829 -0.1911 -0.0318
    11RH     C2 5282   1.642  -0.062   5.270  0.0210 -0.0057 -0.2033
    11RH     N1 5283   1.561  -0.043   5.494  0.1958 -0.3814 -0.1057
    11RH     S1 5284   1.612  -0.236   5.320  0.1152 -0.0939 -0.4506
    11RH     C3 5285   1.554  -0.180   5.486  0.2319 -0.3712 -0.3154
    11RH     C4 5286   1.526   0.024   5.625 -0.3248 -0.0823  0.2389
    11RH     S2 5287   1.503  -0.288   5.604  0.3611 -0.5730 -0.4423
    11RH     O1 5288   1.616   0.153   5.380  0.0429 -0.1845  0.1544
    11RH     C5 5289   1.689  -0.019   5.152 -0.0873  0.1931 -0.1751
    21BTZ    C6 5290   1.746  -0.083   5.034  0.3156 -0.0010  0.2458
    21BTZ    C7 5291   1.758  -0.219   5.020  0.2900 -0.0154  0.3575
    21BTZ    C8 5292   1.780   0.001   4.923  0.1475 -0.1087  0.1112
    21BTZ    C9 5293   1.805  -0.278   4.897  0.0991 -0.1352  0.3428
    21BTZ   C10 5294   1.838  -0.202   4.788 -0.0658 -0.2407  0.2165
    21BTZ   C11 5295   1.827  -0.059   4.798 -0.0465 -0.2304  0.0963
    21BTZ    N2 5296   1.772   0.135   4.925  0.1538 -0.1067 -0.0054
    21BTZ    N3 5297   1.857   0.025   4.699 -0.1962 -0.3265 -0.0322
    21BTZ    S3 5298   1.826   0.190   4.763 -0.0932 -0.2638 -0.1420
    31IDT   C12 5299   1.882  -0.274   4.663  0.2829 -0.3595  0.0784
    31IDT   C13 5300   1.915  -0.406   4.650  0.4408 -0.2939 -0.1905
    31IDT   C14 5301   1.955  -0.440   4.517  0.2941 -0.0182 -0.3064
    31IDT   C15 5302   1.952  -0.334   4.428  0.0241  0.1277 -0.1266
    31IDT    S4 5303   1.899  -0.182   4.507 -0.0662 -0.0745  0.2062
    4IDB    C16 5304   2.007  -0.376   4.297  0.2284  0.0787  0.6704
    4IDB    C17 5305   2.038  -0.516   4.299  0.0620  0.0334  0.2553
    51IDQ   C18 5306   2.006  -0.568   4.446  0.2359  0.1174  0.3635
    4IDB    C19 5307   2.098  -0.577   4.190 -0.2042  0.2401 -0.0116
    51IDQ   C20 5308   1.897  -0.680   4.410  0.0545 -0.1287 -0.0836
    51IDQ   C21 5309   2.125  -0.624   4.532  0.3121  0.0743 -0.5044
    51IDQ   C22 5310   2.276  -0.636   4.481  0.5274 -0.1178  0.5264
    51IDQ   C23 5311   1.755  -0.677   4.472  0.2017 -0.5416 -0.6975
    51IDQ   C24 5312   2.390  -0.698   4.563  0.5881 -0.4681  0.0159
    51IDQ   C25 5313   2.365  -0.839   4.603 -0.1867 -0.1647 -0.3704
    51IDQ   C26 5314   2.455  -0.880   4.725 -0.3824 -0.2527  0.0507
    51IDQ   C27 5315   2.451  -1.030   4.740 -0.3361  0.0538 -0.8679
    51IDQ   C28 5316   2.512  -1.094   4.862 -0.4157  0.5460  0.2508
    51IDQ   C29 5317   2.665  -1.114   4.846 -0.9501  0.0406 -0.0006
    51IDQ   C30 5318   1.650  -0.579   4.420  0.7103 -0.2305 -0.3649
    51IDQ   C31 5319   1.611  -0.597   4.267  0.3574 -0.5197 -0.5490
    51IDQ   C32 5320   1.507  -0.497   4.224  0.5196  0.2556  0.7697
    51IDQ   C33 5321   1.361  -0.545   4.241  0.2936  0.2239 -0.1423
    51IDQ   C34 5322   1.271  -0.435   4.181  0.3765 -0.0384  0.0056
    51IDQ   C35 5323   1.121  -0.462   4.200  0.5038 -0.1277 -0.5015
    4IDB    C36 5324   2.037  -0.297   4.185  0.1287  0.3325  0.8216
    4IDB    C37 5325   2.099  -0.362   4.075 -0.1438  0.5412  0.5443
    11RH    C38 5326   1.630   0.036   5.744  1.0517 -0.5999  0.1362
    4IDB    C39 5327   2.128  -0.498   4.078 -0.3039  0.4939  0.1396
    62IDT   C40 5328   2.189  -0.540   3.961 -0.6717  0.0424  0.0059
    72IDQ   C41 5329   2.151  -0.303   3.936  0.2482 -0.0302 -0.8544
    62IDT   C42 5330   2.187  -0.436   3.870 -0.5007 -0.0291 -0.0796
    72IDQ   C43 5331   2.036  -0.226   3.862  0.0810 -0.0150 -0.2326
    72IDQ   C44 5332   2.259  -0.199   3.954 -0.6269  0.1394 -0.4542
    62IDT    S5 5333   2.262  -0.689   3.892 -0.2154  0.0929  0.3698
    62IDT   C45 5334   2.287  -0.599   3.736  0.2027  0.0108  0.3879
    62IDT   C46 5335   2.243  -0.470   3.743 -0.0062 -0.0468  0.1362
    82BTZ   C47 5336   2.318  -0.665   3.603  0.1065 -0.0484 -0.1683
    82BTZ   C48 5337   2.352  -0.589   3.495 -0.0587  0.0085 -0.1818
    82BTZ   C49 5338   2.372  -0.647   3.364 -0.2020  0.0684 -0.2301
    82BTZ   C50 5339   2.356  -0.781   3.342 -0.1798  0.0715 -0.2648
    82BTZ   C51 5340   2.300  -0.806   3.585  0.1363 -0.0478 -0.2034
    82BTZ   C52 5341   2.320  -0.865   3.453 -0.0093  0.0131 -0.2524
    92RH    C53 5342   2.374  -0.845   3.216 -0.1367  0.1337 -0.0788
    82BTZ    N4 5343   2.266  -0.891   3.683  0.2913 -0.1001 -0.1944
    82BTZ    N5 5344   2.302  -0.998   3.444  0.0286  0.0101 -0.2831
    82BTZ    S6 5345   2.258  -1.053   3.608  0.2567 -0.0730 -0.2497
    92RH    C54 5346   2.411  -0.801   3.095 -0.0682  0.0846 -0.0761
    92RH     S7 5347   2.469  -0.633   3.051  0.0707  0.0335 -0.0897
    92RH    C55 5348   2.409  -0.887   2.973 -0.0957  0.0635 -0.0610
    92RH     O2 5349   2.375  -1.006   2.969 -0.1836  0.0883 -0.0494
    92RH     N6 5350   2.452  -0.815   2.859 -0.0084  0.0109 -0.0614
    92RH    C56 5351   2.488  -0.683   2.875  0.0858 -0.0131 -0.0749
    92RH    C57 5352   2.443  -0.873   2.720  0.0286  0.1029 -0.2104
    92RH    C58 5353   2.308  -0.897   2.675  0.3796  0.1103  0.7266
    92RH     S8 5354   2.542  -0.576   2.756  0.2009 -0.0751 -0.0782
    72IDQ   C59 5355   2.403  -0.237   3.978 -0.0266  0.6422  0.7863
    72IDQ   C60 5356   2.495  -0.120   3.985  0.4314  0.1758 -0.1677
    72IDQ   C61 5357   2.640  -0.174   4.000  0.1238 -0.1575 -0.6121
    72IDQ   C62 5358   2.704  -0.233   3.873 -0.0483 -0.2253  0.1470
    72IDQ   C63 5359   2.827  -0.317   3.906  0.3583  0.2657  0.4628
    72IDQ   C64 5360   2.902  -0.343   3.773 -0.5763 -0.6429  0.6311
    72IDQ   C65 5361   3.035  -0.410   3.801  0.3171  0.0291 -0.2804
    72IDQ   C66 5362   2.038  -0.214   3.715  0.3552 -0.5592  0.6654
    72IDQ   C67 5363   1.907  -0.203   3.649  0.0934  0.0164  0.2326
    72IDQ   C68 5364   1.902  -0.209   3.498 -0.7884 -0.2228 -0.1024
    72IDQ   C69 5365   1.760  -0.227   3.443 -0.0464 -0.2098 -0.7426
    72IDQ   C70 5366   1.768  -0.236   3.293 -0.0749 -0.2250 -0.3528
    72IDQ   C71 5367   1.640  -0.276   3.221 -0.0531  0.3929 -0.3627
    72IDQ   C72 5368   1.632  -0.216   3.087 -0.1312  0.7892 -0.2771
    11RH     C1 5369   1.767   5.372   2.820 -0.0742  0.0004  0.1394
    11RH     C2 5370   1.739   5.284   2.936 -0.0759 -0.0452  0.1046
    11RH     N1 5371   1.804   5.296   2.706  0.1035  0.0548  0.1600
    11RH     S1 5372   1.763   5.108   2.888  0.1564 -0.0137  0.1014
    11RH     C3 5373   1.808   5.159   2.717  0.2445  0.0583  0.1462
    11RH     C4 5374   1.831   5.359   2.574 -0.2846 -0.2652 -0.4509
    11RH     S2 5375   1.849   5.047   2.598  0.4672  0.1174  0.1652
    11RH     O1 5376   1.760   5.496   2.819 -0.2097 -0.0070  0.1498
    11RH     C5 5377   1.702   5.330   3.056 -0.2270 -0.1005  0.0801
    21BTZ    C6 5378   1.657   5.274   3.179  0.0110  0.2777 -0.0255
    21BTZ    C7 5379   1.631   5.140   3.188  0.1185  0.2502 -0.1128
    21BTZ    C8 5380   1.639   5.356   3.295  0.0111  0.1760  0.0460
    21BTZ    C9 5381   1.586   5.080   3.311  0.2307  0.1225 -0.1342
    21BTZ   C10 5382   1.567   5.154   3.425  0.2353  0.0224 -0.0681
    21BTZ   C11 5383   1.594   5.295   3.420  0.1251  0.0461  0.0243
    21BTZ    N2 5384   1.661   5.488   3.299 -0.0877  0.1905  0.1337
    21BTZ    N3 5385   1.579   5.377   3.524  0.1180 -0.0437  0.0945
    21BTZ    S3 5386   1.624   5.540   3.466 -0.0381  0.0356  0.1933
    31IDT   C12 5387   1.517   5.076   3.542 -0.2452  0.0290  0.1226
    31IDT   C13 5388   1.473   4.946   3.537 -0.4571  0.1117 -0.1822
    31IDT   C14 5389   1.425   4.898   3.663 -0.3826 -0.1572 -0.2548
    31IDT   C15 5390   1.432   4.991   3.765 -0.1142 -0.4463 -0.0063
    31IDT    S4 5391   1.500   5.148   3.709  0.0668 -0.3995  0.3421
    4IDB    C16 5392   1.388   4.932   3.885 -0.0401  0.1664  0.1294
    4IDB    C17 5393   1.351   4.796   3.866  0.3432  0.0867 -0.0481
    51IDQ   C18 5394   1.370   4.761   3.714  0.2567 -0.3410  0.8746
    4IDB    C19 5395   1.293   4.722   3.968  0.3572 -0.1497 -0.2083
    51IDQ   C20 5396   1.466   4.635   3.700 -0.7127  0.3478 -0.7447
    51IDQ   C21 5397   1.240   4.728   3.633  0.2014  0.3022  0.0985
    51IDQ   C22 5398   1.097   4.733   3.694 -0.0802 -0.2644 -0.4450
    51IDQ   C23 5399   1.621   4.649   3.675  0.5948  0.9480  0.5858
    51IDQ   C24 5400   1.001   4.666   3.593 -0.1174 -0.8085  0.0761
    51IDQ   C25 5401   0.853   4.653   3.636 -0.5119  0.1226 -0.2317
    51IDQ   C26 5402   0.753   4.586   3.546 -0.1631  0.1970 -0.3586
    51IDQ   C27 5403   0.781   4.437   3.522  0.0803 -0.4027 -0.1834
    51IDQ   C28 5404   0.701   4.381   3.405  0.1387 -0.2955  0.2141
    51IDQ   C29 5405   0.733   4.239   3.358 -0.5679 -0.0966  0.0349
    51IDQ   C30 5406   1.709   4.685   3.789 -0.6227 -0.0274  0.0466
    51IDQ   C31 5407   1.860   4.700   3.758  0.1828 -0.5216  0.2276
    51IDQ   C32 5408   1.946   4.790   3.850  0.1155 -0.6680  0.2865
    51IDQ   C33 5409   2.094   4.760   3.838  0.0238 -0.1192  0.3213
    51IDQ   C34 5410   2.175   4.833   3.947 -0.5244  0.8776  1.2601
    51IDQ   C35 5411   2.327   4.823   3.930  0.2851 -0.8374 -0.1592
    4IDB    C36 5412   1.366   4.996   4.008 -0.4140  0.0091  0.1473
    4IDB    C37 5413   1.306   4.920   4.111 -0.3937 -0.2316 -0.0178
    11RH    C38 5414   1.722   5.360   2.463  0.3076 -0.2102  0.0657
    4IDB    C39 5415   1.271   4.786   4.091 -0.0167 -0.3068 -0.1900
    62IDT   C40 5416   1.219   4.730   4.212  0.5807 -0.2152  0.0367
    72IDQ   C41 5417   1.263   4.969   4.246  1.0150 -0.1139 -0.5781
    62IDT   C42 5418   1.218   4.830   4.307  1.1004 -0.3650  0.2091
    72IDQ   C43 5419   1.380   5.040   4.326 -0.0457 -0.0966 -0.2724
    72IDQ   C44 5420   1.149   5.082   4.237 -0.1598 -0.1802 -0.0369
    62IDT    S5 5421   1.159   4.574   4.278 -0.2528 -0.0195 -0.2385
    62IDT   C45 5422   1.134   4.657   4.438  0.1657 -0.1573 -0.0992
    62IDT   C46 5423   1.170   4.789   4.435  0.8665 -0.3327  0.1323
    82BTZ   C47 5424   1.102   4.577   4.559  0.0728 -0.0429 -0.1328
    82BTZ   C48 5425   1.040   4.648   4.659  0.1228  0.0660 -0.1792
    82BTZ   C49 5426   1.008   4.588   4.786  0.1616  0.1971 -0.1065
    82BTZ   C50 5427   1.037   4.457   4.813  0.1502  0.2186  0.0123
    82BTZ   C51 5428   1.134   4.440   4.582  0.0590 -0.0254 -0.0089
    82BTZ   C52 5429   1.101   4.378   4.711  0.0984  0.1078  0.0648
    92RH    C53 5430   1.015   4.397   4.950  0.0318 -0.1135 -0.0058
    82BTZ    N4 5431   1.194   4.360   4.493  0.0116 -0.1239  0.0464
    82BTZ    N5 5432   1.134   4.250   4.726  0.0827  0.1163  0.1795
    82BTZ    S6 5433   1.211   4.201   4.572  0.0154 -0.0490  0.1983
    92RH    C54 5434   0.967   4.450   5.063 -0.0662 -0.1129 -0.0479
    92RH     S7 5435   0.921   4.626   5.090 -0.4018 -0.1780 -0.1900
    92RH    C55 5436   0.944   4.372   5.186  0.0884 -0.0571  0.0170
    92RH     O2 5437   0.965   4.251   5.201  0.3221 -0.0056  0.1158
    92RH     N6 5438   0.893   4.454   5.290 -0.0640 -0.0696 -0.0478
    92RH    C56 5439   0.872   4.588   5.264 -0.3217 -0.1286 -0.1568
    92RH    C57 5440   0.879   4.394   5.423 -0.3642 -0.1246  0.1487
    92RH    C58 5441   1.013   4.412   5.499 -0.3188 -0.4133  0.5187
    92RH     S8 5442   0.813   4.705   5.369 -0.5436 -0.1552 -0.2508
    72IDQ   C59 5443   1.004   5.044   4.209 -0.2673 -0.0493 -0.7079
    72IDQ   C60 5444   0.907   5.160   4.203  0.1138 -0.3687 -0.3806
    72IDQ   C61 5445   0.755   5.129   4.204  0.2252 -0.3528 -0.3453
    72IDQ   C62 5446   0.709   5.055   4.334  0.1407 -0.2134 -0.0873
    72IDQ   C63 5447   0.577   4.997   4.309  0.7485  0.4456  0.1308
    72IDQ   C64 5448   0.518   4.954   4.441  0.0070 -0.1298 -0.6232
    72IDQ   C65 5449   0.383   4.889   4.436 -0.9501  0.4129  0.1695
    72IDQ   C66 5450   1.380   5.043   4.483  0.5960 -0.3904  0.7324
    72IDQ   C67 5451   1.490   5.120   4.549  0.0874 -0.2212  0.2796
    72IDQ   C68 5452   1.481   5.109   4.709 -0.0933 -0.1884  0.1601
    72IDQ   C69 5453   1.377   5.196   4.775  0.0792  0.0147 -0.2493
    72IDQ   C70 5454   1.374   5.348   4.751 -0.0474  0.6101  0.0120
    72IDQ   C71 5455   1.483   5.434   4.810 -0.4208  0.0092 -0.4284
    72IDQ   C72 5456   1.507   5.439   4.965 -0.4242  0.4194 -0.2270
    11RH     C1 5457   1.575   4.435   4.454 -0.1329 -0.3607 -0.1545
    11RH     C2 5458   1.517   4.517   4.562  0.0557 -0.3430 -0.0657
    11RH     N1 5459   1.605   4.512   4.340  0.0512 -0.3026 -0.0684
    11RH     S1 5460   1.504   4.692   4.507  0.4627 -0.2510  0.1258
    11RH     C3 5461   1.577   4.647   4.343  0.3642 -0.2403  0.0788
    11RH     C4 5462   1.682   4.457   4.224 -0.3815 -0.0338  0.1841
    11RH     S2 5463   1.602   4.761   4.222  0.6325 -0.1638  0.2049
    11RH     O1 5464   1.597   4.312   4.460 -0.4166 -0.4188 -0.2881
    11RH     C5 5465   1.480   4.468   4.681 -0.0623 -0.3888 -0.1208
    21BTZ    C6 5466   1.421   4.531   4.801 -0.2796  0.1014 -0.1375
    21BTZ    C7 5467   1.396   4.665   4.808 -0.3016  0.0947 -0.0818
    21BTZ    C8 5468   1.399   4.451   4.918 -0.2507  0.0520 -0.1656
    21BTZ    C9 5469   1.348   4.728   4.929 -0.2964  0.0393 -0.0511
    21BTZ   C10 5470   1.325   4.656   5.043 -0.2693 -0.0090 -0.0764
    21BTZ   C11 5471   1.350   4.514   5.041 -0.2455 -0.0042 -0.1345
    21BTZ    N2 5472   1.420   4.319   4.924 -0.2275  0.0533 -0.2197
    21BTZ    N3 5473   1.332   4.434   5.146 -0.2181 -0.0480 -0.1637
    21BTZ    S3 5474   1.377   4.270   5.091 -0.1974 -0.0188 -0.2334
    31IDT   C12 5475   1.298   4.735   5.164 -0.5706  0.0592 -0.1674
    31IDT   C13 5476   1.265   4.867   5.167 -0.4650  0.0832 -0.0179
    31IDT   C14 5477   1.212   4.909   5.293  0.1576  0.1292  0.2348
    31IDT   C15 5478   1.204   4.809   5.387  0.5297  0.1403  0.2796
    31IDT    S4 5479   1.264   4.652   5.323  0.1168  0.0931  0.0027
    4IDB    C16 5480   1.132   4.850   5.504 -0.1886 -0.2771 -0.2806
    4IDB    C17 5481   1.107   4.990   5.498  0.6007 -0.1175 -0.0136
    51IDQ   C18 5482   1.158   5.044   5.359  0.0332  0.5699  0.0006
    4IDB    C19 5483   1.056   5.058   5.608  0.8583 -0.0582  0.0722
    51IDQ   C20 5484   1.266   5.155   5.366  0.6220  0.2269  0.4936
    51IDQ   C21 5485   1.049   5.098   5.261  0.8216  0.7035 -0.5301
    51IDQ   C22 5486   0.900   5.052   5.276 -0.1787  0.4239  0.1949
    51IDQ   C23 5487   1.417   5.142   5.351 -0.3704  0.0720 -0.5181
    51IDQ   C24 5488   0.796   5.134   5.200  0.0821  0.0060 -0.1659
    51IDQ   C25 5489   0.790   5.285   5.217 -0.2880  0.1262 -0.2772
    51IDQ   C26 5490   0.672   5.327   5.137 -0.7273  0.2212 -0.2669
    51IDQ   C27 5491   0.629   5.474   5.170 -0.8942  0.3269  0.3737
    51IDQ   C28 5492   0.543   5.546   5.067 -0.1032 -0.5837  0.1485
    51IDQ   C29 5493   0.437   5.469   4.989  0.1607 -0.3641 -0.1202
    51IDQ   C30 5494   1.494   5.058   5.453  0.7601 -0.1605 -0.4088
    51IDQ   C31 5495   1.647   5.065   5.452 -0.0673  0.3864 -0.0503
    51IDQ   C32 5496   1.724   4.984   5.559  0.8979  0.4235 -0.7171
    51IDQ   C33 5497   1.877   4.977   5.551  0.2272 -0.3701  0.2705
    51IDQ   C34 5498   1.957   5.091   5.499  0.0405 -0.7965 -0.0525
    51IDQ   C35 5499   2.104   5.067   5.506 -0.2508  0.1349 -0.1503
    4IDB    C36 5500   1.105   4.776   5.620 -0.7277 -0.3790 -0.4644
    4IDB    C37 5501   1.052   4.847   5.731 -0.4539 -0.3163 -0.3731
    11RH    C38 5502   1.611   4.365   4.127  0.2573 -0.3767  0.5803
    4IDB    C39 5503   1.029   4.984   5.724  0.3191 -0.1599 -0.1117
    62IDT   C40 5504   0.980   5.026   5.857 -0.0079  0.1447  0.1465
    72IDQ   C41 5505   1.036   4.790   5.876  0.0216  0.5619  0.4004
    62IDT   C42 5506   0.991   4.921   5.945 -0.0079 -0.0380 -0.0687
    72IDQ   C43 5507   1.176   4.730   5.927  0.0687 -0.5452  0.6049
    72IDQ   C44 5508   0.929   4.672   5.874  0.2057  0.2229 -0.3711
    62IDT    S5 5509   0.917   5.174   5.936  0.2127  0.0505  0.5034
    62IDT   C45 5510   0.908   5.081   6.092  0.2974 -0.2457  0.3347
    62IDT   C46 5511   0.950   4.952   6.078  0.1646 -0.2589  0.0374
    82BTZ   C47 5512   0.867   5.146   6.221 -0.2014  0.2217  0.1719
    82BTZ   C48 5513   0.811   5.067   6.318 -0.1047  0.1955  0.2067
    82BTZ   C49 5514   0.771   5.121   6.446 -0.0502  0.1764  0.2320
    82BTZ   C50 5515   0.787   5.253   6.476 -0.0927  0.1839  0.2224
    82BTZ   C51 5516   0.886   5.285   6.248 -0.2491  0.2306  0.1606
    82BTZ   C52 5517   0.845   5.340   6.378 -0.1938  0.2112  0.1862
    92RH    C53 5518   0.760   5.314   6.600  0.2568  0.1220  0.1225
    82BTZ    N4 5519   0.939   5.372   6.162 -0.3430  0.2556  0.1273
    82BTZ    N5 5520   0.865   5.471   6.396 -0.2432  0.2207  0.1738
    82BTZ    S6 5521   0.939   5.531   6.245 -0.3651  0.2555  0.1276
    92RH    C54 5522   0.714   5.272   6.718  0.1076 -0.0249  0.0137
    92RH     S7 5523   0.673   5.099   6.765 -0.0132 -0.0737 -0.2724
    92RH    C55 5524   0.690   5.362   6.834  0.0147 -0.1757  0.1126
    92RH     O2 5525   0.709   5.484   6.835  0.0628 -0.1836  0.3039
    92RH     N6 5526   0.643   5.290   6.946 -0.1390 -0.3130 -0.0392
    92RH    C56 5527   0.625   5.154   6.934 -0.1806 -0.2908 -0.2476
    92RH    C57 5528   0.621   5.360   7.075  0.2512 -0.0365 -0.0467
    92RH    C58 5529   0.744   5.377   7.168  0.2383  0.4494  0.1430
    92RH     S8 5530   0.570   5.047   7.052 -0.3550 -0.4332 -0.4577
    72IDQ   C59 5531   0.807   4.674   5.783  0.6502 -0.2724 -0.4779
    72IDQ   C60 5532   0.705   4.781   5.803  0.4173 -0.5580  0.1076
    72IDQ   C61 5533   0.631   4.811   5.939  0.1033  0.6253  0.6235
    72IDQ   C62 5534   0.546   4.705   6.002  0.4131 -0.1885  0.4971
    72IDQ   C63 5535   0.478   4.757   6.124 -0.8161  0.7954  0.1646
    72IDQ   C64 5536   0.411   4.659   6.218  0.4563  0.2042  0.1417
    72IDQ   C65 5537   0.367   4.723   6.351  0.0518  0.0774  0.3047
    72IDQ   C66 5538   1.195   4.714   6.075 -0.2075 -0.0689 -0.9841
    72IDQ   C67 5539   1.337   4.674   6.125  0.6058 -0.0367 -0.6568
    72IDQ   C68 5540   1.348   4.646   6.281 -0.5320 -0.4176  0.4579
    72IDQ   C69 5541   1.296   4.756   6.375  0.0151  0.4203  0.5506
    72IDQ   C70 5542   1.319   4.739   6.527  0.7323 -1.1065  0.1632
    72IDQ   C71 5543   1.456   4.721   6.567 -0.3476  0.0758 -0.5542
    72IDQ   C72 5544   1.481   4.768   6.710 -0.1050 -0.5001 -0.0601
    11RH     C1 5545   2.214   5.220   0.482 -0.0367  0.0792  0.1227
    11RH     C2 5546   2.251   5.308   0.369 -0.1280  0.0511  0.0707
    11RH     N1 5547   2.164   5.295   0.591 -0.0709  0.0959  0.0959
    11RH     S1 5548   2.218   5.483   0.413 -0.2530  0.0485 -0.0102
    11RH     C3 5549   2.157   5.432   0.579 -0.1784  0.0848  0.0287
    11RH     C4 5550   2.112   5.221   0.707  0.1883 -0.7645 -0.1880
    11RH     S2 5551   2.102   5.542   0.694 -0.2394  0.1001 -0.0154
    11RH     O1 5552   2.224   5.096   0.483  0.0586  0.0874  0.1827
    11RH     C5 5553   2.301   5.263   0.253 -0.1177  0.0312  0.0830
    21BTZ    C6 5554   2.350   5.327   0.137 -0.2071  0.3200 -0.1898
    21BTZ    C7 5555   2.362   5.463   0.121 -0.0193  0.2912 -0.3035
    21BTZ    C8 5556   2.396   5.242   0.031 -0.2108  0.1633 -0.0655
    21BTZ    C9 5557   2.420   5.521   0.003  0.1733  0.1085 -0.3009
    21BTZ   C10 5558   2.465   5.444  -0.101  0.1777 -0.0453 -0.1847
    21BTZ   C11 5559   2.455   5.301  -0.090 -0.0150 -0.0224 -0.0629
    21BTZ    N2 5560   2.390   5.108   0.034 -0.3839  0.1737  0.0517
    21BTZ    N3 5561   2.496   5.215  -0.184 -0.0308 -0.1614  0.0565
    21BTZ    S3 5562   2.460   5.052  -0.121 -0.3023 -0.0586  0.1731
    31IDT   C12 5563   2.506   5.518  -0.223 -0.1293 -0.2333  0.2099
    31IDT   C13 5564   2.532   5.652  -0.234  0.0509 -0.2518  0.4044
    31IDT   C14 5565   2.584   5.689  -0.361  0.0460 -0.1276  0.4383
    31IDT   C15 5566   2.598   5.584  -0.449 -0.1375 -0.0140  0.2702
    31IDT    S4 5567   2.547   5.428  -0.376 -0.3201 -0.0556  0.0538
    4IDB    C16 5568   2.647   5.628  -0.581 -0.1001 -0.2953 -0.0614
    4IDB    C17 5569   2.684   5.766  -0.571  0.1697 -0.3827  0.1719
    51IDQ   C18 5570   2.647   5.814  -0.425  0.2246  0.1346  0.3908
    4IDB    C19 5571   2.732   5.835  -0.681  0.4861 -0.3370  0.3342
    51IDQ   C20 5572   2.553   5.938  -0.442  0.0786  0.2433 -0.5491
    51IDQ   C21 5573   2.767   5.858  -0.334  0.0826 -0.4758  0.0315
    51IDQ   C22 5574   2.906   5.854  -0.400 -0.0128  0.3005 -0.4992
    51IDQ   C23 5575   2.402   5.948  -0.412 -0.3851 -0.1247 -0.7424
    51IDQ   C24 5576   3.006   5.904  -0.302  0.5717  0.9198 -0.1529
    51IDQ   C25 5577   3.152   5.898  -0.354  1.1497  0.4229  0.2635
    51IDQ   C26 5578   3.253   5.932  -0.245  0.0390  0.0193  0.2007
    51IDQ   C27 5579   3.248   6.082  -0.200  0.3336  0.4002  0.4130
    51IDQ   C28 5580   3.329   6.111  -0.069  0.2870 -0.4045  0.6664
    51IDQ   C29 5581   3.317   6.257  -0.027  0.7405  0.2861  0.3198
    51IDQ   C30 5582   2.315   5.905  -0.521  0.3212 -0.0542  0.8766
    51IDQ   C31 5583   2.160   5.893  -0.486 -0.2111  0.0017  0.1190
    51IDQ   C32 5584   2.075   5.869  -0.614 -0.1846 -0.4839 -0.0316
    51IDQ   C33 5585   1.944   5.798  -0.594 -0.5857  0.5017  0.3338
    51IDQ   C34 5586   1.867   5.774  -0.725  0.7916  0.0314 -0.8824
    51IDQ   C35 5587   1.737   5.705  -0.698  0.1270 -0.4018  0.1323
    4IDB    C36 5588   2.658   5.559  -0.702 -0.0545 -0.1612 -0.1340
    4IDB    C37 5589   2.707   5.632  -0.814  0.2705 -0.1166  0.0343
    11RH    C38 5590   2.215   5.189   0.816  0.5520  0.1134 -0.5456
    4IDB    C39 5591   2.742   5.766  -0.803  0.5316 -0.2030  0.2616
    62IDT   C40 5592   2.803   5.815  -0.928  0.4843  0.0969  0.2188
    72IDQ   C41 5593   2.738   5.584  -0.961  0.5047 -0.3444  0.3386
    62IDT   C42 5594   2.778   5.723  -1.028  0.6206 -0.0970  0.3608
    72IDQ   C43 5595   2.609   5.511  -1.027 -0.5046 -0.0451  0.1999
    72IDQ   C44 5596   2.857   5.490  -0.958  0.7466  0.6872  0.1316
    62IDT    S5 5597   2.880   5.964  -0.991  0.1132  0.1803 -0.0367
    62IDT   C45 5598   2.873   5.891  -1.158  0.1644 -0.0630  0.0671
    62IDT   C46 5599   2.818   5.766  -1.158  0.4399 -0.1876  0.2751
    82BTZ   C47 5600   2.910   5.968  -1.278 -0.1978  0.0399  0.0061
    82BTZ   C48 5601   2.962   5.892  -1.379 -0.0919 -0.0291  0.1115
    82BTZ   C49 5602   2.989   5.948  -1.509  0.1341 -0.0932  0.1291
    82BTZ   C50 5603   2.963   6.080  -1.538  0.2539 -0.0884  0.0416
    82BTZ   C51 5604   2.881   6.106  -1.302 -0.0796  0.0478 -0.0882
    82BTZ   C52 5605   2.908   6.163  -1.435  0.1503 -0.0174 -0.0705
    92RH    C53 5606   2.997   6.135  -1.665 -0.4072  0.1005 -0.1686
    82BTZ    N4 5607   2.830   6.190  -1.212 -0.1648  0.1118 -0.1949
    82BTZ    N5 5608   2.879   6.293  -1.450  0.2497 -0.0058 -0.1625
    82BTZ    S6 5609   2.814   6.348  -1.293  0.0495  0.0910 -0.2784
    92RH    C54 5610   3.048   6.082  -1.777 -0.2676  0.1018 -0.1068
    92RH     S7 5611   3.100   5.908  -1.802  0.2405  0.2198  0.1113
    92RH    C55 5612   3.069   6.160  -1.902 -0.5129  0.0041 -0.2104
    92RH     O2 5613   3.043   6.280  -1.917 -0.8694 -0.0886 -0.3631
    92RH     N6 5614   3.123   6.079  -2.004 -0.2897  0.0290 -0.1133
    92RH    C56 5615   3.148   5.946  -1.976  0.1044  0.1345  0.0554
    92RH    C57 5616   3.168   6.140  -2.135  0.2770 -0.5784 -0.7249
    92RH    C58 5617   3.087   6.120  -2.262 -0.2979  0.2198  0.1071
    92RH     S8 5618   3.211   5.830  -2.080  0.4331  0.1850  0.1979
    72IDQ   C59 5619   2.998   5.518  -0.920  0.7199 -0.8289 -0.0745
    72IDQ   C60 5620   3.090   5.400  -0.935 -0.3959  0.3116  0.1477
    72IDQ   C61 5621   3.242   5.428  -0.936 -0.1070 -0.4784  0.3978
    72IDQ   C62 5622   3.292   5.518  -1.058 -0.4727  0.4110  0.9413
    72IDQ   C63 5623   3.442   5.534  -1.033  0.4813  0.3831  0.4273
    72IDQ   C64 5624   3.509   5.594  -1.156 -0.5594  0.2275  0.2588
    72IDQ   C65 5625   3.650   5.636  -1.123 -0.2229  0.2010  0.4093
    72IDQ   C66 5626   2.613   5.477  -1.180  0.9777 -0.4868  0.0162
    72IDQ   C67 5627   2.701   5.369  -1.226  0.3316 -0.3517  0.4203
    72IDQ   C68 5628   2.692   5.350  -1.382  0.0820 -0.7126 -0.1974
    72IDQ   C69 5629   2.733   5.211  -1.422  0.1680  0.1793  0.3107
    72IDQ   C70 5630   2.776   5.209  -1.571 -0.1856  0.4697 -0.2090
    72IDQ   C71 5631   2.824   5.072  -1.596  0.9430  0.4437  0.4658
    72IDQ   C72 5632   2.935   5.078  -1.698 -0.3762 -0.1687  0.9291
    11RH     C1 5633   3.515   1.523   2.120 -0.0144  0.0812  0.4601
    11RH     C2 5634   3.566   1.433   2.013  0.0377  0.2570  0.3374
    11RH     N1 5635   3.471   1.449   2.232 -0.1025 -0.1063  0.3038
    11RH     S1 5636   3.553   1.258   2.067 -0.0325  0.1643  0.0242
    11RH     C3 5637   3.480   1.312   2.228 -0.1275 -0.1023  0.0706
    11RH     C4 5638   3.401   1.531   2.334  0.0110  0.4534 -0.1971
    11RH     S2 5639   3.436   1.201   2.348 -0.2278 -0.3025 -0.1500
    11RH     O1 5640   3.510   1.647   2.115  0.0141  0.0927  0.6731
    11RH     C5 5641   3.613   1.478   1.897  0.1232  0.4517  0.4453
    21BTZ    C6 5642   3.665   1.420   1.771  0.1153  0.1544  0.1649
    21BTZ    C7 5643   3.683   1.286   1.753  0.0524  0.1260  0.3033
    21BTZ    C8 5644   3.695   1.509   1.663  0.1567  0.0293  0.0726
    21BTZ    C9 5645   3.731   1.232   1.627  0.0272 -0.0255  0.3575
    21BTZ   C10 5646   3.761   1.314   1.521  0.0650 -0.1484  0.2733
    21BTZ   C11 5647   3.743   1.455   1.536  0.1311 -0.1246  0.1277
    21BTZ    N2 5648   3.681   1.642   1.670  0.2187  0.0425 -0.0641
    21BTZ    N3 5649   3.769   1.545   1.440  0.1726 -0.2352  0.0354
    21BTZ    S3 5650   3.731   1.705   1.510  0.2476 -0.1453 -0.1295
    31IDT   C12 5651   3.799   1.251   1.392  0.2337  0.0393 -0.0053
    31IDT   C13 5652   3.832   1.119   1.376  0.5866  0.1203  0.0476
    31IDT   C14 5653   3.885   1.090   1.246  0.6819  0.2111  0.0654
    31IDT   C15 5654   3.892   1.199   1.163  0.4029  0.2000  0.0263
    31IDT    S4 5655   3.832   1.349   1.242 -0.0058  0.0725 -0.0367
    4IDB    C16 5656   3.940   1.158   1.035 -0.0270 -0.1201  0.3866
    4IDB    C17 5657   3.984   1.023   1.042 -0.2838 -0.2078  0.3154
    51IDQ   C18 5658   3.943   0.967   1.178 -0.6737 -0.0165 -0.0374
    4IDB    C19 5659   4.044   0.961   0.933 -0.1704 -0.1847  0.3648
    51IDQ   C20 5660   3.845   0.850   1.151  0.1715 -0.0043 -0.0236
    51IDQ   C21 5661   4.067   0.907   1.271 -0.0864 -0.7140  0.1394
    51IDQ   C22 5662   4.210   0.924   1.226 -0.2222  0.0385  0.0240
    51IDQ   C23 5663   3.688   0.857   1.170 -0.0924  0.7101  0.4386
    51IDQ   C24 5664   4.325   0.882   1.316 -0.2128 -0.1981 -0.1003
    51IDQ   C25 5665   4.322   0.730   1.364 -0.4177 -0.1146 -0.5540
    51IDQ   C26 5666   4.409   0.702   1.489 -0.2803  0.2412  0.0531
    51IDQ   C27 5667   4.408   0.563   1.553 -0.2066 -0.4010 -0.3336
    51IDQ   C28 5668   4.519   0.461   1.515 -0.5406 -0.6003 -0.5999
    51IDQ   C29 5669   4.647   0.495   1.588 -0.2763  0.0650 -0.3264
    51IDQ   C30 5670   3.611   0.943   1.070  0.2407  0.7409 -0.2402
    51IDQ   C31 5671   3.457   0.925   1.077 -0.1305 -0.5440 -0.1148
    51IDQ   C32 5672   3.373   1.020   0.991 -0.4118 -0.6936  0.1877
    51IDQ   C33 5673   3.220   1.012   1.003  0.7413  0.3912  0.0182
    51IDQ   C34 5674   3.140   1.101   0.913 -0.5166  0.6158  0.2927
    51IDQ   C35 5675   2.997   1.055   0.906 -0.0849 -0.0897 -0.4588
    4IDB    C36 5676   3.957   1.234   0.918  0.3474 -0.0080  0.5083
    4IDB    C37 5677   4.018   1.169   0.807  0.4585  0.0139  0.5573
    11RH    C38 5678   3.466   1.598   2.456 -0.5881 -0.1054  0.4617
    4IDB    C39 5679   4.061   1.037   0.816  0.2040 -0.0727  0.4866
    62IDT   C40 5680   4.116   0.992   0.689  0.3579 -0.4822  0.3895
    72IDQ   C41 5681   4.056   1.225   0.665 -0.1856  0.4383 -0.2010
    62IDT   C42 5682   4.103   1.093   0.596  0.0118 -0.3699  0.5542
    72IDQ   C43 5683   3.929   1.281   0.594 -0.1737 -0.0896  0.2170
    72IDQ   C44 5684   4.151   1.342   0.683  0.2090  0.6059 -0.6178
    62IDT    S5 5685   4.187   0.843   0.618  0.4219 -0.2814  0.0303
    62IDT   C45 5686   4.197   0.930   0.458 -0.0454 -0.0446  0.1265
    62IDT   C46 5687   4.149   1.058   0.466 -0.2166 -0.1224  0.4058
    82BTZ   C47 5688   4.230   0.852   0.332  0.1130  0.0237 -0.2403
    82BTZ   C48 5689   4.275   0.921   0.223 -0.0652 -0.1042 -0.3966
    82BTZ   C49 5690   4.293   0.857   0.095 -0.3978 -0.2244 -0.3851
    82BTZ   C50 5691   4.266   0.724   0.076 -0.5515 -0.2166 -0.2173
    82BTZ   C51 5692   4.200   0.712   0.318 -0.0371  0.0372 -0.0614
    82BTZ   C52 5693   4.218   0.647   0.188 -0.3752 -0.0851 -0.0497
    92RH    C53 5694   4.282   0.658  -0.056 -0.0054 -0.1430 -0.0060
    82BTZ    N4 5695   4.155   0.635   0.417  0.1116  0.1561  0.1006
    82BTZ    N5 5696   4.188   0.517   0.182 -0.4983 -0.0643  0.1217
    82BTZ    S6 5697   4.133   0.472   0.346 -0.1808  0.1160  0.2786
    92RH    C54 5698   4.331   0.697  -0.174 -0.1476 -0.1758 -0.0767
    92RH     S7 5699   4.394   0.864  -0.216 -0.1847 -0.1915 -0.1956
    92RH    C55 5700   4.342   0.608  -0.292 -0.3019 -0.2053 -0.0688
    92RH     O2 5701   4.307   0.489  -0.296 -0.3178 -0.2032  0.0026
    92RH     N6 5702   4.397   0.676  -0.403 -0.4328 -0.2369 -0.1539
    92RH    C56 5703   4.432   0.809  -0.388 -0.4022 -0.2363 -0.2290
    92RH    C57 5704   4.400   0.618  -0.538  0.1206  0.5366  0.0720
    92RH    C58 5705   4.274   0.618  -0.623  0.8461  0.2911 -0.0618
    92RH     S8 5706   4.499   0.911  -0.503 -0.5357 -0.2701 -0.3375
    72IDQ   C59 5707   4.300   1.301   0.705  0.2129 -0.3868 -0.8905
    72IDQ   C60 5708   4.391   1.403   0.651 -0.3937  0.1693 -0.2415
    72IDQ   C61 5709   4.537   1.373   0.671  0.5867  0.0883  0.5005
    72IDQ   C62 5710   4.585   1.246   0.603  0.0301  0.3462  0.2916
    72IDQ   C63 5711   4.734   1.233   0.627  0.3793 -0.2199  0.1447
    72IDQ   C64 5712   4.801   1.172   0.508  0.5444 -0.2589  0.0098
    72IDQ   C65 5713   4.943   1.136   0.545 -0.1498 -0.0291 -0.0509
    72IDQ   C66 5714   3.916   1.284   0.441 -0.0530 -0.2428  0.1335
    72IDQ   C67 5715   3.782   1.329   0.377  0.4153 -0.1928 -0.1350
    72IDQ   C68 5716   3.760   1.279   0.237 -0.7516 -0.2094 -0.1098
    72IDQ   C69 5717   3.635   1.314   0.162 -0.2355  0.0130  0.0119
    72IDQ   C70 5718   3.661   1.271   0.020  0.3845  0.4561  0.1409
    72IDQ   C71 5719   3.545   1.292  -0.070 -0.5186  0.0518 -0.4045
    72IDQ   C72 5720   3.573   1.259  -0.212 -0.4042 -0.3817 -0.0491
    11RH     C1 5721   2.853   0.813   6.098 -0.0188  0.2387  0.2718
    11RH     C2 5722   2.815   0.727   6.213  0.0501  0.0992  0.1904
    11RH     N1 5723   2.900   0.736   5.989  0.0586  0.3804  0.2044
    11RH     S1 5724   2.844   0.551   6.170  0.2121  0.1635  0.0307
    11RH     C3 5725   2.904   0.599   6.003  0.1810  0.3715  0.0790
    11RH     C4 5726   2.940   0.800   5.864 -0.2906  0.1460  0.0650
    11RH     S2 5727   2.955   0.486   5.889  0.2917  0.5216 -0.0216
    11RH     O1 5728   2.845   0.937   6.095 -0.1303  0.2350  0.3848
    11RH     C5 5729   2.768   0.775   6.329 -0.0015 -0.0492  0.2310
    21BTZ    C6 5730   2.723   0.708   6.450 -0.0093 -0.3868  0.0619
    21BTZ    C7 5731   2.721   0.571   6.465  0.0859 -0.3617  0.3091
    21BTZ    C8 5732   2.681   0.790   6.560  0.0193 -0.2147 -0.0547
    21BTZ    C9 5733   2.678   0.509   6.588  0.2133 -0.1675  0.4526
    21BTZ   C10 5734   2.637   0.584   6.696  0.2452  0.0012  0.3490
    21BTZ   C11 5735   2.637   0.727   6.685  0.1487 -0.0173  0.0912
    21BTZ    N2 5736   2.678   0.923   6.557 -0.0654 -0.2201 -0.2939
    21BTZ    N3 5737   2.600   0.810   6.783  0.1681  0.1359 -0.0306
    21BTZ    S3 5738   2.619   0.975   6.718  0.0186  0.0321 -0.3434
    31IDT   C12 5739   2.589   0.509   6.812  0.1176  0.6679  0.1479
    31IDT   C13 5740   2.564   0.374   6.813  0.5058  0.5916 -0.1223
    31IDT   C14 5741   2.508   0.328   6.936  0.5519  0.1965 -0.2441
    31IDT   C15 5742   2.489   0.428   7.030  0.1999 -0.0304 -0.0681
    31IDT    S4 5743   2.542   0.588   6.969 -0.2210  0.2412  0.2688
    4IDB    C16 5744   2.426   0.375   7.149 -0.1440 -0.2067 -0.1102
    4IDB    C17 5745   2.408   0.233   7.142 -0.2317 -0.1975 -0.0811
    51IDQ   C18 5746   2.452   0.196   6.996  0.6636  0.6805 -0.4064
    4IDB    C19 5747   2.363   0.161   7.251 -0.1094 -0.1701 -0.0115
    51IDQ   C20 5748   2.558   0.082   7.019 -0.0236  0.1517 -0.0988
    51IDQ   C21 5749   2.341   0.140   6.903 -0.2961  0.0953  0.1218
    51IDQ   C22 5750   2.192   0.152   6.930  0.2335  0.0292  0.6340
    51IDQ   C23 5751   2.707   0.096   6.994 -0.3243  0.6145 -0.0821
    51IDQ   C24 5752   2.105   0.112   6.807 -0.0244  0.5097  0.4590
    51IDQ   C25 5753   1.958   0.096   6.833 -0.1529 -0.5659 -0.0595
    51IDQ   C26 5754   1.877   0.080   6.706  0.3117  0.8002  0.0926
    51IDQ   C27 5755   1.886  -0.053   6.628  0.1920 -0.8214 -0.0323
    51IDQ   C28 5756   1.802  -0.157   6.697  0.2605  0.5058 -0.1579
    51IDQ   C29 5757   1.842  -0.297   6.651  0.1822 -0.0674 -0.0832
    51IDQ   C30 5758   2.780   0.143   7.117  0.0548  0.5636 -0.6594
    51IDQ   C31 5759   2.927   0.130   7.093 -0.6607 -0.0428  0.1696
    51IDQ   C32 5760   3.013   0.191   7.204  0.2849 -0.7851  0.2343
    51IDQ   C33 5761   3.164   0.193   7.171 -0.1042  0.0873 -0.2751
    51IDQ   C34 5762   3.238   0.287   7.270 -0.7672 -0.1102 -0.1579
    51IDQ   C35 5763   3.382   0.307   7.219 -0.1234 -0.4580 -0.6913
    4IDB    C36 5764   2.398   0.445   7.267  0.0680 -0.1885 -0.0695
    4IDB    C37 5765   2.351   0.370   7.378  0.1906 -0.1606  0.0015
    11RH    C38 5766   2.825   0.831   5.770 -0.9611  0.3619 -0.0924
    4IDB    C39 5767   2.334   0.231   7.369  0.1026 -0.1518  0.0292
    62IDT   C40 5768   2.277   0.192   7.495  0.0261  0.1959  0.1071
    72IDQ   C41 5769   2.321   0.423   7.518  0.2818  0.4448 -0.3968
    62IDT   C42 5770   2.266   0.293   7.588  0.2513  0.0910  0.2476
    72IDQ   C43 5771   2.451   0.472   7.585 -0.3043 -0.5123  0.5524
    72IDQ   C44 5772   2.211   0.533   7.521 -0.3334 -0.0263  0.3832
    62IDT    S5 5773   2.224   0.034   7.562 -0.1621  0.1872 -0.0593
    62IDT   C45 5774   2.189   0.117   7.720  0.0859  0.0348  0.0766
    62IDT   C46 5775   2.217   0.251   7.716  0.2854 -0.0002  0.2306
    82BTZ   C47 5776   2.139   0.034   7.837  0.4242  0.1726  0.2344
    82BTZ   C48 5777   2.100   0.113   7.942  0.5064  0.1186  0.3062
    82BTZ   C49 5778   2.074   0.059   8.073  0.3394  0.0091  0.2286
    82BTZ   C50 5779   2.087  -0.075   8.099  0.0904 -0.0460  0.0794
    82BTZ   C51 5780   2.154  -0.107   7.860  0.1651  0.1184  0.0782
    82BTZ   C52 5781   2.128  -0.162   7.993 -0.0046  0.0072 -0.0007
    92RH    C53 5782   2.073  -0.134   8.233  0.2087  0.0973  0.1220
    82BTZ    N4 5783   2.191  -0.194   7.766  0.0631  0.1624 -0.0038
    82BTZ    N5 5784   2.144  -0.294   8.006 -0.2432 -0.0381 -0.1461
    82BTZ    S6 5785   2.195  -0.354   7.845 -0.2614  0.0616 -0.1892
    92RH    C54 5786   2.034  -0.092   8.354  0.0930 -0.0169  0.1249
    92RH     S7 5787   1.954   0.069   8.394 -0.1574 -0.1496  0.1668
    92RH    C55 5788   2.049  -0.172   8.478  0.1528 -0.0541  0.0934
    92RH     O2 5789   2.099  -0.285   8.484  0.3138  0.0147  0.0612
    92RH     N6 5790   1.999  -0.103   8.590  0.0021 -0.1797  0.1043
    92RH    C56 5791   1.946   0.023   8.572 -0.1710 -0.2478  0.1407
    92RH    C57 5792   1.995  -0.176   8.716 -0.2899 -0.2407  0.1193
    92RH    C58 5793   2.120  -0.145   8.800  0.2719  0.0201 -0.3498
    92RH     S8 5794   1.880   0.125   8.689 -0.3719 -0.3980  0.1606
    72IDQ   C59 5795   2.071   0.495   7.466 -0.2986  0.5495  0.5146
    72IDQ   C60 5796   1.973   0.610   7.469 -0.1637  0.0966  0.1261
    72IDQ   C61 5797   1.830   0.559   7.476  0.6000  0.0592  0.1859
    72IDQ   C62 5798   1.785   0.490   7.601 -0.3019  0.1032  0.6879
    72IDQ   C63 5799   1.635   0.468   7.593 -0.7900  0.0394 -0.0725
    72IDQ   C64 5800   1.560   0.410   7.722  0.0281 -0.2938 -0.1475
    72IDQ   C65 5801   1.584   0.493   7.850 -0.5995  0.0160 -0.1684
    72IDQ   C66 5802   2.462   0.488   7.734 -0.3573 -0.2380  0.0050
    72IDQ   C67 5803   2.603   0.537   7.778  0.2464 -0.7943 -0.3043
    72IDQ   C68 5804   2.627   0.588   7.922  0.4973  0.0766 -0.1045
    72IDQ   C69 5805   2.595   0.493   8.041  0.0795  0.0434  0.3566
    72IDQ   C70 5806   2.655   0.528   8.178 -0.1300 -0.5991  0.1724
    72IDQ   C71 5807   2.806   0.528   8.184  0.5741 -0.5952 -0.2577
    72IDQ   C72 5808   2.854   0.534   8.333 -0.0425  1.0753  0.0440
    11RH     C1 5809   3.487   5.977   1.156  0.2402  0.0938 -0.0079
    11RH     C2 5810   3.437   6.062   1.267  0.0980  0.0184 -0.0132
    11RH     N1 5811   3.528   6.055   1.045  0.3981  0.1701  0.1032
    11RH     S1 5812   3.447   6.239   1.218  0.1813  0.0527  0.1282
    11RH     C3 5813   3.517   6.192   1.054  0.4000  0.1651  0.1875
    11RH     C4 5814   3.565   5.986   0.919 -0.3667 -0.3814  0.4170
    11RH     S2 5815   3.558   6.306   0.938  0.5699  0.2458  0.3257
    11RH     O1 5816   3.493   5.853   1.157  0.2259  0.0920 -0.0893
    11RH     C5 5817   3.393   6.013   1.383 -0.0649 -0.0617 -0.1085
    21BTZ    C6 5818   3.351   6.076   1.509 -0.1173  0.1873  0.1479
    21BTZ    C7 5819   3.340   6.211   1.530 -0.0733  0.1625  0.3307
    21BTZ    C8 5820   3.318   5.986   1.616  0.0144  0.0579  0.0811
    21BTZ    C9 5821   3.297   6.264   1.657  0.1011  0.0105  0.4562
    21BTZ   C10 5822   3.264   6.183   1.762  0.2311 -0.1164  0.3988
    21BTZ   C11 5823   3.274   6.041   1.745  0.1916 -0.0966  0.2087
    21BTZ    N2 5824   3.325   5.853   1.607 -0.0125  0.0674 -0.0938
    21BTZ    N3 5825   3.245   5.951   1.839  0.3071 -0.2114  0.1364
    21BTZ    S3 5826   3.274   5.790   1.767  0.1917 -0.1250 -0.1029
    31IDT   C12 5827   3.220   6.249   1.887  0.4504 -0.2283  0.0826
    31IDT   C13 5828   3.196   6.383   1.901  0.8867 -0.1408  0.0223
    31IDT   C14 5829   3.149   6.418   2.031  0.9554  0.0637 -0.0073
    31IDT   C15 5830   3.138   6.311   2.117  0.5728  0.1333  0.0304
    31IDT    S4 5831   3.185   6.156   2.039  0.0914 -0.0566  0.1069
    4IDB    C16 5832   3.083   6.355   2.246  0.2896  0.1122  0.3495
    4IDB    C17 5833   3.058   6.495   2.243  0.9194  0.2350  0.4556
    51IDQ   C18 5834   3.095   6.547   2.100 -0.2037  0.5226 -0.3017
    4IDB    C19 5835   3.013   6.563   2.355  0.8440  0.2766  0.4007
    51IDQ   C20 5836   3.203   6.670   2.115  0.7586 -0.2161 -0.1262
    51IDQ   C21 5837   2.984   6.610   2.002 -0.2338 -0.8896 -0.6305
    51IDQ   C22 5838   2.839   6.618   2.044  0.6092  0.0946  0.2369
    51IDQ   C23 5839   3.350   6.656   2.110 -0.4163 -0.0420  0.7832
    51IDQ   C24 5840   2.744   6.678   1.934 -0.2621  0.2501  0.1589
    51IDQ   C25 5841   2.699   6.586   1.818  0.1494 -0.4249 -0.2446
    51IDQ   C26 5842   2.602   6.655   1.715  0.0165 -0.4323  0.1955
    51IDQ   C27 5843   2.646   6.792   1.654  0.1629 -0.3720  0.2123
    51IDQ   C28 5844   2.610   6.917   1.728  0.5017  0.1485 -0.0654
    51IDQ   C29 5845   2.646   7.040   1.647 -0.2247  0.3935  0.2888
    51IDQ   C30 5846   3.431   6.566   2.207 -0.0162  0.2558  0.1585
    51IDQ   C31 5847   3.583   6.579   2.186  0.1425 -0.4506 -0.2976
    51IDQ   C32 5848   3.664   6.500   2.287  0.4491 -0.3357 -0.2193
    51IDQ   C33 5849   3.813   6.517   2.277  0.3791  0.1470 -0.0035
    51IDQ   C34 5850   3.879   6.462   2.406 -0.5831 -0.5653  0.4409
    51IDQ   C35 5851   4.034   6.457   2.392  0.2620 -0.0119 -0.3013
    4IDB    C36 5852   3.064   6.281   2.364 -0.4237  0.0299  0.1869
    4IDB    C37 5853   3.017   6.351   2.478 -0.4900  0.0740  0.1329
    11RH    C38 5854   3.459   5.949   0.819 -0.1770 -0.6794 -0.1438
    4IDB    C39 5855   2.993   6.489   2.473  0.1307  0.1942  0.2381
    62IDT   C40 5856   2.954   6.539   2.604 -0.3617 -0.2379 -0.4682
    72IDQ   C41 5857   2.981   6.302   2.620 -0.8001 -0.9172 -0.2418
    62IDT   C42 5858   2.945   6.436   2.695 -0.0802 -0.2704 -0.4748
    72IDQ   C43 5859   3.113   6.251   2.687 -0.1525 -0.2952 -0.1316
    72IDQ   C44 5860   2.871   6.192   2.620 -0.2442 -0.8205  0.2876
    62IDT    S5 5861   2.905   6.696   2.674 -0.0130 -0.2391 -0.2182
    62IDT   C45 5862   2.873   6.611   2.832  0.5209 -0.2859 -0.1314
    62IDT   C46 5863   2.899   6.477   2.824  0.4191 -0.2976 -0.2844
    82BTZ   C47 5864   2.834   6.686   2.957 -0.0428 -0.0211  0.1473
    82BTZ   C48 5865   2.765   6.617   3.054 -0.1827  0.0672  0.1121
    82BTZ   C49 5866   2.720   6.682   3.175 -0.2277  0.1432  0.0548
    82BTZ   C50 5867   2.744   6.815   3.198 -0.1328  0.1307  0.0328
    82BTZ   C51 5868   2.860   6.825   2.977  0.0606 -0.0378  0.1262
    82BTZ   C52 5869   2.815   6.891   3.099  0.0148  0.0394  0.0681
    92RH    C53 5870   2.715   6.882   3.329 -0.4699  0.4065 -0.0878
    82BTZ    N4 5871   2.926   6.902   2.889  0.1997 -0.1208  0.1565
    82BTZ    N5 5872   2.843   7.021   3.111  0.1172  0.0185  0.0515
    82BTZ    S6 5873   2.932   7.066   2.962  0.2797 -0.1033  0.1108
    92RH    C54 5874   2.674   6.838   3.448 -0.2201  0.2383 -0.0625
    92RH     S7 5875   2.626   6.666   3.492  0.0921  0.1303 -0.1442
    92RH    C55 5876   2.660   6.925   3.568 -0.1571  0.1098  0.0394
    92RH     O2 5877   2.684   7.046   3.571 -0.3243  0.1417  0.1119
    92RH     N6 5878   2.615   6.852   3.680  0.1223 -0.0579  0.0450
    92RH    C56 5879   2.591   6.717   3.665  0.2908 -0.0794 -0.0399
    92RH    C57 5880   2.614   6.917   3.812  0.5078 -0.2253  0.1750
    92RH    C58 5881   2.737   6.897   3.901 -0.2002 -0.0792 -0.3596
    92RH     S8 5882   2.537   6.609   3.782  0.6287 -0.2642 -0.0530
    72IDQ   C59 5883   2.734   6.230   2.566  0.3463  0.0994 -0.3179
    72IDQ   C60 5884   2.625   6.129   2.601 -0.3604  0.1703  0.2580
    72IDQ   C61 5885   2.481   6.174   2.562 -0.1916 -0.0472  0.5663
    72IDQ   C62 5886   2.418   6.272   2.666 -0.3655 -0.1654  0.5380
    72IDQ   C63 5887   2.275   6.301   2.641  0.3492 -0.1412 -0.2474
    72IDQ   C64 5888   2.218   6.380   2.755 -0.4681 -0.3665 -0.2628
    72IDQ   C65 5889   2.073   6.356   2.758  0.3554 -0.2087 -0.2292
    72IDQ   C66 5890   3.109   6.178   2.822  1.5029  0.0215  0.2021
    72IDQ   C67 5891   3.218   6.201   2.918 -0.1866  0.5291  0.7735
    72IDQ   C68 5892   3.176   6.208   3.065 -0.1759 -0.2608  0.2615
    72IDQ   C69 5893   3.291   6.255   3.147 -0.1861  0.3397  0.3786
    72IDQ   C70 5894   3.272   6.244   3.299 -0.0015 -0.7740  0.1045
    72IDQ   C71 5895   3.383   6.286   3.391 -0.2192  0.6293 -0.3275
    72IDQ   C72 5896   3.515   6.217   3.374  0.1028  0.2275  0.0811
    11RH     C1 5897   3.333   0.640   3.717  0.0489 -0.0382  0.0643
    11RH     C2 5898   3.364   0.730   3.603  0.0303 -0.0060  0.0845
    11RH     N1 5899   3.302   0.713   3.833 -0.0919 -0.0705  0.0471
    11RH     S1 5900   3.350   0.905   3.656 -0.1712 -0.0205  0.0797
    11RH     C3 5901   3.304   0.851   3.827 -0.2210 -0.0682  0.0513
    11RH     C4 5902   3.246   0.645   3.954  0.0925 -0.9970  0.6326
    11RH     S2 5903   3.271   0.961   3.950 -0.4013 -0.1024  0.0338
    11RH     O1 5904   3.334   0.516   3.713  0.1711 -0.0376  0.0621
    11RH     C5 5905   3.397   0.686   3.481  0.1459  0.0279  0.1031
    21BTZ    C6 5906   3.450   0.756   3.358  0.3139 -0.2754  0.1649
    21BTZ    C7 5907   3.470   0.890   3.345  0.3703 -0.2815  0.1901
    21BTZ    C8 5908   3.485   0.669   3.249  0.0995 -0.2500  0.0748
    21BTZ    C9 5909   3.526   0.947   3.225  0.2199 -0.2631  0.1285
    21BTZ   C10 5910   3.561   0.868   3.118  0.0134 -0.2387  0.0418
    21BTZ   C11 5911   3.542   0.727   3.127 -0.0533 -0.2313  0.0122
    21BTZ    N2 5912   3.469   0.537   3.251  0.0256 -0.2418  0.0423
    21BTZ    N3 5913   3.572   0.640   3.030 -0.2500 -0.2081 -0.0706
    21BTZ    S3 5914   3.528   0.478   3.092 -0.2480 -0.2091 -0.0720
    31IDT   C12 5915   3.617   0.934   2.999 -0.5404  0.1022 -0.2634
    31IDT   C13 5916   3.653   1.066   2.993 -0.9869  0.2218 -0.3874
    31IDT   C14 5917   3.703   1.104   2.864 -0.6599  0.1460 -0.2848
    31IDT   C15 5918   3.705   1.001   2.772  0.0365 -0.0314 -0.0823
    31IDT    S4 5919   3.644   0.847   2.842  0.3348 -0.1171 -0.0052
    4IDB    C16 5920   3.751   1.047   2.644  0.0309 -0.1520  0.3601
    4IDB    C17 5921   3.776   1.187   2.653 -0.1751 -0.1021  0.1649
    51IDQ   C18 5922   3.749   1.238   2.795 -0.6119 -0.5358 -0.3056
    4IDB    C19 5923   3.817   1.259   2.541 -0.1029 -0.2326  0.1067
    51IDQ   C20 5924   3.651   1.364   2.798  0.4200  1.2558  0.0345
    51IDQ   C21 5925   3.875   1.294   2.880 -0.7317 -0.4061 -0.5585
    51IDQ   C22 5926   4.021   1.280   2.835 -0.0017 -0.4410 -0.2797
    51IDQ   C23 5927   3.500   1.344   2.819 -0.1056  0.4451 -0.2015
    51IDQ   C24 5928   4.127   1.375   2.893 -0.3243  0.5871  0.1228
    51IDQ   C25 5929   4.170   1.365   3.041  1.1208  0.1309  0.1214
    51IDQ   C26 5930   4.275   1.463   3.085  0.2270  0.2740 -1.0764
    51IDQ   C27 5931   4.301   1.443   3.243  0.5810 -0.0723  0.6884
    51IDQ   C28 5932   4.359   1.305   3.282 -0.1156 -0.2555  0.0100
    51IDQ   C29 5933   4.384   1.304   3.435  0.2360  0.0447 -0.8648
    51IDQ   C30 5934   3.432   1.246   2.728 -0.1449  0.0487 -0.4450
    51IDQ   C31 5935   3.280   1.233   2.745  0.4371  0.0967 -0.4175
    51IDQ   C32 5936   3.209   1.176   2.622 -0.4125 -0.2637 -0.0302
    51IDQ   C33 5937   3.064   1.142   2.655 -0.5686  0.0801  0.1654
    51IDQ   C34 5938   2.972   1.097   2.545  0.2010 -0.4183 -0.3321
    51IDQ   C35 5939   2.821   1.105   2.572  0.3300 -0.0695  0.0295
    4IDB    C36 5940   3.767   0.977   2.523  0.3121 -0.3341  0.4990
    4IDB    C37 5941   3.809   1.052   2.410  0.3819 -0.4656  0.4369
    11RH    C38 5942   3.347   0.598   4.060 -0.3303  0.0025  0.3724
    4IDB    C39 5943   3.833   1.189   2.420  0.1782 -0.4146  0.2457
    62IDT   C40 5944   3.876   1.237   2.291 -0.1527  0.0039 -0.0573
    72IDQ   C41 5945   3.833   1.004   2.267  0.3087 -0.6568  1.1104
    62IDT   C42 5946   3.878   1.134   2.199  0.3478 -0.1102  0.0723
    72IDQ   C43 5947   3.702   0.944   2.198  0.3231 -0.3445  0.1334
    72IDQ   C44 5948   3.930   0.882   2.271  0.5336  0.6272 -0.2787
    62IDT    S5 5949   3.923   1.394   2.218 -0.3184  0.0243 -0.1209
    62IDT   C45 5950   3.944   1.309   2.059  0.3291 -0.1301  0.0389
    62IDT   C46 5951   3.916   1.175   2.067  0.6208 -0.1861  0.1268
    82BTZ   C47 5952   3.983   1.380   1.934  0.0478 -0.1992 -0.2156
    82BTZ   C48 5953   4.034   1.305   1.832 -0.0705 -0.1970 -0.2772
    82BTZ   C49 5954   4.072   1.364   1.706 -0.1578 -0.1844 -0.2978
    82BTZ   C50 5955   4.059   1.498   1.682 -0.1269 -0.1741 -0.2568
    82BTZ   C51 5956   3.967   1.521   1.914  0.0847 -0.1888 -0.1708
    82BTZ   C52 5957   4.005   1.581   1.786 -0.0041 -0.1760 -0.1918
    92RH    C53 5958   4.098   1.560   1.551 -0.1929 -0.1169  0.0115
    82BTZ    N4 5959   3.918   1.604   2.006  0.1971 -0.1898 -0.1096
    82BTZ    N5 5960   3.987   1.713   1.776  0.0370 -0.1667 -0.1474
    82BTZ    S6 5961   3.919   1.767   1.932  0.1943 -0.1741 -0.0754
    92RH    C54 5962   4.143   1.513   1.434 -0.0569 -0.0253  0.0271
    92RH     S7 5963   4.193   1.340   1.398  0.0584  0.0196 -0.0296
    92RH    C55 5964   4.161   1.597   1.313  0.0232  0.0564  0.0950
    92RH     O2 5965   4.136   1.718   1.305 -0.0247  0.0500  0.1446
    92RH     N6 5966   4.210   1.521   1.205  0.1644  0.1449  0.0971
    92RH    C56 5967   4.235   1.387   1.224  0.2069  0.1441  0.0392
    92RH    C57 5968   4.224   1.583   1.070 -0.1717 -0.1143  0.0459
    92RH    C58 5969   4.098   1.594   0.982 -0.4273  0.1813  0.4958
    92RH     S8 5970   4.293   1.275   1.112  0.3679  0.2389  0.0283
    72IDQ   C59 5971   4.081   0.906   2.304  0.4283 -0.0605 -0.2991
    72IDQ   C60 5972   4.170   0.774   2.315  0.0828  0.1287 -0.2109
    72IDQ   C61 5973   4.317   0.788   2.356 -0.0445 -0.1187 -0.0293
    72IDQ   C62 5974   4.392   0.904   2.295  1.1105  0.3886 -0.1021
    72IDQ   C63 5975   4.408   0.884   2.148  0.2609 -0.0167  0.0936
    72IDQ   C64 5976   4.519   0.979   2.102  0.0870 -0.7688  0.4647
    72IDQ   C65 5977   4.594   0.926   1.988 -0.2465 -0.0462  0.6344
    72IDQ   C66 5978   3.694   0.937   2.042 -0.0383  0.2095 -0.2780
    72IDQ   C67 5979   3.555   0.897   1.989 -0.3038  0.3570 -0.3078
    72IDQ   C68 5980   3.541   0.919   1.839  0.1543  0.0980  0.1192
    72IDQ   C69 5981   3.397   0.888   1.792  0.0240  0.0755  0.1222
    72IDQ   C70 5982   3.365   0.901   1.641  0.5323  0.6837 -0.5781
    72IDQ   C71 5983   3.451   0.966   1.537  0.2719  0.0040  0.1850
    72IDQ   C72 5984   3.375   0.954   1.407 -0.0857 -0.8643  0.1274
    11RH     C1 5985   3.157   1.550   5.381  0.1062 -0.1233 -0.2917
    11RH     C2 5986   3.175   1.461   5.264 -0.0150 -0.1609 -0.2824
    11RH     N1 5987   3.121   1.477   5.497  0.0003 -0.0623 -0.2855
    11RH     S1 5988   3.144   1.287   5.313 -0.2605 -0.1136 -0.2663
    11RH     C3 5989   3.109   1.340   5.486 -0.1909 -0.0466 -0.2725
    11RH     C4 5990   3.094   1.543   5.624 -0.5645 -0.6510 -0.5152
    11RH     S2 5991   3.067   1.230   5.607 -0.3480  0.0224 -0.2627
    11RH     O1 5992   3.170   1.673   5.381  0.2791 -0.1418 -0.3035
    11RH     C5 5993   3.209   1.505   5.143  0.0504 -0.2202 -0.2858
    21BTZ    C6 5994   3.251   1.441   5.023 -0.2701  0.1838 -0.0210
    21BTZ    C7 5995   3.253   1.306   5.000 -0.2699  0.1780  0.0130
    21BTZ    C8 5996   3.290   1.529   4.917 -0.0415  0.1474  0.0318
    21BTZ    C9 5997   3.293   1.251   4.873 -0.0467  0.1366  0.0999
    21BTZ   C10 5998   3.331   1.331   4.768  0.1760  0.1010  0.1527
    21BTZ   C11 5999   3.331   1.473   4.787  0.1854  0.1053  0.1200
    21BTZ    N2 6000   3.293   1.662   4.927 -0.0182  0.1489  0.0058
    21BTZ    N3 6001   3.366   1.561   4.693  0.3911  0.0730  0.1651
    21BTZ    S3 6002   3.348   1.723   4.768  0.3015  0.0955  0.0953
    31IDT   C12 6003   3.380   1.265   4.638 -0.3031  0.3120 -0.5700
    31IDT   C13 6004   3.406   1.131   4.628 -1.0605  0.1591 -0.5835
    31IDT   C14 6005   3.451   1.093   4.497 -1.0472 -0.0437 -0.5213
    31IDT   C15 6006   3.460   1.198   4.408 -0.2817 -0.0468 -0.4600
    31IDT    S4 6007   3.412   1.354   4.483  0.4889  0.2093 -0.4767
    4IDB    C16 6008   3.518   1.151   4.286  0.4351  0.3917 -0.0677
    4IDB    C17 6009   3.551   1.013   4.298  0.3225  0.3663 -0.0536
    51IDQ   C18 6010   3.515   0.968   4.438  0.2899  0.7885  0.4421
    4IDB    C19 6011   3.605   0.942   4.192  0.1788  0.2880 -0.0759
    51IDQ   C20 6012   3.415   0.847   4.425  0.3665  0.1975  0.3178
    51IDQ   C21 6013   3.634   0.908   4.525 -0.2111 -0.5200  0.1178
    51IDQ   C22 6014   3.787   0.937   4.485  0.4769 -0.1573 -0.0880
    51IDQ   C23 6015   3.262   0.871   4.457 -0.0267  0.0602  0.0395
    51IDQ   C24 6016   3.894   0.893   4.582 -0.0585  0.2126  0.2364
    51IDQ   C25 6017   3.878   0.882   4.734  0.5267 -0.1726 -0.1562
    51IDQ   C26 6018   3.854   1.017   4.800 -0.0409 -0.1084  0.3384
    51IDQ   C27 6019   3.837   0.998   4.952 -0.0860 -0.7500  0.2980
    51IDQ   C28 6020   3.735   0.902   5.011  0.4016 -0.1921  0.1350
    51IDQ   C29 6021   3.589   0.933   4.971  0.2080  0.2285 -0.1997
    51IDQ   C30 6022   3.183   0.910   4.334  0.0434  0.1142 -0.1417
    51IDQ   C31 6023   3.042   0.927   4.369  1.3026  0.9233  0.4498
    51IDQ   C32 6024   2.961   0.995   4.256  0.1137  0.2920 -0.0022
    51IDQ   C33 6025   2.811   0.987   4.289 -0.3791  0.4546  0.4526
    51IDQ   C34 6026   2.731   1.058   4.180 -0.0235  0.2575  0.4866
    51IDQ   C35 6027   2.578   1.051   4.205  0.0380 -0.0119 -1.3962
    4IDB    C36 6028   3.540   1.220   4.165  0.4041  0.3386 -0.1042
    4IDB    C37 6029   3.596   1.147   4.057  0.2566  0.2587 -0.1265
    11RH    C38 6030   3.225   1.582   5.704 -0.0562  0.0109 -0.2190
    4IDB    C39 6031   3.627   1.011   4.071  0.1479  0.2347 -0.1123
    62IDT   C40 6032   3.679   0.960   3.950  0.1078  0.5832 -0.3633
    72IDQ   C41 6033   3.647   1.199   3.921  0.3912 -0.1232  0.0204
    62IDT   C42 6034   3.689   1.063   3.859  0.5237  0.1775 -0.7827
    72IDQ   C43 6035   3.519   1.260   3.849  0.2997  0.0664  0.0401
    72IDQ   C44 6036   3.743   1.322   3.946  0.2143  1.0340  0.4853
    62IDT    S5 6037   3.734   0.803   3.882 -0.5661  0.0629  0.2487
    62IDT   C45 6038   3.771   0.889   3.726 -0.2337 -0.7136 -0.1125
    62IDT   C46 6039   3.742   1.023   3.732  0.3312 -0.5561 -0.6415
    82BTZ   C47 6040   3.807   0.819   3.601  0.1112  0.0227 -0.1861
    82BTZ   C48 6041   3.870   0.890   3.503  0.2427 -0.1271 -0.2100
    82BTZ   C49 6042   3.903   0.831   3.376  0.3195 -0.2909 -0.1158
    82BTZ   C50 6043   3.871   0.701   3.346  0.2648 -0.3045  0.0023
    82BTZ   C51 6044   3.771   0.682   3.575  0.0492  0.0151 -0.0639
    82BTZ   C52 6045   3.804   0.623   3.445  0.1274 -0.1513  0.0319
    92RH    C53 6046   3.887   0.634   3.216 -0.0604  0.2310 -0.1538
    82BTZ    N4 6047   3.709   0.603   3.663 -0.0780  0.1521 -0.0294
    82BTZ    N5 6048   3.768   0.495   3.429  0.0629 -0.1481  0.1435
    82BTZ    S6 6049   3.689   0.445   3.581 -0.1038  0.0724  0.1305
    92RH    C54 6050   3.931   0.670   3.095 -0.0154  0.1696 -0.1562
    92RH     S7 6051   3.985   0.838   3.044  0.1757  0.1033 -0.1713
    92RH    C55 6052   3.942   0.577   2.981 -0.1178  0.1455 -0.1466
    92RH     O2 6053   3.913   0.456   2.983 -0.2544  0.1784 -0.1355
    92RH     N6 6054   3.991   0.642   2.865 -0.0405  0.0789 -0.1517
    92RH    C56 6055   4.020   0.777   2.874  0.1113  0.0468 -0.1642
    92RH    C57 6056   3.989   0.564   2.740  0.3610 -0.0817  0.0069
    92RH    C58 6057   3.870   0.602   2.654 -0.0947  0.2524 -0.2110
    92RH     S8 6058   4.079   0.877   2.752  0.2286 -0.0319 -0.1724
    72IDQ   C59 6059   3.883   1.277   3.975 -0.5607 -0.5160 -0.2658
    72IDQ   C60 6060   3.981   1.389   3.963 -0.4834 -0.2901  0.0308
    72IDQ   C61 6061   4.133   1.348   3.977  0.7494 -0.4780  0.2908
    72IDQ   C62 6062   4.194   1.258   3.866  0.0863  0.3686 -0.0472
    72IDQ   C63 6063   4.341   1.237   3.899  0.0643  0.1851  0.0854
    72IDQ   C64 6064   4.410   1.152   3.791 -0.0392 -0.4415 -0.1532
    72IDQ   C65 6065   4.567   1.169   3.803 -0.6226  0.4798 -0.5046
    72IDQ   C66 6066   3.524   1.288   3.696 -0.0010  0.5362 -0.9047
    72IDQ   C67 6067   3.384   1.273   3.627  0.0427 -0.0606  0.1789
    72IDQ   C68 6068   3.391   1.304   3.477  0.3028 -0.6349 -0.0801
    72IDQ   C69 6069   3.270   1.265   3.402  0.3104  0.7369  0.3919
    72IDQ   C70 6070   3.274   1.288   3.250 -0.3112  0.1138  0.9014
    72IDQ   C71 6071   3.132   1.277   3.189 -0.0984 -0.0946  0.4750
    72IDQ   C72 6072   3.127   1.325   3.041  0.1758  0.7804 -0.5005
    11RH     C1 6073   3.286   0.760   2.800  0.2035  0.0942 -0.0396
    11RH     C2 6074   3.247   0.674   2.914  0.1204  0.0584 -0.0945
    11RH     N1 6075   3.324   0.682   2.688  0.3468  0.1290 -0.0154
    11RH     S1 6076   3.263   0.497   2.868  0.2361  0.0728 -0.1105
    11RH     C3 6077   3.321   0.545   2.699  0.3887  0.1255 -0.0440
    11RH     C4 6078   3.386   0.754   2.570  0.3089 -0.3716 -0.2154
    11RH     S2 6079   3.361   0.430   2.582  0.5520  0.1620 -0.0245
    11RH     O1 6080   3.287   0.884   2.799  0.1559  0.0944 -0.0169
    11RH     C5 6081   3.207   0.723   3.032 -0.0180  0.0216 -0.1261
    21BTZ    C6 6082   3.155   0.663   3.154 -0.1179 -0.0671 -0.0020
    21BTZ    C7 6083   3.133   0.531   3.181 -0.2227 -0.0528 -0.0166
    21BTZ    C8 6084   3.119   0.760   3.254 -0.0606 -0.0486  0.0005
    21BTZ    C9 6085   3.075   0.487   3.305 -0.2760 -0.0199 -0.0296
    21BTZ   C10 6086   3.040   0.576   3.403 -0.2244 -0.0014 -0.0278
    21BTZ   C11 6087   3.061   0.716   3.380 -0.1147 -0.0152 -0.0126
    21BTZ    N2 6088   3.136   0.892   3.239  0.0415 -0.0599  0.0142
    21BTZ    N3 6089   3.031   0.812   3.468 -0.0561  0.0004 -0.0094
    21BTZ    S3 6090   3.076   0.967   3.391  0.0735 -0.0275  0.0110
    31IDT   C12 6091   2.993   0.522   3.529  0.3240  0.4537  0.1751
    31IDT   C13 6092   2.958   0.390   3.545  0.5664  0.3648 -0.0107
    31IDT   C14 6093   2.921   0.359   3.680  0.4965  0.1362 -0.0827
    31IDT   C15 6094   2.927   0.466   3.766  0.2010  0.0496  0.0475
    31IDT    S4 6095   2.981   0.616   3.684 -0.0136  0.2526  0.2734
    4IDB    C16 6096   2.884   0.420   3.894  0.3295 -0.0968  0.0068
    4IDB    C17 6097   2.846   0.282   3.886 -0.0360  0.0083 -0.1147
    51IDQ   C18 6098   2.880   0.227   3.751  0.4238 -0.3097 -0.1197
    4IDB    C19 6099   2.799   0.214   3.998 -0.0373 -0.0153 -0.1296
    51IDQ   C20 6100   2.987   0.114   3.788 -0.0575 -0.3418  0.1054
    51IDQ   C21 6101   2.761   0.151   3.679 -0.1714  0.1921  0.9719
    51IDQ   C22 6102   2.615   0.153   3.725  0.0827 -0.3676 -0.4524
    51IDQ   C23 6103   3.137   0.136   3.755  0.7239  0.2224 -0.4163
    51IDQ   C24 6104   2.549   0.046   3.649  0.2917  0.2477  0.1177
    51IDQ   C25 6105   2.400   0.036   3.678  0.0128 -0.5095 -0.2219
    51IDQ   C26 6106   2.329  -0.048   3.572 -0.2885 -0.9547 -0.7638
    51IDQ   C27 6107   2.364  -0.191   3.525 -0.7965 -0.3470 -0.3341
    51IDQ   C28 6108   2.279  -0.240   3.408  0.4174 -0.2842 -0.1535
    51IDQ   C29 6109   2.294  -0.168   3.267  0.0692 -0.0289 -0.7765
    51IDQ   C30 6110   3.224   0.205   3.863  0.1576  0.2126  0.3834
    51IDQ   C31 6111   3.371   0.208   3.816  0.3143 -0.1566  0.0908
    51IDQ   C32 6112   3.464   0.242   3.929  0.6316 -0.2681  0.0187
    51IDQ   C33 6113   3.604   0.275   3.877  0.4441 -0.6309 -0.0641
    51IDQ   C34 6114   3.698   0.274   3.989 -0.1991 -0.4165 -0.0685
    51IDQ   C35 6115   3.848   0.260   3.944 -0.4225 -0.6793  0.1812
    4IDB    C36 6116   2.874   0.490   4.015  0.6979 -0.2270  0.1147
    4IDB    C37 6117   2.826   0.419   4.128  0.6906 -0.2493  0.0976
    11RH    C38 6118   3.289   0.807   2.463 -0.4663  0.7821 -0.1376
    4IDB    C39 6119   2.789   0.285   4.119  0.3310 -0.1455 -0.0217
    62IDT   C40 6120   2.744   0.236   4.246  0.0598  0.2569 -0.1178
    72IDQ   C41 6121   2.790   0.470   4.271  0.5437 -0.4160  0.1355
    62IDT   C42 6122   2.749   0.336   4.341 -0.3043  0.2254 -0.0616
    72IDQ   C43 6123   2.904   0.541   4.341 -0.9728 -0.2585 -0.4579
    72IDQ   C44 6124   2.678   0.587   4.253 -0.3637  0.0071 -0.6186
    62IDT    S5 6125   2.685   0.081   4.315  0.3009  0.0928 -0.2791
    62IDT   C45 6126   2.670   0.163   4.476 -0.1239 -0.0151 -0.2614
    62IDT   C46 6127   2.707   0.295   4.471 -0.4086  0.0716 -0.1428
    82BTZ   C47 6128   2.632   0.098   4.596  0.6109  0.1537  0.3803
    82BTZ   C48 6129   2.571   0.169   4.695  0.5382  0.1875  0.3115
    82BTZ   C49 6130   2.542   0.110   4.824  0.1045  0.1163  0.1851
    82BTZ   C50 6131   2.575  -0.020   4.853 -0.2559  0.0113  0.1276
    82BTZ   C51 6132   2.668  -0.039   4.621  0.2441  0.0445  0.3241
    82BTZ   C52 6133   2.639  -0.099   4.751 -0.1968 -0.0279  0.1956
    92RH    C53 6134   2.551  -0.084   4.983  0.0585  0.0781  0.2125
    82BTZ    N4 6135   2.728  -0.118   4.532  0.2733  0.0020  0.3816
    82BTZ    N5 6136   2.675  -0.226   4.767 -0.5218 -0.1286  0.1497
    82BTZ    S6 6137   2.750  -0.276   4.613 -0.2730 -0.1351  0.2714
    92RH    C54 6138   2.495  -0.032   5.093 -0.1107  0.0056  0.1628
    92RH     S7 6139   2.446   0.143   5.119 -0.1844 -0.0191  0.1893
    92RH    C55 6140   2.465  -0.111   5.214 -0.2693 -0.0681  0.0761
    92RH     O2 6141   2.487  -0.233   5.229 -0.2647 -0.0714  0.0396
    92RH     N6 6142   2.408  -0.031   5.315 -0.4310 -0.1358  0.0384
    92RH    C56 6143   2.388   0.103   5.289 -0.4212 -0.1254  0.0845
    92RH    C57 6144   2.368  -0.097   5.444 -0.8500 -0.3684  0.1350
    92RH    C58 6145   2.492  -0.116   5.532 -0.5689 -0.4449  0.1591
    92RH     S8 6146   2.322   0.219   5.391 -0.5924 -0.1959  0.0545
    72IDQ   C59 6147   2.534   0.548   4.225 -0.7236  0.1050  0.1966
    72IDQ   C60 6148   2.438   0.664   4.202  0.4905 -0.6726  0.4012
    72IDQ   C61 6149   2.295   0.631   4.181 -0.1908  0.0661 -0.0099
    72IDQ   C62 6150   2.238   0.573   4.311  0.2037 -0.4942  0.2998
    72IDQ   C63 6151   2.106   0.495   4.295 -0.3532 -0.1946  0.0395
    72IDQ   C64 6152   2.075   0.430   4.430  0.1731  0.5198  1.3039
    72IDQ   C65 6153   1.954   0.339   4.444  0.0317  0.5339 -0.3381
    72IDQ   C66 6154   2.895   0.563   4.494 -0.3279 -0.4998  0.2423
    72IDQ   C67 6155   3.032   0.554   4.562 -0.4548  0.1604  0.0627
    72IDQ   C68 6156   3.035   0.574   4.710  0.1365 -0.6376  0.1055
    72IDQ   C69 6157   3.166   0.529   4.772 -0.3011 -0.5291  0.5927
    72IDQ   C70 6158   3.162   0.553   4.924  0.7198 -0.1223  0.6676
    72IDQ   C71 6159   3.273   0.494   5.003  0.5284  0.2421 -0.0310
    72IDQ   C72 6160   3.416   0.543   4.987 -0.4428 -0.2236  0.3781
    11RH     C1 6161   3.111   6.007   4.459 -0.1742  0.2341 -0.2544
    11RH     C2 6162   3.070   6.097   4.569 -0.1035  0.1231 -0.1370
    11RH     N1 6163   3.152   6.080   4.345 -0.2432  0.3485 -0.2067
    11RH     S1 6164   3.090   6.272   4.517 -0.1324  0.1765  0.0279
    11RH     C3 6165   3.150   6.217   4.351 -0.2365  0.3427 -0.0658
    11RH     C4 6166   3.205   6.004   4.232 -0.4003  0.1440  0.0499
    11RH     S2 6167   3.195   6.327   4.231 -0.3089  0.4642  0.0172
    11RH     O1 6168   3.109   5.883   4.463 -0.1745  0.2300 -0.3792
    11RH     C5 6169   3.026   6.054   4.688 -0.0307  0.0036 -0.1537
    21BTZ    C6 6170   2.973   6.111   4.809 -0.4532 -0.1091  0.0122
    21BTZ    C7 6171   2.954   6.246   4.819 -0.4126 -0.1004 -0.0257
    21BTZ    C8 6172   2.945   6.028   4.923 -0.3123 -0.0497  0.0895
    21BTZ    C9 6173   2.907   6.307   4.941 -0.2330 -0.0334  0.0100
    21BTZ   C10 6174   2.879   6.233   5.053 -0.0941  0.0247  0.0837
    21BTZ   C11 6175   2.898   6.091   5.047 -0.1297  0.0184  0.1259
    21BTZ    N2 6176   2.959   5.896   4.926 -0.3352 -0.0515  0.1323
    21BTZ    N3 6177   2.874   6.008   5.150 -0.0057  0.0713  0.1981
    21BTZ    S3 6178   2.912   5.843   5.090 -0.1196  0.0356  0.2230
    31IDT   C12 6179   2.819   6.306   5.177 -0.2551 -0.1667 -0.0549
    31IDT   C13 6180   2.782   6.437   5.186 -0.4309 -0.2130 -0.0967
    31IDT   C14 6181   2.733   6.472   5.315 -0.4660 -0.2352 -0.1042
    31IDT   C15 6182   2.731   6.368   5.405 -0.3175 -0.2060 -0.0683
    31IDT    S4 6183   2.794   6.216   5.333 -0.1200 -0.1476 -0.0218
    4IDB    C16 6184   2.679   6.408   5.536 -0.5738 -0.0682 -0.4102
    4IDB    C17 6185   2.646   6.547   5.531  0.2106  0.1342 -0.1881
    51IDQ   C18 6186   2.679   6.599   5.389 -0.1320  0.0770  0.0525
    4IDB    C19 6187   2.590   6.611   5.640  0.3642  0.2217 -0.1604
    51IDQ   C20 6188   2.779   6.717   5.419 -0.2645  0.1488  0.2918
    51IDQ   C21 6189   2.557   6.650   5.302 -0.1901  0.0236  0.2935
    51IDQ   C22 6190   2.412   6.649   5.344  0.7668  0.0593  0.1460
    51IDQ   C23 6191   2.929   6.736   5.378  0.3977  0.7419 -0.0555
    51IDQ   C24 6192   2.309   6.680   5.240  0.5076 -0.1806  0.6865
    51IDQ   C25 6193   2.168   6.697   5.301  0.7002 -0.9339  0.9547
    51IDQ   C26 6194   2.042   6.728   5.221 -0.1764  0.4952  0.4728
    51IDQ   C27 6195   2.048   6.809   5.089  0.2576  0.3000 -0.3729
    51IDQ   C28 6196   2.115   6.947   5.089 -0.8751 -0.1598 -0.9713
    51IDQ   C29 6197   2.130   7.014   4.956 -0.1009  0.2954  0.3611
    51IDQ   C30 6198   3.031   6.634   5.444  0.2823 -0.2152  0.4112
    51IDQ   C31 6199   3.178   6.679   5.456  0.1428  0.1240 -0.1732
    51IDQ   C32 6200   3.263   6.559   5.520  0.3182 -0.3296 -0.1777
    51IDQ   C33 6201   3.411   6.587   5.543  0.0281  0.1162 -0.2761
    51IDQ   C34 6202   3.497   6.475   5.600  0.4384 -0.3177  0.1329
    51IDQ   C35 6203   3.643   6.510   5.609  0.7522 -0.6102  0.4714
    4IDB    C36 6204   2.655   6.332   5.652 -1.2128 -0.1849 -0.6073
    4IDB    C37 6205   2.598   6.400   5.763 -1.0445 -0.0930 -0.5758
    11RH    C38 6206   3.107   5.957   4.120  0.0203 -0.8577  0.5234
    4IDB    C39 6207   2.567   6.535   5.756 -0.2747  0.1049 -0.3577
    62IDT   C40 6208   2.512   6.577   5.884  0.5164  0.2190  0.1577
    72IDQ   C41 6209   2.559   6.341   5.900 -0.0881 -1.6412  0.5139
    62IDT   C42 6210   2.512   6.470   5.972  0.9086  0.3389  0.3092
    72IDQ   C43 6211   2.692   6.279   5.969 -0.0450  0.2001 -0.1633
    72IDQ   C44 6212   2.457   6.228   5.888 -0.4926  0.7744  0.7472
    62IDT    S5 6213   2.446   6.726   5.960 -0.0312  0.0871 -0.0539
    62IDT   C45 6214   2.420   6.631   6.113  0.3160  0.2070  0.0801
    62IDT   C46 6215   2.460   6.501   6.101  0.7958  0.3323  0.2655
    82BTZ   C47 6216   2.380   6.701   6.237 -0.0956 -0.1035  0.1365
    82BTZ   C48 6217   2.323   6.628   6.338 -0.3587 -0.0131  0.0554
    82BTZ   C49 6218   2.295   6.686   6.467 -0.5466  0.0594 -0.0175
    82BTZ   C50 6219   2.323   6.817   6.495 -0.4711  0.0413 -0.0098
    82BTZ   C51 6220   2.411   6.838   6.261 -0.0068 -0.1260  0.1481
    82BTZ   C52 6221   2.383   6.898   6.392 -0.1977 -0.0524  0.0738
    92RH    C53 6222   2.309   6.882   6.618 -0.1626 -0.1551 -0.2978
    82BTZ    N4 6223   2.467   6.920   6.170  0.2443 -0.2115  0.2236
    82BTZ    N5 6224   2.415   7.026   6.407 -0.1003 -0.0786  0.0896
    82BTZ    S6 6225   2.485   7.078   6.251  0.2471 -0.2012  0.2026
    92RH    C54 6226   2.263   6.837   6.736 -0.1150 -0.0361 -0.2331
    92RH     S7 6227   2.189   6.672   6.769 -0.1143  0.0022 -0.0386
    92RH    C55 6228   2.264   6.917   6.860 -0.0537  0.0866 -0.3123
    92RH     O2 6229   2.308   7.033   6.871 -0.0392  0.0940 -0.4453
    92RH     N6 6230   2.209   6.845   6.969 -0.0123  0.1975 -0.2171
    92RH    C56 6231   2.164   6.717   6.946 -0.0331  0.1786 -0.0713
    92RH    C57 6232   2.217   6.905   7.106  0.4534 -0.5164  0.3673
    92RH    C58 6233   2.349   6.895   7.177 -0.0983  0.5401  0.5642
    92RH     S8 6234   2.094   6.611   7.057  0.0067  0.2933  0.0639
    72IDQ   C59 6235   2.307   6.245   5.866 -0.3328  0.7557  0.2120
    72IDQ   C60 6236   2.218   6.115   5.875 -0.4551 -0.6197 -0.6018
    72IDQ   C61 6237   2.069   6.130   5.891 -0.0320 -0.0699  0.2308
    72IDQ   C62 6238   2.009   6.225   6.001 -0.2736  0.3639  0.2307
    72IDQ   C63 6239   1.857   6.248   5.978  0.0773  0.0205  0.8008
    72IDQ   C64 6240   1.793   6.327   6.092  0.3459 -0.6174 -0.1055
    72IDQ   C65 6241   1.644   6.333   6.052 -0.5644  0.2279  0.3550
    72IDQ   C66 6242   2.687   6.252   6.121  0.4154 -0.3147 -0.0712
    72IDQ   C67 6243   2.820   6.220   6.188 -0.0645  0.1549  0.5225
    72IDQ   C68 6244   2.828   6.254   6.337 -0.4150  0.6152 -0.2439
    72IDQ   C69 6245   2.979   6.249   6.389  0.0242 -0.2224 -0.3137
    72IDQ   C70 6246   2.982   6.231   6.539  0.3056 -0.1531  0.4038
    72IDQ   C71 6247   3.111   6.268   6.598  0.3194  1.0430  0.5104
    72IDQ   C72 6248   3.131   6.215   6.737  0.5089  0.8868 -0.2543
    11RH     C1 6249   3.750   0.655   0.478  0.1307 -0.0646  0.1951
    11RH     C2 6250   3.787   0.742   0.364  0.0765 -0.1130  0.1410
    11RH     N1 6251   3.716   0.731   0.592  0.0375 -0.0147  0.1338
    11RH     S1 6252   3.773   0.919   0.413 -0.0933 -0.0898  0.0130
    11RH     C3 6253   3.720   0.869   0.583 -0.0848 -0.0172  0.0372
    11RH     C4 6254   3.660   0.658   0.711  0.1391 -0.2580  0.0903
    11RH     S2 6255   3.684   0.981   0.703 -0.2125  0.0357 -0.0505
    11RH     O1 6256   3.750   0.531   0.477  0.2431 -0.0664  0.2830
    11RH     C5 6257   3.823   0.696   0.244  0.1448 -0.1651  0.1821
    21BTZ    C6 6258   3.872   0.767   0.126 -0.0509  0.3126 -0.3680
    21BTZ    C7 6259   3.885   0.903   0.110  0.1612  0.2910 -0.3785
    21BTZ    C8 6260   3.909   0.681   0.018 -0.1037  0.2411 -0.3296
    21BTZ    C9 6261   3.936   0.960  -0.013  0.3311  0.1986 -0.3520
    21BTZ   C10 6262   3.973   0.882  -0.119  0.2885  0.1280 -0.3150
    21BTZ   C11 6263   3.961   0.739  -0.107  0.0689  0.1472 -0.3026
    21BTZ    N2 6264   3.901   0.548   0.021 -0.3040  0.2535 -0.3160
    21BTZ    N3 6265   3.994   0.653  -0.203  0.0073  0.0843 -0.2674
    21BTZ    S3 6266   3.960   0.490  -0.138 -0.2800  0.1436 -0.2671
    31IDT   C12 6267   4.021   0.938  -0.254 -0.1111 -0.1970  0.5639
    31IDT   C13 6268   4.061   1.069  -0.265 -0.0966 -0.1699  0.9038
    31IDT   C14 6269   4.122   1.097  -0.391 -0.1445  0.1660  0.9551
    31IDT   C15 6270   4.128   0.989  -0.477 -0.1959  0.3966  0.6554
    31IDT    S4 6271   4.058   0.841  -0.403 -0.1874  0.2045  0.2818
    4IDB    C16 6272   4.173   1.030  -0.614  0.5177 -0.6394 -0.1187
    4IDB    C17 6273   4.229   1.160  -0.597 -0.0793 -0.3800 -0.1237
    51IDQ   C18 6274   4.196   1.219  -0.454  0.5279  0.3886  0.4060
    4IDB    C19 6275   4.295   1.224  -0.702 -0.0924 -0.2113 -0.0309
    51IDQ   C20 6276   4.123   1.359  -0.488 -0.4523  0.8361 -0.1223
    51IDQ   C21 6277   4.317   1.259  -0.363 -0.1745  0.3613  0.0058
    51IDQ   C22 6278   4.464   1.230  -0.401 -0.4213  0.0700  0.8347
    51IDQ   C23 6279   3.974   1.372  -0.463 -0.2437 -0.1330 -0.5655
    51IDQ   C24 6280   4.568   1.298  -0.315 -0.1620  0.3146 -0.4129
    51IDQ   C25 6281   4.569   1.262  -0.167 -0.3329  0.5237 -1.2826
    51IDQ   C26 6282   4.672   1.334  -0.070  0.6767 -0.2171  0.2520
    51IDQ   C27 6283   4.660   1.492  -0.055  0.2584  1.0819 -0.1335
    51IDQ   C28 6284   4.789   1.571  -0.030 -0.2456  0.9787 -0.2610
    51IDQ   C29 6285   4.765   1.715  -0.011  0.2408 -0.1751 -0.6951
    51IDQ   C30 6286   3.886   1.310  -0.564 -0.0269  0.6207 -0.9679
    51IDQ   C31 6287   3.738   1.335  -0.539 -0.0461  0.2461  0.0679
    51IDQ   C32 6288   3.657   1.263  -0.642 -0.0746 -0.1074 -0.4031
    51IDQ   C33 6289   3.510   1.269  -0.614 -0.3380 -0.5049  0.1001
    51IDQ   C34 6290   3.440   1.153  -0.682 -0.0048 -0.1219  0.1931
    51IDQ   C35 6291   3.293   1.144  -0.653  0.1310 -0.3340 -0.3362
    4IDB    C36 6292   4.184   0.961  -0.736  1.1087 -0.7320 -0.0204
    4IDB    C37 6293   4.252   1.027  -0.841  1.0860 -0.5570  0.0736
    11RH    C38 6294   3.768   0.609   0.811 -0.0741 -0.8151  0.5099
    4IDB    C39 6295   4.306   1.155  -0.824  0.4987 -0.3040  0.0675
    62IDT   C40 6296   4.351   1.211  -0.946 -0.5856 -0.3084 -0.7466
    72IDQ   C41 6297   4.279   0.988  -0.988  0.2509 -0.3139 -0.2232
    62IDT   C42 6298   4.334   1.119  -1.048 -0.6174  0.0675 -1.0879
    72IDQ   C43 6299   4.142   0.954  -1.059 -0.6304 -0.1128 -0.5624
    72IDQ   C44 6300   4.357   0.850  -0.981  0.2149 -0.4621 -0.0886
    62IDT    S5 6301   4.422   1.365  -1.006 -0.0093 -0.3045 -0.0868
    62IDT   C45 6302   4.424   1.294  -1.174  0.1668  0.2312 -0.3182
    62IDT   C46 6303   4.375   1.166  -1.176 -0.1922  0.3731 -0.8461
    82BTZ   C47 6304   4.453   1.371  -1.293 -0.4752 -0.0851 -0.2935
    82BTZ   C48 6305   4.506   1.305  -1.401 -0.5661 -0.0632 -0.3523
    82BTZ   C49 6306   4.538   1.374  -1.524 -0.4131  0.0148 -0.2692
    82BTZ   C50 6307   4.516   1.508  -1.538 -0.1692  0.0706 -0.1276
    82BTZ   C51 6308   4.428   1.511  -1.304 -0.2211 -0.0287 -0.1457
    82BTZ   C52 6309   4.461   1.582  -1.428 -0.0655  0.0505 -0.0613
    92RH    C53 6310   4.537   1.572  -1.664 -0.1965  0.0299 -0.1631
    82BTZ    N4 6311   4.377   1.586  -1.206 -0.1115 -0.0432 -0.0768
    82BTZ    N5 6312   4.435   1.713  -1.430  0.1692  0.0997  0.0756
    82BTZ    S6 6313   4.367   1.753  -1.270  0.2019  0.0458  0.1030
    92RH    C54 6314   4.582   1.532  -1.784 -0.1693  0.0076 -0.1457
    92RH     S7 6315   4.626   1.361  -1.833 -0.2228 -0.0123 -0.1242
    92RH    C55 6316   4.603   1.624  -1.898 -0.0891 -0.0046 -0.1408
    92RH     O2 6317   4.582   1.747  -1.897 -0.0383  0.0040 -0.1522
    92RH     N6 6318   4.650   1.555  -2.012 -0.0763 -0.0279 -0.1212
    92RH    C56 6319   4.670   1.419  -2.003 -0.1365 -0.0358 -0.1099
    92RH    C57 6320   4.641   1.621  -2.148 -0.4599 -0.0224  0.3702
    92RH    C58 6321   4.514   1.611  -2.226 -0.1420  0.2565 -0.2159
    92RH     S8 6322   4.725   1.314  -2.122 -0.1365 -0.0626 -0.0862
    72IDQ   C59 6323   4.507   0.862  -0.948 -0.0544  0.3692  0.3179
    72IDQ   C60 6324   4.606   0.884  -1.064  0.1988  0.3034 -0.2803
    72IDQ   C61 6325   4.749   0.903  -1.013 -0.2828 -0.1984  0.7282
    72IDQ   C62 6326   4.841   0.947  -1.128 -0.1923 -0.0683 -0.4626
    72IDQ   C63 6327   4.989   0.925  -1.088 -0.4681 -0.6782  0.3945
    72IDQ   C64 6328   5.090   0.968  -1.204 -0.4154 -0.4387  0.1251
    72IDQ   C65 6329   5.241   0.977  -1.156  0.1205  0.2926  0.8377
    72IDQ   C66 6330   4.153   0.926  -1.208 -0.7088 -0.4991  0.0897
    72IDQ   C67 6331   4.017   0.926  -1.273  0.5086  0.7214 -0.2503
    72IDQ   C68 6332   4.020   0.941  -1.422  0.2473 -0.5305  0.5731
    72IDQ   C69 6333   3.899   0.883  -1.500  0.3266  0.3185 -0.0218
    72IDQ   C70 6334   3.875   0.935  -1.641 -0.7127  0.2895 -0.5113
    72IDQ   C71 6335   3.762   0.862  -1.706 -0.2940  0.7550 -0.3445
    72IDQ   C72 6336   3.721   0.926  -1.835  0.8714 -0.3979 -0.2081
    11RH     C1 6337   3.566   3.060   2.139  0.1163 -0.0073  0.2039
    11RH     C2 6338   3.600   2.973   2.024  0.1670  0.0054  0.2089
    11RH     N1 6339   3.530   2.985   2.252  0.0168 -0.0190  0.1645
    11RH     S1 6340   3.581   2.797   2.073  0.0805  0.0014  0.1614
    11RH     C3 6341   3.530   2.847   2.242 -0.0184 -0.0170  0.1372
    11RH     C4 6342   3.460   3.054   2.368 -0.3528 -0.4884  0.3524
    11RH     S2 6343   3.491   2.735   2.362 -0.1331 -0.0291  0.0886
    11RH     O1 6344   3.569   3.184   2.138  0.1545 -0.0080  0.2306
    11RH     C5 6345   3.637   3.019   1.904  0.2616  0.0179  0.2435
    21BTZ    C6 6346   3.671   2.952   1.778 -0.5646  0.0142  0.0951
    21BTZ    C7 6347   3.673   2.817   1.757 -0.3349 -0.0080  0.2595
    21BTZ    C8 6348   3.707   3.039   1.670 -0.4126 -0.0647  0.0827
    21BTZ    C9 6349   3.712   2.761   1.630  0.0530 -0.1081  0.4190
    21BTZ   C10 6350   3.748   2.840   1.524  0.2106 -0.1858  0.4138
    21BTZ   C11 6351   3.747   2.982   1.541 -0.0182 -0.1665  0.2448
    21BTZ    N2 6352   3.709   3.173   1.678 -0.6081 -0.0525 -0.0697
    21BTZ    N3 6353   3.780   3.070   1.445  0.1032 -0.2360  0.2227
    21BTZ    S3 6354   3.761   3.232   1.518 -0.2897 -0.1732 -0.0113
    31IDT   C12 6355   3.781   2.771   1.397  0.0027 -0.0053 -0.0272
    31IDT   C13 6356   3.816   2.639   1.383  0.0545  0.0010  0.0385
    31IDT   C14 6357   3.869   2.610   1.254 -0.0396 -0.0656  0.0144
    31IDT   C15 6358   3.876   2.719   1.169 -0.1636 -0.1230 -0.0697
    31IDT    S4 6359   3.814   2.868   1.247 -0.1708 -0.0969 -0.1253
    4IDB    C16 6360   3.927   2.684   1.044  0.2338  0.2387  0.0636
    4IDB    C17 6361   3.956   2.545   1.044  0.2584  0.2421  0.3899
    51IDQ   C18 6362   3.931   2.487   1.183  0.1249 -0.1535 -0.1123
    4IDB    C19 6363   4.004   2.482   0.929  0.0128 -0.0685  0.4542
    51IDQ   C20 6364   3.827   2.370   1.164  0.0689 -0.3515  0.2020
    51IDQ   C21 6365   4.053   2.431   1.265  0.2638 -0.2247 -0.5024
    51IDQ   C22 6366   4.195   2.440   1.214 -0.0046 -0.3293  0.1483
    51IDQ   C23 6367   3.673   2.366   1.181  0.3086 -0.2853  0.0302
    51IDQ   C24 6368   4.303   2.374   1.296 -0.7338 -0.2029  0.5309
    51IDQ   C25 6369   4.317   2.389   1.452 -0.3848  0.4818 -0.4434
    51IDQ   C26 6370   4.345   2.528   1.508 -0.2734  1.2248 -0.2453
    51IDQ   C27 6371   4.362   2.541   1.659  0.3252 -0.1019  0.3959
    51IDQ   C28 6372   4.448   2.451   1.739  0.3649 -0.0436  0.5008
    51IDQ   C29 6373   4.599   2.478   1.732 -0.6994 -0.0209  0.4318
    51IDQ   C30 6374   3.598   2.473   1.098 -0.3003 -0.3565 -0.3098
    51IDQ   C31 6375   3.446   2.460   1.108 -0.5823 -0.1073 -0.5899
    51IDQ   C32 6376   3.368   2.534   1.009  0.0735 -0.1919  0.4962
    51IDQ   C33 6377   3.223   2.497   1.020 -0.0605  0.2111  0.3677
    51IDQ   C34 6378   3.131   2.591   0.946  0.0452 -0.1127  0.4203
    51IDQ   C35 6379   2.989   2.538   0.925 -0.4642  0.6302 -0.6994
    4IDB    C36 6380   3.946   2.763   0.929 -0.0384 -0.0772 -0.2019
    4IDB    C37 6381   3.996   2.697   0.813 -0.2869 -0.3920 -0.1314
    11RH    C38 6382   3.544   3.106   2.481 -0.0329 -0.1337 -0.1310
    4IDB    C39 6383   4.024   2.560   0.814 -0.2593 -0.3845  0.1888
    62IDT   C40 6384   4.071   2.518   0.680  0.0024 -0.1870  0.0787
    72IDQ   C41 6385   4.043   2.758   0.680 -0.4546  0.4392 -0.3666
    62IDT   C42 6386   4.078   2.630   0.600  0.0912 -0.1078  0.1962
    72IDQ   C43 6387   3.942   2.842   0.595 -0.4784  0.3333  0.0404
    72IDQ   C44 6388   4.170   2.852   0.695 -0.5498 -0.4195 -0.1642
    62IDT    S5 6389   4.121   2.370   0.593 -0.0735 -0.1293 -0.0644
    62IDT   C45 6390   4.151   2.472   0.446  0.0233  0.0055  0.0476
    62IDT   C46 6391   4.123   2.604   0.467  0.1031  0.0011  0.1788
    82BTZ   C47 6392   4.199   2.403   0.321  0.1758 -0.0108  0.0239
    82BTZ   C48 6393   4.245   2.483   0.220  0.0411  0.0648  0.0217
    82BTZ   C49 6394   4.286   2.429   0.093 -0.0212  0.1479 -0.0341
    82BTZ   C50 6395   4.281   2.294   0.067  0.0512  0.1554 -0.0877
    82BTZ   C51 6396   4.192   2.261   0.299  0.2558 -0.0064 -0.0310
    82BTZ   C52 6397   4.233   2.206   0.170  0.1924  0.0781 -0.0878
    92RH    C53 6398   4.312   2.229  -0.060  0.4864 -0.0818  0.3165
    82BTZ    N4 6399   4.148   2.173   0.389  0.3880 -0.0754 -0.0346
    82BTZ    N5 6400   4.224   2.074   0.156  0.2736  0.0769 -0.1370
    82BTZ    S6 6401   4.159   2.012   0.312  0.4378 -0.0344 -0.1124
    92RH    C54 6402   4.357   2.270  -0.179  0.3363 -0.0365  0.2739
    92RH     S7 6403   4.406   2.441  -0.225  0.0997  0.0171  0.2199
    92RH    C55 6404   4.376   2.179  -0.295  0.3400 -0.0225  0.2636
    92RH     O2 6405   4.352   2.058  -0.296  0.4792 -0.0506  0.2928
    92RH     N6 6406   4.426   2.249  -0.407  0.1624  0.0274  0.2157
    92RH    C56 6407   4.449   2.384  -0.395  0.0169  0.0553  0.1864
    92RH    C57 6408   4.448   2.175  -0.536 -0.2923  0.5324  0.5311
    92RH    C58 6409   4.330   2.179  -0.637 -0.2647 -0.1578 -0.0202
    92RH     S8 6410   4.507   2.490  -0.513 -0.2066  0.1153  0.1284
    72IDQ   C59 6411   4.316   2.801   0.709 -0.4697  0.2993 -0.0364
    72IDQ   C60 6412   4.407   2.916   0.719  0.2187  0.2440  0.3852
    72IDQ   C61 6413   4.551   2.884   0.701  0.4139  1.2658  0.4031
    72IDQ   C62 6414   4.602   2.827   0.570  0.1076 -0.0600  0.0858
    72IDQ   C63 6415   4.737   2.749   0.588  0.2579  0.2573  0.0967
    72IDQ   C64 6416   4.820   2.733   0.460  0.1558 -0.7404  0.5635
    72IDQ   C65 6417   4.940   2.636   0.479  0.1440 -0.1474  0.5464
    72IDQ   C66 6418   3.801   2.780   0.582 -0.4562 -0.4964 -0.1164
    72IDQ   C67 6419   3.704   2.822   0.478  0.0245  0.4207  0.0037
    72IDQ   C68 6420   3.741   2.819   0.330 -0.1255  0.1727 -0.3173
    72IDQ   C69 6421   3.622   2.827   0.235 -0.1372 -0.0563 -0.3769
    72IDQ   C70 6422   3.665   2.818   0.088  0.3055  0.0798 -0.1768
    72IDQ   C71 6423   3.540   2.834   0.004 -0.2260  0.3588  0.1188
    72IDQ   C72 6424   3.565   2.852  -0.142 -0.7050 -0.2689  0.3870
    11RH     C1 6425   2.840   2.332   6.077 -0.1704 -0.1165  0.0464
    11RH     C2 6426   2.812   2.243   6.192 -0.0046 -0.0539  0.1354
    11RH     N1 6427   2.895   2.260   5.969 -0.3642 -0.1826 -0.0108
    11RH     S1 6428   2.861   2.071   6.151 -0.1146 -0.0860  0.1383
    11RH     C3 6429   2.916   2.125   5.983 -0.3740 -0.1806  0.0218
    11RH     C4 6430   2.932   2.336   5.851  0.0150 -0.1831 -0.0364
    11RH     S2 6431   2.980   2.017   5.870 -0.5842 -0.2509 -0.0322
    11RH     O1 6432   2.818   2.454   6.073 -0.1463 -0.1128  0.0231
    11RH     C5 6433   2.759   2.285   6.307  0.1933  0.0147  0.2019
    21BTZ    C6 6434   2.706   2.218   6.424  0.0094  0.1204  0.0757
    21BTZ    C7 6435   2.700   2.082   6.437  0.0747  0.1208  0.1081
    21BTZ    C8 6436   2.670   2.299   6.536 -0.1065  0.1314  0.0317
    21BTZ    C9 6437   2.660   2.019   6.560  0.0297  0.1318  0.0991
    21BTZ   C10 6438   2.625   2.093   6.670 -0.0805  0.1424  0.0575
    21BTZ   C11 6439   2.629   2.236   6.662 -0.1522  0.1426  0.0224
    21BTZ    N2 6440   2.672   2.433   6.536 -0.1785  0.1321 -0.0027
    21BTZ    N3 6441   2.598   2.318   6.762 -0.2608  0.1523 -0.0196
    21BTZ    S3 6442   2.620   2.484   6.699 -0.3103  0.1475 -0.0493
    31IDT   C12 6443   2.583   2.017   6.792  1.2829 -0.0750  0.5909
    31IDT   C13 6444   2.553   1.884   6.801  1.4846 -0.1170  0.6580
    31IDT   C14 6445   2.495   1.849   6.928  0.6171  0.0519  0.3262
    31IDT   C15 6446   2.482   1.955   7.015 -0.2495  0.2235  0.0050
    31IDT    S4 6447   2.541   2.109   6.943 -0.0322  0.1840  0.0984
    4IDB    C16 6448   2.411   1.921   7.132  0.6259 -0.0744 -0.2014
    4IDB    C17 6449   2.377   1.782   7.127  0.3914 -0.0190 -0.1468
    51IDQ   C18 6450   2.428   1.722   6.994  0.7021 -0.6299 -0.0187
    4IDB    C19 6451   2.314   1.720   7.234  0.0354  0.1940 -0.2293
    51IDQ   C20 6452   2.529   1.600   7.031 -0.0592 -0.5243 -0.1165
    51IDQ   C21 6453   2.323   1.655   6.903  0.0681  0.3113 -0.0813
    51IDQ   C22 6454   2.175   1.678   6.912  0.0683  0.4686  0.3625
    51IDQ   C23 6455   2.682   1.602   7.017  0.1750  0.0906  1.0771
    51IDQ   C24 6456   2.102   1.559   6.846 -0.6887 -0.3109  0.2081
    51IDQ   C25 6457   1.955   1.570   6.855 -0.3449  0.1111 -0.0053
    51IDQ   C26 6458   1.876   1.448   6.809 -0.3297  0.9080  0.7670
    51IDQ   C27 6459   1.892   1.413   6.658  0.1825 -0.1492  0.2320
    51IDQ   C28 6460   1.814   1.511   6.575 -0.1021  0.5189  0.7361
    51IDQ   C29 6461   1.787   1.470   6.429  0.3446  0.0913  0.0045
    51IDQ   C30 6462   2.759   1.682   7.121  0.1027 -0.1009  0.6581
    51IDQ   C31 6463   2.908   1.666   7.084 -0.1276 -0.3642  0.3034
    51IDQ   C32 6464   2.990   1.757   7.173 -0.1725 -0.1066  0.1074
    51IDQ   C33 6465   3.144   1.731   7.164 -0.2799  0.3546 -0.1571
    51IDQ   C34 6466   3.223   1.834   7.235 -0.2129 -0.2339  0.5866
    51IDQ   C35 6467   3.371   1.801   7.245 -0.1406  0.7035  0.2372
    4IDB    C36 6468   2.382   1.998   7.245  0.5047  0.0842 -0.3397
    4IDB    C37 6469   2.318   1.933   7.354  0.1399  0.3011 -0.4224
    11RH    C38 6470   2.825   2.355   5.739  0.2969  0.0906 -0.0909
    4IDB    C39 6471   2.285   1.798   7.347 -0.0860  0.3526 -0.3676
    62IDT   C40 6472   2.232   1.750   7.476 -0.2679  0.4730  0.4992
    72IDQ   C41 6473   2.275   1.988   7.491  0.2622  0.5817  0.0025
    62IDT   C42 6474   2.228   1.856   7.564 -0.9060  0.3844  0.5849
    72IDQ   C43 6475   2.401   2.056   7.561 -0.0783  1.1127 -0.3764
    72IDQ   C44 6476   2.170   2.104   7.470  1.3769  0.2646  0.3418
    62IDT    S5 6477   2.187   1.595   7.555  0.0416  0.2416  0.2270
    62IDT   C45 6478   2.164   1.686   7.711 -0.7465  0.0267  0.2444
    62IDT   C46 6479   2.189   1.820   7.697 -1.1775  0.1320  0.4410
    82BTZ   C47 6480   2.137   1.616   7.839  0.0047 -0.1097  0.2239
    82BTZ   C48 6481   2.086   1.685   7.946  0.1393 -0.0976  0.2808
    82BTZ   C49 6482   2.060   1.622   8.073  0.2894 -0.0857  0.3169
    82BTZ   C50 6483   2.086   1.489   8.093  0.3047 -0.0860  0.2960
    82BTZ   C51 6484   2.165   1.476   7.856  0.0147 -0.1105  0.1999
    82BTZ   C52 6485   2.140   1.412   7.985  0.1673 -0.0984  0.2367
    92RH    C53 6486   2.069   1.422   8.224 -0.3255 -0.1133  0.4168
    82BTZ    N4 6487   2.215   1.398   7.760 -0.1081 -0.1217  0.1452
    82BTZ    N5 6488   2.169   1.282   7.993  0.1672 -0.0999  0.2114
    82BTZ    S6 6489   2.232   1.235   7.832 -0.0321 -0.1172  0.1380
    92RH    C54 6490   2.035   1.457   8.348 -0.2766 -0.0310  0.4072
    92RH     S7 6491   1.987   1.625   8.406 -0.2240  0.0136  0.3217
    92RH    C55 6492   2.030   1.362   8.462 -0.2570  0.0389  0.4667
    92RH     O2 6493   2.057   1.241   8.456 -0.2829  0.0297  0.5311
    92RH     N6 6494   1.991   1.426   8.581 -0.2039  0.1192  0.4412
    92RH    C56 6495   1.963   1.561   8.577 -0.1786  0.1222  0.3686
    92RH    C57 6496   2.006   1.349   8.713 -0.4437 -0.5292  0.1129
    92RH    C58 6497   2.128   1.380   8.802 -0.3904 -0.2621  1.0598
    92RH     S8 6498   1.915   1.660   8.705 -0.1160  0.2091  0.3248
    72IDQ   C59 6499   2.018   2.081   7.467  0.7290  0.2872 -0.0966
    72IDQ   C60 6500   1.965   2.050   7.605  1.0080 -0.8948  0.5135
    72IDQ   C61 6501   1.811   2.046   7.609 -0.4272  0.5383  0.4305
    72IDQ   C62 6502   1.757   1.986   7.741 -0.0711 -0.8310  0.2063
    72IDQ   C63 6503   1.641   2.066   7.799  0.1122 -0.7352 -0.2865
    72IDQ   C64 6504   1.596   2.030   7.942  0.1507 -0.1694  0.4186
    72IDQ   C65 6505   1.706   2.028   8.052 -0.5072  0.4323  0.0422
    72IDQ   C66 6506   2.377   2.147   7.683 -0.2522  0.6568 -0.5594
    72IDQ   C67 6507   2.395   2.089   7.826  0.5577  0.5146 -0.8800
    72IDQ   C68 6508   2.533   2.058   7.868 -0.0979 -0.1940 -0.3105
    72IDQ   C69 6509   2.539   2.014   8.007 -0.7513  0.7519 -0.1499
    72IDQ   C70 6510   2.681   2.008   8.039 -0.4880 -0.2525 -1.2472
    72IDQ   C71 6511   2.717   2.015   8.191  0.7537 -0.3294  0.4605
    72IDQ   C72 6512   2.864   2.032   8.198  0.0106 -0.3436 -0.4256
    11RH     C1 6513   3.496   1.412   1.165 -0.4579 -0.0211 -0.2192
    11RH     C2 6514   3.441   1.495   1.275 -0.0885  0.1005 -0.1234
    11RH     N1 6515   3.524   1.491   1.051 -0.3197 -0.0517 -0.2067
    11RH     S1 6516   3.430   1.670   1.222  0.4164  0.1668 -0.0231
    11RH     C3 6517   3.499   1.626   1.056  0.1152  0.0305 -0.1126
    11RH     C4 6518   3.604   1.431   0.935 -0.1774 -0.0325  0.4555
    11RH     S2 6519   3.523   1.741   0.935  0.3621  0.0164 -0.0779
    11RH     O1 6520   3.516   1.290   1.169 -0.8429 -0.0894 -0.3011
    11RH     C5 6521   3.407   1.445   1.394 -0.1311  0.1511 -0.1146
    21BTZ    C6 6522   3.357   1.501   1.515 -0.1085  0.1661  0.2451
    21BTZ    C7 6523   3.327   1.634   1.528 -0.3455  0.1137  0.2546
    21BTZ    C8 6524   3.335   1.415   1.628 -0.1441  0.0843  0.1759
    21BTZ    C9 6525   3.275   1.689   1.650 -0.6275 -0.0207  0.1969
    21BTZ   C10 6526   3.253   1.611   1.760 -0.6721 -0.1025  0.1298
    21BTZ   C11 6527   3.282   1.471   1.752 -0.4308 -0.0523  0.1172
    21BTZ    N2 6528   3.360   1.284   1.628  0.0701  0.1240  0.1600
    21BTZ    N3 6529   3.264   1.385   1.853 -0.4469 -0.1224  0.0542
    21BTZ    S3 6530   3.315   1.225   1.791 -0.0889 -0.0144  0.0675
    31IDT   C12 6531   3.211   1.678   1.888 -0.0121 -0.1586  0.0716
    31IDT   C13 6532   3.193   1.813   1.904 -0.6599 -0.2254 -0.0284
    31IDT   C14 6533   3.159   1.850   2.037 -0.8431 -0.2881 -0.0571
    31IDT   C15 6534   3.151   1.744   2.125 -0.3375 -0.2697  0.0206
    31IDT    S4 6535   3.185   1.587   2.044  0.4168 -0.1704  0.1371
    4IDB    C16 6536   3.112   1.793   2.251 -0.1973  0.0660  0.0348
    4IDB    C17 6537   3.078   1.931   2.244  0.1956  0.1713  0.1269
    51IDQ   C18 6538   3.110   1.981   2.101 -0.4190 -0.0910 -0.3394
    4IDB    C19 6539   3.029   1.998   2.355  0.2053  0.1881  0.1213
    51IDQ   C20 6540   3.229   2.092   2.117 -0.2016  0.1105  0.6150
    51IDQ   C21 6541   2.983   2.041   2.023  0.4197 -0.2187 -0.1083
    51IDQ   C22 6542   2.837   2.028   2.070 -0.5557  0.1470  0.2850
    51IDQ   C23 6543   3.381   2.069   2.081  0.2930 -0.1883 -0.0408
    51IDQ   C24 6544   2.723   2.073   1.979 -0.8008 -0.5928  0.3874
    51IDQ   C25 6545   2.735   2.214   1.919  0.8142  0.1736 -0.2719
    51IDQ   C26 6546   2.614   2.243   1.840  0.3884  0.6296 -0.4824
    51IDQ   C27 6547   2.595   2.390   1.809 -0.0097 -0.1314  0.1379
    51IDQ   C28 6548   2.460   2.431   1.756  0.4413  0.7509  0.0745
    51IDQ   C29 6549   2.439   2.404   1.609 -0.6099 -0.9575  0.1805
    51IDQ   C30 6550   3.472   1.995   2.182 -0.2831 -0.4026  0.0980
    51IDQ   C31 6551   3.619   2.020   2.164  0.0915 -0.5854 -0.2046
    51IDQ   C32 6552   3.710   1.934   2.253  0.7154 -0.3838 -0.3071
    51IDQ   C33 6553   3.839   2.007   2.279  0.6273  0.2283 -0.9049
    51IDQ   C34 6554   3.950   1.933   2.358  0.2293  0.0286  0.0870
    51IDQ   C35 6555   4.075   2.008   2.407  0.4312  0.0639 -0.3644
    4IDB    C36 6556   3.098   1.720   2.370 -0.5851 -0.0239 -0.0642
    4IDB    C37 6557   3.047   1.790   2.483 -0.5690 -0.0053 -0.0685
    11RH    C38 6558   3.528   1.354   0.834 -0.0688  0.3621  0.4499
    4IDB    C39 6559   3.014   1.925   2.475 -0.1825  0.0982  0.0222
    62IDT   C40 6560   2.957   1.976   2.595 -0.3819  0.2973 -0.5834
    72IDQ   C41 6561   3.031   1.743   2.625  0.3644 -0.4950  0.5984
    62IDT   C42 6562   2.969   1.878   2.691 -0.5715  0.0651 -0.7959
    72IDQ   C43 6563   3.164   1.689   2.682 -0.7351  0.4781 -1.1584
    72IDQ   C44 6564   2.931   1.624   2.635 -0.3445  0.1109  0.3239
    62IDT    S5 6565   2.883   2.126   2.662 -0.0261  0.3242 -0.2422
    62IDT   C45 6566   2.872   2.043   2.823 -0.1589  0.0043 -0.4131
    62IDT   C46 6567   2.921   1.916   2.820 -0.4457 -0.1010 -0.7001
    82BTZ   C47 6568   2.834   2.120   2.945  0.0827  0.2758  0.1109
    82BTZ   C48 6569   2.791   2.045   3.051 -0.0299  0.2614  0.0553
    82BTZ   C49 6570   2.776   2.102   3.183 -0.1283  0.2331  0.0564
    82BTZ   C50 6571   2.804   2.233   3.208 -0.1138  0.2190  0.1132
    82BTZ   C51 6572   2.865   2.258   2.966  0.1023  0.2620  0.1715
    82BTZ   C52 6573   2.850   2.316   3.100  0.0024  0.2331  0.1727
    92RH    C53 6574   2.788   2.296   3.334 -0.4102  0.0311 -0.0630
    82BTZ    N4 6575   2.908   2.342   2.871  0.2079  0.2737  0.2288
    82BTZ    N5 6576   2.880   2.446   3.113  0.0277  0.2217  0.2310
    82BTZ    S6 6577   2.931   2.501   2.950  0.1835  0.2478  0.2880
    92RH    C54 6578   2.744   2.257   3.454 -0.2676  0.0614 -0.0008
    92RH     S7 6579   2.682   2.090   3.500 -0.2911  0.0960  0.0942
    92RH    C55 6580   2.740   2.346   3.573 -0.0618  0.0718  0.0001
    92RH     O2 6581   2.775   2.465   3.575  0.0020  0.0540 -0.0551
    92RH     N6 6582   2.689   2.279   3.686  0.0573  0.1050  0.0732
    92RH    C56 6583   2.653   2.147   3.673 -0.0280  0.1225  0.1307
    92RH    C57 6584   2.685   2.347   3.816  0.2229  0.5808 -0.5058
    92RH    C58 6585   2.828   2.328   3.882  0.6791 -0.3385  0.1280
    92RH     S8 6586   2.591   2.045   3.792  0.0805  0.1621  0.2220
    72IDQ   C59 6587   2.794   1.644   2.579  0.1943 -0.4266 -0.0687
    72IDQ   C60 6588   2.707   1.520   2.597 -0.0321  0.2801 -0.4298
    72IDQ   C61 6589   2.559   1.531   2.563 -0.0307 -0.2454  0.0735
    72IDQ   C62 6590   2.478   1.646   2.610 -0.3413  0.0847 -0.8708
    72IDQ   C63 6591   2.466   1.651   2.763  0.1644  0.1194 -0.5137
    72IDQ   C64 6592   2.353   1.729   2.819  0.4839  0.1157  0.1827
    72IDQ   C65 6593   2.337   1.707   2.966 -0.3662 -0.4548  0.0824
    72IDQ   C66 6594   3.168   1.659   2.837  0.0819 -0.7026  0.0543
    72IDQ   C67 6595   3.313   1.672   2.886 -0.1457  0.0459 -0.4915
    72IDQ   C68 6596   3.327   1.631   3.032 -0.4130 -0.2452  0.3102
    72IDQ   C69 6597   3.465   1.640   3.094 -0.2893 -0.1672  0.3384
    72IDQ   C70 6598   3.459   1.641   3.245 -0.9754  0.0167 -0.1558
    72IDQ   C71 6599   3.596   1.588   3.295  0.0165 -0.2325  0.3092
    72IDQ   C72 6600   3.617   1.583   3.440 -0.4782 -0.6297  0.0372
    11RH     C1 6601   3.361   2.140   3.740  0.0989  0.0300  0.0213
    11RH     C2 6602   3.398   2.239   3.635 -0.0411  0.0144 -0.0438
    11RH     N1 6603   3.328   2.203   3.861  0.2402  0.0496  0.0505
    11RH     S1 6604   3.387   2.409   3.705  0.0222  0.0265 -0.0624
    11RH     C3 6605   3.333   2.340   3.868  0.2306  0.0516  0.0166
    11RH     C4 6606   3.289   2.122   3.976  0.6812  0.1041 -0.7731
    11RH     S2 6607   3.299   2.439   4.000  0.3800  0.0730  0.0402
    11RH     O1 6608   3.359   2.017   3.724  0.0958  0.0268  0.0480
    11RH     C5 6609   3.434   2.205   3.511 -0.1894 -0.0053 -0.0816
    21BTZ    C6 6610   3.471   2.281   3.389 -0.1587 -0.2090 -0.0324
    21BTZ    C7 6611   3.484   2.416   3.373 -0.2083 -0.1968  0.0296
    21BTZ    C8 6612   3.506   2.195   3.279 -0.0519 -0.1504 -0.0443
    21BTZ    C9 6613   3.532   2.474   3.249 -0.1559 -0.1268  0.0824
    21BTZ   C10 6614   3.567   2.396   3.142 -0.0541 -0.0692  0.0734
    21BTZ   C11 6615   3.555   2.253   3.154  0.0013 -0.0793  0.0094
    21BTZ    N2 6616   3.497   2.062   3.283  0.0047 -0.1558 -0.1023
    21BTZ    N3 6617   3.586   2.167   3.057  0.1006 -0.0275 -0.0054
    21BTZ    S3 6618   3.553   2.004   3.123  0.1311 -0.0682 -0.0906
    31IDT   C12 6619   3.620   2.469   3.021 -0.3603  0.4644  0.0732
    31IDT   C13 6620   3.649   2.603   3.015 -0.8000  0.5606  0.0237
    31IDT   C14 6621   3.690   2.646   2.885 -0.7154  0.5990  0.0628
    31IDT   C15 6622   3.692   2.545   2.791 -0.2120  0.5323  0.1419
    31IDT    S4 6623   3.642   2.387   2.860  0.1978  0.4148  0.1736
    4IDB    C16 6624   3.747   2.593   2.669  0.5969 -0.0995 -0.1661
    4IDB    C17 6625   3.777   2.732   2.681  0.7759 -0.1487 -0.0378
    51IDQ   C18 6626   3.737   2.778   2.822  0.3035 -0.2091 -0.3148
    4IDB    C19 6627   3.829   2.803   2.573  0.4174 -0.0079 -0.1214
    51IDQ   C20 6628   3.631   2.900   2.815 -0.7059 -0.6769 -0.3134
    51IDQ   C21 6629   3.855   2.831   2.912  1.0282  0.0038 -0.6415
    51IDQ   C22 6630   3.999   2.813   2.886 -0.1312 -0.4186 -0.7469
    51IDQ   C23 6631   3.480   2.893   2.841  0.1989 -0.4035 -0.2747
    51IDQ   C24 6632   4.093   2.888   2.977 -0.0831 -0.1529  0.4719
    51IDQ   C25 6633   4.238   2.881   2.921  0.2133  0.1182 -0.0385
    51IDQ   C26 6634   4.327   2.959   3.015 -0.0278  0.0047 -0.4941
    51IDQ   C27 6635   4.332   3.106   3.014 -0.5020 -0.4288  0.0612
    51IDQ   C28 6636   4.431   3.183   3.106 -0.0484 -0.3404 -0.2865
    51IDQ   C29 6637   4.402   3.163   3.254  0.3930 -0.6746 -0.0760
    51IDQ   C30 6638   3.398   2.821   2.733  0.8097  0.6109 -0.0710
    51IDQ   C31 6639   3.252   2.797   2.776 -0.0540  0.3011  0.5288
    51IDQ   C32 6640   3.169   2.734   2.674 -0.3816  0.4216  0.4584
    51IDQ   C33 6641   3.021   2.767   2.679  0.0128 -0.0088 -0.4544
    51IDQ   C34 6642   2.947   2.685   2.576  0.2703 -0.1558 -0.7218
    51IDQ   C35 6643   2.797   2.718   2.596 -0.4153  0.1793  0.0623
    4IDB    C36 6644   3.768   2.524   2.549  0.0551  0.0920 -0.3800
    4IDB    C37 6645   3.822   2.598   2.440 -0.3054  0.2339 -0.4626
    11RH    C38 6646   3.412   2.082   4.059 -0.2237 -0.2467  0.0216
    4IDB    C39 6647   3.851   2.734   2.453 -0.1244  0.1835 -0.3353
    62IDT   C40 6648   3.902   2.780   2.327  0.4219 -0.3178 -0.1789
    72IDQ   C41 6649   3.867   2.545   2.302  0.2441 -0.2988 -0.0705
    62IDT   C42 6650   3.906   2.677   2.236  0.4072 -0.1040 -0.4236
    72IDQ   C43 6651   3.740   2.473   2.244 -0.3864 -0.3180  0.1842
    72IDQ   C44 6652   3.983   2.438   2.322 -1.1478 -0.4498  0.2519
    62IDT    S5 6653   3.953   2.936   2.254 -0.1247 -0.0355  0.0284
    62IDT   C45 6654   3.979   2.849   2.097 -0.3557  0.3769 -0.2398
    62IDT   C46 6655   3.950   2.716   2.105 -0.0325  0.2889 -0.4584
    82BTZ   C47 6656   4.013   2.923   1.970  0.1225  0.0916  0.0995
    82BTZ   C48 6657   4.052   2.847   1.863 -0.2412  0.0572 -0.0145
    82BTZ   C49 6658   4.076   2.904   1.733 -0.6210  0.0261 -0.0979
    82BTZ   C50 6659   4.059   3.038   1.710 -0.6366  0.0296 -0.0672
    82BTZ   C51 6660   3.994   3.064   1.950  0.1220  0.0967  0.1359
    82BTZ   C52 6661   4.017   3.122   1.818 -0.2642  0.0651  0.0511
    92RH    C53 6662   4.084   3.100   1.577  0.0174 -0.0081 -0.0950
    82BTZ    N4 6663   3.955   3.148   2.046  0.4563  0.1289  0.2444
    82BTZ    N5 6664   3.997   3.254   1.808 -0.2400  0.0719  0.0915
    82BTZ    S6 6665   3.947   3.310   1.970  0.2878  0.1199  0.2428
    92RH    C54 6666   4.124   3.049   1.459 -0.1084 -0.0107 -0.1366
    92RH     S7 6667   4.167   2.874   1.424 -0.5032 -0.0838 -0.2701
    92RH    C55 6668   4.139   3.130   1.336  0.0600  0.0474 -0.0784
    92RH     O2 6669   4.117   3.252   1.327  0.3316  0.1043  0.0138
    92RH     N6 6670   4.182   3.051   1.227 -0.1285  0.0305 -0.1413
    92RH    C56 6671   4.203   2.917   1.248 -0.4270 -0.0341 -0.2427
    92RH    C57 6672   4.186   3.116   1.095 -0.4653  0.2919  0.2191
    92RH    C58 6673   4.057   3.108   1.010  0.0831 -0.2773 -0.3613
    92RH     S8 6674   4.254   2.802   1.136 -0.6965 -0.0669 -0.3332
    72IDQ   C59 6675   4.128   2.479   2.275 -0.4557  0.5233  0.2139
    72IDQ   C60 6676   4.222   2.363   2.289 -0.1964  0.5989 -0.0794
    72IDQ   C61 6677   4.371   2.398   2.254  0.2426  0.8380 -0.1408
    72IDQ   C62 6678   4.404   2.453   2.120  0.8419 -0.8817  0.7734
    72IDQ   C63 6679   4.554   2.451   2.082  0.4342  0.6735 -0.0120
    72IDQ   C64 6680   4.629   2.569   2.138 -0.5192 -0.4711 -0.1655
    72IDQ   C65 6681   4.780   2.538   2.114  0.2559 -0.1948  0.0540
    72IDQ   C66 6682   3.745   2.409   2.106  0.6605 -0.1287 -0.0338
    72IDQ   C67 6683   3.599   2.393   2.058  0.0604  0.1339 -0.1798
    72IDQ   C68 6684   3.602   2.363   1.909  0.4986 -0.6527 -0.2493
    72IDQ   C69 6685   3.454   2.367   1.864 -0.2588  0.3699 -0.2555
    72IDQ   C70 6686   3.440   2.412   1.721 -0.9711 -0.2291 -0.0131
    72IDQ   C71 6687   3.299   2.404   1.660 -0.3481 -0.1836  0.5677
    72IDQ   C72 6688   3.297   2.480   1.522 -0.2473  0.4869  0.0570
    11RH     C1 6689   3.107   3.041   5.381  0.1824  0.0981  0.0844
    11RH     C2 6690   3.156   2.955   5.270  0.1652  0.1565  0.0316
    11RH     N1 6691   3.074   2.964   5.495 -0.0781  0.0088 -0.0511
    11RH     S1 6692   3.155   2.779   5.323 -0.1924  0.0900 -0.1925
    11RH     C3 6693   3.090   2.827   5.488 -0.3019 -0.0116 -0.2059
    11RH     C4 6694   3.027   3.025   5.618 -0.2667  0.5593 -0.3160
    11RH     S2 6695   3.058   2.714   5.609 -0.6320 -0.1121 -0.3861
    11RH     O1 6696   3.096   3.164   5.378  0.3957  0.1228  0.2282
    11RH     C5 6697   3.194   3.003   5.152  0.3828  0.2440  0.1359
    21BTZ    C6 6698   3.240   2.941   5.028  0.2225  0.2104  0.1446
    21BTZ    C7 6699   3.261   2.807   5.009  0.1504  0.1835  0.2487
    21BTZ    C8 6700   3.271   3.032   4.922  0.1583  0.0986  0.0300
    21BTZ    C9 6701   3.315   2.756   4.885  0.0126  0.0466  0.2456
    21BTZ   C10 6702   3.346   2.839   4.780 -0.0530 -0.0634  0.1382
    21BTZ   C11 6703   3.325   2.980   4.796  0.0182 -0.0406  0.0268
    21BTZ    N2 6704   3.254   3.164   4.928  0.2180  0.1118 -0.0776
    21BTZ    N3 6705   3.352   3.070   4.701 -0.0347 -0.1393 -0.0833
    21BTZ    S3 6706   3.308   3.229   4.771  0.0950 -0.0567 -0.1897
    31IDT   C12 6707   3.395   2.769   4.654 -0.1094  0.0993  0.0469
    31IDT   C13 6708   3.430   2.637   4.646 -0.1518  0.0915 -0.0163
    31IDT   C14 6709   3.476   2.600   4.516 -0.3386  0.0942 -0.0839
    31IDT   C15 6710   3.476   2.703   4.424 -0.4397  0.1042 -0.0728
    31IDT    S4 6711   3.417   2.856   4.496 -0.3049  0.1109  0.0252
    4IDB    C16 6712   3.538   2.661   4.301 -0.0018  0.0268 -0.1552
    4IDB    C17 6713   3.573   2.523   4.314 -0.3144 -0.0492 -0.1000
    51IDQ   C18 6714   3.531   2.470   4.454  0.3472 -0.6795  0.3154
    4IDB    C19 6715   3.622   2.451   4.205 -0.1257 -0.1032  0.0194
    51IDQ   C20 6716   3.416   2.364   4.424  0.3487  0.5357 -0.3323
    51IDQ   C21 6717   3.638   2.409   4.551 -0.0340 -0.0575 -0.3837
    51IDQ   C22 6718   3.783   2.453   4.534 -0.3906  0.8239  0.0996
    51IDQ   C23 6719   3.269   2.378   4.455 -0.4928  0.5354 -0.1473
    51IDQ   C24 6720   3.859   2.371   4.634  0.0186  0.1941  0.1424
    51IDQ   C25 6721   4.011   2.401   4.613  0.3647  0.4155  0.4484
    51IDQ   C26 6722   4.117   2.355   4.717  0.9732  0.2656 -0.2911
    51IDQ   C27 6723   4.115   2.199   4.737 -0.3542 -0.4567 -0.4409
    51IDQ   C28 6724   4.188   2.148   4.861  0.7865  0.2877 -0.3902
    51IDQ   C29 6725   4.191   2.002   4.861 -0.2250  0.1959  0.1211
    51IDQ   C30 6726   3.190   2.470   4.362  0.0518 -0.0704 -0.3121
    51IDQ   C31 6727   3.044   2.446   4.356  0.3046  0.7735 -0.2920
    51IDQ   C32 6728   2.955   2.536   4.272  0.6350  0.1657  0.0646
    51IDQ   C33 6729   2.808   2.493   4.241 -0.8105  0.0630 -0.0484
    51IDQ   C34 6730   2.726   2.597   4.184  0.6537 -0.0330  0.4071
    51IDQ   C35 6731   2.579   2.555   4.181 -0.3864  0.2435 -0.7044
    4IDB    C36 6732   3.551   2.728   4.178  0.5047  0.0497 -0.0908
    4IDB    C37 6733   3.601   2.653   4.068  0.6909 -0.0061  0.0310
    11RH    C38 6734   3.143   3.081   5.703  0.3408  0.0124 -0.0821
    4IDB    C39 6735   3.635   2.519   4.082  0.3806 -0.0804  0.0835
    62IDT   C40 6736   3.676   2.465   3.955  0.0223 -0.0471  0.1341
    72IDQ   C41 6737   3.622   2.697   3.921 -0.2610 -0.0446  0.1587
    62IDT   C42 6738   3.674   2.566   3.861  0.2789  0.1118  0.2977
    72IDQ   C43 6739   3.480   2.737   3.853 -0.4345 -0.5946 -0.8434
    72IDQ   C44 6740   3.721   2.814   3.898 -0.5551 -0.3522  0.1298
    62IDT    S5 6741   3.732   2.310   3.885 -0.1810 -0.0293 -0.0708
    62IDT   C45 6742   3.751   2.393   3.725  0.1057  0.2032  0.0826
    62IDT   C46 6743   3.717   2.526   3.731  0.3263  0.2536  0.2686
    82BTZ   C47 6744   3.794   2.319   3.603  0.1453 -0.0340 -0.1218
    82BTZ   C48 6745   3.852   2.391   3.501  0.0877 -0.1216 -0.2176
    82BTZ   C49 6746   3.889   2.330   3.376 -0.0976 -0.2041 -0.2325
    82BTZ   C50 6747   3.868   2.196   3.352 -0.2250 -0.1989 -0.1516
    82BTZ   C51 6748   3.770   2.179   3.582  0.0170 -0.0249 -0.0347
    82BTZ   C52 6749   3.808   2.117   3.455 -0.1713 -0.1089 -0.0499
    92RH    C53 6750   3.887   2.137   3.225  0.0342 -0.2817  0.1504
    82BTZ    N4 6751   3.714   2.098   3.673  0.0569  0.0565  0.0623
    82BTZ    N5 6752   3.782   1.986   3.444 -0.2828 -0.0949  0.0349
    82BTZ    S6 6753   3.708   1.936   3.598 -0.1491  0.0288  0.1399
    92RH    C54 6754   3.928   2.184   3.107  0.0421 -0.1722  0.1963
    92RH     S7 6755   3.997   2.350   3.072 -0.0323 -0.1111  0.3397
    92RH    C55 6756   3.922   2.105   2.981  0.1147 -0.0808  0.1354
    92RH     O2 6757   3.880   1.988   2.971  0.1757 -0.0943  0.0367
    92RH     N6 6758   3.971   2.179   2.871  0.1065  0.0265  0.2040
    92RH    C56 6759   4.015   2.307   2.894  0.0362  0.0321  0.3124
    92RH    C57 6760   3.970   2.114   2.740 -0.0022 -0.0997  0.7846
    92RH    C58 6761   3.839   2.129   2.662 -0.0156  0.1985 -0.0626
    92RH     S8 6762   4.078   2.416   2.781  0.0116  0.1485  0.4104
    72IDQ   C59 6763   3.835   2.839   3.989 -0.2889  0.1681 -0.2500
    72IDQ   C60 6764   3.956   2.916   3.943 -0.6363 -0.5229  0.3960
    72IDQ   C61 6765   4.076   2.830   3.932 -0.3494  0.1516 -0.5483
    72IDQ   C62 6766   4.161   2.850   3.810 -0.4581  0.0457 -0.0237
    72IDQ   C63 6767   4.275   2.749   3.792 -0.3777 -0.7412 -0.2897
    72IDQ   C64 6768   4.353   2.788   3.671 -0.6049 -0.1115  0.0589
    72IDQ   C65 6769   4.476   2.701   3.659  0.1385  0.3290  0.1701
    72IDQ   C66 6770   3.459   2.744   3.702 -0.4812  0.3915 -0.3491
    72IDQ   C67 6771   3.473   2.874   3.628 -0.3164 -0.4236 -0.6560
    72IDQ   C68 6772   3.429   2.881   3.480 -0.6222 -0.1365 -0.5812
    72IDQ   C69 6773   3.433   3.020   3.407 -0.1875 -0.2774 -0.7354
    72IDQ   C70 6774   3.448   2.997   3.257  0.1265  0.3758 -0.0630
    72IDQ   C71 6775   3.502   3.107   3.160  0.7043  0.0765  0.0411
    72IDQ   C72 6776   3.638   3.168   3.176  0.0640  0.3081  0.6110
    11RH     C1 6777   3.291   2.319   2.769  0.4466  0.0328  0.4383
    11RH     C2 6778   3.261   2.224   2.879  0.1196 -0.1431  0.2033
    11RH     N1 6779   3.339   2.251   2.655  0.5649  0.1892  0.3952
    11RH     S1 6780   3.299   2.053   2.826 -0.0108 -0.0914 -0.0589
    11RH     C3 6781   3.352   2.114   2.660  0.3728  0.1601  0.1545
    11RH     C4 6782   3.388   2.336   2.529  0.4433  0.4961 -0.6828
    11RH     S2 6783   3.407   2.011   2.539  0.4563  0.3213  0.0538
    11RH     O1 6784   3.276   2.442   2.773  0.6021  0.0452  0.6486
    11RH     C5 6785   3.214   2.263   2.998 -0.0470 -0.3115  0.1924
    21BTZ    C6 6786   3.169   2.205   3.127  0.0709 -0.4164  0.0776
    21BTZ    C7 6787   3.152   2.070   3.144  0.1732 -0.4219  0.1425
    21BTZ    C8 6788   3.154   2.291   3.240  0.0876 -0.3824  0.0540
    21BTZ    C9 6789   3.118   2.014   3.272  0.2962 -0.3945  0.1873
    21BTZ   C10 6790   3.102   2.092   3.383  0.3167 -0.3616  0.1670
    21BTZ   C11 6791   3.119   2.234   3.371  0.2126 -0.3545  0.0995
    21BTZ    N2 6792   3.168   2.424   3.236 -0.0048 -0.3737 -0.0081
    21BTZ    N3 6793   3.106   2.321   3.472  0.2207 -0.3235  0.0740
    21BTZ    S3 6794   3.138   2.483   3.403  0.0657 -0.3288 -0.0111
    31IDT   C12 6795   3.064   2.029   3.508  0.5706  0.2619 -0.0712
    31IDT   C13 6796   3.042   1.894   3.521  0.2823  0.2673 -0.4594
    31IDT   C14 6797   2.995   1.858   3.651 -0.2223  0.0426 -0.6985
    31IDT   C15 6798   2.981   1.964   3.738 -0.3218 -0.1352 -0.4946
    31IDT    S4 6799   3.027   2.120   3.660  0.2209 -0.0308  0.0205
    4IDB    C16 6800   2.920   1.921   3.859  0.1988  0.2801 -0.1195
    4IDB    C17 6801   2.901   1.779   3.852 -0.0564  0.3156 -0.1660
    51IDQ   C18 6802   2.947   1.725   3.720  0.2457 -0.4919  0.0566
    4IDB    C19 6803   2.851   1.708   3.960  0.0276  0.3387 -0.1120
    51IDQ   C20 6804   3.049   1.608   3.742 -0.9515  0.2390  0.2475
    51IDQ   C21 6805   2.832   1.664   3.634  0.0513 -0.5772  0.2331
    51IDQ   C22 6806   2.685   1.680   3.672 -0.3710 -0.1544  0.0147
    51IDQ   C23 6807   3.204   1.618   3.728  0.2316 -1.2062 -0.2056
    51IDQ   C24 6808   2.605   1.600   3.573 -0.5980 -0.1565 -0.1190
    51IDQ   C25 6809   2.462   1.622   3.606 -0.0751 -0.1119 -0.3413
    51IDQ   C26 6810   2.355   1.556   3.512 -0.3302 -0.6016  0.2470
    51IDQ   C27 6811   2.347   1.409   3.482 -0.7015  1.2991 -0.2024
    51IDQ   C28 6812   2.290   1.349   3.349 -0.6128 -0.2313 -0.4803
    51IDQ   C29 6813   2.245   1.207   3.363 -0.4986  0.6388 -0.6302
    51IDQ   C30 6814   3.275   1.710   3.832  0.0201 -0.4547 -0.5908
    51IDQ   C31 6815   3.428   1.706   3.813 -0.2850 -0.1055  0.0356
    51IDQ   C32 6816   3.499   1.784   3.921 -0.1973 -0.5631  0.1939
    51IDQ   C33 6817   3.650   1.762   3.919 -0.0168  0.2982 -0.4425
    51IDQ   C34 6818   3.725   1.862   4.012  0.2318 -0.2834 -0.2323
    51IDQ   C35 6819   3.876   1.853   4.004 -0.0711  0.0407 -0.1800
    4IDB    C36 6820   2.889   1.992   3.976  0.5417  0.2672 -0.0179
    4IDB    C37 6821   2.838   1.917   4.086  0.6229  0.2912  0.0360
    11RH    C38 6822   3.298   2.344   2.412  0.3422  0.1133  0.1461
    4IDB    C39 6823   2.820   1.779   4.077  0.3705  0.3259 -0.0105
    62IDT   C40 6824   2.762   1.738   4.201  0.0018  0.0724  0.0229
    72IDQ   C41 6825   2.798   1.974   4.220 -0.1970 -0.5362 -0.4792
    62IDT   C42 6826   2.748   1.842   4.290  0.1826 -0.0712  0.2214
    72IDQ   C43 6827   2.929   2.018   4.287 -0.1010 -0.3753 -0.3918
    72IDQ   C44 6828   2.714   2.113   4.192  0.2901  0.2613  0.0984
    62IDT    S5 6829   2.712   1.581   4.274 -0.0943 -0.0070 -0.2139
    62IDT   C45 6830   2.673   1.670   4.428  0.1258 -0.2418 -0.0227
    62IDT   C46 6831   2.698   1.804   4.419  0.2530 -0.2491  0.1957
    82BTZ   C47 6832   2.630   1.598   4.552 -0.5612 -0.1519 -0.1125
    82BTZ   C48 6833   2.583   1.675   4.655 -0.5032 -0.1138 -0.1144
    82BTZ   C49 6834   2.545   1.617   4.782 -0.2465 -0.0443 -0.0033
    82BTZ   C50 6835   2.553   1.482   4.805 -0.0480 -0.0131  0.1096
    82BTZ   C51 6836   2.641   1.456   4.572 -0.3600 -0.1215  0.0036
    82BTZ   C52 6837   2.602   1.397   4.700 -0.0990 -0.0508  0.1165
    92RH    C53 6838   2.531   1.425   4.938  0.3277 -0.1622 -0.0372
    82BTZ    N4 6839   2.685   1.371   4.479 -0.3927 -0.1534  0.0173
    82BTZ    N5 6840   2.615   1.265   4.711  0.0780 -0.0260  0.2210
    82BTZ    S6 6841   2.679   1.208   4.553 -0.0848 -0.0933  0.1786
    92RH    C54 6842   2.494   1.473   5.058  0.2341 -0.1708 -0.0626
    92RH     S7 6843   2.428   1.640   5.094  0.2083 -0.1725 -0.1015
    92RH    C55 6844   2.501   1.394   5.183  0.1339 -0.1806 -0.0628
    92RH     O2 6845   2.541   1.277   5.192  0.1247 -0.1820 -0.0399
    92RH     N6 6846   2.456   1.468   5.294  0.0476 -0.1884 -0.0924
    92RH    C56 6847   2.413   1.598   5.273  0.0664 -0.1861 -0.1161
    92RH    C57 6848   2.450   1.407   5.432  0.3308  0.4295 -0.0267
    92RH    C58 6849   2.566   1.409   5.531 -0.3340 -0.8884 -0.3087
    92RH     S8 6850   2.355   1.707   5.387 -0.0219 -0.1939 -0.1535
    72IDQ   C59 6851   2.560   2.111   4.182  0.0525 -0.0188  0.4777
    72IDQ   C60 6852   2.467   2.042   4.280  0.6123  0.1116 -0.6241
    72IDQ   C61 6853   2.315   2.057   4.261  0.2874 -0.6255 -1.0177
    72IDQ   C62 6854   2.229   1.991   4.369 -0.1659  0.3354 -0.1626
    72IDQ   C63 6855   2.078   2.003   4.333  0.0313  0.1730 -0.7181
    72IDQ   C64 6856   1.973   1.942   4.428 -0.2955  0.3246  0.1732
    72IDQ   C65 6857   1.980   1.968   4.578 -0.1917  0.5910  0.5297
    72IDQ   C66 6858   2.921   2.074   4.431 -0.1895 -0.4970  0.3706
    72IDQ   C67 6859   3.056   2.076   4.509  0.5700  0.1277  0.4357
    72IDQ   C68 6860   3.049   2.113   4.654  0.4317  0.3097  0.0221
    72IDQ   C69 6861   3.183   2.092   4.725  0.4084  0.0854  0.2533
    72IDQ   C70 6862   3.158   2.075   4.867 -0.0398 -0.1182  0.1214
    72IDQ   C71 6863   3.279   2.031   4.946  0.5079  0.2517 -0.5988
    72IDQ   C72 6864   3.240   2.032   5.093 -0.5516  0.0210 -0.3057
    11RH     C1 6865   3.063   1.425   4.417  0.0442 -0.0995  0.0541
    11RH     C2 6866   3.044   1.509   4.537 -0.2110  0.0436 -0.0840
    11RH     N1 6867   3.114   1.500   4.309  0.2110 -0.2136  0.0535
    11RH     S1 6868   3.095   1.682   4.501 -0.2149  0.0189 -0.2059
    11RH     C3 6869   3.139   1.634   4.328  0.1206 -0.1793 -0.0683
    11RH     C4 6870   3.160   1.420   4.190 -0.6170 -0.2690  0.1933
    11RH     S2 6871   3.200   1.744   4.216  0.2792 -0.2940 -0.0964
    11RH     O1 6872   3.037   1.303   4.409  0.1084 -0.1199  0.1589
    11RH     C5 6873   2.997   1.463   4.654 -0.4042  0.1694 -0.1117
    21BTZ    C6 6874   2.958   1.524   4.779 -0.0372  0.1050  0.0020
    21BTZ    C7 6875   2.954   1.660   4.795 -0.0720  0.0974  0.0589
    21BTZ    C8 6876   2.919   1.441   4.888 -0.0740  0.0498 -0.0529
    21BTZ    C9 6877   2.912   1.720   4.919 -0.1442  0.0356  0.0645
    21BTZ   C10 6878   2.873   1.645   5.026 -0.1815 -0.0185  0.0132
    21BTZ   C11 6879   2.875   1.502   5.014 -0.1473 -0.0130 -0.0473
    21BTZ    N2 6880   2.918   1.307   4.885 -0.0458  0.0511 -0.1107
    21BTZ    N3 6881   2.840   1.418   5.112 -0.1782 -0.0622 -0.1005
    21BTZ    S3 6882   2.861   1.253   5.046 -0.1132 -0.0295 -0.1615
    31IDT   C12 6883   2.828   1.716   5.155  0.7512  0.5567  0.3596
    31IDT   C13 6884   2.785   1.845   5.163  0.4759  0.4560  0.5238
    31IDT   C14 6885   2.744   1.883   5.295 -0.0393  0.0663  0.4828
    31IDT   C15 6886   2.757   1.782   5.388 -0.1599 -0.1323  0.2877
    31IDT    S4 6887   2.821   1.631   5.316  0.3746  0.1616  0.1393
    4IDB    C16 6888   2.701   1.832   5.512  0.0577  0.0409  0.2969
    4IDB    C17 6889   2.658   1.967   5.495 -0.5035 -0.1633  0.0539
    51IDQ   C18 6890   2.690   2.015   5.358  0.4403  0.5162 -0.0315
    4IDB    C19 6891   2.596   2.035   5.600 -0.3891 -0.0940  0.0769
    51IDQ   C20 6892   2.787   2.133   5.390 -0.6019  0.0825  0.0023
    51IDQ   C21 6893   2.571   2.065   5.267 -0.0989 -0.1242  0.3863
    51IDQ   C22 6894   2.427   2.045   5.318 -0.5356  0.3682  0.1433
    51IDQ   C23 6895   2.939   2.115   5.368  0.6398  0.0695  0.0911
    51IDQ   C24 6896   2.315   2.096   5.231  0.1593 -0.6332 -0.2048
    51IDQ   C25 6897   2.283   2.015   5.102  0.4308  0.7172 -0.3434
    51IDQ   C26 6898   2.171   2.067   5.014  0.2780 -0.4562 -0.0138
    51IDQ   C27 6899   2.169   2.210   4.961  0.0310  0.5770  0.4646
    51IDQ   C28 6900   2.047   2.227   4.877 -0.2998  0.6491 -0.5385
    51IDQ   C29 6901   2.028   2.374   4.855  0.8346  0.2605 -0.0924
    51IDQ   C30 6902   3.008   2.045   5.482 -0.0201  0.2266 -0.0087
    51IDQ   C31 6903   3.162   2.057   5.474 -0.1765  0.2241  0.0514
    51IDQ   C32 6904   3.231   1.986   5.586 -0.4955 -0.0640 -0.4118
    51IDQ   C33 6905   3.384   2.002   5.558 -0.5416 -0.0032  0.1442
    51IDQ   C34 6906   3.477   1.915   5.644 -0.1820  0.3924 -0.3969
    51IDQ   C35 6907   3.626   1.929   5.605 -0.3737 -0.0908 -0.0294
    4IDB    C36 6908   2.683   1.764   5.633  0.7409  0.3175  0.5662
    4IDB    C37 6909   2.619   1.835   5.738  0.8479  0.3846  0.5860
    11RH    C38 6910   3.056   1.417   4.076  0.6796  0.3673 -0.2327
    4IDB    C39 6911   2.577   1.967   5.721  0.2940  0.1827  0.3465
    62IDT   C40 6912   2.507   2.012   5.837 -0.3194 -0.0287 -0.2509
    72IDQ   C41 6913   2.583   1.781   5.874 -0.2060  0.2046 -0.9386
    62IDT   C42 6914   2.517   1.912   5.932 -1.0085 -0.2977 -0.4517
    72IDQ   C43 6915   2.714   1.735   5.952 -0.8553  0.5182 -0.2278
    72IDQ   C44 6916   2.486   1.653   5.869 -0.1677  0.4779  0.6953
    62IDT    S5 6917   2.437   2.162   5.906  0.1945  0.1380 -0.0827
    62IDT   C45 6918   2.424   2.078   6.067 -0.5875 -0.1803 -0.3033
    62IDT   C46 6919   2.470   1.949   6.062 -1.1610 -0.3838 -0.4814
    82BTZ   C47 6920   2.378   2.151   6.186  0.2152 -0.0512  0.0465
    82BTZ   C48 6921   2.332   2.075   6.291  0.0594 -0.0136  0.0058
    82BTZ   C49 6922   2.308   2.133   6.421 -0.1327  0.0329 -0.0498
    82BTZ   C50 6923   2.330   2.266   6.446 -0.1686  0.0415 -0.0651
    82BTZ   C51 6924   2.402   2.290   6.208  0.1849 -0.0439  0.0325
    82BTZ   C52 6925   2.378   2.349   6.340 -0.0103  0.0033 -0.0241
    92RH    C53 6926   2.296   2.331   6.579 -0.0683  0.0532  0.1413
    82BTZ    N4 6927   2.447   2.374   6.114  0.3249 -0.0777  0.0685
    82BTZ    N5 6928   2.402   2.479   6.352 -0.0271  0.0075 -0.0337
    82BTZ    S6 6929   2.460   2.535   6.192  0.2107 -0.0501  0.0306
    92RH    C54 6930   2.248   2.281   6.693 -0.1145 -0.0120  0.0942
    92RH     S7 6931   2.204   2.106   6.728  0.5864 -0.1733  0.2099
    92RH    C55 6932   2.224   2.364   6.814 -0.7645  0.0386 -0.0646
    92RH     O2 6933   2.244   2.486   6.823 -1.3321  0.1451 -0.1709
    92RH     N6 6934   2.174   2.286   6.921 -0.6640 -0.0504 -0.0823
    92RH    C56 6935   2.155   2.151   6.900 -0.0131 -0.1661  0.0430
    92RH    C57 6936   2.152   2.358   7.058 -0.6327  0.8581  0.6101
    92RH    C58 6937   2.277   2.353   7.152  0.1264  0.1217  0.3928
    92RH     S8 6938   2.097   2.036   7.010  0.2423 -0.2878  0.0524
    72IDQ   C59 6939   2.330   1.680   5.831 -0.9626  0.1696  0.2749
    72IDQ   C60 6940   2.248   1.554   5.834  0.7647  0.7341 -0.9433
    72IDQ   C61 6941   2.097   1.568   5.832  0.7401 -0.3067  0.1386
    72IDQ   C62 6942   2.030   1.624   5.954  0.4380 -0.2064  0.0367
    72IDQ   C63 6943   1.878   1.650   5.958 -0.3992  0.0928 -0.8362
    72IDQ   C64 6944   1.837   1.720   6.093 -0.5002 -0.4138 -0.1337
    72IDQ   C65 6945   1.693   1.745   6.088  0.8324  0.4124 -0.3285
    72IDQ   C66 6946   2.713   1.729   6.111 -0.3000 -0.3657  0.1388
    72IDQ   C67 6947   2.820   1.644   6.171 -0.5005 -0.2312 -0.2046
    72IDQ   C68 6948   2.829   1.649   6.325 -0.0251  0.1649  0.4385
    72IDQ   C69 6949   2.961   1.597   6.369  0.2526 -0.2856  0.4929
    72IDQ   C70 6950   3.022   1.662   6.491  0.4055  0.1505  0.5654
    72IDQ   C71 6951   2.932   1.688   6.616 -0.0116 -0.6660  0.0694
    72IDQ   C72 6952   3.009   1.757   6.726 -0.4820  0.0151  0.1238
    11RH     C1 6953   3.747   2.147   0.464 -0.2531 -0.1413 -0.2083
    11RH     C2 6954   3.782   2.239   0.353 -0.1450 -0.0649 -0.1105
    11RH     N1 6955   3.706   2.218   0.579 -0.2180 -0.2175 -0.1493
    11RH     S1 6956   3.760   2.413   0.408 -0.0041 -0.0984  0.0526
    11RH     C3 6957   3.705   2.355   0.575 -0.0950 -0.2116 -0.0162
    11RH     C4 6958   3.659   2.136   0.698  0.4003 -0.4276 -0.1795
    11RH     S2 6959   3.662   2.462   0.698 -0.0295 -0.2920  0.0773
    11RH     O1 6960   3.751   2.023   0.458 -0.3617 -0.1402 -0.3274
    11RH     C5 6961   3.823   2.198   0.233 -0.1528  0.0153 -0.1408
    21BTZ    C6 6962   3.864   2.266   0.108 -0.2476 -0.0888  0.1013
    21BTZ    C7 6963   3.869   2.402   0.092 -0.0963 -0.0905  0.1260
    21BTZ    C8 6964   3.913   2.182   0.002 -0.2104 -0.1207  0.1436
    21BTZ    C9 6965   3.921   2.462  -0.029  0.0980 -0.1233  0.1930
    21BTZ   C10 6966   3.968   2.386  -0.132  0.1408 -0.1543  0.2353
    21BTZ   C11 6967   3.966   2.243  -0.120 -0.0129 -0.1541  0.2118
    21BTZ    N2 6968   3.914   2.048   0.007 -0.3456 -0.1225  0.1254
    21BTZ    N3 6969   4.009   2.159  -0.214  0.0105 -0.1826  0.2482
    21BTZ    S3 6970   3.984   1.994  -0.149 -0.2238 -0.1678  0.1959
    31IDT   C12 6971   4.029   2.461  -0.249  0.1000 -0.0187  0.2006
    31IDT   C13 6972   4.063   2.594  -0.253 -0.5378  0.1526  0.2033
    31IDT   C14 6973   4.117   2.634  -0.379 -0.7282  0.4171  0.2042
    31IDT   C15 6974   4.124   2.532  -0.472 -0.2381  0.4490  0.2023
    31IDT    S4 6975   4.063   2.377  -0.407  0.5095  0.1438  0.1993
    4IDB    C16 6976   4.179   2.582  -0.595  0.1927 -0.2718  0.0429
    4IDB    C17 6977   4.215   2.720  -0.583 -0.2761 -0.1454  0.0373
    51IDQ   C18 6978   4.172   2.765  -0.440 -0.5404 -0.3890 -0.1275
    4IDB    C19 6979   4.268   2.790  -0.691 -0.3145 -0.0273  0.0942
    51IDQ   C20 6980   4.069   2.884  -0.473  0.0489  0.1802  0.6762
    51IDQ   C21 6981   4.284   2.828  -0.339  0.4676  0.3312 -0.0877
    51IDQ   C22 6982   4.429   2.846  -0.386 -0.3838  0.2437  0.0081
    51IDQ   C23 6983   3.920   2.872  -0.448  0.7485 -0.0568 -0.7282
    51IDQ   C24 6984   4.526   2.910  -0.283 -0.1197  0.5225 -0.1084
    51IDQ   C25 6985   4.672   2.932  -0.314  0.0191 -0.7157  0.0765
    51IDQ   C26 6986   4.751   2.991  -0.191  0.4386  0.0363 -0.4639
    51IDQ   C27 6987   4.722   3.134  -0.147  0.3381  0.1701  0.1699
    51IDQ   C28 6988   4.817   3.177  -0.034  0.0791  0.1234 -0.1213
    51IDQ   C29 6989   4.801   3.322  -0.006  0.0549 -0.4490 -0.1510
    51IDQ   C30 6990   3.839   2.796  -0.549  0.3563 -0.0211 -0.7956
    51IDQ   C31 6991   3.687   2.809  -0.524  0.6934  0.3859  0.5199
    51IDQ   C32 6992   3.612   2.774  -0.654  0.2075 -0.2841  0.1357
    51IDQ   C33 6993   3.454   2.802  -0.649 -0.1628  0.4636 -0.2196
    51IDQ   C34 6994   3.377   2.699  -0.721  0.7667 -0.2222  0.6117
    51IDQ   C35 6995   3.227   2.730  -0.723  0.1137 -0.1770  0.1879
    4IDB    C36 6996   4.196   2.513  -0.716  0.6283 -0.2810  0.1057
    4IDB    C37 6997   4.250   2.586  -0.825  0.5818 -0.1593  0.1633
    11RH    C38 6998   3.775   2.112   0.788 -0.4996 -0.0377 -0.0783
    4IDB    C39 6999   4.285   2.720  -0.812  0.1211 -0.0365  0.1569
    62IDT   C40 7000   4.335   2.762  -0.944  0.1442 -0.1665 -0.0437
    72IDQ   C41 7001   4.301   2.524  -0.958 -0.5965 -0.4705  0.4649
    62IDT   C42 7002   4.342   2.654  -1.029  0.4524 -0.2187  0.0449
    72IDQ   C43 7003   4.173   2.464  -1.040  0.1315 -0.3211 -0.0756
    72IDQ   C44 7004   4.394   2.395  -0.930  0.2080  0.2494  0.0181
    62IDT    S5 7005   4.380   2.916  -1.027 -0.3853 -0.0894 -0.1939
    62IDT   C45 7006   4.406   2.820  -1.179 -0.1508 -0.1340 -0.1257
    62IDT   C46 7007   4.382   2.686  -1.162  0.2860 -0.2004 -0.0013
    82BTZ   C47 7008   4.434   2.890  -1.312 -0.1386 -0.1330 -0.1893
    82BTZ   C48 7009   4.486   2.818  -1.416 -0.1069 -0.0233 -0.2495
    82BTZ   C49 7010   4.509   2.878  -1.545  0.0068  0.1332 -0.1571
    82BTZ   C50 7011   4.481   3.010  -1.570  0.0885  0.1797 -0.0045
    82BTZ   C51 7012   4.403   3.029  -1.332 -0.0560 -0.0901 -0.0298
    82BTZ   C52 7013   4.426   3.089  -1.464  0.0595  0.0690  0.0640
    92RH    C53 7014   4.503   3.071  -1.699  0.4122  0.3972 -0.1406
    82BTZ    N4 7015   4.352   3.109  -1.239 -0.0767 -0.1865  0.0421
    82BTZ    N5 7016   4.395   3.219  -1.475  0.1317  0.1005  0.2112
    82BTZ    S6 7017   4.332   3.269  -1.316  0.0534 -0.0757  0.2368
    92RH    C54 7018   4.553   3.030  -1.816  0.3559  0.2167 -0.1017
    92RH     S7 7019   4.637   2.870  -1.849  0.0281  0.0178  0.0209
    92RH    C55 7020   4.549   3.111  -1.940  0.5586  0.1487 -0.1540
    92RH     O2 7021   4.499   3.224  -1.951  0.7995  0.2483 -0.2384
    92RH     N6 7022   4.609   3.043  -2.048  0.4441 -0.0478 -0.0957
    92RH    C56 7023   4.662   2.918  -2.025  0.1745 -0.1456 -0.0031
    92RH    C57 7024   4.613   3.101  -2.182  0.8934 -0.5646  0.3283
    92RH    C58 7025   4.487   3.092  -2.271  0.2310 -0.4198  0.3505
    92RH     S8 7026   4.739   2.816  -2.136 -0.0094 -0.3784  0.0807
    72IDQ   C59 7027   4.539   2.405  -0.894  0.3201  1.0929  0.5009
    72IDQ   C60 7028   4.629   2.453  -1.001 -0.4589  0.2899 -0.0855
    72IDQ   C61 7029   4.775   2.463  -0.960 -0.3820  0.6064  0.4197
    72IDQ   C62 7030   4.879   2.518  -1.062 -0.0766 -0.6775 -0.6536
    72IDQ   C63 7031   4.860   2.493  -1.212 -0.3874 -0.2545 -0.3099
    72IDQ   C64 7032   4.991   2.521  -1.282 -0.0329  0.7175 -0.3196
    72IDQ   C65 7033   4.990   2.503  -1.432  0.0733  0.1726  0.4561
    72IDQ   C66 7034   4.173   2.434  -1.194 -0.3898 -0.2716 -0.5780
    72IDQ   C67 7035   4.029   2.422  -1.239  0.4934 -0.1448 -0.0599
    72IDQ   C68 7036   4.016   2.423  -1.392  0.2104  0.5325  0.5513
    72IDQ   C69 7037   3.876   2.405  -1.467 -0.2191  0.8300 -0.3885
    72IDQ   C70 7038   3.873   2.393  -1.618 -0.2837  0.6144  0.2238
    72IDQ   C71 7039   3.873   2.518  -1.688  0.4896 -0.8460 -0.0370
    72IDQ   C72 7040   3.878   2.494  -1.840  0.2514  0.1592 -0.0545
    11RH     C1 7041   3.545   4.620   2.126 -0.0226  0.0402 -0.2719
    11RH     C2 7042   3.585   4.531   2.014  0.0741 -0.0567 -0.1608
    11RH     N1 7043   3.496   4.547   2.236 -0.1672  0.1387 -0.2700
    11RH     S1 7044   3.555   4.356   2.061 -0.0313 -0.0119 -0.0611
    11RH     C3 7045   3.491   4.409   2.226 -0.1981  0.1327 -0.1709
    11RH     C4 7046   3.437   4.621   2.354  0.2590  0.5149 -0.0346
    11RH     S2 7047   3.438   4.299   2.342 -0.3601  0.2369 -0.1464
    11RH     O1 7048   3.553   4.744   2.125  0.0155  0.0377 -0.3572
    11RH     C5 7049   3.634   4.575   1.898  0.2164 -0.1600 -0.1399
    21BTZ    C6 7050   3.683   4.510   1.775  0.0138 -0.0147 -0.0968
    21BTZ    C7 7051   3.694   4.374   1.757 -0.1603 -0.0221 -0.1545
    21BTZ    C8 7052   3.719   4.597   1.667  0.0793 -0.0157 -0.0763
    21BTZ    C9 7053   3.741   4.318   1.633 -0.2781 -0.0308 -0.1948
    21BTZ   C10 7054   3.776   4.397   1.527 -0.2215 -0.0321 -0.1772
    21BTZ   C11 7055   3.766   4.539   1.541 -0.0404 -0.0246 -0.1172
    21BTZ    N2 7056   3.712   4.730   1.672  0.2462 -0.0091 -0.0211
    21BTZ    N3 7057   3.797   4.626   1.444  0.0303 -0.0250 -0.0949
    21BTZ    S3 7058   3.767   4.789   1.513  0.2576 -0.0142 -0.0191
    31IDT   C12 7059   3.829   4.328   1.404  0.1815 -0.2245 -0.2219
    31IDT   C13 7060   3.859   4.195   1.387 -0.5558 -0.3607 -0.5400
    31IDT   C14 7061   3.915   4.167   1.258 -0.9611 -0.4196 -0.7086
    31IDT   C15 7062   3.929   4.278   1.177 -0.5366 -0.3284 -0.5208
    31IDT    S4 7063   3.870   4.428   1.258  0.4183 -0.1598 -0.1119
    4IDB    C16 7064   3.988   4.246   1.053  0.4649  0.0987  0.1003
    4IDB    C17 7065   4.010   4.105   1.054  0.4619  0.0998  0.3434
    51IDQ   C18 7066   3.962   4.042   1.184 -0.4971 -0.3113  0.4251
    4IDB    C19 7067   4.059   4.039   0.942  0.0492 -0.1592  0.3110
    51IDQ   C20 7068   3.845   3.932   1.154 -0.5349 -0.2889  0.6355
    51IDQ   C21 7069   4.069   3.963   1.270  0.3120 -0.0793  0.1392
    51IDQ   C22 7070   4.217   3.957   1.227 -0.0398  0.4278  0.2869
    51IDQ   C23 7071   3.702   3.951   1.178  0.6768  0.4861 -0.0455
    51IDQ   C24 7072   4.287   3.875   1.336  0.5782  0.1629 -0.0363
    51IDQ   C25 7073   4.439   3.871   1.322 -0.0302  0.3380  0.4329
    51IDQ   C26 7074   4.504   3.801   1.434 -0.5324  0.6527  0.4602
    51IDQ   C27 7075   4.466   3.653   1.453  0.5318  0.1970  0.9746
    51IDQ   C28 7076   4.522   3.580   1.569 -0.2176  0.4448 -0.8141
    51IDQ   C29 7077   4.461   3.448   1.616 -0.3184  0.0938 -0.3959
    51IDQ   C30 7078   3.626   4.050   1.089 -0.1674 -0.3880 -0.5329
    51IDQ   C31 7079   3.475   4.026   1.108 -0.0166 -0.3947  0.2676
    51IDQ   C32 7080   3.389   4.108   1.014 -0.4017 -0.3468 -0.1296
    51IDQ   C33 7081   3.248   4.062   1.009 -0.2608 -0.3657 -0.5006
    51IDQ   C34 7082   3.173   4.180   0.962  0.6583  0.0974  0.8051
    51IDQ   C35 7083   3.029   4.148   0.924 -0.4371  0.0893  0.2654
    4IDB    C36 7084   4.015   4.322   0.938  0.0526 -0.1633 -0.1785
    4IDB    C37 7085   4.065   4.253   0.825 -0.3659 -0.4259 -0.2075
    11RH    C38 7086   3.525   4.641   2.473 -0.1608 -0.0268 -0.3106
    4IDB    C39 7087   4.086   4.115   0.828 -0.3634 -0.4212  0.0322
    62IDT   C40 7088   4.137   4.074   0.698  0.3461 -0.2505  0.1993
    72IDQ   C41 7089   4.093   4.308   0.685  0.3201  0.2312  0.8828
    62IDT   C42 7090   4.151   4.181   0.613 -0.0099 -0.1979  0.2033
    72IDQ   C43 7091   3.953   4.352   0.627  0.0480 -0.4230 -0.0573
    72IDQ   C44 7092   4.186   4.429   0.687  0.0444 -0.8919 -0.0317
    62IDT    S5 7093   4.180   3.918   0.619  0.0049 -0.2043 -0.0835
    62IDT   C45 7094   4.217   4.011   0.467 -0.6319 -0.1121 -0.1864
    62IDT   C46 7095   4.196   4.145   0.482 -0.5633 -0.1196 -0.0147
    82BTZ   C47 7096   4.244   3.933   0.341 -0.0483  0.0229 -0.2480
    82BTZ   C48 7097   4.297   4.004   0.237 -0.0494 -0.0744 -0.3152
    82BTZ   C49 7098   4.332   3.941   0.112  0.0100 -0.2038 -0.2336
    82BTZ   C50 7099   4.313   3.807   0.091  0.0702 -0.2355 -0.0850
    82BTZ   C51 7100   4.222   3.792   0.324  0.0137 -0.0055 -0.0925
    82BTZ   C52 7101   4.257   3.728   0.197  0.0740 -0.1370 -0.0096
    92RH    C53 7102   4.339   3.744  -0.038  0.3553  0.0875  0.2132
    82BTZ    N4 7103   4.170   3.713   0.418  0.0210  0.0811 -0.0148
    82BTZ    N5 7104   4.234   3.597   0.189  0.1298 -0.1562  0.1348
    82BTZ    S6 7105   4.164   3.549   0.347  0.1071 -0.0036  0.1717
    92RH    C54 7106   4.375   3.790  -0.159  0.1772 -0.0219  0.1183
    92RH     S7 7107   4.431   3.959  -0.200  0.2500 -0.0967 -0.0925
    92RH    C55 7108   4.375   3.706  -0.281 -0.1160 -0.1015  0.1715
    92RH     O2 7109   4.342   3.586  -0.287 -0.2297 -0.0771  0.3074
    92RH     N6 7110   4.417   3.779  -0.394 -0.2558 -0.2114  0.0468
    92RH    C56 7111   4.451   3.911  -0.377 -0.1105 -0.2295 -0.0999
    92RH    C57 7112   4.432   3.704  -0.525 -0.6047 -0.6536 -0.2099
    92RH    C58 7113   4.314   3.726  -0.622 -0.3720  0.0869 -0.6243
    92RH     S8 7114   4.505   4.020  -0.495 -0.2276 -0.3515 -0.2670
    72IDQ   C59 7115   4.335   4.423   0.736  0.1637  0.3678 -0.0361
    72IDQ   C60 7116   4.427   4.382   0.622 -0.4063  0.2011 -0.0477
    72IDQ   C61 7117   4.572   4.375   0.671 -0.0056 -0.1933 -0.2881
    72IDQ   C62 7118   4.644   4.309   0.554 -0.5103 -0.2513 -0.3595
    72IDQ   C63 7119   4.795   4.295   0.588  0.0026 -0.5673 -0.1229
    72IDQ   C64 7120   4.865   4.177   0.516 -0.0299  0.1041 -0.0929
    72IDQ   C65 7121   5.018   4.163   0.537 -0.5039  0.3713 -0.3942
    72IDQ   C66 7122   3.934   4.385   0.480  0.2570 -0.0894  0.6811
    72IDQ   C67 7123   3.791   4.397   0.435 -0.0921 -0.6353  0.8183
    72IDQ   C68 7124   3.798   4.422   0.277 -0.3630  0.3691 -0.6837
    72IDQ   C69 7125   3.668   4.418   0.202 -0.2897  0.0479  0.0379
    72IDQ   C70 7126   3.706   4.376   0.056  1.2803  0.9877 -0.2391
    72IDQ   C71 7127   3.576   4.374  -0.030 -0.5586  0.4556  0.5109
    72IDQ   C72 7128   3.596   4.304  -0.168 -0.1707 -0.1300 -0.3203
    11RH     C1 7129   2.886   3.889   6.100  0.2367  0.0240  0.1768
    11RH     C2 7130   2.828   3.806   6.208  0.3332  0.0090  0.2178
    11RH     N1 7131   2.923   3.811   5.988  0.0631  0.0499  0.0996
    11RH     S1 7132   2.825   3.630   6.156  0.1891  0.0299  0.1523
    11RH     C3 7133   2.902   3.675   5.994  0.0084  0.0573  0.0739
    11RH     C4 7134   2.961   3.883   5.859 -0.2308  0.1204 -0.5853
    11RH     S2 7135   2.937   3.560   5.876 -0.1904  0.0868 -0.0147
    11RH     O1 7136   2.902   4.012   6.104  0.2975  0.0155  0.2052
    11RH     C5 7137   2.784   3.855   6.324  0.5001 -0.0159  0.2916
    21BTZ    C6 7138   2.735   3.790   6.439  0.5233  0.2340 -0.0751
    21BTZ    C7 7139   2.725   3.654   6.456  0.6663  0.2272 -0.0451
    21BTZ    C8 7140   2.695   3.876   6.546  0.3322  0.2184 -0.1333
    21BTZ    C9 7141   2.676   3.597   6.579  0.6291  0.2047 -0.0703
    21BTZ   C10 7142   2.636   3.675   6.684  0.4490  0.1892 -0.1258
    21BTZ   C11 7143   2.645   3.818   6.671  0.2944  0.1955 -0.1590
    21BTZ    N2 7144   2.700   4.009   6.541  0.1811  0.2230 -0.1669
    21BTZ    N3 7145   2.609   3.904   6.766  0.1130  0.1818 -0.2134
    21BTZ    S3 7146   2.639   4.067   6.699 -0.0200  0.1979 -0.2343
    31IDT   C12 7147   2.586   3.610   6.812  0.1619  0.1009 -0.0373
    31IDT   C13 7148   2.551   3.478   6.817  0.1319  0.1130  0.0776
    31IDT   C14 7149   2.509   3.436   6.947  0.1292  0.2337  0.1156
    31IDT   C15 7150   2.512   3.536   7.042  0.1572  0.3143  0.0301
    31IDT    S4 7151   2.569   3.692   6.974  0.1893  0.2429 -0.1064
    4IDB    C16 7152   2.452   3.487   7.168 -0.2877  0.2917  0.0040
    4IDB    C17 7153   2.415   3.350   7.153  0.2739  0.1016  0.2646
    51IDQ   C18 7154   2.449   3.308   7.009 -0.4607  0.3170  1.2802
    4IDB    C19 7155   2.358   3.279   7.258  0.4226  0.1134  0.3534
    51IDQ   C20 7156   2.548   3.179   7.016  0.5902 -0.4840  0.7336
    51IDQ   C21 7157   2.326   3.259   6.914  0.0353 -0.0179 -0.2335
    51IDQ   C22 7158   2.181   3.240   6.947 -0.4681 -0.0521  0.9633
    51IDQ   C23 7159   2.696   3.182   6.986 -0.6070  0.1808 -0.0771
    51IDQ   C24 7160   2.101   3.198   6.827  0.3786  0.6995  0.0758
    51IDQ   C25 7161   1.954   3.150   6.861 -0.6019  0.2185  0.0784
    51IDQ   C26 7162   1.877   3.104   6.732 -0.3451  0.1519  0.1178
    51IDQ   C27 7163   1.941   2.988   6.654  0.0936 -0.1797 -0.0568
    51IDQ   C28 7164   1.902   2.852   6.707 -0.6817 -0.0040  0.7388
    51IDQ   C29 7165   1.912   2.746   6.590 -0.8194 -0.9339 -0.6069
    51IDQ   C30 7166   2.785   3.244   7.091 -0.3761  0.1194 -0.6707
    51IDQ   C31 7167   2.931   3.216   7.076 -0.0435  0.5883  0.2196
    51IDQ   C32 7168   3.022   3.283   7.177 -0.0350 -0.8829  0.1477
    51IDQ   C33 7169   3.171   3.251   7.158 -0.3112  0.0421  0.0267
    51IDQ   C34 7170   3.251   3.323   7.262 -0.1191 -0.2672 -0.0744
    51IDQ   C35 7171   3.397   3.308   7.248 -0.5006 -0.3731  0.0496
    4IDB    C36 7172   2.433   3.553   7.290 -0.7064  0.4959 -0.1701
    4IDB    C37 7173   2.375   3.479   7.397 -0.5468  0.5049 -0.0759
    11RH    C38 7174   2.825   3.929   5.794 -0.1507  0.5556  0.6325
    4IDB    C39 7175   2.339   3.345   7.379  0.0038  0.3177  0.1793
    62IDT   C40 7176   2.284   3.291   7.497  0.0952 -0.4066  0.1892
    72IDQ   C41 7177   2.349   3.522   7.538  0.1203 -0.0967 -0.4068
    62IDT   C42 7178   2.308   3.386   7.595  0.0274 -0.3632  0.1637
    72IDQ   C43 7179   2.479   3.571   7.610  0.2420  0.2762  0.4987
    72IDQ   C44 7180   2.236   3.634   7.528 -0.4793  0.2303 -0.7368
    62IDT    S5 7181   2.213   3.141   7.566 -0.2367 -0.2609  0.1642
    62IDT   C45 7182   2.219   3.218   7.730 -0.4602 -0.1433  0.1183
    62IDT   C46 7183   2.271   3.345   7.726 -0.2865 -0.2143  0.1235
    82BTZ   C47 7184   2.177   3.145   7.848 -0.0117 -0.0234 -0.3098
    82BTZ   C48 7185   2.125   3.217   7.952 -0.0157  0.0968 -0.3958
    82BTZ   C49 7186   2.086   3.155   8.076 -0.0852  0.2303 -0.3505
    82BTZ   C50 7187   2.099   3.020   8.096 -0.1508  0.2433 -0.2193
    82BTZ   C51 7188   2.193   3.003   7.864 -0.0787 -0.0154 -0.1715
    82BTZ   C52 7189   2.153   2.940   7.990 -0.1495  0.1203 -0.1254
    92RH    C53 7190   2.077   2.952   8.227 -0.1582 -0.0208  0.0559
    82BTZ    N4 7191   2.243   2.922   7.771 -0.0820 -0.1252 -0.0782
    82BTZ    N5 7192   2.171   2.808   7.998 -0.2096  0.1196  0.0049
    82BTZ    S6 7193   2.241   2.757   7.841 -0.1776 -0.0582  0.0757
    92RH    C54 7194   2.036   2.993   8.347 -0.1683 -0.0250  0.0539
    92RH     S7 7195   1.964   3.157   8.389  0.0942  0.0774  0.1092
    92RH    C55 7196   2.042   2.909   8.470 -0.4023 -0.1165  0.0046
    92RH     O2 7197   2.086   2.793   8.475 -0.6126 -0.1987 -0.0396
    92RH     N6 7198   1.992   2.978   8.582 -0.3585 -0.0997  0.0140
    92RH    C56 7199   1.946   3.107   8.565 -0.1180 -0.0057  0.0646
    92RH    C57 7200   1.982   2.900   8.713 -0.5678 -0.2164  0.1602
    92RH    C58 7201   2.102   2.913   8.810 -0.3345 -0.6352 -0.1706
    92RH     S8 7202   1.881   3.209   8.682 -0.0164  0.0337  0.0861
    72IDQ   C59 7203   2.090   3.587   7.526  0.3643 -0.2491 -0.2215
    72IDQ   C60 7204   1.989   3.697   7.498 -0.0373  0.3985  0.8912
    72IDQ   C61 7205   1.838   3.644   7.473 -0.0792  0.0597 -0.4786
    72IDQ   C62 7206   1.756   3.551   7.567 -0.1537  0.1223 -0.3833
    72IDQ   C63 7207   1.746   3.598   7.710  0.2598  0.3540 -0.5750
    72IDQ   C64 7208   1.630   3.528   7.782 -0.1232 -0.6602 -0.2956
    72IDQ   C65 7209   1.625   3.581   7.928  0.0431  0.1428  0.3389
    72IDQ   C66 7210   2.465   3.623   7.752  0.0183 -0.4195  0.1770
    72IDQ   C67 7211   2.602   3.599   7.820  0.5101 -0.1372  0.0449
    72IDQ   C68 7212   2.590   3.642   7.963  0.2989  0.2669  0.6566
    72IDQ   C69 7213   2.722   3.596   8.023  0.2438  0.3405  0.0434
    72IDQ   C70 7214   2.727   3.617   8.175 -0.2578  0.3101 -0.2254
    72IDQ   C71 7215   2.858   3.557   8.229 -0.5325  0.2086  0.1066
    72IDQ   C72 7216   2.853   3.548   8.385 -0.1399  0.0791  0.2119
    11RH     C1 7217   3.501   2.942   1.158 -0.0988  0.2256 -0.1209
    11RH     C2 7218   3.472   3.029   1.274  0.0351  0.0963  0.0111
    11RH     N1 7219   3.544   3.017   1.047  0.1037  0.3226  0.0205
    11RH     S1 7220   3.502   3.205   1.229  0.4184  0.1110  0.3127
    11RH     C3 7221   3.552   3.154   1.059  0.3833  0.2871  0.2497
    11RH     C4 7222   3.580   2.949   0.920  0.0652  0.4518 -0.5088
    11RH     S2 7223   3.599   3.266   0.942  0.6639  0.3833  0.4534
    11RH     O1 7224   3.491   2.818   1.156 -0.3555  0.2484 -0.3293
    11RH     C5 7225   3.430   2.983   1.393 -0.1096 -0.0122 -0.0821
    21BTZ    C6 7226   3.401   3.048   1.520  0.3753 -0.2442 -0.2777
    21BTZ    C7 7227   3.415   3.182   1.545  0.4487 -0.2193 -0.4445
    21BTZ    C8 7228   3.351   2.963   1.624  0.1903 -0.0644 -0.2185
    21BTZ    C9 7229   3.380   3.239   1.674  0.3447 -0.0179 -0.5608
    21BTZ   C10 7230   3.332   3.161   1.776  0.1676  0.1583 -0.5102
    21BTZ   C11 7231   3.315   3.021   1.754  0.0846  0.1403 -0.3367
    21BTZ    N2 7232   3.333   2.831   1.611  0.1038 -0.0688 -0.0591
    21BTZ    N3 7233   3.269   2.935   1.846 -0.0868  0.3004 -0.2724
    21BTZ    S3 7234   3.269   2.774   1.768 -0.1211  0.1939 -0.0533
    31IDT   C12 7235   3.279   3.228   1.902 -0.1592  0.5750  0.2763
    31IDT   C13 7236   3.230   3.356   1.909 -0.6198  0.3835  0.6504
    31IDT   C14 7237   3.175   3.387   2.037 -0.9701 -0.2708  0.6667
    31IDT   C15 7238   3.181   3.284   2.128 -0.7793 -0.5816  0.3060
    31IDT    S4 7239   3.259   3.138   2.058 -0.1354 -0.0650 -0.0859
    4IDB    C16 7240   3.119   3.331   2.248 -0.2791 -0.0362 -0.3263
    4IDB    C17 7241   3.075   3.467   2.236 -0.6949 -0.1720 -0.3684
    51IDQ   C18 7242   3.104   3.514   2.093 -0.4772  0.0593  0.4832
    4IDB    C19 7243   3.019   3.533   2.345 -0.3818 -0.1360 -0.2241
    51IDQ   C20 7244   3.191   3.647   2.102  0.0245 -0.0990 -0.2852
    51IDQ   C21 7245   2.984   3.550   1.999  0.0597 -0.3813  0.5355
    51IDQ   C22 7246   2.845   3.541   2.064 -0.1946  0.2110 -0.1918
    51IDQ   C23 7247   3.344   3.647   2.084  0.4328  0.2480 -0.1033
    51IDQ   C24 7248   2.721   3.563   1.979  0.1861  0.1580  0.1299
    51IDQ   C25 7249   2.713   3.694   1.902 -0.1951  0.3752 -0.0370
    51IDQ   C26 7250   2.610   3.698   1.788 -0.7166  0.2235 -0.5550
    51IDQ   C27 7251   2.632   3.810   1.690  0.5810 -0.5653  0.4703
    51IDQ   C28 7252   2.632   3.955   1.737  0.3614  0.0402 -0.1336
    51IDQ   C29 7253   2.655   4.059   1.633  0.0313 -0.5006  0.1202
    51IDQ   C30 7254   3.424   3.578   2.195  0.0060 -0.9572  0.3210
    51IDQ   C31 7255   3.574   3.584   2.158 -0.1144  0.0247 -0.5971
    51IDQ   C32 7256   3.665   3.530   2.267 -0.3484 -0.3716  0.6610
    51IDQ   C33 7257   3.813   3.538   2.228  0.4714 -0.7725  0.0970
    51IDQ   C34 7258   3.904   3.463   2.324 -0.1777 -0.0891 -0.2388
    51IDQ   C35 7259   4.056   3.475   2.289 -0.0469 -0.3071  0.2918
    4IDB    C36 7260   3.107   3.261   2.369  0.4569  0.1374 -0.1383
    4IDB    C37 7261   3.048   3.330   2.478  0.7676  0.1717  0.0073
    11RH    C38 7262   3.465   2.904   0.836 -0.3533  0.4680  0.6176
    4IDB    C39 7263   3.006   3.463   2.465  0.3543  0.0376 -0.0362
    62IDT   C40 7264   2.950   3.510   2.589 -0.1234 -0.4355  0.2142
    72IDQ   C41 7265   3.025   3.283   2.628 -0.3830 -0.2093 -0.2301
    62IDT   C42 7266   2.960   3.412   2.686 -0.0354 -0.2750  0.3688
    72IDQ   C43 7267   3.167   3.242   2.687 -0.8526 -0.7450 -0.1955
    72IDQ   C44 7268   2.953   3.146   2.636 -0.2193  0.7866 -0.3825
    62IDT    S5 7269   2.885   3.663   2.656 -0.0711 -0.3264  0.0162
    62IDT   C45 7270   2.875   3.583   2.819  0.0740 -0.0564  0.1598
    62IDT   C46 7271   2.918   3.453   2.816  0.0764 -0.0605  0.3381
    82BTZ   C47 7272   2.821   3.658   2.940  0.1428 -0.1180  0.1893
    82BTZ   C48 7273   2.779   3.578   3.044  0.2457 -0.1526  0.2047
    82BTZ   C49 7274   2.749   3.633   3.174  0.2674 -0.1799  0.2211
    82BTZ   C50 7275   2.761   3.767   3.200  0.1862 -0.1726  0.2222
    82BTZ   C51 7276   2.835   3.798   2.963  0.0550 -0.1089  0.1897
    82BTZ   C52 7277   2.805   3.854   3.095  0.0771 -0.1367  0.2065
    92RH    C53 7278   2.731   3.831   3.336  0.2268  0.0205  0.1403
    82BTZ    N4 7279   2.875   3.886   2.870 -0.0486 -0.0761  0.1757
    82BTZ    N5 7280   2.821   3.986   3.108 -0.0088 -0.1262  0.2058
    82BTZ    S6 7281   2.876   4.046   2.949 -0.1239 -0.0795  0.1833
    92RH    C54 7282   2.690   3.783   3.454  0.0699 -0.0265  0.0672
    92RH     S7 7283   2.627   3.614   3.488 -0.3539  0.0797 -0.1634
    92RH    C55 7284   2.689   3.863   3.579  0.2216 -0.1771  0.1660
    92RH     O2 7285   2.725   3.981   3.589  0.5062 -0.2757  0.3248
    92RH     N6 7286   2.641   3.787   3.688  0.0004 -0.1966  0.0564
    92RH    C56 7287   2.603   3.657   3.666 -0.3100 -0.0799 -0.1182
    92RH    C57 7288   2.624   3.852   3.819 -0.1546  0.2728 -0.0119
    92RH    C58 7289   2.731   3.820   3.924  0.1474  0.6245 -0.0944
    92RH     S8 7290   2.543   3.546   3.778 -0.6177 -0.0744 -0.2754
    72IDQ   C59 7291   2.813   3.127   2.679  0.5300  0.5644 -0.7125
    72IDQ   C60 7292   2.694   3.202   2.617  0.2367  0.6033 -0.1373
    72IDQ   C61 7293   2.575   3.172   2.699 -0.6560  0.2344  0.3741
    72IDQ   C62 7294   2.440   3.229   2.644 -0.1348 -0.0760  0.2608
    72IDQ   C63 7295   2.323   3.208   2.745 -0.1731  0.2702  0.3583
    72IDQ   C64 7296   2.194   3.280   2.701  0.6820 -0.0749  0.0884
    72IDQ   C65 7297   2.085   3.268   2.805  0.2751  0.3064 -0.3405
    72IDQ   C66 7298   3.204   3.267   2.836  0.0238  0.8575 -0.0462
    72IDQ   C67 7299   3.108   3.188   2.938 -0.1476 -0.0854 -0.1696
    72IDQ   C68 7300   3.106   3.235   3.081 -0.0282  0.4300 -0.2643
    72IDQ   C69 7301   3.033   3.142   3.184 -0.7497 -0.3859 -0.0283
    72IDQ   C70 7302   2.881   3.151   3.178 -0.2383  0.7949  0.4215
    72IDQ   C71 7303   2.801   3.273   3.218  0.4535 -0.2189 -0.6522
    72IDQ   C72 7304   2.667   3.261   3.160  0.5394 -0.1774 -0.1822
    11RH     C1 7305   3.343   3.666   3.763  0.0141  0.1317 -0.1507
    11RH     C2 7306   3.368   3.767   3.656 -0.0361  0.0409 -0.2490
    11RH     N1 7307   3.292   3.727   3.880 -0.0050  0.2221 -0.2055
    11RH     S1 7308   3.323   3.934   3.717 -0.1051  0.0804 -0.4068
    11RH     C3 7309   3.273   3.863   3.880 -0.0644  0.2149 -0.3355
    11RH     C4 7310   3.232   3.646   3.994 -0.5387 -0.3862  0.0775
    11RH     S2 7311   3.215   3.959   4.006 -0.0983  0.3104 -0.4237
    11RH     O1 7312   3.363   3.544   3.753  0.0667  0.1307 -0.0346
    11RH     C5 7313   3.416   3.736   3.536 -0.0300 -0.0542 -0.2223
    21BTZ    C6 7314   3.457   3.807   3.415 -0.0333  0.0925  0.0939
    21BTZ    C7 7315   3.463   3.943   3.403 -0.0698  0.0889  0.0380
    21BTZ    C8 7316   3.490   3.726   3.301 -0.0106  0.0548  0.1272
    21BTZ    C9 7317   3.501   4.007   3.279 -0.0857  0.0485  0.0124
    21BTZ   C10 7318   3.533   3.934   3.168 -0.0649  0.0116  0.0425
    21BTZ   C11 7319   3.529   3.791   3.176 -0.0266  0.0137  0.1011
    21BTZ    N2 7320   3.489   3.593   3.301  0.0254  0.0541  0.1819
    21BTZ    N3 7321   3.559   3.709   3.074 -0.0036 -0.0200  0.1349
    21BTZ    S3 7322   3.538   3.543   3.136  0.0404 -0.0001  0.2029
    31IDT   C12 7323   3.578   4.008   3.047 -0.2169  0.1688 -0.4141
    31IDT   C13 7324   3.606   4.142   3.038 -0.2629  0.1771 -0.4352
    31IDT   C14 7325   3.654   4.180   2.909 -0.1625  0.1520 -0.4052
    31IDT   C15 7326   3.663   4.076   2.819 -0.0397  0.1241 -0.3611
    31IDT    S4 7327   3.611   3.920   2.891 -0.0416  0.1280 -0.3542
    4IDB    C16 7328   3.714   4.126   2.694 -0.2030  0.0663 -0.3317
    4IDB    C17 7329   3.747   4.264   2.706 -0.4326  0.1181 -0.2792
    51IDQ   C18 7330   3.709   4.316   2.849  0.3087 -0.1328  0.2988
    4IDB    C19 7331   3.799   4.335   2.598 -0.2478  0.1632 -0.1615
    51IDQ   C20 7332   3.601   4.431   2.825 -0.3496 -0.1011  0.5439
    51IDQ   C21 7333   3.824   4.374   2.936 -0.6342 -0.7226 -0.0593
    51IDQ   C22 7334   3.969   4.344   2.906  0.2085  0.1492  0.8181
    51IDQ   C23 7335   3.452   4.406   2.859 -0.0233  0.5943  0.0793
    51IDQ   C24 7336   4.074   4.406   3.000 -0.3076 -0.0110 -0.6490
    51IDQ   C25 7337   4.221   4.358   2.974 -0.0124 -0.5302  0.2570
    51IDQ   C26 7338   4.323   4.423   3.066 -0.1583  0.0535  0.4160
    51IDQ   C27 7339   4.328   4.580   3.081 -0.2243  0.8484 -0.0885
    51IDQ   C28 7340   4.457   4.626   3.151  0.5014 -0.1542  0.0262
    51IDQ   C29 7341   4.445   4.769   3.198  0.0083 -0.0949 -0.3392
    51IDQ   C30 7342   3.357   4.336   2.756 -0.6929  0.6058 -0.3836
    51IDQ   C31 7343   3.207   4.331   2.793  0.7596 -0.6640 -0.3233
    51IDQ   C32 7344   3.123   4.249   2.697 -0.1216  0.0486  0.1233
    51IDQ   C33 7345   2.969   4.253   2.697 -0.7089 -0.2307 -0.4737
    51IDQ   C34 7346   2.903   4.165   2.598 -0.6823  0.2440 -0.1917
    51IDQ   C35 7347   2.766   4.208   2.575 -0.0535  0.3000 -0.6924
    4IDB    C36 7348   3.732   4.057   2.573  0.2154  0.0598 -0.2662
    4IDB    C37 7349   3.786   4.131   2.464  0.3991  0.1066 -0.1460
    11RH    C38 7350   3.345   3.604   4.082  0.4503  0.6064  0.1656
    4IDB    C39 7351   3.818   4.266   2.477  0.1707  0.1569 -0.0960
    62IDT   C40 7352   3.866   4.317   2.350 -0.3408  0.4748  0.0367
    72IDQ   C41 7353   3.825   4.081   2.321  0.2050 -0.6766  0.6638
    62IDT   C42 7354   3.856   4.219   2.253 -0.3330  0.3114  0.1994
    72IDQ   C43 7355   3.698   4.020   2.247 -0.1578 -0.4023  0.3022
    72IDQ   C44 7356   3.930   3.966   2.331 -0.1442  0.1489  0.1990
    62IDT    S5 7357   3.934   4.469   2.285 -0.0207  0.2578 -0.1395
    62IDT   C45 7358   3.946   4.389   2.122  0.1133 -0.0577  0.0240
    62IDT   C46 7359   3.901   4.260   2.124 -0.0764  0.0101  0.1924
    82BTZ   C47 7360   3.992   4.462   1.997  0.4912  0.1900  0.3281
    82BTZ   C48 7361   4.043   4.386   1.896  0.3725  0.1460  0.3015
    82BTZ   C49 7362   4.087   4.444   1.771  0.0399  0.0707  0.1462
    82BTZ   C50 7363   4.080   4.579   1.748 -0.1735  0.0392  0.0176
    82BTZ   C51 7364   3.983   4.604   1.978  0.2773  0.1595  0.1973
    82BTZ   C52 7365   4.028   4.663   1.852 -0.0607  0.0829  0.0393
    92RH    C53 7366   4.118   4.644   1.618  0.2265  0.0531 -0.0253
    82BTZ    N4 7367   3.935   4.689   2.069  0.3645  0.1966  0.2083
    82BTZ    N5 7368   4.016   4.796   1.841 -0.2452  0.0584 -0.0767
    82BTZ    S6 7369   3.946   4.852   1.996  0.0106  0.1340  0.0131
    92RH    C54 7370   4.160   4.595   1.501  0.2315  0.0485 -0.0217
    92RH     S7 7371   4.200   4.420   1.463  0.2691  0.0527 -0.0025
    92RH    C55 7372   4.182   4.679   1.381  0.2062  0.0391 -0.0329
    92RH     O2 7373   4.165   4.802   1.374  0.1782  0.0345 -0.0469
    92RH     N6 7374   4.227   4.602   1.272  0.2182  0.0361 -0.0259
    92RH    C56 7375   4.244   4.466   1.290  0.2496  0.0416 -0.0103
    92RH    C57 7376   4.254   4.665   1.139  0.3956 -0.8036 -0.2459
    92RH    C58 7377   4.136   4.703   1.050  0.1559 -0.3586 -0.7029
    92RH     S8 7378   4.295   4.352   1.177  0.2695  0.0399  0.0008
    72IDQ   C59 7379   4.082   3.999   2.310  0.3918  0.5866 -0.0586
    72IDQ   C60 7380   4.162   3.881   2.357  0.4287 -0.3413 -0.1084
    72IDQ   C61 7381   4.315   3.895   2.350  1.1052  1.0823 -0.1587
    72IDQ   C62 7382   4.371   3.913   2.217 -0.5988  0.2629 -0.5400
    72IDQ   C63 7383   4.518   3.958   2.232 -0.1874  0.0679 -0.3055
    72IDQ   C64 7384   4.587   4.000   2.100  0.1140 -0.0444  0.4229
    72IDQ   C65 7385   4.736   4.032   2.117  0.0538  0.0443 -0.2004
    72IDQ   C66 7386   3.711   3.957   2.107  0.3935  0.2775 -0.6260
    72IDQ   C67 7387   3.568   3.952   2.056 -0.1143  0.0701  0.2515
    72IDQ   C68 7388   3.550   3.928   1.912  0.4662  0.0239  0.7958
    72IDQ   C69 7389   3.410   3.944   1.855 -0.2639  0.0734  0.0115
    72IDQ   C70 7390   3.396   3.940   1.703 -0.3906 -0.6100 -0.2591
    72IDQ   C71 7391   3.488   4.036   1.621  0.4929  0.0765  0.2344
    72IDQ   C72 7392   3.451   4.061   1.473  0.1301  0.0310 -0.4689
    11RH     C1 7393   3.113   4.545   5.406  0.2096  0.0290  0.0702
    11RH     C2 7394   3.159   4.456   5.296  0.1447  0.0668  0.0132
    11RH     N1 7395   3.068   4.470   5.517  0.1135 -0.0092  0.0050
    11RH     S1 7396   3.138   4.281   5.345 -0.0386  0.0496 -0.1224
    11RH     C3 7397   3.071   4.332   5.509 -0.0204 -0.0066 -0.0974
    11RH     C4 7398   2.998   4.536   5.626  0.2955  0.2790  0.0128
    11RH     S2 7399   3.023   4.221   5.626 -0.1540 -0.0468 -0.1905
    11RH     O1 7400   3.114   4.669   5.404  0.3326  0.0299  0.1634
    11RH     C5 7401   3.207   4.502   5.180  0.2131  0.1068  0.0571
    21BTZ    C6 7402   3.256   4.446   5.058  0.0032  0.3152  0.0528
    21BTZ    C7 7403   3.266   4.311   5.038  0.1194  0.2959  0.2376
    21BTZ    C8 7404   3.290   4.534   4.950 -0.0417  0.1979 -0.0572
    21BTZ    C9 7405   3.309   4.255   4.912  0.1969  0.1609  0.3225
    21BTZ   C10 7406   3.342   4.335   4.806  0.1580  0.0455  0.2228
    21BTZ   C11 7407   3.334   4.477   4.822  0.0370  0.0607  0.0291
    21BTZ    N2 7408   3.285   4.667   4.957 -0.1532  0.2036 -0.2382
    21BTZ    N3 7409   3.363   4.566   4.726 -0.0112 -0.0437 -0.0824
    21BTZ    S3 7410   3.336   4.728   4.797 -0.1624  0.0305 -0.3074
    31IDT   C12 7411   3.390   4.262   4.683 -0.4713 -0.7318 -0.4500
    31IDT   C13 7412   3.418   4.129   4.667 -0.6043 -0.7138 -0.8568
    31IDT   C14 7413   3.458   4.097   4.534  0.0075 -0.2253 -0.8028
    31IDT   C15 7414   3.460   4.204   4.448  0.6095  0.1317 -0.3555
    31IDT    S4 7415   3.412   4.357   4.529  0.4468 -0.1257  0.0357
    4IDB    C16 7416   3.499   4.152   4.319 -0.2726 -0.5498  0.5326
    4IDB    C17 7417   3.530   4.012   4.326 -0.0678 -0.5288  0.0812
    51IDQ   C18 7418   3.498   3.963   4.473  0.6871  0.7539  0.5500
    4IDB    C19 7419   3.576   3.944   4.214  0.2451 -0.0511 -0.0855
    51IDQ   C20 7420   3.385   3.851   4.447  0.5901 -0.0527 -0.0701
    51IDQ   C21 7421   3.622   3.888   4.551  0.1554 -0.7259  0.3137
    51IDQ   C22 7422   3.763   3.878   4.496 -0.7058 -0.6980 -0.0046
    51IDQ   C23 7423   3.230   3.859   4.471  0.2660  0.1465 -0.2487
    51IDQ   C24 7424   3.861   3.836   4.603 -0.3461  0.0153 -0.1350
    51IDQ   C25 7425   4.000   3.817   4.545  0.4803  0.0904  0.1625
    51IDQ   C26 7426   4.117   3.785   4.638 -0.0869 -0.1156 -0.1843
    51IDQ   C27 7427   4.089   3.674   4.735  0.2986  0.7537 -0.3353
    51IDQ   C28 7428   4.203   3.638   4.825  0.0722  0.6190 -0.0900
    51IDQ   C29 7429   4.159   3.524   4.916  1.0422 -0.4476 -0.0431
    51IDQ   C30 7430   3.154   3.973   4.402 -1.2364  0.2761 -0.1057
    51IDQ   C31 7431   3.006   3.954   4.383  0.0610 -0.1807 -0.0834
    51IDQ   C32 7432   2.929   4.052   4.292  0.3867  0.3340 -0.0579
    51IDQ   C33 7433   2.784   4.007   4.292  0.2476 -0.0848 -0.1865
    51IDQ   C34 7434   2.683   4.109   4.231 -0.2709  0.1789 -0.1964
    51IDQ   C35 7435   2.551   4.036   4.230 -0.1419 -0.8508  0.0861
    4IDB    C36 7436   3.515   4.224   4.200 -0.1647 -0.0896  0.8215
    4IDB    C37 7437   3.563   4.153   4.087  0.1557  0.3951  0.6454
    11RH    C38 7438   3.089   4.575   5.739  0.1383 -0.2812 -0.2064
    4IDB    C39 7439   3.592   4.017   4.094  0.3529  0.4091  0.2035
    62IDT   C40 7440   3.632   3.964   3.965  0.0938  0.1371 -0.0443
    72IDQ   C41 7441   3.601   4.197   3.947  0.1660 -0.6685  0.0393
    62IDT   C42 7442   3.643   4.069   3.876 -0.1801  0.0691 -0.1621
    72IDQ   C43 7443   3.470   4.252   3.885  0.3373  0.1947  0.8379
    72IDQ   C44 7444   3.704   4.322   3.955 -0.6442  0.6239 -0.3414
    62IDT    S5 7445   3.683   3.808   3.892  0.3472  0.1619  0.0791
    62IDT   C45 7446   3.719   3.897   3.738  0.0550  0.0748 -0.0410
    62IDT   C46 7447   3.693   4.031   3.748 -0.2025  0.0337 -0.1604
    82BTZ   C47 7448   3.776   3.828   3.617  0.0153 -0.1949  0.0715
    82BTZ   C48 7449   3.828   3.906   3.518 -0.1348 -0.1165  0.0540
    82BTZ   C49 7450   3.869   3.851   3.392 -0.1711 -0.0418  0.0094
    82BTZ   C50 7451   3.859   3.717   3.364 -0.0572 -0.0458 -0.0176
    82BTZ   C51 7452   3.762   3.687   3.594  0.1387 -0.2023  0.0445
    82BTZ   C52 7453   3.804   3.631   3.465  0.1018 -0.1264 -0.0009
    92RH    C53 7454   3.887   3.653   3.234 -0.1730  0.0641  0.0507
    82BTZ    N4 7455   3.713   3.600   3.682  0.2893 -0.2752  0.0578
    82BTZ    N5 7456   3.789   3.499   3.450  0.2227 -0.1383 -0.0240
    82BTZ    S6 7457   3.718   3.440   3.604  0.3925 -0.2494  0.0119
    92RH    C54 7458   3.924   3.707   3.118 -0.1266  0.0305  0.0498
    92RH     S7 7459   3.943   3.886   3.081  0.0155  0.0139  0.0436
    92RH    C55 7460   3.956   3.628   2.997 -0.1854  0.0006  0.0538
    92RH     O2 7461   3.952   3.504   2.989 -0.2828  0.0030  0.0584
    92RH     N6 7462   3.992   3.710   2.889 -0.1168 -0.0318  0.0518
    92RH    C56 7463   3.993   3.847   2.908 -0.0099 -0.0317  0.0467
    92RH    C57 7464   4.033   3.649   2.757  0.2442 -0.2147  0.2093
    92RH    C58 7465   3.906   3.632   2.672 -0.3039  0.2454 -0.3457
    92RH     S8 7466   4.032   3.967   2.796  0.0881 -0.0665  0.0435
    72IDQ   C59 7467   3.848   4.285   3.998 -0.2329 -0.0289 -0.3932
    72IDQ   C60 7468   3.955   4.392   4.006 -0.0729 -0.1123 -0.6600
    72IDQ   C61 7469   4.104   4.344   4.011 -0.0512 -0.1568 -0.0923
    72IDQ   C62 7470   4.155   4.301   3.875  0.8681 -0.2955 -0.2188
    72IDQ   C63 7471   4.305   4.293   3.867 -0.6337  0.0165  0.1176
    72IDQ   C64 7472   4.356   4.252   3.730  0.0424  0.4011  0.5081
    72IDQ   C65 7473   4.501   4.211   3.720 -0.1330  0.2687 -0.4420
    72IDQ   C66 7474   3.462   4.284   3.732  0.2845  0.3571  0.1376
    72IDQ   C67 7475   3.557   4.379   3.664 -0.3462 -0.1452 -0.3943
    72IDQ   C68 7476   3.518   4.381   3.512 -0.1237 -0.1171  0.3223
    72IDQ   C69 7477   3.620   4.467   3.437  0.5721  0.5748  0.1198
    72IDQ   C70 7478   3.772   4.419   3.434 -0.0423 -0.2793  0.2752
    72IDQ   C71 7479   3.799   4.307   3.338 -1.1331  0.3791  0.0108
    72IDQ   C72 7480   3.924   4.218   3.378 -0.1395  0.1657 -0.1416
    11RH     C1 7481   3.283   3.876   2.781  0.0495 -0.0702 -0.0661
    11RH     C2 7482   3.243   3.789   2.894  0.0388  0.0256  0.0045
    11RH     N1 7483   3.328   3.801   2.671  0.1832 -0.1598  0.0489
    11RH     S1 7484   3.267   3.613   2.848  0.2050 -0.0084  0.2173
    11RH     C3 7485   3.329   3.663   2.682  0.2807 -0.1476  0.2029
    11RH     C4 7486   3.370   3.870   2.553 -0.3759  0.3297  0.6360
    11RH     S2 7487   3.377   3.551   2.566  0.4461 -0.2410  0.3611
    11RH     O1 7488   3.278   4.000   2.781 -0.0449 -0.0734 -0.2076
    11RH     C5 7489   3.197   3.835   3.011 -0.0767  0.1210 -0.0788
    21BTZ    C6 7490   3.149   3.771   3.135 -0.1899 -0.2124 -0.0088
    21BTZ    C7 7491   3.136   3.634   3.143 -0.0839 -0.2218 -0.0023
    21BTZ    C8 7492   3.127   3.849   3.253 -0.2146 -0.2264 -0.0041
    21BTZ    C9 7493   3.102   3.569   3.266  0.0024 -0.2456  0.0092
    21BTZ   C10 7494   3.081   3.639   3.382 -0.0172 -0.2597  0.0141
    21BTZ   C11 7495   3.093   3.782   3.379 -0.1268 -0.2505  0.0075
    21BTZ    N2 7496   3.137   3.982   3.258 -0.3145 -0.2190 -0.0096
    21BTZ    N3 7497   3.074   3.861   3.485 -0.1563 -0.2625  0.0114
    21BTZ    S3 7498   3.101   4.028   3.427 -0.3004 -0.2430 -0.0000
    31IDT   C12 7499   3.042   3.563   3.513  0.1076 -1.0431  0.3937
    31IDT   C13 7500   3.020   3.428   3.519 -0.7068 -0.8957  0.9546
    31IDT   C14 7501   2.971   3.385   3.646 -1.1784 -0.0487  1.0682
    31IDT   C15 7502   2.955   3.488   3.738 -0.7279  0.4542  0.5962
    31IDT    S4 7503   3.003   3.647   3.669  0.3385 -0.1113 -0.0351
    4IDB    C16 7504   2.886   3.444   3.851  0.0458  0.1519  0.4279
    4IDB    C17 7505   2.861   3.304   3.840  0.1135  0.1532  0.2531
    51IDQ   C18 7506   2.917   3.256   3.704  1.3241 -0.4615  0.0115
    4IDB    C19 7507   2.801   3.233   3.944  0.2374 -0.0248  0.2038
    51IDQ   C20 7508   3.019   3.143   3.720 -0.6601 -0.5646 -0.6100
    51IDQ   C21 7509   2.808   3.204   3.605  0.2307 -0.0474 -0.0426
    51IDQ   C22 7510   2.657   3.198   3.636 -0.1472 -0.7128  0.2599
    51IDQ   C23 7511   3.170   3.159   3.711 -0.1256 -0.2274 -0.0026
    51IDQ   C24 7512   2.580   3.106   3.552 -0.8101  0.4702  0.0481
    51IDQ   C25 7513   2.434   3.108   3.594  0.0621 -0.3568  0.2058
    51IDQ   C26 7514   2.343   3.043   3.496  0.0220 -0.0420 -0.0806
    51IDQ   C27 7515   2.341   3.107   3.351 -0.1031 -0.4804 -0.1758
    51IDQ   C28 7516   2.243   3.058   3.252  0.0334  0.0837 -0.0839
    51IDQ   C29 7517   2.234   3.138   3.124  0.7644  0.3605 -0.3393
    51IDQ   C30 7518   3.240   3.211   3.835  0.4687 -0.0775  0.1374
    51IDQ   C31 7519   3.392   3.211   3.816  0.0894 -0.0010 -1.0966
    51IDQ   C32 7520   3.464   3.265   3.938 -0.7524  0.1681  0.4335
    51IDQ   C33 7521   3.613   3.237   3.900 -0.0023 -0.7843  0.2079
    51IDQ   C34 7522   3.689   3.316   3.998 -0.2506  0.0018 -0.0547
    51IDQ   C35 7523   3.837   3.298   3.980  0.1407  0.1229  0.3960
    4IDB    C36 7524   2.851   3.515   3.967  0.1020 -0.0286  0.5550
    4IDB    C37 7525   2.791   3.441   4.073  0.2287 -0.2090  0.5022
    11RH    C38 7526   3.274   3.873   2.437  0.0304 -0.0117 -0.2425
    4IDB    C39 7527   2.767   3.304   4.060  0.2936 -0.2053  0.3311
    62IDT   C40 7528   2.733   3.249   4.189 -0.1778 -0.1377  0.1775
    72IDQ   C41 7529   2.758   3.489   4.215  0.0230 -0.2646  0.0922
    62IDT   C42 7530   2.737   3.351   4.282 -0.3506 -0.1380  0.1849
    72IDQ   C43 7531   2.882   3.569   4.272  0.1945 -0.1694 -0.3816
    72IDQ   C44 7532   2.647   3.596   4.214  0.3771 -0.3970 -0.1841
    62IDT    S5 7533   2.699   3.090   4.266 -0.0351 -0.1822  0.1497
    62IDT   C45 7534   2.691   3.174   4.427 -0.2258 -0.1998  0.1495
    62IDT   C46 7535   2.713   3.309   4.417 -0.3779 -0.1731  0.1689
    82BTZ   C47 7536   2.646   3.100   4.554 -0.4217 -0.1365 -0.0350
    82BTZ   C48 7537   2.596   3.175   4.657 -0.4420 -0.1047 -0.0679
    82BTZ   C49 7538   2.557   3.116   4.782 -0.3821 -0.0537 -0.0253
    82BTZ   C50 7539   2.568   2.981   4.805 -0.3019 -0.0348  0.0504
    82BTZ   C51 7540   2.659   2.958   4.572 -0.3387 -0.1185  0.0443
    82BTZ   C52 7541   2.620   2.898   4.700 -0.2778 -0.0666  0.0877
    92RH    C53 7542   2.533   2.920   4.933  0.0069  0.2675 -0.1527
    82BTZ    N4 7543   2.706   2.874   4.480 -0.3115 -0.1459  0.0829
    82BTZ    N5 7544   2.635   2.766   4.710 -0.2016 -0.0524  0.1611
    82BTZ    S6 7545   2.702   2.711   4.553 -0.2048 -0.1058  0.1782
    92RH    C54 7546   2.490   2.958   5.054 -0.1557  0.1649 -0.1786
    92RH     S7 7547   2.442   3.127   5.105 -0.1631  0.1330 -0.0803
    92RH    C55 7548   2.473   2.864   5.168 -0.3617  0.0579 -0.2952
    92RH     O2 7549   2.497   2.743   5.165 -0.4075  0.0507 -0.3809
    92RH     N6 7550   2.426   2.931   5.283 -0.5044 -0.0375 -0.2981
    92RH    C56 7551   2.403   3.067   5.275 -0.4379 -0.0201 -0.1979
    92RH    C57 7552   2.415   2.862   5.414  0.3913  0.2018  0.1864
    92RH    C58 7553   2.546   2.872   5.495 -0.1852  0.2298  0.2774
    92RH     S8 7554   2.347   3.169   5.397 -0.5759 -0.1186 -0.1782
    72IDQ   C59 7555   2.499   3.554   4.204  0.2801  0.3013  0.5395
    72IDQ   C60 7556   2.411   3.675   4.200 -0.1856  0.1023 -0.0542
    72IDQ   C61 7557   2.268   3.645   4.222  0.4079 -0.2070 -0.5408
    72IDQ   C62 7558   2.218   3.560   4.343 -0.2317  0.0421  0.3106
    72IDQ   C63 7559   2.071   3.517   4.325  0.2857 -0.3176 -0.2578
    72IDQ   C64 7560   2.010   3.478   4.457  0.6031 -0.1320  0.3492
    72IDQ   C65 7561   1.900   3.381   4.426  0.6850  0.0207  0.1983
    72IDQ   C66 7562   2.913   3.577   4.424 -0.0149 -0.0845  0.0034
    72IDQ   C67 7563   2.822   3.670   4.511 -0.3614  0.2726  0.9302
    72IDQ   C68 7564   2.891   3.666   4.650 -0.0103 -0.0981 -0.0515
    72IDQ   C69 7565   2.853   3.791   4.729  0.1257 -0.1415  0.1682
    72IDQ   C70 7566   2.928   3.789   4.863 -0.1036 -0.2833 -0.4266
    72IDQ   C71 7567   3.076   3.831   4.860  0.8170  0.4837 -0.5379
    72IDQ   C72 7568   3.106   3.976   4.833 -0.1193 -0.0672 -0.2948
    11RH     C1 7569   3.077   2.953   4.453  0.0817  0.0460 -0.0210
    11RH     C2 7570   3.037   3.042   4.565  0.0395  0.1022 -0.0806
    11RH     N1 7571   3.117   3.028   4.340  0.0362 -0.0114 -0.0747
    11RH     S1 7572   3.053   3.217   4.514 -0.0569  0.0759 -0.2035
    11RH     C3 7573   3.113   3.165   4.347 -0.0371 -0.0082 -0.1699
    11RH     C4 7574   3.164   2.961   4.216 -0.4604  0.5962 -0.5141
    11RH     S2 7575   3.154   3.276   4.227 -0.1024 -0.0690 -0.2491
    11RH     O1 7576   3.077   2.829   4.456  0.1482  0.0478  0.0654
    11RH     C5 7577   2.995   2.997   4.683  0.0695  0.1623 -0.0470
    21BTZ    C6 7578   2.946   3.062   4.806  0.3603  0.4684  0.2062
    21BTZ    C7 7579   2.932   3.197   4.826  0.3447  0.4500  0.3217
    21BTZ    C8 7580   2.915   2.973   4.914  0.3194  0.3691  0.1123
    21BTZ    C9 7581   2.885   3.251   4.952  0.2885  0.3337  0.3510
    21BTZ   C10 7582   2.854   3.170   5.057  0.2480  0.2362  0.2645
    21BTZ   C11 7583   2.868   3.028   5.042  0.2623  0.2509  0.1420
    21BTZ    N2 7584   2.925   2.840   4.907  0.3296  0.3757 -0.0037
    21BTZ    N3 7585   2.841   2.939   5.137  0.2265  0.1627  0.0498
    21BTZ    S3 7586   2.874   2.778   5.067  0.2652  0.2283 -0.0815
    31IDT   C12 7587   2.809   3.240   5.180 -0.4399 -0.1159 -0.0768
    31IDT   C13 7588   2.766   3.370   5.189 -0.4584 -0.1201 -0.1037
    31IDT   C14 7589   2.709   3.401   5.317 -0.3638 -0.0718 -0.0731
    31IDT   C15 7590   2.708   3.296   5.405 -0.2730 -0.0305 -0.0226
    31IDT    S4 7591   2.780   3.147   5.334 -0.3003 -0.0497 -0.0102
    4IDB    C16 7592   2.648   3.336   5.531  0.3353  0.7412 -0.1223
    4IDB    C17 7593   2.617   3.475   5.519  0.3580  0.7508 -0.0724
    51IDQ   C18 7594   2.664   3.528   5.384  0.3474  0.0614 -0.0049
    4IDB    C19 7595   2.560   3.545   5.625 -0.0376  0.6158 -0.1897
    51IDQ   C20 7596   2.761   3.643   5.422 -0.3341  0.7301  0.2878
    51IDQ   C21 7597   2.559   3.592   5.295 -0.1985 -0.7313 -0.0909
    51IDQ   C22 7598   2.411   3.625   5.330 -0.1182  0.0354 -0.2676
    51IDQ   C23 7599   2.913   3.624   5.410  0.5576 -0.6417 -0.2917
    51IDQ   C24 7600   2.337   3.710   5.231 -0.2117  0.1014  0.5416
    51IDQ   C25 7601   2.216   3.783   5.280 -0.2024  0.1513  0.1827
    51IDQ   C26 7602   2.141   3.863   5.170  0.4171  0.2049 -0.0070
    51IDQ   C27 7603   2.206   3.982   5.099  0.5396  0.2823  0.4880
    51IDQ   C28 7604   2.121   4.021   4.973 -0.0259  0.0358 -0.5602
    51IDQ   C29 7605   2.100   3.912   4.870 -0.2141  0.6171 -0.2293
    51IDQ   C30 7606   2.969   3.514   5.496  0.2946 -0.1380  0.1157
    51IDQ   C31 7607   3.117   3.541   5.517 -0.4509 -0.1366  0.5111
    51IDQ   C32 7608   3.186   3.444   5.614 -0.6087  0.0012 -0.6293
    51IDQ   C33 7609   3.333   3.467   5.667 -0.4670  0.4972  0.8544
    51IDQ   C34 7610   3.441   3.500   5.562  0.1050  0.5521 -1.1801
    51IDQ   C35 7611   3.572   3.553   5.614 -0.8248  0.3970  0.7681
    4IDB    C36 7612   2.624   3.266   5.650 -0.0864  0.5954 -0.2911
    4IDB    C37 7613   2.566   3.339   5.757 -0.4873  0.4585 -0.4094
    11RH    C38 7614   3.061   2.927   4.105  0.7084 -0.1486 -0.1414
    4IDB    C39 7615   2.536   3.475   5.744 -0.4594  0.4700 -0.3583
    62IDT   C40 7616   2.493   3.522   5.870  0.0470  0.3300 -0.2562
    72IDQ   C41 7617   2.526   3.286   5.902  0.1740 -0.0802  0.5428
    62IDT   C42 7618   2.501   3.423   5.966  0.0920  0.2607 -0.3313
    72IDQ   C43 7619   2.627   3.197   5.983  0.1283 -0.6831 -1.1993
    72IDQ   C44 7620   2.386   3.225   5.910  0.0399 -0.5761  0.3038
    62IDT    S5 7621   2.454   3.682   5.942  0.0346  0.2693 -0.1278
    62IDT   C45 7622   2.449   3.603   6.106  0.0939  0.1478 -0.1850
    62IDT   C46 7623   2.476   3.468   6.099  0.1186  0.1577 -0.2911
    82BTZ   C47 7624   2.400   3.682   6.222 -0.2973  0.2114 -0.2389
    82BTZ   C48 7625   2.340   3.615   6.325 -0.1360  0.0645 -0.2412
    82BTZ   C49 7626   2.301   3.681   6.447  0.0633 -0.1102 -0.0793
    82BTZ   C50 7627   2.321   3.816   6.465  0.1009 -0.1377  0.0844
    82BTZ   C51 7628   2.423   3.823   6.236 -0.2656  0.1894 -0.0709
    82BTZ   C52 7629   2.383   3.891   6.360 -0.0631  0.0119  0.0936
    92RH    C53 7630   2.298   3.887   6.589 -0.1441  0.2095  0.0190
    82BTZ    N4 7631   2.480   3.899   6.143 -0.4107  0.3223 -0.0517
    82BTZ    N5 7632   2.409   4.022   6.366 -0.0453  0.0019  0.2450
    82BTZ    S6 7633   2.486   4.065   6.211 -0.2920  0.2239  0.1823
    92RH    C54 7634   2.253   3.853   6.710 -0.1290  0.1488  0.0076
    92RH     S7 7635   2.201   3.686   6.765  0.0710  0.0807 -0.0086
    92RH    C55 7636   2.238   3.949   6.822 -0.2778  0.1268  0.0063
    92RH     O2 7637   2.264   4.070   6.817 -0.4308  0.1613  0.0154
    92RH     N6 7638   2.188   3.886   6.938 -0.2245  0.0605 -0.0069
    92RH    C56 7639   2.161   3.751   6.933 -0.0513  0.0266 -0.0162
    92RH    C57 7640   2.186   3.968   7.066 -0.4892  0.3975 -0.8910
    92RH    C58 7641   2.300   3.935   7.169 -0.5028  0.4948 -0.4730
    92RH     S8 7642   2.102   3.653   7.056  0.0451 -0.0523 -0.0325
    72IDQ   C59 7643   2.322   3.159   5.786 -0.5477 -0.3372  0.3407
    72IDQ   C60 7644   2.179   3.104   5.811 -0.5355 -0.0859  0.3327
    72IDQ   C61 7645   2.081   3.186   5.893 -0.0379  0.0832 -0.1351
    72IDQ   C62 7646   1.938   3.122   5.905 -0.1280  0.3553  0.3826
    72IDQ   C63 7647   1.834   3.196   5.986  0.2260  0.5490  0.0993
    72IDQ   C64 7648   1.808   3.341   5.957  0.3715 -0.2589  0.8179
    72IDQ   C65 7649   1.703   3.387   6.052 -0.2320 -0.6558 -0.2490
    72IDQ   C66 7650   2.772   3.257   5.999  0.0739 -0.3165 -0.0548
    72IDQ   C67 7651   2.831   3.235   6.140  0.9799  0.2439  0.5602
    72IDQ   C68 7652   2.761   3.281   6.265  1.0191  0.2565  0.0886
    72IDQ   C69 7653   2.830   3.225   6.387 -0.0226  0.0404 -0.1440
    72IDQ   C70 7654   2.779   3.279   6.513  0.6631  0.0006 -0.2477
    72IDQ   C71 7655   2.840   3.236   6.645 -0.4451 -0.7600  0.7860
    72IDQ   C72 7656   2.994   3.257   6.670 -0.4678 -0.0926  0.4325
    11RH     C1 7657   3.786   3.691   0.484 -0.1961 -0.0190 -0.0237
    11RH     C2 7658   3.837   3.772   0.371 -0.0554 -0.0333  0.0283
    11RH     N1 7659   3.761   3.771   0.598 -0.0703 -0.0469  0.0233
    11RH     S1 7660   3.849   3.948   0.421  0.2329 -0.0827  0.1357
    11RH     C3 7661   3.786   3.906   0.590  0.1538 -0.0820  0.1066
    11RH     C4 7662   3.717   3.707   0.727  0.2836  0.0372 -0.2855
    11RH     S2 7663   3.766   4.022   0.710  0.3395 -0.1202  0.1760
    11RH     O1 7664   3.767   3.568   0.482 -0.3987  0.0134 -0.0991
    11RH     C5 7665   3.868   3.721   0.251 -0.1337 -0.0124 -0.0011
    21BTZ    C6 7666   3.919   3.787   0.123  0.3378 -0.0595  0.0775
    21BTZ    C7 7667   3.941   3.922   0.112  0.3987 -0.0645  0.1441
    21BTZ    C8 7668   3.934   3.706   0.006  0.1942  0.0067  0.0116
    21BTZ    C9 7669   3.980   3.983  -0.012  0.3220 -0.0051  0.1494
    21BTZ   C10 7670   3.996   3.910  -0.127  0.1845  0.0593  0.0878
    21BTZ   C11 7671   3.974   3.768  -0.121  0.1162  0.0671  0.0169
    21BTZ    N2 7672   3.915   3.574   0.003  0.1234  0.0181 -0.0563
    21BTZ    N3 7673   3.986   3.686  -0.226 -0.0172  0.1270 -0.0468
    21BTZ    S3 7674   3.948   3.522  -0.165 -0.0495  0.1084 -0.1178
    31IDT   C12 7675   4.051   3.976  -0.250  0.1056 -0.0031  0.2194
    31IDT   C13 7676   4.071   4.111  -0.259  0.2835 -0.0138  0.4387
    31IDT   C14 7677   4.112   4.153  -0.390  0.2300  0.1575  0.4758
    31IDT   C15 7678   4.123   4.050  -0.481  0.0115  0.2998  0.2859
    31IDT    S4 7679   4.083   3.891  -0.408 -0.1449  0.2269  0.0428
    4IDB    C16 7680   4.173   4.092  -0.608 -0.0540 -0.1514  0.1470
    4IDB    C17 7681   4.185   4.234  -0.603  0.2862 -0.1849  0.3393
    51IDQ   C18 7682   4.148   4.288  -0.459 -0.4210  0.3868  0.6936
    4IDB    C19 7683   4.233   4.306  -0.712  0.2635 -0.1357  0.3613
    51IDQ   C20 7684   4.030   4.381  -0.484 -0.6671 -0.3677  0.0836
    51IDQ   C21 7685   4.255   4.358  -0.371 -0.0314  0.2486 -0.6364
    51IDQ   C22 7686   4.403   4.341  -0.406  0.2587  0.1108  0.0831
    51IDQ   C23 7687   3.885   4.350  -0.456  0.2292 -0.4092 -0.0447
    51IDQ   C24 7688   4.488   4.366  -0.286 -0.7593  0.0177  0.0430
    51IDQ   C25 7689   4.476   4.493  -0.197  0.6543 -0.1036  0.3525
    51IDQ   C26 7690   4.541   4.613  -0.257 -0.7151 -0.2944  0.4784
    51IDQ   C27 7691   4.539   4.735  -0.165  0.4642  0.3713 -0.4908
    51IDQ   C28 7692   4.414   4.775  -0.088 -0.4908  0.0367  0.0729
    51IDQ   C29 7693   4.447   4.880   0.016  0.1562 -0.0187  0.0388
    51IDQ   C30 7694   3.792   4.342  -0.576 -0.0097  0.0924  0.5592
    51IDQ   C31 7695   3.646   4.327  -0.532 -0.0889  0.6995 -0.7107
    51IDQ   C32 7696   3.545   4.302  -0.640 -0.5804  0.1248  0.2861
    51IDQ   C33 7697   3.402   4.307  -0.583 -0.0833  0.3768  0.2269
    51IDQ   C34 7698   3.300   4.243  -0.680  0.1824  0.3972 -0.2176
    51IDQ   C35 7699   3.154   4.277  -0.649 -0.1154  0.5478  0.2118
    4IDB    C36 7700   4.209   4.020  -0.722 -0.4212 -0.0681 -0.0252
    4IDB    C37 7701   4.259   4.095  -0.833 -0.4387 -0.0186  0.0005
    11RH    C38 7702   3.821   3.659   0.823 -0.0298  0.3644 -0.2487
    4IDB    C39 7703   4.270   4.234  -0.826 -0.1036 -0.0521  0.1892
    62IDT   C40 7704   4.316   4.286  -0.955  0.0881  0.0444  0.1251
    72IDQ   C41 7705   4.309   4.040  -0.965 -0.1834  0.1865 -0.1688
    62IDT   C42 7706   4.336   4.179  -1.040 -0.1209  0.2241 -0.1550
    72IDQ   C43 7707   4.195   3.953  -1.036 -0.3345  0.1552 -0.0442
    72IDQ   C44 7708   4.424   3.936  -0.932 -0.3400  0.0046 -0.0371
    62IDT    S5 7709   4.362   4.441  -1.033 -0.2529  0.2262  0.2865
    62IDT   C45 7710   4.407   4.349  -1.182 -0.6811  0.5512 -0.0496
    62IDT   C46 7711   4.388   4.214  -1.168 -0.5561  0.5108 -0.2543
    82BTZ   C47 7712   4.465   4.413  -1.309  0.2698  0.0708  0.0303
    82BTZ   C48 7713   4.498   4.334  -1.416  0.1832  0.0681  0.0056
    82BTZ   C49 7714   4.528   4.390  -1.546 -0.0010  0.0598 -0.0417
    82BTZ   C50 7715   4.526   4.526  -1.568 -0.0984  0.0542 -0.0644
    82BTZ   C51 7716   4.461   4.556  -1.327  0.1735  0.0651  0.0082
    82BTZ   C52 7717   4.492   4.613  -1.459 -0.0138  0.0567 -0.0401
    92RH    C53 7718   4.550   4.588  -1.696  0.4359 -0.2270  0.2132
    82BTZ    N4 7719   4.430   4.643  -1.231  0.2432  0.0671  0.0286
    82BTZ    N5 7720   4.486   4.746  -1.468 -0.0946  0.0521 -0.0582
    82BTZ    S6 7721   4.440   4.805  -1.306  0.0686  0.0583 -0.0136
    92RH    C54 7722   4.581   4.535  -1.815  0.2278 -0.1314  0.1150
    92RH     S7 7723   4.626   4.360  -1.849 -0.2299 -0.1960 -0.1700
    92RH    C55 7724   4.584   4.612  -1.941  0.3417  0.0476  0.2271
    92RH     O2 7725   4.559   4.733  -1.952  0.6368  0.1287  0.4208
    92RH     N6 7726   4.620   4.531  -2.051  0.0693  0.1178  0.0848
    92RH    C56 7727   4.646   4.398  -2.028 -0.2487  0.0166 -0.1274
    92RH    C57 7728   4.619   4.586  -2.187 -0.2477  0.6047  0.2400
    92RH    C58 7729   4.482   4.579  -2.256 -0.1054 -0.1823  0.0513
    92RH     S8 7730   4.690   4.281  -2.141 -0.6129  0.0690 -0.3281
    72IDQ   C59 7731   4.567   3.979  -0.954 -0.3236  0.3223 -0.6665
    72IDQ   C60 7732   4.667   3.877  -0.897  0.5288 -0.3196 -0.1577
    72IDQ   C61 7733   4.814   3.921  -0.897 -0.6224  0.1591  0.3151
    72IDQ   C62 7734   4.869   3.971  -1.031 -0.0563  0.1306 -0.2491
    72IDQ   C63 7735   5.023   3.988  -1.036  0.2642 -0.3184  0.5523
    72IDQ   C64 7736   5.069   4.042  -1.166 -0.6577  0.2716  0.1036
    72IDQ   C65 7737   5.214   4.022  -1.191 -0.1770 -0.0548 -0.1883
    72IDQ   C66 7738   4.218   3.890  -1.166  0.6479 -0.0653 -0.3664
    72IDQ   C67 7739   4.095   3.825  -1.228  0.2600  0.9005 -0.0217
    72IDQ   C68 7740   4.101   3.749  -1.360 -0.0529 -0.4825  0.4785
    72IDQ   C69 7741   4.171   3.618  -1.369  0.1237 -0.3277 -0.0392
    72IDQ   C70 7742   4.207   3.554  -1.501  0.6874  0.1402 -0.1871
    72IDQ   C71 7743   4.285   3.628  -1.611  0.0845 -0.1767 -0.2564
    72IDQ   C72 7744   4.342   3.543  -1.727 -0.2107  0.5820 -0.7745
    11RH     C1 7745   3.517   0.018   2.124 -0.1427  0.0105 -0.0923
    11RH     C2 7746   3.568  -0.075   2.020 -0.0224 -0.0489  0.0197
    11RH     N1 7747   3.485  -0.051   2.243 -0.3729  0.0640 -0.1218
    11RH     S1 7748   3.572  -0.246   2.086 -0.2197 -0.0302  0.0787
    11RH     C3 7749   3.505  -0.187   2.248 -0.4516  0.0550 -0.0474
    11RH     C4 7750   3.440   0.023   2.362 -0.3572  0.6103 -0.1030
    11RH     S2 7751   3.475  -0.291   2.377 -0.7164  0.1103 -0.0622
    11RH     O1 7752   3.503   0.141   2.111 -0.0566  0.0141 -0.1540
    11RH     C5 7753   3.606  -0.035   1.898  0.1972 -0.1061  0.0674
    21BTZ    C6 7754   3.647  -0.102   1.781 -0.5653 -0.0183 -0.3678
    21BTZ    C7 7755   3.670  -0.236   1.768 -0.5212 -0.0198 -0.2783
    21BTZ    C8 7756   3.671  -0.017   1.668 -0.2775 -0.0434 -0.3269
    21BTZ    C9 7757   3.717  -0.294   1.644 -0.1944 -0.0454 -0.1448
    21BTZ   C10 7758   3.741  -0.217   1.534  0.0879 -0.0698 -0.1012
    21BTZ   C11 7759   3.719  -0.076   1.542  0.0547 -0.0695 -0.1913
    21BTZ    N2 7760   3.653   0.115   1.668 -0.2885 -0.0447 -0.4050
    21BTZ    N3 7761   3.739   0.009   1.441  0.3108 -0.0918 -0.1604
    21BTZ    S3 7762   3.697   0.172   1.504  0.1343 -0.0802 -0.3065
    31IDT   C12 7763   3.780  -0.287   1.410  0.1135  0.1894  0.0198
    31IDT   C13 7764   3.808  -0.420   1.401 -0.0699  0.1525 -0.0117
    31IDT   C14 7765   3.862  -0.457   1.274 -0.3171  0.0708 -0.0943
    31IDT   C15 7766   3.875  -0.352   1.186 -0.3237  0.0449 -0.1261
    31IDT    S4 7767   3.820  -0.197   1.257 -0.0147  0.1228 -0.0534
    4IDB    C16 7768   3.933  -0.400   1.063 -0.2723  0.2387 -0.1133
    4IDB    C17 7769   3.965  -0.538   1.075  0.1298  0.3498  0.0950
    51IDQ   C18 7770   3.918  -0.588   1.216 -0.1658  0.1429 -0.0161
    4IDB    C19 7771   4.023  -0.607   0.970  0.3166  0.3544  0.1937
    51IDQ   C20 7772   3.812  -0.703   1.197  0.7919 -0.1682  1.3906
    51IDQ   C21 7773   4.037  -0.639   1.304 -0.0369  0.1034 -0.2049
    51IDQ   C22 7774   4.185  -0.641   1.264  0.0747  0.4153  0.3518
    51IDQ   C23 7775   3.660  -0.684   1.183 -0.3746 -0.0044 -0.3342
    51IDQ   C24 7776   4.278  -0.685   1.374  0.1891  0.2289 -0.8671
    51IDQ   C25 7777   4.427  -0.686   1.335  0.2719  0.3904 -0.2757
    51IDQ   C26 7778   4.525  -0.737   1.445 -0.5097  0.1905 -0.4033
    51IDQ   C27 7779   4.528  -0.887   1.460 -0.2800 -0.0357  0.1817
    51IDQ   C28 7780   4.584  -0.951   1.584  0.1592  0.9094  0.6240
    51IDQ   C29 7781   4.602  -1.102   1.551 -0.3950  0.0195  0.2377
    51IDQ   C30 7782   3.608  -0.596   1.068  0.2867  1.1111  0.3294
    51IDQ   C31 7783   3.459  -0.620   1.061  0.3919 -0.2967  0.2477
    51IDQ   C32 7784   3.385  -0.499   0.995 -0.7093  0.2150  1.0824
    51IDQ   C33 7785   3.238  -0.517   0.983  0.1531  0.0815 -0.4529
    51IDQ   C34 7786   3.166  -0.385   0.947  0.4236 -0.0257 -0.2711
    51IDQ   C35 7787   3.024  -0.399   0.907  0.5895  0.8679  0.2271
    4IDB    C36 7788   3.958  -0.329   0.944 -0.4916  0.1312 -0.2246
    4IDB    C37 7789   4.017  -0.402   0.837 -0.2960  0.1379 -0.1213
    11RH    C38 7790   3.558   0.070   2.446  0.2640 -1.1898 -0.2043
    4IDB    C39 7791   4.049  -0.537   0.851  0.0974  0.2468  0.0823
    62IDT   C40 7792   4.095  -0.584   0.726 -0.2372  0.4295 -0.3372
    72IDQ   C41 7793   4.074  -0.349   0.705 -0.5716 -0.2679  0.4275
    62IDT   C42 7794   4.100  -0.482   0.633  0.2257  0.3649 -0.3906
    72IDQ   C43 7795   3.961  -0.268   0.631 -0.4884 -0.7769 -0.0660
    72IDQ   C44 7796   4.196  -0.244   0.741  0.1368 -0.6386 -0.1207
    62IDT    S5 7797   4.131  -0.744   0.651 -0.2726  0.3205 -0.1223
    62IDT   C45 7798   4.152  -0.660   0.491  0.3718  0.1869 -0.1156
    62IDT   C46 7799   4.132  -0.525   0.501  0.5705  0.2276 -0.2654
    82BTZ   C47 7800   4.191  -0.727   0.369  0.2503  0.0148 -0.1520
    82BTZ   C48 7801   4.237  -0.644   0.270  0.2291 -0.0311 -0.2005
    82BTZ   C49 7802   4.269  -0.694   0.138  0.0803 -0.0697 -0.2217
    82BTZ   C50 7803   4.254  -0.826   0.106 -0.0467 -0.0626 -0.1944
    82BTZ   C51 7804   4.174  -0.866   0.340  0.1210  0.0242 -0.1219
    82BTZ   C52 7805   4.206  -0.917   0.206 -0.0302 -0.0151 -0.1435
    92RH    C53 7806   4.284  -0.877  -0.027  0.0529  0.2447 -0.0208
    82BTZ    N4 7807   4.130  -0.957   0.428  0.1276  0.0672 -0.0743
    82BTZ    N5 7808   4.187  -1.047   0.186 -0.1451 -0.0037 -0.1132
    82BTZ    S6 7809   4.127  -1.113   0.341 -0.0635  0.0592 -0.0546
    92RH    C54 7810   4.336  -0.825  -0.139  0.0196  0.1633 -0.0741
    92RH     S7 7811   4.393  -0.652  -0.164 -0.0279  0.1563 -0.2307
    92RH    C55 7812   4.357  -0.903  -0.263  0.0162  0.0627 -0.0120
    92RH     O2 7813   4.329  -1.023  -0.279  0.0432  0.0423  0.0942
    92RH     N6 7814   4.413  -0.823  -0.365 -0.0221 -0.0095 -0.0900
    92RH    C56 7815   4.441  -0.691  -0.338 -0.0499  0.0210 -0.2066
    92RH    C57 7816   4.442  -0.884  -0.494  0.4087  0.2171 -0.0719
    92RH    C58 7817   4.328  -0.872  -0.605 -0.2061  0.7205 -0.3228
    92RH     S8 7818   4.508  -0.576  -0.441 -0.0973 -0.0496 -0.3165
    72IDQ   C59 7819   4.338  -0.294   0.719  0.1561 -0.5127  0.5704
    72IDQ   C60 7820   4.451  -0.195   0.749 -0.3460 -0.2973  0.1885
    72IDQ   C61 7821   4.592  -0.232   0.708  0.1230  0.6766 -0.0172
    72IDQ   C62 7822   4.624  -0.269   0.564  0.6036  0.1537  0.0683
    72IDQ   C63 7823   4.760  -0.321   0.562  0.6743  0.4064  0.3122
    72IDQ   C64 7824   4.813  -0.363   0.428  0.1190  0.3727  0.3528
    72IDQ   C65 7825   4.954  -0.403   0.439  0.2221 -0.1703  0.6172
    72IDQ   C66 7826   3.986  -0.224   0.489  0.0594 -0.3625 -0.4683
    72IDQ   C67 7827   3.852  -0.208   0.424 -0.5647  0.1206  0.3980
    72IDQ   C68 7828   3.866  -0.201   0.272 -0.2802  0.1246  0.0937
    72IDQ   C69 7829   3.731  -0.226   0.194 -0.2042 -0.2676 -0.0664
    72IDQ   C70 7830   3.775  -0.239   0.046  1.4131 -0.0822 -0.1722
    72IDQ   C71 7831   3.645  -0.258  -0.037 -0.0010 -0.1924 -0.1311
    72IDQ   C72 7832   3.676  -0.250  -0.184 -1.2190 -0.1278 -0.1778
    11RH     C1 7833   2.849   5.370   6.087 -0.2454 -0.2476  0.0782
    11RH     C2 7834   2.811   5.282   6.199 -0.1087 -0.2214  0.1453
    11RH     N1 7835   2.887   5.296   5.973 -0.2453 -0.2747  0.0961
    11RH     S1 7836   2.827   5.106   6.148  0.0111 -0.2344  0.2275
    11RH     C3 7837   2.883   5.158   5.981 -0.1253 -0.2737  0.1692
    11RH     C4 7838   2.926   5.368   5.847  0.5803 -0.3104 -0.1829
    11RH     S2 7839   2.923   5.047   5.860 -0.0980 -0.3026  0.2052
    11RH     O1 7840   2.848   5.494   6.089 -0.3487 -0.2464  0.0138
    11RH     C5 7841   2.771   5.327   6.319 -0.0811 -0.1930  0.1438
    21BTZ    C6 7842   2.724   5.264   6.442  0.3961  0.2699  0.1076
    21BTZ    C7 7843   2.703   5.129   6.454  0.3645  0.2664  0.0112
    21BTZ    C8 7844   2.687   5.349   6.552  0.2006  0.2261  0.0761
    21BTZ    C9 7845   2.645   5.071   6.572  0.1408  0.2202 -0.1200
    21BTZ   C10 7846   2.608   5.148   6.679 -0.0509  0.1773 -0.1546
    21BTZ   C11 7847   2.628   5.290   6.672 -0.0267  0.1791 -0.0572
    21BTZ    N2 7848   2.703   5.482   6.552  0.2095  0.2248  0.1613
    21BTZ    N3 7849   2.596   5.376   6.770 -0.2005  0.1400 -0.0793
    21BTZ    S3 7850   2.641   5.538   6.710 -0.0782  0.1618  0.0727
    31IDT   C12 7851   2.549   5.083   6.797 -0.5225 -0.4006 -0.1311
    31IDT   C13 7852   2.526   4.948   6.809 -0.5579 -0.3742  0.0986
    31IDT   C14 7853   2.484   4.911   6.941 -0.1957 -0.1922  0.2698
    31IDT   C15 7854   2.474   5.016   7.029  0.1172 -0.0790  0.1720
    31IDT    S4 7855   2.518   5.173   6.952 -0.0236 -0.1953 -0.1474
    4IDB    C16 7856   2.420   4.971   7.153 -0.2033 -0.2050 -0.0003
    4IDB    C17 7857   2.396   4.831   7.145 -0.2450 -0.1988  0.0114
    51IDQ   C18 7858   2.439   4.780   7.007 -0.6089 -0.1669  0.6860
    4IDB    C19 7859   2.354   4.759   7.256 -0.0332 -0.2201  0.0783
    51IDQ   C20 7860   2.556   4.670   7.028  0.6725 -0.3421 -0.0708
    51IDQ   C21 7861   2.333   4.716   6.913  0.2793  0.1398  0.0795
    51IDQ   C22 7862   2.177   4.727   6.942  0.1257 -0.1087  0.2663
    51IDQ   C23 7863   2.703   4.697   7.023 -0.0835 -0.1673 -0.0369
    51IDQ   C24 7864   2.095   4.634   6.849  0.0925  0.1377  0.1251
    51IDQ   C25 7865   1.945   4.638   6.873  0.5234 -0.5133  0.5901
    51IDQ   C26 7866   1.864   4.534   6.803 -0.3596 -0.1269 -0.1555
    51IDQ   C27 7867   1.848   4.568   6.659  0.6039 -0.8480  0.2526
    51IDQ   C28 7868   1.800   4.447   6.573  0.8515 -0.7059  0.0550
    51IDQ   C29 7869   1.881   4.322   6.570 -0.0300  0.0052 -0.1213
    51IDQ   C30 7870   2.766   4.781   7.139  0.8609 -0.0888  0.3154
    51IDQ   C31 7871   2.916   4.787   7.134 -0.0440  0.2101  0.2954
    51IDQ   C32 7872   2.964   4.867   7.249 -0.2096  0.1331 -1.1019
    51IDQ   C33 7873   3.117   4.911   7.256  0.1401  0.6501 -0.0244
    51IDQ   C34 7874   3.221   4.807   7.201  0.3057 -0.2656 -0.1890
    51IDQ   C35 7875   3.373   4.847   7.226 -0.0489 -0.0991  0.0582
    4IDB    C36 7876   2.402   5.041   7.274  0.0521 -0.2332  0.0551
    4IDB    C37 7877   2.359   4.966   7.387  0.2661 -0.2549  0.1231
    11RH    C38 7878   2.814   5.406   5.750  0.2813  0.2559 -0.1779
    4IDB    C39 7879   2.336   4.828   7.377  0.2223 -0.2484  0.1338
    62IDT   C40 7880   2.300   4.772   7.503 -0.2406 -0.1931 -0.4064
    72IDQ   C41 7881   2.318   5.010   7.525 -0.5944  0.1455  0.3057
    62IDT   C42 7882   2.285   4.873   7.595 -0.4479  0.0938 -0.7514
    72IDQ   C43 7883   2.453   5.066   7.588  0.0741  0.2497  0.2758
    72IDQ   C44 7884   2.207   5.121   7.509 -0.1606  0.1730  0.2318
    62IDT    S5 7885   2.265   4.611   7.574 -0.0488 -0.0103  0.1077
    62IDT   C45 7886   2.231   4.693   7.733 -0.2697  0.4682 -0.1852
    62IDT   C46 7887   2.246   4.829   7.725 -0.4645  0.4683 -0.6269
    82BTZ   C47 7888   2.193   4.619   7.856 -0.0734 -0.1306 -0.0328
    82BTZ   C48 7889   2.136   4.693   7.955 -0.1971 -0.2793  0.0084
    82BTZ   C49 7890   2.104   4.637   8.084 -0.1307 -0.4089 -0.0320
    82BTZ   C50 7891   2.131   4.506   8.114  0.0592 -0.3898 -0.1136
    82BTZ   C51 7892   2.222   4.481   7.882  0.1269 -0.1045 -0.1183
    82BTZ   C52 7893   2.191   4.423   8.013  0.1943 -0.2363 -0.1594
    92RH    C53 7894   2.114   4.448   8.252  0.0797 -0.3412  0.0611
    82BTZ    N4 7895   2.278   4.398   7.793  0.2612  0.0349 -0.1650
    82BTZ    N5 7896   2.221   4.294   8.030  0.3828 -0.2027 -0.2391
    82BTZ    S6 7897   2.293   4.240   7.875  0.4841  0.0029 -0.2655
    92RH    C54 7898   2.067   4.498   8.366 -0.0935 -0.3048 -0.0244
    92RH     S7 7899   2.001   4.667   8.393  0.0916 -0.2159 -0.1235
    92RH    C55 7900   2.063   4.422   8.494 -0.4752 -0.3321 -0.0526
    92RH     O2 7901   2.100   4.305   8.509 -0.6760 -0.3908 -0.0015
    92RH     N6 7902   2.009   4.500   8.598 -0.5884 -0.2828 -0.1467
    92RH    C56 7903   1.970   4.629   8.571 -0.3442 -0.2191 -0.1974
    92RH    C57 7904   1.991   4.436   8.731 -0.3204  0.5604  0.1509
    92RH    C58 7905   2.122   4.443   8.813 -0.7990  0.0049  0.7006
    92RH     S8 7906   1.904   4.742   8.677 -0.4103 -0.1516 -0.3098
    72IDQ   C59 7907   2.068   5.076   7.476 -0.3098  0.3887 -0.1473
    72IDQ   C60 7908   1.973   5.194   7.447  0.4375  0.0309 -0.3540
    72IDQ   C61 7909   1.821   5.159   7.429 -0.4606 -0.5966 -0.1748
    72IDQ   C62 7910   1.764   5.098   7.557 -0.4350 -0.0277  0.3449
    72IDQ   C63 7911   1.619   5.046   7.558  0.2002 -0.0273  0.3692
    72IDQ   C64 7912   1.585   4.970   7.685  0.6872 -0.0266 -0.6277
    72IDQ   C65 7913   1.562   5.062   7.807 -0.4076 -0.0688  0.3272
    72IDQ   C66 7914   2.441   5.144   7.720 -0.1663 -0.0056  0.1453
    72IDQ   C67 7915   2.572   5.135   7.801  0.0593  1.2797  0.5717
    72IDQ   C68 7916   2.549   5.122   7.952 -0.4226 -0.4655  0.3786
    72IDQ   C69 7917   2.682   5.119   8.025 -0.1068  0.4132 -0.1884
    72IDQ   C70 7918   2.672   5.109   8.177 -0.0714 -0.4358  0.7676
    72IDQ   C71 7919   2.815   5.109   8.232  0.4762  1.0328 -0.1748
    72IDQ   C72 7920   2.817   5.074   8.384 -0.4492  0.1736  0.2123
    11RH     C1 7921   3.512   4.487   1.213 -0.1308 -0.1867  0.1058
    11RH     C2 7922   3.460   4.573   1.322 -0.1131 -0.0955  0.0423
    11RH     N1 7923   3.550   4.564   1.101  0.0536 -0.2631  0.1169
    11RH     S1 7924   3.467   4.749   1.270  0.1449 -0.1158  0.0013
    11RH     C3 7925   3.537   4.700   1.107  0.2168 -0.2438  0.0699
    11RH     C4 7926   3.589   4.489   0.978  0.3517  0.5010  0.2375
    11RH     S2 7927   3.575   4.814   0.988  0.4516 -0.3213  0.0712
    11RH     O1 7928   3.520   4.363   1.217 -0.2860 -0.1971  0.1452
    11RH     C5 7929   3.417   4.526   1.439 -0.2660 -0.0123  0.0201
    21BTZ    C6 7930   3.367   4.593   1.559  0.3667  0.2414  0.0625
    21BTZ    C7 7931   3.346   4.727   1.576  0.2391  0.2108  0.1501
    21BTZ    C8 7932   3.345   4.505   1.670  0.3063  0.1308 -0.0364
    21BTZ    C9 7933   3.303   4.782   1.702  0.0470  0.0708  0.1453
    21BTZ   C10 7934   3.280   4.702   1.811 -0.0171 -0.0383  0.0527
    21BTZ   C11 7935   3.301   4.561   1.799  0.1111 -0.0114 -0.0413
    21BTZ    N2 7936   3.362   4.373   1.666  0.4174  0.1477 -0.1272
    21BTZ    N3 7937   3.282   4.473   1.898  0.0653 -0.1090 -0.1360
    21BTZ    S3 7938   3.321   4.312   1.830  0.2742 -0.0211 -0.2248
    31IDT   C12 7939   3.215   4.768   1.929 -0.4601 -0.0352 -0.1801
    31IDT   C13 7940   3.194   4.902   1.946 -0.7062 -0.1007  0.0362
    31IDT   C14 7941   3.150   4.935   2.078 -0.3446 -0.3458  0.2191
    31IDT   C15 7942   3.138   4.826   2.162  0.1783 -0.4682  0.1437
    31IDT    S4 7943   3.181   4.672   2.080  0.2540 -0.2813 -0.1679
    4IDB    C16 7944   3.104   4.874   2.294  0.0995  0.1778 -0.3853
    4IDB    C17 7945   3.087   5.015   2.293  0.2590  0.1997 -0.1846
    51IDQ   C18 7946   3.113   5.066   2.147  0.0420  0.5314 -0.0536
    4IDB    C19 7947   3.045   5.084   2.406  0.3686  0.0903 -0.0778
    51IDQ   C20 7948   3.227   5.167   2.156 -0.6463  0.7157  0.3545
    51IDQ   C21 7949   2.990   5.120   2.073 -0.6382  0.2274  0.5219
    51IDQ   C22 7950   2.846   5.123   2.130  0.6317  0.7074 -0.1180
    51IDQ   C23 7951   3.374   5.130   2.155 -0.9133 -0.7320 -0.0681
    51IDQ   C24 7952   2.729   5.158   2.040  0.0394  0.0347  0.2386
    51IDQ   C25 7953   2.727   5.305   1.993  0.2926  0.7570  1.5153
    51IDQ   C26 7954   2.610   5.346   1.903 -0.5098 -0.0542 -0.2269
    51IDQ   C27 7955   2.627   5.490   1.863 -0.6864  0.3086  0.0259
    51IDQ   C28 7956   2.537   5.552   1.759 -0.1122 -0.0429 -0.0105
    51IDQ   C29 7957   2.539   5.487   1.625  0.0741  0.0159  0.6434
    51IDQ   C30 7958   3.447   5.050   2.261 -0.0650 -0.0284  0.1044
    51IDQ   C31 7959   3.590   5.095   2.259 -0.1647  0.0150 -0.2291
    51IDQ   C32 7960   3.682   4.999   2.342 -0.9300 -0.0397  0.1514
    51IDQ   C33 7961   3.832   5.021   2.313  0.4384 -1.1205  0.7897
    51IDQ   C34 7962   3.931   4.935   2.385  0.0835  0.0407  0.6388
    51IDQ   C35 7963   4.074   4.960   2.342  0.0925  0.4937  0.2631
    4IDB    C36 7964   3.078   4.799   2.410  0.0485  0.0457 -0.4809
    4IDB    C37 7965   3.036   4.870   2.525  0.1621 -0.0647 -0.3695
    11RH    C38 7966   3.485   4.476   0.863 -0.1623 -0.3354  0.0744
    4IDB    C39 7967   3.020   5.009   2.522  0.3176 -0.0418 -0.1735
    62IDT   C40 7968   2.963   5.055   2.643  0.1163  0.2793 -0.0076
    72IDQ   C41 7969   2.998   4.818   2.663 -0.3042 -0.1738 -0.6392
    62IDT   C42 7970   2.947   4.949   2.730 -0.1901  0.0561 -0.3302
    72IDQ   C43 7971   3.134   4.754   2.727  0.2683  0.4680 -0.2578
    72IDQ   C44 7972   2.887   4.699   2.673 -0.8257 -0.4762 -0.5402
    62IDT    S5 7973   2.912   5.210   2.718  0.1918  0.1436  0.3330
    62IDT   C45 7974   2.870   5.120   2.869 -0.2145 -0.2256  0.0053
    62IDT   C46 7975   2.895   4.985   2.858 -0.3774 -0.2295 -0.3233
    82BTZ   C47 7976   2.810   5.195   2.985  0.1706 -0.0283 -0.0318
    82BTZ   C48 7977   2.773   5.119   3.093  0.3537 -0.0449  0.0201
    82BTZ   C49 7978   2.746   5.178   3.222  0.4910 -0.0556  0.0539
    82BTZ   C50 7979   2.756   5.312   3.243  0.4450 -0.0492  0.0358
    82BTZ   C51 7980   2.822   5.337   3.002  0.1154 -0.0211 -0.0527
    82BTZ   C52 7981   2.795   5.396   3.133  0.2549 -0.0317 -0.0184
    92RH    C53 7982   2.732   5.378   3.369  0.1513 -0.3343 -0.1876
    82BTZ    N4 7983   2.858   5.421   2.905 -0.0586 -0.0048 -0.1025
    82BTZ    N5 7984   2.808   5.529   3.141  0.1931 -0.0241 -0.0406
    82BTZ    S6 7985   2.858   5.584   2.978 -0.0513 -0.0023 -0.1078
    92RH    C54 7986   2.698   5.336   3.492  0.0456 -0.2308 -0.1811
    92RH     S7 7987   2.663   5.163   3.543 -0.1625 -0.1655 -0.1024
    92RH    C55 7988   2.684   5.427   3.608  0.0830 -0.1510 -0.2388
    92RH     O2 7989   2.701   5.550   3.606  0.2137 -0.1699 -0.2990
    92RH     N6 7990   2.648   5.356   3.725 -0.0504 -0.0479 -0.2174
    92RH    C56 7991   2.631   5.220   3.716 -0.1900 -0.0356 -0.1495
    92RH    C57 7992   2.649   5.422   3.856  0.4710  0.0900  1.0470
    92RH    C58 7993   2.777   5.390   3.937 -0.2537  0.2470 -0.0161
    92RH     S8 7994   2.589   5.113   3.839 -0.3648  0.0778 -0.1110
    72IDQ   C59 7995   2.770   4.716   2.576  0.0745 -0.3056 -0.0008
    72IDQ   C60 7996   2.688   4.598   2.553 -0.1754  0.2212 -0.4334
    72IDQ   C61 7997   2.540   4.618   2.535  0.1953 -0.6646 -0.1341
    72IDQ   C62 7998   2.475   4.648   2.670 -0.5080 -0.0629  0.1212
    72IDQ   C63 7999   2.334   4.715   2.664 -0.1453  0.5625  0.1770
    72IDQ   C64 8000   2.272   4.731   2.796 -0.3809 -0.2014  0.1764
    72IDQ   C65 8001   2.136   4.793   2.791  0.1451  0.0794  0.0815
    72IDQ   C66 8002   3.158   4.776   2.879 -0.1838  0.1523  0.6278
    72IDQ   C67 8003   3.296   4.745   2.931 -0.2864  0.4051 -0.4071
    72IDQ   C68 8004   3.325   4.730   3.079 -0.9546 -0.1797  0.3165
    72IDQ   C69 8005   3.233   4.638   3.158 -0.0271  0.1594  0.4202
    72IDQ   C70 8006   3.238   4.645   3.312 -0.1516 -0.3237  0.2419
    72IDQ   C71 8007   3.161   4.538   3.392 -0.1180  0.6962  0.5044
    72IDQ   C72 8008   3.011   4.521   3.345 -0.6152  0.5720 -0.2522
    11RH     C1 8009   3.344   5.147   3.764  0.0206  0.0194 -0.0392
    11RH     C2 8010   3.393   5.241   3.661  0.1530  0.0138  0.0176
    11RH     N1 8011   3.312   5.214   3.884  0.1863 -0.0169  0.0261
    11RH     S1 8012   3.394   5.412   3.728  0.4868 -0.0395  0.1533
    11RH     C3 8013   3.330   5.351   3.889  0.4354 -0.0511  0.1283
    11RH     C4 8014   3.251   5.134   3.998 -0.5236 -0.1529 -0.2764
    11RH     S2 8015   3.299   5.454   4.019  0.6697 -0.0981  0.2216
    11RH     O1 8016   3.332   5.024   3.750 -0.2068  0.0520 -0.1323
    11RH     C5 8017   3.431   5.203   3.538  0.0391  0.0434 -0.0262
    21BTZ    C6 8018   3.477   5.282   3.419 -0.1785  0.2174  0.3099
    21BTZ    C7 8019   3.494   5.418   3.411 -0.2629  0.2321  0.3744
    21BTZ    C8 8020   3.505   5.202   3.303 -0.2027  0.2980  0.2482
    21BTZ    C9 8021   3.540   5.481   3.290 -0.3746  0.3262  0.3815
    21BTZ   C10 8022   3.568   5.409   3.177 -0.4017  0.4053  0.3240
    21BTZ   C11 8023   3.551   5.267   3.180 -0.3163  0.3935  0.2553
    21BTZ    N2 8024   3.492   5.069   3.299 -0.1277  0.2927  0.1826
    21BTZ    N3 8025   3.575   5.186   3.077 -0.3325  0.4650  0.1956
    21BTZ    S3 8026   3.539   5.020   3.134 -0.2005  0.4122  0.1261
    31IDT   C12 8027   3.623   5.483   3.057 -0.4345 -0.1277  0.1511
    31IDT   C13 8028   3.662   5.614   3.053 -1.3436  0.1599  0.1169
    31IDT   C14 8029   3.701   5.656   2.922 -1.4524  0.3372  0.1418
    31IDT   C15 8030   3.691   5.558   2.826 -0.6293  0.1865  0.1950
    31IDT    S4 8031   3.631   5.403   2.894  0.3566 -0.1953  0.2180
    4IDB    C16 8032   3.746   5.606   2.701  0.1366 -0.1581 -0.4042
    4IDB    C17 8033   3.785   5.743   2.712  0.1814 -0.1892 -0.1864
    51IDQ   C18 8034   3.763   5.784   2.861  0.5510  0.6233  0.3389
    4IDB    C19 8035   3.835   5.813   2.603  0.3480 -0.0749 -0.0392
    51IDQ   C20 8036   3.655   5.907   2.857 -0.1998 -0.6378  0.1119
    51IDQ   C21 8037   3.886   5.825   2.942  0.4733  0.3757 -0.3006
    51IDQ   C22 8038   4.025   5.838   2.887 -0.1723  0.0653 -0.1457
    51IDQ   C23 8039   3.507   5.895   2.893 -0.5899  0.0216  0.2531
    51IDQ   C24 8040   4.118   5.889   2.989  0.3185 -0.1426 -0.0908
    51IDQ   C25 8041   4.264   5.906   2.941  0.2845  0.7927  0.3226
    51IDQ   C26 8042   4.369   5.964   3.034 -0.1883  0.5396  0.2713
    51IDQ   C27 8043   4.344   6.097   3.095  0.4282 -0.2565  0.8301
    51IDQ   C28 8044   4.468   6.148   3.150 -0.0746 -0.1408  0.7392
    51IDQ   C29 8045   4.452   6.295   3.170 -0.0383 -0.0706 -0.2198
    51IDQ   C30 8046   3.430   5.837   2.775  0.3684 -0.0227  0.2851
    51IDQ   C31 8047   3.283   5.844   2.802  0.3401  0.1680  0.3800
    51IDQ   C32 8048   3.200   5.799   2.684 -0.1328 -0.6875 -0.6494
    51IDQ   C33 8049   3.058   5.777   2.726  0.1107  0.4439  0.2789
    51IDQ   C34 8050   2.970   5.749   2.607  0.7414  0.0489 -0.2596
    51IDQ   C35 8051   2.835   5.704   2.649 -0.6504 -0.6735  0.2316
    4IDB    C36 8052   3.756   5.538   2.578  0.2590 -0.0112 -0.4764
    4IDB    C37 8053   3.807   5.611   2.467  0.4286  0.1044 -0.3237
    11RH    C38 8054   3.357   5.074   4.096 -0.2501 -0.1423 -0.1264
    4IDB    C39 8055   3.845   5.745   2.481  0.4705  0.0720 -0.1114
    62IDT   C40 8056   3.896   5.798   2.360 -0.0478  0.3905 -0.4023
    72IDQ   C41 8057   3.834   5.562   2.326 -0.0379  0.1926 -0.0177
    62IDT   C42 8058   3.883   5.700   2.264 -0.4933  0.5591 -0.5196
    72IDQ   C43 8059   3.700   5.508   2.262 -0.0255  0.1083 -0.6277
    72IDQ   C44 8060   3.939   5.446   2.328 -0.1623 -0.1085 -0.1935
    62IDT    S5 8061   3.950   5.955   2.289  0.3472  0.3181 -0.2642
    62IDT   C45 8062   3.953   5.875   2.126 -0.1342  0.5300 -0.3778
    62IDT   C46 8063   3.915   5.743   2.131 -0.5427  0.6385 -0.5060
    82BTZ   C47 8064   3.975   5.949   1.998 -0.0900  0.0644  0.0451
    82BTZ   C48 8065   4.031   5.877   1.896 -0.3196 -0.0201 -0.0218
    82BTZ   C49 8066   4.057   5.936   1.767 -0.4544 -0.0806 -0.0771
    82BTZ   C50 8067   4.027   6.067   1.740 -0.3595 -0.0565 -0.0655
    82BTZ   C51 8068   3.942   6.087   1.975  0.0174  0.0926  0.0599
    82BTZ   C52 8069   3.969   6.147   1.844 -0.1196  0.0311  0.0036
    92RH    C53 8070   4.049   6.131   1.608 -0.1991 -0.1964  0.0196
    82BTZ    N4 8071   3.888   6.167   2.067  0.2397  0.1731  0.1230
    82BTZ    N5 8072   3.936   6.275   1.830 -0.0076  0.0621  0.0215
    82BTZ    S6 8073   3.868   6.326   1.987  0.2838  0.1737  0.1128
    92RH    C54 8074   4.093   6.083   1.491  0.0125 -0.0958  0.0567
    92RH     S7 8075   4.156   5.913   1.459  0.2418 -0.0128  0.0643
    92RH    C55 8076   4.097   6.162   1.367  0.0954 -0.0345  0.0985
    92RH     O2 8077   4.061   6.281   1.355 -0.0186 -0.0681  0.1041
    92RH     N6 8078   4.148   6.087   1.259  0.3248  0.0693  0.1321
    92RH    C56 8079   4.184   5.956   1.282  0.4359  0.0989  0.1224
    92RH    C57 8080   4.149   6.144   1.121 -0.8608  0.4744 -0.3020
    92RH    C58 8081   4.016   6.144   1.047  0.4316  0.0015 -0.3068
    92RH     S8 8082   4.247   5.845   1.171  0.7074  0.2172  0.1563
    72IDQ   C59 8083   4.085   5.475   2.347 -0.2734 -0.2902 -0.0063
    72IDQ   C60 8084   4.168   5.346   2.352  0.5969  0.7302 -0.3252
    72IDQ   C61 8085   4.319   5.366   2.345  0.4150  0.0509 -0.1733
    72IDQ   C62 8086   4.383   5.405   2.211  0.8862 -0.1645 -0.5105
    72IDQ   C63 8087   4.513   5.484   2.224  0.3741  0.9035  0.2103
    72IDQ   C64 8088   4.578   5.503   2.083 -0.0325  0.5483 -0.5386
    72IDQ   C65 8089   4.728   5.547   2.093  0.1709  0.4968  0.4233
    72IDQ   C66 8090   3.697   5.469   2.117 -0.6778 -0.0019  0.1522
    72IDQ   C67 8091   3.565   5.446   2.045  0.1052 -0.2423 -0.3679
    72IDQ   C68 8092   3.581   5.466   1.898  0.1274  0.4524  0.0697
    72IDQ   C69 8093   3.465   5.446   1.803  0.0081 -0.1985 -0.1787
    72IDQ   C70 8094   3.489   5.469   1.655  0.7948 -0.4074 -0.3901
    72IDQ   C71 8095   3.363   5.511   1.576  0.0130 -0.1453 -0.2432
    72IDQ   C72 8096   3.391   5.553   1.432 -0.1455  0.1452  0.3323
    11RH     C1 8097   3.118   0.034   5.389  0.2985  0.0767  0.0221
    11RH     C2 8098   3.166  -0.058   5.283  0.0719  0.1320 -0.1307
    11RH     N1 8099   3.075  -0.037   5.504  0.2068 -0.0030 -0.0615
    11RH     S1 8100   3.152  -0.231   5.341 -0.2470  0.0754 -0.3743
    11RH     C3 8101   3.083  -0.174   5.502 -0.0656 -0.0182 -0.2625
    11RH     C4 8102   3.021   0.032   5.628  0.3899 -0.0705  0.7706
    11RH     S2 8103   3.038  -0.282   5.624 -0.2258 -0.1070 -0.3978
    11RH     O1 8104   3.114   0.158   5.381  0.5400  0.0961  0.2012
    11RH     C5 8105   3.212  -0.016   5.165  0.1039  0.2106 -0.0906
    21BTZ    C6 8106   3.265  -0.084   5.041  0.1205  0.1878  0.0758
    21BTZ    C7 8107   3.275  -0.220   5.032 -0.0490  0.1756  0.0693
    21BTZ    C8 8108   3.301  -0.004   4.927  0.0668  0.1404  0.0256
    21BTZ    C9 8109   3.320  -0.285   4.911 -0.2784  0.1168  0.0137
    21BTZ   C10 8110   3.355  -0.213   4.800 -0.3379  0.0703 -0.0353
    21BTZ   C11 8111   3.347  -0.070   4.805 -0.1664  0.0808 -0.0309
    21BTZ    N2 8112   3.296   0.129   4.924  0.2171  0.1469  0.0265
    21BTZ    N3 8113   3.379   0.010   4.703 -0.2034  0.0392 -0.0755
    21BTZ    S3 8114   3.351   0.177   4.761  0.0639  0.0752 -0.0464
    31IDT   C12 8115   3.409  -0.293   4.682 -0.0514  0.0802 -0.0000
    31IDT   C13 8116   3.445  -0.425   4.675 -0.3082  0.0170 -0.1502
    31IDT   C14 8117   3.496  -0.462   4.547 -0.5389  0.0222 -0.2439
    31IDT   C15 8118   3.499  -0.359   4.455 -0.4597  0.0890 -0.1661
    31IDT    S4 8119   3.438  -0.205   4.525 -0.0832  0.1511  0.0336
    4IDB    C16 8120   3.547  -0.406   4.328  0.0174  0.1693  0.2330
    4IDB    C17 8121   3.592  -0.541   4.338  0.0775  0.1800  0.1097
    51IDQ   C18 8122   3.556  -0.592   4.485 -0.4570 -0.4346  0.2975
    4IDB    C19 8123   3.645  -0.607   4.228  0.0257  0.2756  0.0273
    51IDQ   C20 8124   3.460  -0.716   4.493 -0.1088 -0.5182 -0.1280
    51IDQ   C21 8125   3.674  -0.629   4.580 -0.0599 -0.2973 -0.0935
    51IDQ   C22 8126   3.818  -0.587   4.545  0.6565  0.6499  0.2901
    51IDQ   C23 8127   3.304  -0.688   4.530  0.1046  0.3658  0.1210
    51IDQ   C24 8128   3.930  -0.647   4.624  0.3531 -0.0168 -0.7026
    51IDQ   C25 8129   3.931  -0.798   4.630 -0.9188  0.2149  0.9525
    51IDQ   C26 8130   4.031  -0.852   4.734  0.3138 -0.6976  0.2606
    51IDQ   C27 8131   4.012  -0.999   4.749  0.0894 -0.1570  0.0473
    51IDQ   C28 8132   3.911  -1.035   4.858 -0.5937 -0.1367  0.4801
    51IDQ   C29 8133   3.911  -1.183   4.886  0.6833 -0.4182 -0.5864
    51IDQ   C30 8134   3.223  -0.635   4.407  0.3008 -0.0354 -0.3402
    51IDQ   C31 8135   3.071  -0.630   4.450 -0.5556 -0.2546  0.4043
    51IDQ   C32 8136   2.981  -0.559   4.346 -0.2080 -0.3619 -0.6975
    51IDQ   C33 8137   2.837  -0.590   4.377  0.2070  1.0982  0.0914
    51IDQ   C34 8138   2.742  -0.529   4.271  0.0522 -0.0696  0.0811
    51IDQ   C35 8139   2.601  -0.590   4.300  0.2196 -0.0341  0.0990
    4IDB    C36 8140   3.556  -0.335   4.207 -0.0957  0.2548  0.2747
    4IDB    C37 8141   3.611  -0.404   4.096 -0.1473  0.3518  0.1889
    11RH    C38 8142   3.113   0.095   5.735  0.3032 -0.4045 -0.3707
    4IDB    C39 8143   3.654  -0.536   4.107 -0.0874  0.3610  0.0687
    62IDT   C40 8144   3.696  -0.587   3.980 -0.1140  0.3447  0.0968
    72IDQ   C41 8145   3.641  -0.359   3.954 -0.0479 -0.9657 -0.2986
    62IDT   C42 8146   3.684  -0.486   3.886  0.3597  0.4884  0.1841
    72IDQ   C43 8147   3.505  -0.297   3.890 -1.1802  0.2633  0.4581
    72IDQ   C44 8148   3.737  -0.231   3.946  0.1004 -0.3098  0.2053
    62IDT    S5 8149   3.767  -0.736   3.909 -0.5065  0.1805  0.0443
    62IDT   C45 8150   3.777  -0.650   3.749  0.0160  0.3220  0.1483
    62IDT   C46 8151   3.729  -0.522   3.756  0.4339  0.4758  0.2134
    82BTZ   C47 8152   3.809  -0.722   3.623 -0.1686  0.0941 -0.1663
    82BTZ   C48 8153   3.859  -0.643   3.523 -0.0663  0.0899 -0.1185
    82BTZ   C49 8154   3.891  -0.697   3.393  0.1063  0.0761 -0.0701
    82BTZ   C50 8155   3.874  -0.829   3.364  0.1763  0.0663 -0.0696
    82BTZ   C51 8156   3.788  -0.861   3.597 -0.1012  0.0845 -0.1678
    82BTZ   C52 8157   3.821  -0.916   3.465  0.0743  0.0702 -0.1187
    92RH    C53 8158   3.895  -0.882   3.228  0.2280  0.1133  0.2813
    82BTZ    N4 8159   3.740  -0.948   3.686 -0.1884  0.0875 -0.2119
    82BTZ    N5 8160   3.799  -1.047   3.449  0.1281  0.0619 -0.1231
    82BTZ    S6 8161   3.734  -1.106   3.604 -0.0469  0.0719 -0.1920
    92RH    C54 8162   3.938  -0.834   3.111  0.2291  0.1088  0.2798
    92RH     S7 8163   3.999  -0.664   3.078  0.0505  0.1637  0.2313
    92RH    C55 8164   3.943  -0.914   2.986  0.3809  0.0565  0.3188
    92RH     O2 8165   3.909  -1.033   2.975  0.5222  0.0119  0.3566
    92RH     N6 8166   3.993  -0.838   2.878  0.3461  0.0637  0.3078
    92RH    C56 8167   4.028  -0.707   2.901  0.1851  0.1152  0.2649
    92RH    C57 8168   3.996  -0.901   2.742 -0.3220  0.5713 -0.0976
    92RH    C58 8169   3.861  -0.911   2.676 -0.4348  0.2874  0.4544
    92RH     S8 8170   4.089  -0.596   2.790  0.1113  0.1345  0.2434
    72IDQ   C59 8171   3.884  -0.258   3.976  0.2014 -0.2652 -0.5818
    72IDQ   C60 8172   3.975  -0.138   3.963 -0.5392 -0.4322  0.9470
    72IDQ   C61 8173   4.125  -0.173   3.967  0.1684 -0.4776  0.1635
    72IDQ   C62 8174   4.177  -0.248   3.842  0.9104 -0.0628 -0.4892
    72IDQ   C63 8175   4.326  -0.271   3.843 -0.3499  0.1155  0.4347
    72IDQ   C64 8176   4.399  -0.334   3.727 -0.0007  0.4022 -0.1418
    72IDQ   C65 8177   4.392  -0.264   3.586 -0.9020 -0.4797  0.2136
    72IDQ   C66 8178   3.491  -0.292   3.736 -0.0674 -0.0724  0.2433
    72IDQ   C67 8179   3.377  -0.206   3.683  0.3962 -0.2406  0.1803
    72IDQ   C68 8180   3.374  -0.246   3.532  0.3236 -0.2311 -0.9831
    72IDQ   C69 8181   3.252  -0.211   3.461  0.7409 -1.1002  0.5695
    72IDQ   C70 8182   3.243  -0.261   3.312  0.4508 -0.9006 -0.5753
    72IDQ   C71 8183   3.121  -0.201   3.236  0.0874 -0.0789  0.5560
    72IDQ   C72 8184   3.108  -0.282   3.108 -0.0804  0.3512 -0.1111
    11RH     C1 8185   3.258   5.395   2.859 -0.0876 -0.1090 -0.2752
    11RH     C2 8186   3.228   5.304   2.972  0.1009  0.0263 -0.1150
    11RH     N1 8187   3.301   5.323   2.745 -0.1046 -0.2336 -0.2041
    11RH     S1 8188   3.258   5.130   2.921  0.2433 -0.0190  0.1189
    11RH     C3 8189   3.309   5.186   2.752  0.0471 -0.2147 -0.0064
    11RH     C4 8190   3.349   5.394   2.617  0.1100 -0.1565  0.3089
    11RH     S2 8191   3.356   5.078   2.632  0.0632 -0.3439  0.1148
    11RH     O1 8192   3.248   5.519   2.861 -0.2165 -0.1152 -0.4509
    11RH     C5 8193   3.186   5.346   3.092  0.1534  0.1596 -0.1430
    21BTZ    C6 8194   3.157   5.275   3.215  0.1134 -0.0659  0.1258
    21BTZ    C7 8195   3.169   5.139   3.231  0.0450 -0.0697  0.1456
    21BTZ    C8 8196   3.118   5.354   3.328  0.0606 -0.0409  0.0904
    21BTZ    C9 8197   3.143   5.075   3.357 -0.0778 -0.0492  0.1317
    21BTZ   C10 8198   3.106   5.146   3.468 -0.1321 -0.0248  0.0980
    21BTZ   C11 8199   3.092   5.288   3.457 -0.0643 -0.0201  0.0762
    21BTZ    N2 8200   3.103   5.487   3.326  0.1180 -0.0348  0.0684
    21BTZ    N3 8201   3.057   5.369   3.558 -0.1072  0.0027  0.0429
    21BTZ    S3 8202   3.055   5.535   3.491  0.0126 -0.0014  0.0279
    31IDT   C12 8203   3.070   5.069   3.583 -0.3829  0.0204 -0.4513
    31IDT   C13 8204   3.048   4.934   3.586 -0.9306  0.1012 -0.6827
    31IDT   C14 8205   2.994   4.889   3.710 -0.9311  0.0801 -0.6906
    31IDT   C15 8206   2.975   4.989   3.803 -0.3854 -0.0170 -0.4657
    31IDT    S4 8207   3.024   5.150   3.740  0.1768 -0.0898 -0.2244
    4IDB    C16 8208   2.927   4.929   3.925 -0.0549  0.0029 -0.0731
    4IDB    C17 8209   2.894   4.791   3.907 -0.1297  0.0379 -0.2083
    51IDQ   C18 8210   2.934   4.755   3.766 -0.1339 -0.4301 -0.0084
    4IDB    C19 8211   2.837   4.717   4.011 -0.2727 -0.0042 -0.3154
    51IDQ   C20 8212   3.034   4.624   3.782  0.4875 -0.6524  0.2281
    51IDQ   C21 8213   2.811   4.718   3.675  0.0542  0.4210  0.0735
    51IDQ   C22 8214   2.667   4.696   3.712  0.1812  0.0971 -0.9585
    51IDQ   C23 8215   3.182   4.631   3.745  0.3424  0.1416 -0.2709
    51IDQ   C24 8216   2.578   4.676   3.592 -0.2404 -0.2485 -0.4968
    51IDQ   C25 8217   2.545   4.815   3.535 -0.0013 -0.3229  0.2441
    51IDQ   C26 8218   2.475   4.816   3.397  0.2863 -0.1773  0.2290
    51IDQ   C27 8219   2.567   4.781   3.283 -0.0334  0.0984  0.3838
    51IDQ   C28 8220   2.498   4.804   3.147  0.3502  0.3940 -0.2341
    51IDQ   C29 8221   2.580   4.752   3.029 -0.5711  0.3082 -0.0693
    51IDQ   C30 8222   3.273   4.696   3.849 -0.0635  0.2815  0.2328
    51IDQ   C31 8223   3.421   4.697   3.803 -0.1602 -0.0913 -0.7172
    51IDQ   C32 8224   3.527   4.724   3.912  0.0888  0.1023 -0.0131
    51IDQ   C33 8225   3.670   4.750   3.861  0.1326  0.7828  0.8744
    51IDQ   C34 8226   3.783   4.735   3.956  0.4544  0.4317 -0.5516
    51IDQ   C35 8227   3.914   4.780   3.907 -0.0733  0.5674 -0.4435
    4IDB    C36 8228   2.904   4.994   4.047 -0.1232 -0.0751 -0.0441
    4IDB    C37 8229   2.846   4.917   4.152 -0.2694 -0.1172 -0.1551
    11RH    C38 8230   3.248   5.411   2.497  0.1764  0.3626 -1.1420
    4IDB    C39 8231   2.814   4.782   4.133 -0.3411 -0.0822 -0.2866
    62IDT   C40 8232   2.763   4.727   4.256 -0.4960 -0.0778 -0.2267
    72IDQ   C41 8233   2.808   4.961   4.293  0.2355 -0.3233 -0.5429
    62IDT   C42 8234   2.764   4.825   4.352 -0.8548  0.1397 -0.4412
    72IDQ   C43 8235   2.936   5.017   4.369  0.2204 -0.5610  0.0393
    72IDQ   C44 8236   2.702   5.086   4.287  0.1224  0.8813  0.4926
    62IDT    S5 8237   2.702   4.570   4.319 -0.0976 -0.1165  0.0681
    62IDT   C45 8238   2.679   4.650   4.481 -0.4548  0.1779 -0.1239
    62IDT   C46 8239   2.716   4.782   4.480 -0.8320  0.2847 -0.3835
    82BTZ   C47 8240   2.636   4.573   4.605 -0.2013 -0.1872 -0.2521
    82BTZ   C48 8241   2.574   4.654   4.697 -0.0743 -0.0530 -0.2837
    82BTZ   C49 8242   2.539   4.606   4.829  0.0505  0.1197 -0.1874
    82BTZ   C50 8243   2.566   4.478   4.868  0.0482  0.1583 -0.0598
    82BTZ   C51 8244   2.666   4.438   4.642 -0.2092 -0.1534 -0.1197
    82BTZ   C52 8245   2.631   4.389   4.776 -0.0823  0.0222 -0.0218
    92RH    C53 8246   2.546   4.426   5.002  0.4051  0.2912 -0.0152
    82BTZ    N4 8247   2.726   4.350   4.561 -0.3266 -0.2731 -0.0769
    82BTZ    N5 8248   2.663   4.262   4.802 -0.0978  0.0439  0.0997
    82BTZ    S6 8249   2.740   4.198   4.655 -0.2792 -0.1639  0.0938
    92RH    C54 8250   2.499   4.477   5.116  0.2776  0.1727 -0.0151
    92RH     S7 8251   2.437   4.647   5.145  0.1404  0.1100  0.0639
    92RH    C55 8252   2.491   4.399   5.242  0.2265  0.0710 -0.0814
    92RH     O2 8253   2.525   4.280   5.257  0.2943  0.0830 -0.1436
    92RH     N6 8254   2.437   4.476   5.348  0.0883 -0.0443 -0.0655
    92RH    C56 8255   2.402   4.607   5.321  0.0223 -0.0478  0.0055
    92RH    C57 8256   2.421   4.416   5.484 -0.2348  0.1764  1.0414
    92RH    C58 8257   2.536   4.435   5.572 -0.0866  0.4492 -0.3817
    92RH     S8 8258   2.337   4.720   5.428 -0.1410 -0.1724  0.0390
    72IDQ   C59 8259   2.559   5.037   4.277  0.0078 -0.3328  0.2346
    72IDQ   C60 8260   2.468   5.147   4.227 -0.1411 -0.0044 -0.2155
    72IDQ   C61 8261   2.325   5.102   4.186  0.3300 -1.0498  0.1868
    72IDQ   C62 8262   2.251   5.027   4.302  0.0975  0.4257 -0.0324
    72IDQ   C63 8263   2.100   5.008   4.280 -0.6702 -0.1758 -0.5231
    72IDQ   C64 8264   2.030   4.961   4.406 -0.6197  0.4627  0.1287
    72IDQ   C65 8265   1.885   4.982   4.400 -0.3423  0.4554 -0.2668
    72IDQ   C66 8266   2.933   5.030   4.523 -0.0319 -0.0818 -0.2634
    72IDQ   C67 8267   3.062   5.085   4.588 -0.0557 -0.2552 -0.1339
    72IDQ   C68 8268   3.059   5.078   4.740 -0.0321 -0.2575 -0.2297
    72IDQ   C69 8269   3.186   5.131   4.814 -0.2176 -0.2380  0.4458
    72IDQ   C70 8270   3.202   5.105   4.960  0.1126  0.4166 -0.9212
    72IDQ   C71 8271   3.341   5.137   5.021 -0.0500 -0.1655  0.0128
    72IDQ   C72 8272   3.464   5.079   4.944 -0.3030  0.1182  0.3667
    11RH     C1 8273   3.098   4.447   4.411  0.1313 -0.1734 -0.1889
    11RH     C2 8274   3.066   4.538   4.523 -0.1149 -0.1622 -0.2668
    11RH     N1 8275   3.142   4.518   4.297  0.3205 -0.1805 -0.1221
    11RH     S1 8276   3.095   4.712   4.472 -0.0816 -0.1618 -0.2473
    11RH     C3 8277   3.148   4.655   4.304  0.2559 -0.1765 -0.1371
    11RH     C4 8278   3.208   4.446   4.181  0.9547  0.0203  0.4017
    11RH     S2 8279   3.196   4.763   4.184  0.4444 -0.1833 -0.0688
    11RH     O1 8280   3.089   4.323   4.414  0.1717 -0.1764 -0.1816
    11RH     C5 8281   3.023   4.496   4.643 -0.3254 -0.1539 -0.3393
    21BTZ    C6 8282   2.985   4.556   4.768  0.0412  0.2277  0.1182
    21BTZ    C7 8283   2.980   4.691   4.790  0.0057  0.2021  0.2717
    21BTZ    C8 8284   2.953   4.468   4.876  0.0536  0.0963  0.0153
    21BTZ    C9 8285   2.944   4.746   4.918 -0.0193  0.0472  0.3313
    21BTZ   C10 8286   2.913   4.666   5.024 -0.0088 -0.0818  0.2373
    21BTZ   C11 8287   2.916   4.524   5.007  0.0281 -0.0610  0.0759
    21BTZ    N2 8288   2.954   4.334   4.867  0.0874  0.1063 -0.1363
    21BTZ    N3 8289   2.888   4.435   5.103  0.0415 -0.1776 -0.0269
    21BTZ    S3 8290   2.907   4.273   5.029  0.0883 -0.0893 -0.2094
    31IDT   C12 8291   2.863   4.735   5.148  0.0553 -0.2648 -0.2026
    31IDT   C13 8292   2.841   4.869   5.157  0.4367 -0.2055 -0.1175
    31IDT   C14 8293   2.781   4.907   5.281  0.8013 -0.0767  0.0210
    31IDT   C15 8294   2.758   4.802   5.367  0.7006 -0.0373  0.0424
    31IDT    S4 8295   2.810   4.645   5.297  0.1309 -0.1610 -0.1126
    4IDB    C16 8296   2.687   4.846   5.479 -0.4316 -0.0875 -0.3052
    4IDB    C17 8297   2.681   4.988   5.474 -0.2246 -0.0689 -0.0620
    51IDQ   C18 8298   2.735   5.038   5.341 -0.6225 -0.7032  0.0325
    4IDB    C19 8299   2.629   5.061   5.581 -0.1622 -0.1779  0.0436
    51IDQ   C20 8300   2.855   5.146   5.373  0.7872 -0.2799  0.7908
    51IDQ   C21 8301   2.625   5.107   5.248  0.3503 -0.1063 -0.6221
    51IDQ   C22 8302   2.480   5.146   5.300  0.5713  0.3805  0.2685
    51IDQ   C23 8303   3.006   5.124   5.365  0.2864  0.6982  0.4338
    51IDQ   C24 8304   2.370   5.187   5.194 -0.3167  0.1290  0.2547
    51IDQ   C25 8305   2.359   5.334   5.171  0.0697 -0.7913  0.2220
    51IDQ   C26 8306   2.270   5.361   5.047  0.0634  0.1311  0.1602
    51IDQ   C27 8307   2.224   5.512   5.019  0.3431  0.5339  0.0572
    51IDQ   C28 8308   2.342   5.601   5.004 -0.5035 -0.3933 -0.0098
    51IDQ   C29 8309   2.428   5.606   4.883  0.3772  0.4772 -0.0954
    51IDQ   C30 8310   3.075   5.065   5.488 -0.2338 -0.2652  0.0464
    51IDQ   C31 8311   3.216   5.025   5.449 -0.4260  0.6023  0.1558
    51IDQ   C32 8312   3.281   4.950   5.565  0.8110  0.8401  0.4528
    51IDQ   C33 8313   3.429   4.941   5.589  0.2971  0.0336  0.1498
    51IDQ   C34 8314   3.507   5.069   5.580 -0.4778 -0.0039  0.5236
    51IDQ   C35 8315   3.648   5.036   5.625  0.0051  0.5146  0.3917
    4IDB    C36 8316   2.641   4.775   5.591 -0.5783 -0.2161 -0.4451
    4IDB    C37 8317   2.588   4.851   5.699 -0.5117 -0.3262 -0.3343
    11RH    C38 8318   3.107   4.386   4.080 -0.9331  0.0923  0.5288
    4IDB    C39 8319   2.583   4.991   5.693 -0.3090 -0.3064 -0.0965
    62IDT   C40 8320   2.527   5.038   5.814 -0.1211 -0.1075 -0.2333
    72IDQ   C41 8321   2.545   4.805   5.840  0.8145  0.2434  0.2717
    62IDT   C42 8322   2.510   4.937   5.906 -0.0076  0.0104 -0.0812
    72IDQ   C43 8323   2.670   4.744   5.912 -0.0720  0.1557 -0.3697
    72IDQ   C44 8324   2.429   4.697   5.833  0.7161 -0.1463 -0.3130
    62IDT    S5 8325   2.489   5.199   5.885 -0.0514 -0.0183 -0.3991
    62IDT   C45 8326   2.451   5.117   6.042  0.1367  0.1834 -0.2465
    62IDT   C46 8327   2.467   4.981   6.035  0.1383  0.1749 -0.0885
    82BTZ   C47 8328   2.414   5.188   6.167 -0.2020 -0.1185  0.3077
    82BTZ   C48 8329   2.344   5.121   6.264 -0.0992 -0.0181  0.4525
    82BTZ   C49 8330   2.308   5.184   6.388  0.0407  0.1092  0.4299
    82BTZ   C50 8331   2.341   5.314   6.416  0.0775  0.1361  0.2619
    82BTZ   C51 8332   2.452   5.324   6.192 -0.1686 -0.0952  0.1291
    82BTZ   C52 8333   2.415   5.388   6.318 -0.0264  0.0341  0.1060
    92RH    C53 8334   2.318   5.380   6.543  0.4582 -0.0895  0.0178
    82BTZ    N4 8335   2.521   5.400   6.105 -0.2596 -0.1850 -0.0228
    82BTZ    N5 8336   2.454   5.515   6.334 -0.0032  0.0482 -0.0645
    82BTZ    S6 8337   2.541   5.559   6.184 -0.1656 -0.1064 -0.2055
    92RH    C54 8338   2.274   5.340   6.663  0.1835 -0.0013 -0.0525
    92RH     S7 8339   2.208   5.174   6.705  0.0486  0.0422 -0.0888
    92RH    C55 8340   2.271   5.427   6.783 -0.0615  0.0771 -0.1136
    92RH     O2 8341   2.308   5.545   6.787 -0.0422  0.0709 -0.1073
    92RH     N6 8342   2.219   5.358   6.895 -0.3271  0.1626 -0.1819
    92RH    C56 8343   2.181   5.227   6.880 -0.3248  0.1619 -0.1829
    92RH    C57 8344   2.223   5.428   7.025  0.1299  0.3035 -1.1964
    92RH    C58 8345   2.344   5.422   7.117  0.1783  0.4117 -0.5809
    92RH     S8 8346   2.116   5.124   6.997 -0.6092  0.2532 -0.2564
    72IDQ   C59 8347   2.279   4.738   5.832  0.0293 -0.0461  0.4807
    72IDQ   C60 8348   2.170   4.641   5.804 -0.2384 -0.2517 -0.1711
    72IDQ   C61 8349   2.038   4.702   5.842 -0.1038  0.2195 -0.9052
    72IDQ   C62 8350   2.015   4.725   5.990  0.1358 -0.1464  0.2452
    72IDQ   C63 8351   1.870   4.753   6.023  0.7412 -0.0773 -1.1144
    72IDQ   C64 8352   1.837   4.760   6.173 -0.1889  0.6126 -0.0454
    72IDQ   C65 8353   1.687   4.746   6.171  0.2500  0.4396 -0.0038
    72IDQ   C66 8354   2.664   4.713   6.063 -0.3227 -0.4166 -0.5504
    72IDQ   C67 8355   2.795   4.723   6.136 -0.1785 -0.9956  0.5281
    72IDQ   C68 8356   2.764   4.738   6.286  0.1768  0.4095 -0.6657
    72IDQ   C69 8357   2.885   4.772   6.363 -0.0860 -0.2208  0.2907
    72IDQ   C70 8358   2.854   4.756   6.510  0.0541  0.2968 -0.3837
    72IDQ   C71 8359   2.965   4.755   6.609  0.3788 -0.1676 -0.6459
    72IDQ   C72 8360   2.924   4.798   6.755  0.5002 -0.4082  0.1968
    11RH     C1 8361   3.736   5.242   0.473 -0.1749 -0.0838  0.1299
    11RH     C2 8362   3.789   5.339   0.375  0.0081 -0.0945  0.2187
    11RH     N1 8363   3.688   5.306   0.589 -0.3412 -0.0755  0.0574
    11RH     S1 8364   3.774   5.509   0.442 -0.0503 -0.0929  0.2012
    11RH     C3 8365   3.697   5.444   0.596 -0.3138 -0.0781  0.0774
    11RH     C4 8366   3.625   5.227   0.698 -0.7592 -0.2030 -0.2263
    11RH     S2 8367   3.648   5.544   0.722 -0.4858 -0.0699  0.0042
    11RH     O1 8368   3.732   5.119   0.458 -0.1853 -0.0823  0.1185
    11RH     C5 8369   3.841   5.304   0.257  0.1862 -0.1036  0.2981
    21BTZ    C6 8370   3.907   5.367   0.146  0.6844 -0.0793  0.1057
    21BTZ    C7 8371   3.937   5.501   0.135  0.7250 -0.0924  0.0510
    21BTZ    C8 8372   3.929   5.283   0.032  0.3349 -0.0703  0.0286
    21BTZ    C9 8373   3.989   5.557   0.013  0.4265 -0.0973 -0.0813
    21BTZ   C10 8374   4.012   5.481  -0.098  0.0878 -0.0892 -0.1586
    21BTZ   C11 8375   3.983   5.340  -0.092  0.0315 -0.0753 -0.1059
    21BTZ    N2 8376   3.905   5.152   0.030  0.2616 -0.0571  0.0709
    21BTZ    N3 8377   4.001   5.256  -0.193 -0.2856 -0.0662 -0.1715
    21BTZ    S3 8378   3.949   5.095  -0.134 -0.2081 -0.0507 -0.0621
    31IDT   C12 8379   4.064   5.555  -0.215  0.4124 -0.4615  0.2010
    31IDT   C13 8380   4.085   5.690  -0.228  1.2345 -0.5399  0.6089
    31IDT   C14 8381   4.123   5.727  -0.361  1.3955 -0.3563  0.7043
    31IDT   C15 8382   4.130   5.621  -0.449  0.6991 -0.1372  0.3708
    31IDT    S4 8383   4.089   5.465  -0.370 -0.2233 -0.1465 -0.0944
    4IDB    C16 8384   4.176   5.658  -0.583  0.2056  0.0165  0.1455
    4IDB    C17 8385   4.208   5.797  -0.578  0.0070  0.0631  0.0994
    51IDQ   C18 8386   4.171   5.855  -0.437 -0.6043 -0.4332 -0.2255
    4IDB    C19 8387   4.262   5.863  -0.688 -0.1764  0.1261  0.0458
    51IDQ   C20 8388   4.064   5.959  -0.484  0.1096 -0.1829  0.6138
    51IDQ   C21 8389   4.290   5.917  -0.350 -0.2245 -0.0942 -0.0914
    51IDQ   C22 8390   4.434   5.898  -0.392 -0.1635  0.3967 -0.8772
    51IDQ   C23 8391   3.909   5.951  -0.475 -0.4181  0.4383 -0.2653
    51IDQ   C24 8392   4.521   5.981  -0.299 -0.7265  0.1079 -0.6459
    51IDQ   C25 8393   4.671   5.983  -0.327 -0.1019 -0.6675 -0.0352
    51IDQ   C26 8394   4.768   6.018  -0.214 -0.1425 -0.3608 -0.3568
    51IDQ   C27 8395   4.752   6.157  -0.149  0.1532  0.1412  0.1236
    51IDQ   C28 8396   4.856   6.212  -0.053 -0.0338  0.3863 -0.0143
    51IDQ   C29 8397   4.860   6.138   0.083  0.1464 -0.1062  0.2535
    51IDQ   C30 8398   3.829   5.835  -0.543 -0.1237 -0.7802  1.1774
    51IDQ   C31 8399   3.688   5.891  -0.566  0.5358 -0.4037  0.5394
    51IDQ   C32 8400   3.592   5.788  -0.626 -0.5444 -0.2032  0.4566
    51IDQ   C33 8401   3.449   5.837  -0.640  0.6726 -0.2881 -0.3790
    51IDQ   C34 8402   3.346   5.736  -0.680 -0.4548  1.2822 -0.4313
    51IDQ   C35 8403   3.201   5.773  -0.705 -0.2308  0.1044  0.0443
    4IDB    C36 8404   4.199   5.583  -0.700  0.2218  0.0325  0.1380
    4IDB    C37 8405   4.255   5.652  -0.811  0.0325  0.0970  0.0830
    11RH    C38 8406   3.731   5.180   0.810  0.5799  0.1345  0.7920
    4IDB    C39 8407   4.285   5.788  -0.804 -0.1604  0.1422  0.0385
    62IDT   C40 8408   4.335   5.827  -0.936  0.2460  0.0996 -0.0845
    72IDQ   C41 8409   4.280   5.592  -0.952 -0.0894 -0.1750 -0.4422
    62IDT   C42 8410   4.325   5.720  -1.024  0.2993  0.2190 -0.2360
    72IDQ   C43 8411   4.140   5.537  -1.011 -0.5073 -0.4705  0.0140
    72IDQ   C44 8412   4.391   5.475  -0.953 -0.0201 -0.6376 -0.2628
    62IDT    S5 8413   4.395   5.975  -1.017 -0.1344  0.3321  0.0539
    62IDT   C45 8414   4.405   5.881  -1.172 -0.2048  0.5914 -0.1088
    62IDT   C46 8415   4.365   5.751  -1.157  0.0445  0.4973 -0.2500
    82BTZ   C47 8416   4.443   5.952  -1.296  0.2125  0.1338  0.1855
    82BTZ   C48 8417   4.500   5.876  -1.394 -0.2247 -0.0278  0.0515
    82BTZ   C49 8418   4.538   5.933  -1.521 -0.5919 -0.1900 -0.1345
    82BTZ   C50 8419   4.519   6.066  -1.549 -0.5213 -0.1906 -0.1860
    82BTZ   C51 8420   4.421   6.091  -1.320  0.3037  0.1403  0.1382
    82BTZ   C52 8421   4.459   6.149  -1.449 -0.0694 -0.0247 -0.0507
    92RH    C53 8422   4.549   6.133  -1.681  0.4772  0.1957 -0.1618
    82BTZ    N4 8423   4.366   6.175  -1.232  0.7150  0.2896  0.2567
    82BTZ    N5 8424   4.435   6.280  -1.464  0.0420 -0.0081 -0.0842
    82BTZ    S6 8425   4.361   6.335  -1.311  0.6410  0.2241  0.1289
    92RH    C54 8426   4.586   6.085  -1.800  0.2550  0.0556 -0.1760
    92RH     S7 8427   4.631   5.912  -1.840  0.2959  0.0324 -0.0298
    92RH    C55 8428   4.596   6.169  -1.922 -0.0695 -0.1076 -0.3176
    92RH     O2 8429   4.572   6.290  -1.929 -0.1722 -0.1337 -0.4375
    92RH     N6 8430   4.637   6.093  -2.034 -0.2542 -0.2338 -0.3008
    92RH    C56 8431   4.661   5.958  -2.016 -0.1174 -0.1919 -0.1627
    92RH    C57 8432   4.632   6.152  -2.167 -0.7316  0.0920  0.2266
    92RH    C58 8433   4.514   6.113  -2.259  0.0678  0.7279 -0.1776
    92RH     S8 8434   4.711   5.846  -2.132 -0.2846 -0.3178 -0.1132
    72IDQ   C59 8435   4.534   5.517  -0.921 -0.2316  0.1579  0.1169
    72IDQ   C60 8436   4.631   5.400  -0.909 -0.1500  0.2634  0.3519
    72IDQ   C61 8437   4.778   5.416  -0.927  0.0176 -0.5174 -0.0703
    72IDQ   C62 8438   4.833   5.500  -1.038 -0.6092 -0.0638 -0.2692
    72IDQ   C63 8439   4.984   5.486  -1.052  0.6715 -0.0821 -0.3495
    72IDQ   C64 8440   5.035   5.556  -1.172 -0.2798 -0.3349  0.2092
    72IDQ   C65 8441   5.180   5.585  -1.155 -0.2372 -0.0835  0.0830
    72IDQ   C66 8442   4.128   5.493  -1.160  0.1239 -0.1522  0.1952
    72IDQ   C67 8443   3.994   5.488  -1.224  0.6296 -0.1324  0.9685
    72IDQ   C68 8444   3.990   5.459  -1.375  0.4574  0.0196  0.0613
    72IDQ   C69 8445   3.849   5.451  -1.421  0.4867  0.3443  0.1856
    72IDQ   C70 8446   3.831   5.412  -1.560 -0.3240  0.0651  0.6730
    72IDQ   C71 8447   3.684   5.425  -1.613 -0.1927  0.4496  0.3100
    72IDQ   C72 8448   3.692   5.389  -1.760 -0.2770  0.2191 -0.3128
    11RH     C1 8449   5.073   1.556   2.117 -0.0072 -0.0401  0.2748
    11RH     C2 8450   5.107   1.463   2.007  0.1577  0.0344  0.2615
    11RH     N1 8451   5.018   1.487   2.227 -0.2003 -0.1109  0.1343
    11RH     S1 8452   5.063   1.291   2.055  0.0478  0.0066  0.0650
    11RH     C3 8453   5.003   1.351   2.219 -0.2103 -0.1023  0.0101
    11RH     C4 8454   4.966   1.562   2.343 -0.5083 -0.9169 -0.3697
    11RH     S2 8455   4.939   1.246   2.335 -0.4199 -0.1763 -0.1689
    11RH     O1 8456   5.091   1.679   2.116  0.0168 -0.0419  0.3929
    11RH     C5 8457   5.161   1.502   1.891  0.3548  0.1096  0.3780
    21BTZ    C6 8458   5.198   1.428   1.765 -0.2432 -0.1466 -0.0711
    21BTZ    C7 8459   5.190   1.292   1.751 -0.1031 -0.1591 -0.0289
    21BTZ    C8 8460   5.236   1.506   1.651 -0.1999 -0.1534 -0.0613
    21BTZ    C9 8461   5.219   1.226   1.626  0.0854 -0.1787  0.0246
    21BTZ   C10 8462   5.256   1.297   1.515  0.1335 -0.1859  0.0360
    21BTZ   C11 8463   5.265   1.440   1.524 -0.0083 -0.1734 -0.0069
    21BTZ    N2 8464   5.247   1.639   1.652 -0.3242 -0.1426 -0.0991
    21BTZ    N3 8465   5.300   1.519   1.423  0.0212 -0.1787 -0.0009
    21BTZ    S3 8466   5.297   1.686   1.487 -0.1991 -0.1579 -0.0659
    31IDT   C12 8467   5.305   1.224   1.394 -0.1722 -0.1319  0.3168
    31IDT   C13 8468   5.330   1.089   1.386  0.1607 -0.0792  0.4308
    31IDT   C14 8469   5.376   1.049   1.258  0.7254 -0.0020  0.6045
    31IDT   C15 8470   5.387   1.152   1.166  0.8264  0.0048  0.6240
    31IDT    S4 8471   5.339   1.310   1.237  0.2087 -0.0872  0.4221
    4IDB    C16 8472   5.436   1.105   1.037  0.1701  0.1961  0.1348
    4IDB    C17 8473   5.466   0.966   1.049  0.4067  0.2340  0.0016
    51IDQ   C18 8474   5.426   0.921   1.197 -0.1501 -0.0064  1.0471
    4IDB    C19 8475   5.510   0.892   0.939  0.2384  0.3449 -0.1406
    51IDQ   C20 8476   5.316   0.806   1.194 -0.1376 -0.9005 -0.5820
    51IDQ   C21 8477   5.549   0.873   1.290 -0.2228  0.5480  0.0709
    51IDQ   C22 8478   5.688   0.853   1.229  0.1290  0.0987 -0.4737
    51IDQ   C23 8479   5.162   0.844   1.188  0.0649  0.1388 -0.2478
    51IDQ   C24 8480   5.796   0.781   1.309 -0.0695 -0.2638 -0.3829
    51IDQ   C25 8481   5.762   0.647   1.367  0.3042 -0.3717  0.0408
    51IDQ   C26 8482   5.858   0.562   1.434 -0.4772  0.4727 -0.3799
    51IDQ   C27 8483   5.921   0.612   1.568 -0.0162 -0.0548 -0.0036
    51IDQ   C28 8484   6.017   0.524   1.654 -0.2905 -0.0559  0.1047
    51IDQ   C29 8485   6.149   0.471   1.580 -0.5985 -0.4462 -0.3701
    51IDQ   C30 8486   5.105   0.916   1.065  0.6313  0.0480  0.0092
    51IDQ   C31 8487   4.955   0.943   1.072 -0.2365  0.3141  0.0026
    51IDQ   C32 8488   4.906   1.005   0.938  0.4589  0.3669 -0.1091
    51IDQ   C33 8489   4.758   1.047   0.937 -0.3060  0.1102  0.1264
    51IDQ   C34 8490   4.649   0.942   0.949  0.8810  0.1653  0.3091
    51IDQ   C35 8491   4.506   0.986   0.925  0.6245  0.4750 -0.1441
    4IDB    C36 8492   5.450   1.171   0.914 -0.2388  0.2696  0.1264
    4IDB    C37 8493   5.495   1.095   0.803 -0.4057  0.3826 -0.0198
    11RH    C38 8494   5.068   1.579   2.450 -0.0192  0.1903 -0.2856
    4IDB    C39 8495   5.523   0.959   0.817 -0.1706  0.4183 -0.1489
    62IDT   C40 8496   5.567   0.912   0.691 -0.0191  0.7170  0.1315
    72IDQ   C41 8497   5.523   1.142   0.661  0.0915  0.3351  0.7135
    62IDT   C42 8498   5.573   1.012   0.596  0.2414  0.5495 -0.0332
    72IDQ   C43 8499   5.389   1.211   0.598 -0.2373  0.1115 -0.1292
    72IDQ   C44 8500   5.636   1.254   0.659 -0.8427  0.2914  0.3745
    62IDT    S5 8501   5.618   0.753   0.623 -0.2182  0.5161  0.4489
    62IDT   C45 8502   5.646   0.835   0.463  0.0758  0.2008  0.3366
    62IDT   C46 8503   5.617   0.969   0.467  0.2954  0.2574  0.0824
    82BTZ   C47 8504   5.691   0.759   0.341  0.0411  0.0881  0.1175
    82BTZ   C48 8505   5.744   0.833   0.238 -0.1069  0.1656  0.0959
    82BTZ   C49 8506   5.781   0.773   0.112 -0.3026  0.2633 -0.0081
    82BTZ   C50 8507   5.764   0.639   0.089 -0.3496  0.2834 -0.0904
    82BTZ   C51 8508   5.671   0.619   0.321 -0.0010  0.1054  0.0340
    82BTZ   C52 8509   5.708   0.557   0.193 -0.1997  0.2048 -0.0717
    92RH    C53 8510   5.798   0.579  -0.040  0.2281  0.1695 -0.0307
    82BTZ    N4 8511   5.621   0.536   0.413  0.1309  0.0359  0.0453
    82BTZ    N5 8512   5.687   0.426   0.182 -0.2276  0.2152 -0.1454
    82BTZ    S6 8513   5.617   0.374   0.339  0.0037  0.0959 -0.0814
    92RH    C54 8514   5.842   0.625  -0.158  0.1625  0.1423 -0.0664
    92RH     S7 8515   5.886   0.798  -0.198  0.2846  0.1066 -0.0869
    92RH    C55 8516   5.862   0.539  -0.277 -0.0261  0.1370 -0.0955
    92RH     O2 8517   5.841   0.417  -0.283 -0.1434  0.1566 -0.0906
    92RH     N6 8518   5.910   0.614  -0.387 -0.0586  0.1062 -0.1305
    92RH    C56 8519   5.930   0.750  -0.370  0.0808  0.0863 -0.1332
    92RH    C57 8520   5.947   0.539  -0.512 -0.0711 -0.0743 -0.6517
    92RH    C58 8521   5.851   0.547  -0.631  0.6415  0.4670 -0.4281
    92RH     S8 8522   5.985   0.861  -0.484  0.0775  0.0488 -0.1712
    72IDQ   C59 8523   5.783   1.225   0.707 -0.6387  0.1303  0.0262
    72IDQ   C60 8524   5.870   1.346   0.726  0.0619  0.4007 -0.0720
    72IDQ   C61 8525   6.025   1.329   0.726 -0.2577  0.5789 -0.2210
    72IDQ   C62 8526   6.071   1.301   0.583  0.2879  0.1449 -0.4392
    72IDQ   C63 8527   6.213   1.243   0.583  0.0919  0.0437  0.0110
    72IDQ   C64 8528   6.250   1.212   0.439 -0.4024 -0.1230  0.2485
    72IDQ   C65 8529   6.403   1.206   0.411 -0.3217 -0.0833  0.1266
    72IDQ   C66 8530   5.383   1.217   0.442 -0.1371 -0.2379 -0.5702
    72IDQ   C67 8531   5.247   1.262   0.393  0.4129 -0.6346 -0.7910
    72IDQ   C68 8532   5.235   1.272   0.242 -0.1863  0.9310  0.4636
    72IDQ   C69 8533   5.116   1.351   0.187 -0.2223 -0.0952  0.0250
    72IDQ   C70 8534   5.097   1.355   0.034 -0.5102  0.4531 -0.0739
    72IDQ   C71 8535   5.092   1.217  -0.041  0.2392  0.1840  0.6227
    72IDQ   C72 8536   5.117   1.235  -0.185  0.0274 -0.2446  0.5690
    11RH     C1 8537   4.368   0.813   6.130 -0.1761  0.1370 -0.2102
    11RH     C2 8538   4.314   0.722   6.234 -0.0626  0.0764 -0.2040
    11RH     N1 8539   4.404   0.742   6.013 -0.1855  0.1879 -0.2441
    11RH     S1 8540   4.314   0.550   6.171  0.0241  0.0903 -0.2428
    11RH     C3 8541   4.386   0.606   6.010 -0.0938  0.1755 -0.2655
    11RH     C4 8542   4.475   0.819   5.905  0.4280  0.3328  0.1738
    11RH     S2 8543   4.420   0.499   5.885 -0.0834  0.2274 -0.3066
    11RH     O1 8544   4.382   0.936   6.141 -0.2540  0.1436 -0.1891
    11RH     C5 8545   4.273   0.764   6.354 -0.0315  0.0209 -0.1741
    21BTZ    C6 8546   4.228   0.690   6.473  0.0153 -0.1939 -0.0197
    21BTZ    C7 8547   4.232   0.554   6.489  0.0367 -0.1840  0.0622
    21BTZ    C8 8548   4.177   0.770   6.580 -0.0315 -0.1397 -0.0820
    21BTZ    C9 8549   4.187   0.491   6.610  0.0134 -0.1208  0.0868
    21BTZ   C10 8550   4.137   0.563   6.715 -0.0316 -0.0676  0.0296
    21BTZ   C11 8551   4.131   0.706   6.704 -0.0553 -0.0755 -0.0570
    21BTZ    N2 8552   4.168   0.904   6.577 -0.0560 -0.1433 -0.1636
    21BTZ    N3 8553   4.085   0.787   6.799 -0.0989 -0.0274 -0.1185
    21BTZ    S3 8554   4.099   0.953   6.735 -0.1116 -0.0630 -0.2131
    31IDT   C12 8555   4.081   0.492   6.831  0.2576  0.2747  0.4046
    31IDT   C13 8556   4.050   0.358   6.828  0.3922  0.2513  0.0706
    31IDT   C14 8557   3.996   0.310   6.951  0.2959 -0.0778 -0.0982
    31IDT   C15 8558   3.984   0.407   7.049  0.0877 -0.3069  0.1054
    31IDT    S4 8559   4.042   0.567   6.992 -0.0033 -0.1218  0.5306
    4IDB    C16 8560   3.915   0.362   7.160  0.3451 -0.0024 -0.0634
    4IDB    C17 8561   3.889   0.222   7.146 -0.0522  0.0509  0.1229
    51IDQ   C18 8562   3.930   0.180   7.004 -0.9653  0.6900  0.5656
    4IDB    C19 8563   3.842   0.147   7.254 -0.2549  0.3247  0.2257
    51IDQ   C20 8564   4.037   0.059   7.004  0.6376 -0.0644 -0.6045
    51IDQ   C21 8565   3.813   0.139   6.905 -0.4760  0.1780  0.3527
    51IDQ   C22 8566   3.665   0.155   6.944  0.1238 -0.4273  0.5640
    51IDQ   C23 8567   4.185   0.064   6.984 -0.3792  0.0505  0.1223
    51IDQ   C24 8568   3.571   0.119   6.830  0.4304  1.0460  0.2213
    51IDQ   C25 8569   3.580  -0.030   6.789  0.7356 -0.1045 -0.2131
    51IDQ   C26 8570   3.471  -0.081   6.691 -0.4253 -0.0718 -0.1130
    51IDQ   C27 8571   3.415  -0.222   6.719 -0.1484 -0.4548  0.1351
    51IDQ   C28 8572   3.507  -0.344   6.719 -0.4235 -0.6688 -0.7462
    51IDQ   C29 8573   3.600  -0.370   6.602  0.2388 -0.2621  0.0585
    51IDQ   C30 8574   4.256   0.135   7.097 -0.5523 -0.1155 -0.0572
    51IDQ   C31 8575   4.401   0.100   7.085 -0.2848 -0.1728 -0.6457
    51IDQ   C32 8576   4.493   0.152   7.196  0.3088  0.0023  0.2830
    51IDQ   C33 8577   4.633   0.151   7.145 -0.4460  0.5731 -1.1562
    51IDQ   C34 8578   4.724   0.214   7.253  0.0196  1.0225  0.1405
    51IDQ   C35 8579   4.870   0.237   7.212  0.5351 -0.2117 -0.2330
    4IDB    C36 8580   3.894   0.428   7.281  0.5429  0.2194 -0.1483
    4IDB    C37 8581   3.845   0.350   7.390  0.3310  0.4978 -0.0411
    11RH    C38 8582   4.393   0.874   5.791 -0.3681  0.1864  0.2995
    4IDB    C39 8583   3.820   0.214   7.375 -0.0571  0.5465  0.1408
    62IDT   C40 8584   3.781   0.161   7.507 -0.0373 -0.0334  0.3067
    72IDQ   C41 8585   3.818   0.392   7.533 -0.3339 -0.7724 -0.0691
    62IDT   C42 8586   3.768   0.261   7.602 -0.2803 -0.1038  0.3493
    72IDQ   C43 8587   3.957   0.439   7.594  0.1553  0.3329  0.2267
    72IDQ   C44 8588   3.721   0.520   7.548  0.0677  0.6890  0.6311
    62IDT    S5 8589   3.743  -0.001   7.574  0.0577 -0.1172  0.1588
    62IDT   C45 8590   3.711   0.078   7.735 -0.2511 -0.2494  0.1626
    62IDT   C46 8591   3.728   0.214   7.731 -0.4015 -0.2261  0.2679
    82BTZ   C47 8592   3.676   0.002   7.854 -0.3195 -0.0134  0.0731
    82BTZ   C48 8593   3.631   0.077   7.960 -0.2172 -0.0755  0.1607
    82BTZ   C49 8594   3.605   0.018   8.089  0.0083 -0.1330  0.1812
    82BTZ   C50 8595   3.624  -0.116   8.112  0.1312 -0.1281  0.1141
    82BTZ   C51 8596   3.697  -0.139   7.874 -0.1978 -0.0057  0.0004
    82BTZ   C52 8597   3.670  -0.199   8.005  0.0315 -0.0641  0.0212
    92RH    C53 8598   3.598  -0.177   8.240  0.0966  0.0004  0.0802
    82BTZ    N4 8599   3.740  -0.222   7.778 -0.2793  0.0525 -0.0876
    82BTZ    N5 8600   3.692  -0.330   8.015  0.1342 -0.0529 -0.0500
    82BTZ    S6 8601   3.748  -0.384   7.854 -0.0619  0.0344 -0.1488
    92RH    C54 8602   3.552  -0.128   8.356 -0.0502 -0.0141  0.0277
    92RH     S7 8603   3.494   0.044   8.386 -0.0460 -0.0054 -0.0126
    92RH    C55 8604   3.540  -0.207   8.480 -0.2452 -0.0405 -0.0067
    92RH     O2 8605   3.571  -0.327   8.492 -0.2950 -0.0520  0.0085
    92RH     N6 8606   3.488  -0.130   8.586 -0.3716 -0.0512 -0.0604
    92RH    C56 8607   3.457   0.002   8.562 -0.3020 -0.0370 -0.0730
    92RH    C57 8608   3.477  -0.184   8.726  0.2331 -1.0688  0.0888
    92RH    C58 8609   3.607  -0.184   8.810 -0.1972  0.3197 -0.0143
    92RH     S8 8610   3.394   0.115   8.670 -0.4218 -0.0454 -0.1334
    72IDQ   C59 8611   3.569   0.492   7.540 -0.9028 -0.5854  0.3258
    72IDQ   C60 8612   3.480   0.615   7.547  0.5783  0.0834 -0.1158
    72IDQ   C61 8613   3.329   0.597   7.548  0.2687 -0.9122 -0.8326
    72IDQ   C62 8614   3.267   0.491   7.638 -0.1342 -0.4346  0.4482
    72IDQ   C63 8615   3.118   0.479   7.606  0.1698 -0.1179  0.1443
    72IDQ   C64 8616   3.024   0.400   7.701  0.9753  0.3993 -0.1606
    72IDQ   C65 8617   3.004   0.460   7.844  0.5526 -0.1279  0.2762
    72IDQ   C66 8618   3.978   0.459   7.748  0.3406  0.2424  0.8181
    72IDQ   C67 8619   4.121   0.474   7.796 -0.4010 -0.0848  0.0952
    72IDQ   C68 8620   4.119   0.514   7.946  0.6358 -0.1894  0.7333
    72IDQ   C69 8621   4.261   0.540   7.995 -0.5290  0.1820 -0.3459
    72IDQ   C70 8622   4.252   0.547   8.150 -0.5696  0.4759  0.2628
    72IDQ   C71 8623   4.397   0.571   8.197 -0.1520  0.2359  0.4811
    72IDQ   C72 8624   4.403   0.562   8.348  0.0336 -0.0561  0.2749
    11RH     C1 8625   5.013   5.940   1.188 -0.1466 -0.0110 -0.3710
    11RH     C2 8626   4.964   6.028   1.296 -0.1312 -0.2213 -0.1919
    11RH     N1 8627   5.050   6.014   1.074  0.1428  0.2406 -0.1163
    11RH     S1 8628   4.969   6.203   1.241  0.2627 -0.0749  0.2998
    11RH     C3 8629   5.037   6.151   1.078  0.3880  0.2574  0.2450
    11RH     C4 8630   5.107   5.937   0.953 -0.6522 -0.0990 -0.0371
    11RH     S2 8631   5.073   6.262   0.956  0.7540  0.5310  0.6001
    11RH     O1 8632   5.022   5.816   1.194 -0.3808 -0.0455 -0.7020
    11RH     C5 8633   4.922   5.983   1.415 -0.3736 -0.4774 -0.3719
    21BTZ    C6 8634   4.872   6.044   1.539 -0.2275  0.0808 -0.0169
    21BTZ    C7 8635   4.860   6.180   1.549 -0.1769  0.0862 -0.0285
    21BTZ    C8 8636   4.835   5.963   1.652 -0.1464  0.1110  0.0317
    21BTZ    C9 8637   4.811   6.244   1.670 -0.0452  0.1211  0.0067
    21BTZ   C10 8638   4.775   6.170   1.780  0.0359  0.1506  0.0535
    21BTZ   C11 8639   4.785   6.028   1.774 -0.0124  0.1465  0.0674
    21BTZ    N2 8640   4.842   5.830   1.654 -0.1845  0.1090  0.0474
    21BTZ    N3 8641   4.753   5.946   1.874  0.0571  0.1732  0.1119
    21BTZ    S3 8642   4.785   5.780   1.816 -0.0477  0.1535  0.1099
    31IDT   C12 8643   4.722   6.240   1.895  0.6416 -0.3043  0.1545
    31IDT   C13 8644   4.680   6.371   1.900  0.4709 -0.3400 -0.2965
    31IDT   C14 8645   4.628   6.408   2.027 -0.0916 -0.1203 -0.5863
    31IDT   C15 8646   4.628   6.307   2.121 -0.3527  0.0838 -0.3586
    31IDT    S4 8647   4.697   6.155   2.054  0.0974  0.0130  0.2459
    4IDB    C16 8648   4.587   6.350   2.250  0.0186 -0.0965  0.3168
    4IDB    C17 8649   4.554   6.488   2.241 -0.4945 -0.2385 -0.0423
    51IDQ   C18 8650   4.571   6.537   2.096 -0.7922  0.4019  1.2070
    4IDB    C19 8651   4.517   6.561   2.353 -0.3150  0.0215 -0.1478
    51IDQ   C20 8652   4.680   6.660   2.102  0.4538  0.2089 -0.0578
    51IDQ   C21 8653   4.448   6.593   2.013  0.8999 -0.6045  0.3241
    51IDQ   C22 8654   4.299   6.586   2.069 -0.6329  0.5893  0.1866
    51IDQ   C23 8655   4.824   6.640   2.064 -0.3241 -0.0980 -0.0341
    51IDQ   C24 8656   4.191   6.623   1.968  0.2159  0.1447  0.1550
    51IDQ   C25 8657   4.171   6.768   1.932  0.1973  0.1919 -0.3883
    51IDQ   C26 8658   4.058   6.801   1.834 -0.2642 -0.3905  0.1460
    51IDQ   C27 8659   4.058   6.939   1.767 -0.3549  0.0711 -0.0378
    51IDQ   C28 8660   4.186   6.974   1.686 -0.4135 -0.1123 -0.1533
    51IDQ   C29 8661   4.164   7.110   1.611 -0.1825  0.5466 -0.8189
    51IDQ   C30 8662   4.913   6.585   2.181  0.1243 -0.1130  0.4133
    51IDQ   C31 8663   5.060   6.584   2.153 -0.1917 -0.5932  0.1413
    51IDQ   C32 8664   5.145   6.516   2.263  1.4199 -0.2497 -0.7501
    51IDQ   C33 8665   5.294   6.508   2.246 -0.2383 -0.0092 -0.2002
    51IDQ   C34 8666   5.370   6.448   2.358 -0.4298  0.2870 -0.5434
    51IDQ   C35 8667   5.520   6.465   2.332  0.1028  0.0087  0.0068
    4IDB    C36 8668   4.583   6.282   2.374  0.7184  0.3090  0.5739
    4IDB    C37 8669   4.545   6.358   2.488  0.8923  0.5703  0.4612
    11RH    C38 8670   4.996   5.889   0.863  0.2858 -0.4936  0.5012
    4IDB    C39 8671   4.512   6.493   2.476  0.3848  0.4270  0.1094
    62IDT   C40 8672   4.466   6.538   2.603 -0.4147 -0.0504  0.0858
    72IDQ   C41 8673   4.523   6.308   2.634 -0.3918 -0.8465 -0.0384
    62IDT   C42 8674   4.475   6.439   2.699 -0.5132  0.0491  0.1999
    72IDQ   C43 8675   4.671   6.270   2.685  0.0582  0.1438  0.0661
    72IDQ   C44 8676   4.419   6.189   2.641 -0.4104  0.2649 -0.5681
    62IDT    S5 8677   4.397   6.690   2.671  0.0244  0.1965 -0.0116
    62IDT   C45 8678   4.383   6.607   2.832  0.0526  0.4328  0.1133
    62IDT   C46 8679   4.428   6.477   2.828 -0.2491  0.3224  0.2157
    82BTZ   C47 8680   4.348   6.683   2.952 -0.0928  0.0864 -0.3312
    82BTZ   C48 8681   4.293   6.613   3.057 -0.1708  0.0740 -0.3803
    82BTZ   C49 8682   4.270   6.675   3.185 -0.1565  0.0260 -0.3546
    82BTZ   C50 8683   4.301   6.806   3.209 -0.0641 -0.0096 -0.2797
    82BTZ   C51 8684   4.383   6.821   2.972  0.0054  0.0504 -0.2521
    82BTZ   C52 8685   4.359   6.883   3.103  0.0200  0.0016 -0.2260
    92RH    C53 8686   4.287   6.866   3.338  0.0963 -0.1570 -0.0432
    82BTZ    N4 8687   4.437   6.899   2.878  0.0873  0.0581 -0.1988
    82BTZ    N5 8688   4.394   7.012   3.114  0.1136 -0.0300 -0.1517
    82BTZ    S6 8689   4.460   7.059   2.954  0.1887  0.0021 -0.1111
    92RH    C54 8690   4.248   6.823   3.459  0.0476 -0.0785 -0.0312
    92RH     S7 8691   4.200   6.652   3.505  0.1705 -0.0790  0.0956
    92RH    C55 8692   4.237   6.912   3.578 -0.1200  0.0242 -0.1222
    92RH     O2 8693   4.262   7.033   3.579 -0.2325  0.0494 -0.2184
    92RH     N6 8694   4.194   6.840   3.692 -0.1378  0.0922 -0.0863
    92RH    C56 8695   4.168   6.706   3.679 -0.0050  0.0565  0.0222
    92RH    C57 8696   4.168   6.914   3.819  0.0567  0.2523 -0.1418
    92RH    C58 8697   4.288   6.904   3.914 -0.0709  0.3868 -0.3696
    92RH     S8 8698   4.116   6.599   3.798  0.0060  0.1214  0.0852
    72IDQ   C59 8699   4.276   6.214   2.592 -0.0443 -0.0887  0.5148
    72IDQ   C60 8700   4.191   6.092   2.633 -0.0613  0.2836 -0.0183
    72IDQ   C61 8701   4.042   6.110   2.633  0.6418 -0.1967  0.2054
    72IDQ   C62 8702   3.988   6.198   2.750 -0.0123 -0.1672  0.0183
    72IDQ   C63 8703   3.840   6.212   2.737  0.0324 -0.5648  0.4627
    72IDQ   C64 8704   3.770   6.314   2.831 -0.1179 -0.0155 -0.5586
    72IDQ   C65 8705   3.619   6.324   2.824  0.0731 -0.1249 -0.1231
    72IDQ   C66 8706   4.667   6.235   2.835 -0.0413  0.2054 -0.1508
    72IDQ   C67 8707   4.809   6.229   2.890 -0.5730  0.5656 -0.1900
    72IDQ   C68 8708   4.817   6.222   3.048  0.8747  0.7414  0.1137
    72IDQ   C69 8709   4.953   6.213   3.099 -0.4767  0.2791  0.1488
    72IDQ   C70 8710   4.925   6.204   3.245  0.3884 -0.0169  0.1691
    72IDQ   C71 8711   5.058   6.236   3.310 -0.3412  0.2718  0.2012
    72IDQ   C72 8712   5.052   6.221   3.461  0.5847 -0.5406  0.4550
    11RH     C1 8713   4.885   0.611   3.764 -0.0594  0.1851  0.2340
    11RH     C2 8714   4.923   0.698   3.650 -0.1277  0.0636  0.1175
    11RH     N1 8715   4.855   0.686   3.879  0.1385  0.3025  0.2097
    11RH     S1 8716   4.916   0.874   3.702  0.0729  0.1116 -0.0162
    11RH     C3 8717   4.864   0.823   3.872  0.2371  0.2899  0.0881
    11RH     C4 8718   4.831   0.616   4.008  0.4881  0.6175  0.6908
    11RH     S2 8719   4.833   0.936   3.994  0.4719  0.4129  0.0345
    11RH     O1 8720   4.880   0.487   3.761 -0.1602  0.1866  0.3405
    11RH     C5 8721   4.956   0.651   3.529 -0.3095 -0.0606  0.1146
    21BTZ    C6 8722   4.997   0.715   3.404  0.0501 -0.3090  0.2403
    21BTZ    C7 8723   5.011   0.851   3.392  0.2184 -0.3064  0.4409
    21BTZ    C8 8724   5.025   0.632   3.291  0.0106 -0.1820  0.1364
    21BTZ    C9 8725   5.053   0.911   3.268  0.3557 -0.1798  0.5491
    21BTZ   C10 8726   5.082   0.836   3.157  0.3244 -0.0559  0.4564
    21BTZ   C11 8727   5.068   0.694   3.165  0.1500 -0.0532  0.2465
    21BTZ    N2 8728   5.015   0.499   3.291 -0.1483 -0.1713 -0.0587
    21BTZ    N3 8729   5.093   0.610   3.064  0.1032  0.0609  0.1397
    21BTZ    S3 8730   5.062   0.445   3.127 -0.1259  0.0075 -0.1112
    31IDT   C12 8731   5.140   0.902   3.032  0.3839 -0.0817  0.2878
    31IDT   C13 8732   5.195   1.027   3.025  0.6053 -0.1685  0.4526
    31IDT   C14 8733   5.240   1.061   2.893  0.5285 -0.0182  0.4643
    31IDT   C15 8734   5.219   0.961   2.800  0.2485  0.1837  0.3088
    31IDT    S4 8735   5.141   0.816   2.871  0.0589  0.1992  0.1340
    4IDB    C16 8736   5.267   1.012   2.670 -0.7930  0.3224 -0.1701
    4IDB    C17 8737   5.326   1.141   2.685 -1.0771  0.4496 -0.1459
    51IDQ   C18 8738   5.304   1.187   2.830 -0.6899  0.1340 -0.1527
    4IDB    C19 8739   5.389   1.203   2.578 -0.5401  0.2760  0.0648
    51IDQ   C20 8740   5.214   1.317   2.841  0.6578  0.1385  0.5261
    51IDQ   C21 8741   5.437   1.220   2.907  0.2609  0.0377 -0.3374
    51IDQ   C22 8742   5.578   1.215   2.864 -0.6442  0.3855  0.1102
    51IDQ   C23 8743   5.061   1.315   2.863 -0.5067 -0.0763 -0.0847
    51IDQ   C24 8744   5.691   1.211   2.972 -0.7775  0.3397  0.3607
    51IDQ   C25 8745   5.678   1.311   3.085 -0.3694 -0.1926  0.2120
    51IDQ   C26 8746   5.805   1.295   3.182  0.1584  0.4640 -0.3660
    51IDQ   C27 8747   5.852   1.414   3.267 -0.0847  0.5330 -0.2827
    51IDQ   C28 8748   5.885   1.541   3.184  0.4449 -0.4546 -0.3547
    51IDQ   C29 8749   5.969   1.638   3.261 -0.0554  0.2309  0.3319
    51IDQ   C30 8750   4.981   1.260   2.736 -0.5394  0.5965  0.2942
    51IDQ   C31 8751   4.832   1.269   2.763  0.4863  0.1709  0.7408
    51IDQ   C32 8752   4.749   1.185   2.668  0.5739 -0.2255  0.3576
    51IDQ   C33 8753   4.597   1.214   2.683  0.8253  0.6323  0.0541
    51IDQ   C34 8754   4.517   1.147   2.572 -0.4489  0.4465  0.5188
    51IDQ   C35 8755   4.370   1.179   2.594  0.3091  0.4669  0.0577
    4IDB    C36 8756   5.272   0.943   2.548  0.0349  0.0188  0.0176
    4IDB    C37 8757   5.337   1.009   2.440  0.5746 -0.1552  0.2316
    11RH    C38 8758   4.954   0.587   4.090  0.0944  0.6388 -0.4444
    4IDB    C39 8759   5.394   1.135   2.456  0.2877 -0.0276  0.2525
    62IDT   C40 8760   5.442   1.181   2.326 -0.3128  0.6067 -0.0225
    72IDQ   C41 8761   5.352   0.961   2.294  0.0975  0.2158 -0.4858
    62IDT   C42 8762   5.419   1.084   2.230 -0.8703  0.7592 -0.0511
    72IDQ   C43 8763   5.205   0.937   2.241  0.0946 -0.0417  0.1119
    72IDQ   C44 8764   5.431   0.825   2.283 -0.1358 -0.1809 -0.2158
    62IDT    S5 8765   5.520   1.327   2.256  0.5461  0.1871  0.0237
    62IDT   C45 8766   5.517   1.246   2.093  0.0835  0.2427  0.0009
    62IDT   C46 8767   5.461   1.120   2.099 -0.6471  0.5537 -0.0380
    82BTZ   C47 8768   5.555   1.314   1.969 -0.3701 -0.2554 -0.4317
    82BTZ   C48 8769   5.580   1.234   1.860 -0.3716 -0.0416 -0.5921
    82BTZ   C49 8770   5.588   1.287   1.727 -0.2233  0.2475 -0.4705
    82BTZ   C50 8771   5.570   1.421   1.701 -0.0739  0.3223 -0.1887
    82BTZ   C51 8772   5.536   1.455   1.947 -0.2168 -0.1878 -0.1355
    82BTZ   C52 8773   5.544   1.509   1.811 -0.0660  0.1060 -0.0119
    92RH    C53 8774   5.592   1.476   1.576  0.1150 -0.1277 -0.1307
    82BTZ    N4 8775   5.512   1.543   2.044 -0.1999 -0.3775  0.0424
    82BTZ    N5 8776   5.525   1.641   1.799  0.0719  0.1524  0.2653
    82BTZ    S6 8777   5.497   1.702   1.964  0.0138 -0.1844  0.3826
    92RH    C54 8778   5.636   1.426   1.460  0.1045 -0.1022 -0.1455
    92RH     S7 8779   5.700   1.257   1.430  0.4451  0.0190 -0.1084
    92RH    C55 8780   5.638   1.504   1.333 -0.1954 -0.1708 -0.1960
    92RH     O2 8781   5.602   1.622   1.320 -0.4673 -0.2583 -0.2299
    92RH     N6 8782   5.689   1.427   1.227 -0.1361 -0.1244 -0.2014
    92RH    C56 8783   5.727   1.297   1.252  0.1749 -0.0269 -0.1614
    92RH    C57 8784   5.717   1.495   1.098  0.2567  0.1997 -0.3020
    92RH    C58 8785   5.592   1.508   1.002 -0.3138 -0.6678 -0.2703
    92RH     S8 8786   5.790   1.185   1.143  0.3089  0.0450 -0.1582
    72IDQ   C59 8787   5.582   0.812   2.258 -0.0387 -0.0562 -0.3952
    72IDQ   C60 8788   5.676   0.817   2.381  1.0923 -0.1887 -0.1421
    72IDQ   C61 8789   5.823   0.797   2.363 -0.1694 -0.7520  0.0057
    72IDQ   C62 8790   5.891   0.908   2.282 -0.3904 -0.2334 -0.2811
    72IDQ   C63 8791   6.007   0.877   2.184  0.0037  0.2484  0.2759
    72IDQ   C64 8792   6.089   0.989   2.131 -0.0676  0.0385  0.3431
    72IDQ   C65 8793   6.175   0.960   2.002  0.6474  0.4408 -0.0440
    72IDQ   C66 8794   5.190   0.899   2.096 -0.3912 -0.2920  0.4716
    72IDQ   C67 8795   5.045   0.894   2.050  0.3732  0.3531 -0.5423
    72IDQ   C68 8796   5.034   0.904   1.898 -0.6410  0.0586 -0.0155
    72IDQ   C69 8797   4.903   0.857   1.830  0.6161 -0.1065 -0.1191
    72IDQ   C70 8798   4.904   0.886   1.680 -0.3619  0.5418 -0.1685
    72IDQ   C71 8799   4.788   0.837   1.598 -0.6598  0.2542 -0.1684
    72IDQ   C72 8800   4.804   0.872   1.457  0.2842  0.6107 -0.2194
    11RH     C1 8801   4.632   1.511   5.376  0.0405  0.0027  0.2964
    11RH     C2 8802   4.680   1.415   5.274 -0.0321  0.0929  0.1764
    11RH     N1 8803   4.585   1.445   5.491  0.0414 -0.1039  0.2360
    11RH     S1 8804   4.661   1.243   5.337 -0.0941  0.0318 -0.0077
    11RH     C3 8805   4.590   1.307   5.495 -0.0215 -0.1101  0.0825
    11RH     C4 8806   4.540   1.517   5.609 -0.4399 -0.6915  0.3024
    11RH     S2 8807   4.541   1.205   5.620 -0.0348 -0.2259 -0.0170
    11RH     O1 8808   4.631   1.635   5.364  0.0943  0.0165  0.4331
    11RH     C5 8809   4.729   1.451   5.155 -0.0474  0.2017  0.2033
    21BTZ    C6 8810   4.778   1.387   5.032 -0.0242 -0.0512 -0.2925
    21BTZ    C7 8811   4.791   1.252   5.013  0.0880 -0.0423 -0.2776
    21BTZ    C8 8812   4.812   1.476   4.925 -0.0968 -0.0339 -0.3020
    21BTZ    C9 8813   4.839   1.198   4.888  0.1340 -0.0163 -0.2712
    21BTZ   C10 8814   4.874   1.278   4.783  0.0680  0.0009 -0.2798
    21BTZ   C11 8815   4.861   1.420   4.798 -0.0499 -0.0074 -0.2955
    21BTZ    N2 8816   4.804   1.609   4.932 -0.2073 -0.0402 -0.3167
    21BTZ    N3 8817   4.892   1.509   4.703 -0.1228  0.0075 -0.3049
    21BTZ    S3 8818   4.859   1.670   4.773 -0.2571 -0.0120 -0.3229
    31IDT   C12 8819   4.925   1.214   4.661 -0.3476  0.5428 -0.0487
    31IDT   C13 8820   4.941   1.079   4.645 -0.5426  0.4740  0.3096
    31IDT   C14 8821   5.001   1.044   4.520 -0.2631  0.0758  0.5478
    31IDT   C15 8822   5.031   1.153   4.440  0.1461 -0.1609  0.3731
    31IDT    S4 8823   4.985   1.308   4.518  0.2095  0.1044 -0.1112
    4IDB    C16 8824   5.081   1.103   4.319  0.1702  0.1840 -0.1198
    4IDB    C17 8825   5.106   0.963   4.327 -0.3431  0.0823 -0.2308
    51IDQ   C18 8826   5.055   0.911   4.464  0.3360  0.3602  0.4039
    4IDB    C19 8827   5.161   0.894   4.219 -0.3529  0.0151 -0.1931
    51IDQ   C20 8828   4.958   0.789   4.431  0.3422  0.1617  0.6721
    51IDQ   C21 8829   5.155   0.849   4.569  0.2283 -0.7020  0.8939
    51IDQ   C22 8830   5.306   0.858   4.549 -0.7468 -0.8821 -0.1943
    51IDQ   C23 8831   4.800   0.796   4.447  0.2754  0.3181  0.0603
    51IDQ   C24 8832   5.395   0.796   4.657  0.0369 -0.7580  0.7108
    51IDQ   C25 8833   5.371   0.845   4.798  0.5682 -0.4875 -0.5884
    51IDQ   C26 8834   5.379   0.990   4.849  0.1878 -0.1971 -0.0236
    51IDQ   C27 8835   5.355   1.020   4.999  0.2092 -0.7027 -0.6614
    51IDQ   C28 8836   5.241   0.937   5.067 -0.5495  0.3028  0.0346
    51IDQ   C29 8837   5.238   0.948   5.217  0.4323 -0.0547 -0.1164
    51IDQ   C30 8838   4.723   0.865   4.328 -0.2546  0.5567 -0.1734
    51IDQ   C31 8839   4.579   0.883   4.364 -0.2105 -0.8427 -0.1170
    51IDQ   C32 8840   4.523   0.985   4.265  0.2341 -0.2867 -0.3826
    51IDQ   C33 8841   4.388   1.054   4.315 -0.2199 -0.2264  0.8052
    51IDQ   C34 8842   4.260   0.964   4.293 -0.2649  0.5467 -0.1370
    51IDQ   C35 8843   4.137   1.054   4.282  0.5184  0.2372 -0.4274
    4IDB    C36 8844   5.111   1.176   4.203  0.6791  0.2193  0.0305
    4IDB    C37 8845   5.168   1.104   4.094  0.6608  0.1495  0.0670
    11RH    C38 8846   4.646   1.564   5.710  0.0289  0.2236 -0.3067
    4IDB    C39 8847   5.191   0.967   4.103  0.1561  0.0503 -0.0429
    62IDT   C40 8848   5.245   0.919   3.983  0.6267  0.0401  0.3649
    72IDQ   C41 8849   5.201   1.155   3.958  0.0760  1.2369  0.5131
    62IDT   C42 8850   5.233   1.019   3.889  0.6863  0.2599  0.5901
    72IDQ   C43 8851   5.068   1.206   3.897 -0.7850  0.1022  0.2573
    72IDQ   C44 8852   5.298   1.272   3.976 -0.4534 -0.8970  0.4953
    62IDT    S5 8853   5.302   0.765   3.910 -0.0593 -0.0070 -0.0906
    62IDT   C45 8854   5.307   0.849   3.748 -0.2378  0.2873  0.0547
    62IDT   C46 8855   5.268   0.980   3.756  0.1979  0.4000  0.4152
    82BTZ   C47 8856   5.326   0.775   3.620 -0.1549  0.0963 -0.5389
    82BTZ   C48 8857   5.371   0.853   3.516 -0.2613  0.0495 -0.6195
    82BTZ   C49 8858   5.389   0.798   3.384 -0.2381 -0.0500 -0.5755
    82BTZ   C50 8859   5.363   0.667   3.356 -0.1085 -0.1026 -0.4509
    82BTZ   C51 8860   5.297   0.637   3.596 -0.0174  0.0443 -0.4076
    82BTZ   C52 8861   5.316   0.582   3.461  0.0062 -0.0568 -0.3628
    92RH    C53 8862   5.380   0.602   3.226  0.1437 -0.2208 -0.0024
    82BTZ    N4 8863   5.253   0.552   3.689  0.0943  0.0819 -0.3200
    82BTZ    N5 8864   5.288   0.452   3.447  0.1370 -0.1005 -0.2392
    82BTZ    S6 8865   5.234   0.394   3.607  0.2375 -0.0123 -0.1735
    92RH    C54 8866   5.425   0.643   3.107  0.0912 -0.0850  0.0244
    92RH     S7 8867   5.503   0.805   3.069 -0.0418  0.0084  0.1475
    92RH    C55 8868   5.418   0.561   2.984  0.1346  0.0134 -0.0439
    92RH     O2 8869   5.371   0.446   2.976  0.2230 -0.0173 -0.1325
    92RH     N6 8870   5.473   0.629   2.873  0.0627  0.1500  0.0041
    92RH    C56 8871   5.523   0.756   2.892 -0.0334  0.1730  0.1027
    92RH    C57 8872   5.483   0.554   2.746 -1.0273 -0.3020 -0.2133
    92RH    C58 8873   5.384   0.578   2.635 -0.2058 -0.2032 -0.1345
    92RH     S8 8874   5.593   0.858   2.778 -0.1324  0.3247  0.1765
    72IDQ   C59 8875   5.450   1.253   3.965 -0.3689 -0.3597  0.7129
    72IDQ   C60 8876   5.531   1.383   3.976 -0.4044  0.2222 -0.0330
    72IDQ   C61 8877   5.684   1.370   3.973  0.3583  0.5439 -0.6873
    72IDQ   C62 8878   5.735   1.316   3.844  0.3548  0.1382 -0.1851
    72IDQ   C63 8879   5.874   1.267   3.863 -0.6341 -0.2172  0.4231
    72IDQ   C64 8880   5.922   1.197   3.739 -0.0078  0.5559  0.4289
    72IDQ   C65 8881   6.049   1.114   3.751  0.0196  0.6601  0.0239
    72IDQ   C66 8882   5.064   1.270   3.756 -0.7471 -0.1015  0.1302
    72IDQ   C67 8883   4.923   1.272   3.707 -0.4842 -0.4551 -0.0734
    72IDQ   C68 8884   4.926   1.291   3.560  0.9950 -0.3367 -0.1928
    72IDQ   C69 8885   4.780   1.295   3.502  0.2820 -0.1139 -0.9116
    72IDQ   C70 8886   4.770   1.370   3.376 -0.3518  0.4116  0.1966
    72IDQ   C71 8887   4.835   1.300   3.259 -0.1110 -0.5445 -0.3783
    72IDQ   C72 8888   4.729   1.263   3.160 -0.1919  0.2590 -0.2701
    11RH     C1 8889   4.809   0.775   2.798  0.1898 -0.0189  0.1223
    11RH     C2 8890   4.778   0.689   2.915 -0.0911 -0.1289 -0.0296
    11RH     N1 8891   4.851   0.699   2.687  0.2316  0.0654  0.0800
    11RH     S1 8892   4.807   0.513   2.871 -0.2816 -0.1144 -0.2181
    11RH     C3 8893   4.858   0.562   2.701  0.0187  0.0363 -0.0872
    11RH     C4 8894   4.891   0.761   2.558  0.5379  0.7566 -0.0294
    11RH     S2 8895   4.905   0.449   2.585  0.0153  0.1201 -0.1705
    11RH     O1 8896   4.799   0.899   2.795  0.3695 -0.0007  0.2694
    11RH     C5 8897   4.736   0.737   3.033 -0.1833 -0.2227 -0.0244
    21BTZ    C6 8898   4.706   0.673   3.164 -0.3422  0.2118 -0.1779
    21BTZ    C7 8899   4.700   0.537   3.182 -0.2301  0.2066 -0.1812
    21BTZ    C8 8900   4.666   0.759   3.271 -0.2407  0.1777 -0.1135
    21BTZ    C9 8901   4.656   0.479   3.307 -0.0137  0.1680 -0.1220
    21BTZ   C10 8902   4.618   0.557   3.413  0.0897  0.1346 -0.0594
    21BTZ   C11 8903   4.622   0.700   3.398 -0.0210  0.1385 -0.0532
    21BTZ    N2 8904   4.667   0.892   3.265 -0.3335  0.1790 -0.1038
    21BTZ    N3 8905   4.587   0.786   3.494  0.0627  0.1082  0.0049
    21BTZ    S3 8906   4.610   0.950   3.425 -0.1398  0.1290 -0.0154
    31IDT   C12 8907   4.560   0.489   3.533  0.0406 -0.0006  0.2967
    31IDT   C13 8908   4.534   0.355   3.542  0.1678 -0.0390  0.0837
    31IDT   C14 8909   4.492   0.314   3.672  0.1919 -0.2834  0.0163
    31IDT   C15 8910   4.486   0.417   3.764  0.0837 -0.4326  0.1772
    31IDT    S4 8911   4.533   0.575   3.691 -0.0586 -0.2737  0.4286
    4IDB    C16 8912   4.433   0.368   3.883  0.1832  0.2265 -0.1764
    4IDB    C17 8913   4.398   0.230   3.867  0.2917  0.2146 -0.3125
    51IDQ   C18 8914   4.438   0.183   3.726  0.0300 -0.5531  0.0540
    4IDB    C19 8915   4.344   0.157   3.972  0.4447  0.0397 -0.3530
    51IDQ   C20 8916   4.546   0.068   3.751  0.1246 -0.0719 -0.3657
    51IDQ   C21 8917   4.325   0.132   3.628  0.7943  0.3079  0.5281
    51IDQ   C22 8918   4.174   0.150   3.662  0.1306  1.3911 -0.4833
    51IDQ   C23 8919   4.689   0.072   3.694  0.1903 -1.1447  0.7495
    51IDQ   C24 8920   4.084   0.125   3.543  0.5472  0.2956 -0.1124
    51IDQ   C25 8921   3.937   0.128   3.575 -0.2945  0.1401  0.3697
    51IDQ   C26 8922   3.872   0.007   3.641  0.0366  0.6798  0.5307
    51IDQ   C27 8923   3.876  -0.134   3.565  0.1235 -0.6422  0.0620
    51IDQ   C28 8924   3.871  -0.149   3.415  0.7487  0.3571  0.5025
    51IDQ   C29 8925   3.910  -0.289   3.374 -0.1890 -0.0945  0.3383
    51IDQ   C30 8926   4.780   0.148   3.791  0.0434  0.3812 -0.2638
    51IDQ   C31 8927   4.922   0.112   3.799  0.1300 -0.2729  0.0510
    51IDQ   C32 8928   4.994   0.209   3.897  0.0225 -0.0585 -0.2244
    51IDQ   C33 8929   5.144   0.183   3.911  0.2677  0.2740  0.2431
    51IDQ   C34 8930   5.213   0.277   4.004  0.4208 -0.5570 -0.4914
    51IDQ   C35 8931   5.366   0.258   4.023  0.8891 -0.1547 -0.2562
    4IDB    C36 8932   4.413   0.434   4.005  0.2276  0.0625 -0.0794
    4IDB    C37 8933   4.357   0.358   4.112  0.3844 -0.1150 -0.1228
    11RH    C38 8934   4.771   0.771   2.459 -0.4675 -0.6636 -0.0647
    4IDB    C39 8935   4.324   0.223   4.095  0.4891 -0.1244 -0.2563
    62IDT   C40 8936   4.283   0.172   4.227 -0.0918  0.2277  0.2879
    72IDQ   C41 8937   4.325   0.402   4.256 -0.1581 -0.1674 -0.1778
    62IDT   C42 8938   4.258   0.277   4.313 -0.6065  0.1440  0.2462
    72IDQ   C43 8939   4.460   0.447   4.345  0.4730  0.0918  0.1079
    72IDQ   C44 8940   4.224   0.527   4.253 -0.3317 -0.1796  0.1733
    62IDT    S5 8941   4.232   0.014   4.296  0.0614  0.0859  0.0799
    62IDT   C45 8942   4.177   0.103   4.445 -0.6117 -0.0876 -0.0593
    62IDT   C46 8943   4.198   0.238   4.437 -0.9011 -0.0344  0.0498
    82BTZ   C47 8944   4.141   0.037   4.572 -0.0752  0.0187 -0.0037
    82BTZ   C48 8945   4.091   0.116   4.673 -0.0342 -0.0172  0.0449
    82BTZ   C49 8946   4.066   0.063   4.805  0.0442 -0.0578  0.0439
    82BTZ   C50 8947   4.090  -0.068   4.836  0.0816 -0.0628 -0.0057
    82BTZ   C51 8948   4.168  -0.101   4.600 -0.0385  0.0150 -0.0567
    82BTZ   C52 8949   4.142  -0.154   4.735  0.0412 -0.0263 -0.0578
    92RH    C53 8950   4.071  -0.123   4.967 -0.0560  0.0739 -0.1681
    82BTZ    N4 8951   4.217  -0.188   4.511 -0.0725  0.0476 -0.1067
    82BTZ    N5 8952   4.170  -0.284   4.753  0.0713 -0.0272 -0.1086
    82BTZ    S6 8953   4.232  -0.344   4.596 -0.0026  0.0262 -0.1584
    92RH    C54 8954   4.021  -0.078   5.082 -0.0745  0.0892 -0.1823
    92RH     S7 8955   3.946   0.087   5.112 -0.0824  0.0921 -0.2173
    92RH    C55 8956   4.018  -0.157   5.207 -0.0918  0.1072 -0.1712
    92RH     O2 8957   4.061  -0.273   5.220 -0.0912  0.1099 -0.1481
    92RH     N6 8958   3.960  -0.085   5.313 -0.1091  0.1211 -0.1905
    92RH    C56 8959   3.915   0.043   5.289 -0.1080  0.1167 -0.2155
    92RH    C57 8960   3.943  -0.159   5.446  0.8927 -0.4024 -0.0280
    92RH    C58 8961   4.040  -0.131   5.560 -0.1154 -0.3763 -0.0872
    92RH     S8 8962   3.842   0.150   5.397 -0.1264  0.1307 -0.2419
    72IDQ   C59 8963   4.078   0.506   4.221 -0.0059 -0.9629  0.1155
    72IDQ   C60 8964   3.992   0.636   4.246 -0.9791  0.2084  0.1651
    72IDQ   C61 8965   3.841   0.613   4.241  0.5119  0.2795 -0.4338
    72IDQ   C62 8966   3.773   0.517   4.339 -0.1069 -0.1284  0.7195
    72IDQ   C63 8967   3.624   0.501   4.324 -0.0485 -0.7715  0.1219
    72IDQ   C64 8968   3.565   0.432   4.442  0.4764 -0.1611 -0.0157
    72IDQ   C65 8969   3.418   0.411   4.436  0.0529  0.4252 -0.4969
    72IDQ   C66 8970   4.451   0.466   4.499  0.1722  0.1135  0.3757
    72IDQ   C67 8971   4.583   0.511   4.557 -0.1165  0.5080  0.0888
    72IDQ   C68 8972   4.576   0.533   4.708  0.1848 -0.0377  0.3444
    72IDQ   C69 8973   4.475   0.640   4.750 -0.0777 -0.2898  0.4530
    72IDQ   C70 8974   4.461   0.625   4.899  0.4180 -0.1465 -0.4997
    72IDQ   C71 8975   4.342   0.719   4.933  0.0689 -0.2609  0.5442
    72IDQ   C72 8976   4.365   0.813   5.046 -0.2882  0.0396  0.1410
    11RH     C1 8977   4.575   5.949   4.430 -0.2937 -0.2908 -0.0597
    11RH     C2 8978   4.547   6.041   4.543 -0.3552 -0.2216 -0.1309
    11RH     N1 8979   4.616   6.019   4.315 -0.0724 -0.3742 -0.0319
    11RH     S1 8980   4.578   6.214   4.490 -0.1179 -0.2708 -0.1565
    11RH     C3 8981   4.625   6.156   4.321  0.0508 -0.3804 -0.0720
    11RH     C4 8982   4.666   5.946   4.196  0.2134 -0.3657 -0.5715
    11RH     S2 8983   4.672   6.263   4.199  0.3164 -0.4711 -0.0511
    11RH     O1 8984   4.563   5.825   4.433 -0.4175 -0.2787 -0.0274
    11RH     C5 8985   4.507   6.000   4.663 -0.5554 -0.1369 -0.1690
    21BTZ    C6 8986   4.457   6.073   4.780 -0.8443  0.2150 -0.1862
    21BTZ    C7 8987   4.435   6.208   4.789 -0.6909  0.2278 -0.0106
    21BTZ    C8 8988   4.438   5.992   4.897 -0.4164  0.1591 -0.1532
    21BTZ    C9 8989   4.395   6.270   4.913 -0.1135  0.1867  0.2048
    21BTZ   C10 8990   4.376   6.197   5.027  0.3097  0.1327  0.2444
    21BTZ   C11 8991   4.397   6.055   5.022  0.1705  0.1173  0.0659
    21BTZ    N2 8992   4.455   5.860   4.900 -0.5133  0.1416 -0.3110
    21BTZ    N3 8993   4.381   5.974   5.127  0.5454  0.0662  0.0840
    21BTZ    S3 8994   4.420   5.809   5.068  0.1555  0.0693 -0.1838
    31IDT   C12 8995   4.320   6.271   5.144 -0.0939 -0.3099 -0.1408
    31IDT   C13 8996   4.298   6.406   5.156 -0.1353 -0.3003 -0.3121
    31IDT   C14 8997   4.250   6.442   5.286 -0.1991 -0.1567 -0.3752
    31IDT   C15 8998   4.236   6.336   5.373 -0.2063 -0.0562 -0.2530
    31IDT    S4 8999   4.283   6.180   5.297 -0.1327 -0.1362 -0.0462
    4IDB    C16 9000   4.194   6.380   5.502  0.2616  0.0709  0.4691
    4IDB    C17 9001   4.154   6.517   5.488 -0.4084 -0.1491  0.1767
    51IDQ   C18 9002   4.185   6.571   5.349  0.1780  0.4392  0.1165
    4IDB    C19 9003   4.095   6.585   5.593 -0.5078 -0.1375  0.1137
    51IDQ   C20 9004   4.293   6.682   5.362 -0.9601  0.5046 -0.3423
    51IDQ   C21 9005   4.066   6.615   5.253 -0.4149 -0.0011 -0.1138
    51IDQ   C22 9006   3.918   6.588   5.285 -0.0518  0.3589 -0.0593
    51IDQ   C23 9007   4.454   6.658   5.354  1.2551  0.1698 -0.9372
    51IDQ   C24 9008   3.822   6.674   5.208  0.2817 -0.6062  0.4598
    51IDQ   C25 9009   3.817   6.661   5.052  0.2689 -0.0200  0.1613
    51IDQ   C26 9010   3.812   6.528   4.985  0.1351 -0.2971 -0.2295
    51IDQ   C27 9011   3.772   6.536   4.838 -0.0030 -0.3666 -0.8308
    51IDQ   C28 9012   3.862   6.620   4.749 -0.1557 -0.3013 -0.0317
    51IDQ   C29 9013   4.000   6.579   4.699  0.5323  0.2233 -0.5390
    51IDQ   C30 9014   4.501   6.584   5.481 -0.0518 -0.8948 -0.6193
    51IDQ   C31 9015   4.643   6.532   5.468  0.4747  0.6908 -0.2410
    51IDQ   C32 9016   4.706   6.481   5.593 -0.2840 -0.3799  0.1919
    51IDQ   C33 9017   4.846   6.416   5.579 -0.4809 -0.6513  0.4939
    51IDQ   C34 9018   4.954   6.498   5.514 -0.0121  0.0432 -0.2798
    51IDQ   C35 9019   5.092   6.424   5.511 -0.1157  0.5226 -0.1718
    4IDB    C36 9020   4.175   6.311   5.622  0.8398  0.3052  0.7017
    4IDB    C37 9021   4.115   6.383   5.729  0.7284  0.3134  0.6332
    11RH    C38 9022   4.567   5.877   4.098  0.2217  0.7328 -0.1842
    4IDB    C39 9023   4.076   6.516   5.714  0.0705  0.0968  0.3462
    62IDT   C40 9024   4.019   6.565   5.842 -0.3058 -0.4748  0.4359
    72IDQ   C41 9025   4.075   6.330   5.868 -0.4805 -0.6763 -0.0513
    62IDT   C42 9026   4.022   6.464   5.936  0.0447 -0.1696  0.7582
    72IDQ   C43 9027   4.211   6.288   5.939 -0.1448  0.9651 -0.5112
    72IDQ   C44 9028   3.974   6.211   5.854 -0.0910 -0.0044  0.3936
    62IDT    S5 9029   3.968   6.722   5.913 -0.3952 -0.3199  0.0360
    62IDT   C45 9030   3.953   6.639   6.074  0.0687  0.1732  0.3407
    62IDT   C46 9031   3.985   6.506   6.067  0.2570  0.1971  0.7049
    82BTZ   C47 9032   3.931   6.712   6.199  0.0625 -0.0130 -0.1389
    82BTZ   C48 9033   3.874   6.640   6.300 -0.1441 -0.0558 -0.2846
    82BTZ   C49 9034   3.830   6.703   6.423 -0.4096 -0.1047 -0.3527
    82BTZ   C50 9035   3.844   6.837   6.444 -0.4681 -0.1105 -0.2753
    82BTZ   C51 9036   3.948   6.854   6.216  0.0113 -0.0172 -0.0530
    82BTZ   C52 9037   3.903   6.917   6.340 -0.2584 -0.0668 -0.1224
    92RH    C53 9038   3.816   6.902   6.568 -0.0006  0.1491 -0.0661
    82BTZ    N4 9039   4.002   6.934   6.124  0.1960  0.0218  0.0896
    82BTZ    N5 9040   3.922   7.049   6.349 -0.2906 -0.0677 -0.0354
    82BTZ    S6 9041   3.999   7.099   6.195  0.0292 -0.0039  0.1424
    92RH    C54 9042   3.772   6.855   6.685  0.0931 -0.0037 -0.0926
    92RH     S7 9043   3.721   6.683   6.722  0.1131 -0.0501 -0.2788
    92RH    C55 9044   3.759   6.938   6.807  0.1985 -0.1640  0.0295
    92RH     O2 9045   3.786   7.059   6.815  0.2126 -0.1758  0.1680
    92RH     N6 9046   3.711   6.863   6.916  0.2838 -0.3059 -0.0309
    92RH    C56 9047   3.685   6.729   6.897  0.2596 -0.2789 -0.1864
    92RH    C57 9048   3.718   6.930   7.056  0.6294 -0.1153  0.2969
    92RH    C58 9049   3.840   6.917   7.144  0.5624  0.1074  0.0358
    92RH     S8 9050   3.628   6.618   7.010  0.3457 -0.4250 -0.2863
    72IDQ   C59 9051   3.822   6.241   5.825 -0.3814  0.0880  0.0719
    72IDQ   C60 9052   3.725   6.121   5.840 -0.1800  0.5681  0.5878
    72IDQ   C61 9053   3.582   6.168   5.827 -0.8675  0.3822 -0.3883
    72IDQ   C62 9054   3.531   6.214   5.961 -0.8887 -0.0742 -0.1625
    72IDQ   C63 9055   3.400   6.283   5.943  0.6949  0.9416  0.1759
    72IDQ   C64 9056   3.334   6.309   6.075  0.4082 -0.0333 -0.1713
    72IDQ   C65 9057   3.192   6.365   6.059 -0.7452  0.0669 -0.4407
    72IDQ   C66 9058   4.196   6.236   6.085  0.5337  0.5677 -0.6657
    72IDQ   C67 9059   4.335   6.221   6.147  0.5256  0.2206  0.6066
    72IDQ   C68 9060   4.331   6.207   6.299 -0.1276  0.6000  0.3182
    72IDQ   C69 9061   4.469   6.191   6.361 -0.6326  0.4731  0.3228
    72IDQ   C70 9062   4.472   6.181   6.508  0.0416  0.0398 -0.3123
    72IDQ   C71 9063   4.415   6.289   6.592 -0.5298 -0.2635 -1.0477
    72IDQ   C72 9064   4.446   6.259   6.742  0.0765 -0.4743  0.3858
    11RH     C1 9065   5.268   0.578   0.454  0.1347  0.1301  0.2012
    11RH     C2 9066   5.297   0.676   0.347  0.0422  0.0823  0.1323
    11RH     N1 9067   5.221   0.642   0.571  0.2267  0.1813  0.2096
    11RH     S1 9068   5.262   0.846   0.406  0.0818  0.1078  0.0831
    11RH     C3 9069   5.210   0.780   0.570  0.2187  0.1804  0.1559
    11RH     C4 9070   5.171   0.556   0.683 -0.6012 -0.4725  0.5225
    11RH     S2 9071   5.158   0.880   0.696  0.3155  0.2351  0.1528
    11RH     O1 9072   5.281   0.455   0.446  0.1341  0.1267  0.2468
    11RH     C5 9073   5.342   0.641   0.226 -0.0546  0.0291  0.1113
    21BTZ    C6 9074   5.386   0.718   0.114  0.0089 -0.1217  0.4563
    21BTZ    C7 9075   5.385   0.855   0.102 -0.0446 -0.1109  0.5782
    21BTZ    C8 9076   5.429   0.639   0.002 -0.0007 -0.0066  0.3716
    21BTZ    C9 9077   5.426   0.920  -0.020 -0.1097  0.0125  0.6226
    21BTZ   C10 9078   5.467   0.849  -0.130 -0.1214  0.1250  0.5451
    21BTZ   C11 9079   5.469   0.706  -0.122 -0.0670  0.1188  0.4168
    21BTZ    N2 9080   5.434   0.506   0.001  0.0474 -0.0046  0.2508
    21BTZ    N3 9081   5.508   0.626  -0.223 -0.0720  0.2216  0.3322
    21BTZ    S3 9082   5.492   0.459  -0.161  0.0095  0.1611  0.1886
    31IDT   C12 9083   5.518   0.928  -0.250  0.1211  0.0817 -0.0973
    31IDT   C13 9084   5.523   1.064  -0.260  0.2955  0.0779 -0.0721
    31IDT   C14 9085   5.581   1.109  -0.383  0.3339  0.0260 -0.0727
    31IDT   C15 9086   5.621   1.006  -0.467  0.1894 -0.0101 -0.0980
    31IDT    S4 9087   5.588   0.845  -0.396 -0.0084  0.0192 -0.1236
    4IDB    C16 9088   5.674   1.063  -0.589 -0.1557 -0.2048 -0.2514
    4IDB    C17 9089   5.687   1.205  -0.579  0.6104 -0.2770 -0.0871
    51IDQ   C18 9090   5.623   1.244  -0.442  0.0253 -0.4131  0.3093
    4IDB    C19 9091   5.737   1.280  -0.685  0.4373 -0.3613 -0.2286
    51IDQ   C20 9092   5.503   1.344  -0.476  0.1364 -0.8004  0.1840
    51IDQ   C21 9093   5.708   1.322  -0.339  0.2496  0.1536  0.2409
    51IDQ   C22 9094   5.858   1.352  -0.359  0.5279  0.7025  0.4163
    51IDQ   C23 9095   5.358   1.306  -0.458 -0.2021  0.1255  0.1416
    51IDQ   C24 9096   5.954   1.235  -0.328  0.5784 -0.5665  0.1140
    51IDQ   C25 9097   6.004   1.226  -0.182 -0.0502 -0.4390 -0.1668
    51IDQ   C26 9098   5.907   1.197  -0.068 -0.0136  0.5650 -0.1141
    51IDQ   C27 9099   5.952   1.256   0.064  0.4546 -0.4058 -0.3818
    51IDQ   C28 9100   5.876   1.220   0.193 -0.1669 -0.6033  0.6888
    51IDQ   C29 9101   5.731   1.252   0.176  0.1973 -0.2973  0.4238
    51IDQ   C30 9102   5.299   1.224  -0.575  0.1232  0.1085 -0.0060
    51IDQ   C31 9103   5.148   1.249  -0.572 -0.0815  0.2808  0.3793
    51IDQ   C32 9104   5.054   1.160  -0.660 -0.4593 -0.4430  0.5091
    51IDQ   C33 9105   4.905   1.200  -0.648 -0.3790 -0.8827 -0.3446
    51IDQ   C34 9106   4.818   1.114  -0.730 -0.1012  0.2667  0.1063
    51IDQ   C35 9107   4.674   1.159  -0.720 -0.0295  0.7344 -0.3846
    4IDB    C36 9108   5.711   0.995  -0.706 -1.1051 -0.2166 -0.5599
    4IDB    C37 9109   5.761   1.073  -0.814 -1.2683 -0.3033 -0.7005
    11RH    C38 9110   5.255   0.566   0.812  0.1146 -0.1962 -0.2302
    4IDB    C39 9111   5.773   1.212  -0.802 -0.5122 -0.3732 -0.5370
    62IDT   C40 9112   5.827   1.262  -0.928  0.0061 -0.4446 -0.3256
    72IDQ   C41 9113   5.827   1.026  -0.947  0.4345  0.3499 -0.6010
    62IDT   C42 9114   5.861   1.159  -1.013  0.5322 -0.2169 -0.3972
    72IDQ   C43 9115   5.722   0.936  -1.028  0.3071 -0.1097  0.0585
    72IDQ   C44 9116   5.969   0.959  -0.928  0.0356 -0.0944  0.1384
    62IDT    S5 9117   5.853   1.423  -1.003 -0.3586 -0.2508 -0.0448
    62IDT   C45 9118   5.912   1.338  -1.153  0.2491  0.1473 -0.0387
    62IDT   C46 9119   5.909   1.202  -1.140  0.6703  0.1180 -0.2352
    82BTZ   C47 9120   5.956   1.409  -1.274  0.1024  0.0915  0.4515
    82BTZ   C48 9121   5.997   1.328  -1.376  0.1140 -0.0928  0.6012
    82BTZ   C49 9122   6.027   1.380  -1.507  0.1973 -0.3178  0.5294
    82BTZ   C50 9123   6.016   1.514  -1.535  0.2690 -0.3581  0.3080
    82BTZ   C51 9124   5.943   1.550  -1.298  0.1757  0.0580  0.2179
    82BTZ   C52 9125   5.974   1.603  -1.431  0.2604 -0.1706  0.1450
    92RH    C53 9126   6.046   1.575  -1.667  0.1587  0.2812 -0.0840
    82BTZ    N4 9127   5.905   1.639  -1.207  0.1727  0.2240  0.0563
    82BTZ    N5 9128   5.960   1.735  -1.447  0.3254 -0.1885 -0.0753
    82BTZ    S6 9129   5.906   1.798  -1.288  0.2803  0.0921 -0.2014
    92RH    C54 9130   6.096   1.528  -1.782  0.0268  0.1154 -0.0745
    92RH     S7 9131   6.166   1.360  -1.810  0.1659  0.1364  0.1389
    92RH    C55 9132   6.103   1.607  -1.907 -0.2618 -0.1185 -0.2416
    92RH     O2 9133   6.064   1.724  -1.921 -0.4133 -0.1875 -0.4067
    92RH     N6 9134   6.161   1.532  -2.012 -0.3483 -0.2582 -0.1905
    92RH    C56 9135   6.201   1.403  -1.986 -0.1639 -0.1648 -0.0031
    92RH    C57 9136   6.185   1.608  -2.139 -0.0966  0.8660  0.3871
    92RH    C58 9137   6.065   1.584  -2.234  0.6417  0.0459 -0.4164
    92RH     S8 9138   6.273   1.294  -2.093 -0.2149 -0.2935  0.0941
    72IDQ   C59 9139   5.997   0.809  -0.886 -0.2247  0.6896 -0.3836
    72IDQ   C60 9140   6.139   0.778  -0.829  0.4545 -0.0076 -0.1098
    72IDQ   C61 9141   6.246   0.747  -0.923  0.4448 -0.3301 -0.2861
    72IDQ   C62 9142   6.279   0.847  -1.033 -0.6730 -0.3755 -0.6594
    72IDQ   C63 9143   6.410   0.806  -1.090  0.4481  0.1724  0.4620
    72IDQ   C64 9144   6.448   0.902  -1.198 -0.6667 -1.2200  0.5142
    72IDQ   C65 9145   6.579   0.978  -1.181 -0.0688 -0.6696  0.5358
    72IDQ   C66 9146   5.768   0.877  -1.166 -0.1284 -0.6077 -0.0500
    72IDQ   C67 9147   5.659   0.817  -1.253 -0.0842  0.5589 -0.6131
    72IDQ   C68 9148   5.745   0.722  -1.341  0.2216  0.0316  0.1216
    72IDQ   C69 9149   5.658   0.655  -1.446  0.2831  0.1033 -0.1637
    72IDQ   C70 9150   5.722   0.546  -1.527  0.0962 -0.0539  0.3734
    72IDQ   C71 9151   5.788   0.587  -1.660  0.4989  0.0298 -0.0077
    72IDQ   C72 9152   5.859   0.474  -1.733  0.2988  0.2954  0.6114
    11RH     C1 9153   5.053   3.101   2.136  0.4022 -0.2387  0.2534
    11RH     C2 9154   5.082   3.012   2.021  0.2128 -0.1043  0.0986
    11RH     N1 9155   5.008   3.029   2.248  0.2506 -0.3399  0.1293
    11RH     S1 9156   5.049   2.838   2.069 -0.1521 -0.1199 -0.2001
    11RH     C3 9157   4.998   2.892   2.238 -0.0370 -0.3031 -0.1061
    11RH     C4 9158   4.963   3.103   2.371  0.0383  0.0084 -0.7011
    11RH     S2 9159   4.948   2.783   2.357 -0.2648 -0.4035 -0.2927
    11RH     O1 9160   5.065   3.225   2.135  0.6615 -0.2622  0.4657
    11RH     C5 9161   5.125   3.055   1.903  0.3032  0.0087  0.1727
    21BTZ    C6 9162   5.176   2.990   1.784 -0.0372  0.0076 -0.0732
    21BTZ    C7 9163   5.201   2.856   1.776 -0.0780 -0.0044  0.0090
    21BTZ    C8 9164   5.204   3.072   1.669  0.0168 -0.0662 -0.1125
    21BTZ    C9 9165   5.253   2.794   1.657 -0.0678 -0.0888  0.0564
    21BTZ   C10 9166   5.282   2.868   1.545 -0.0171 -0.1611  0.0216
    21BTZ   C11 9167   5.258   3.009   1.548  0.0271 -0.1519 -0.0643
    21BTZ    N2 9168   5.185   3.204   1.664  0.0597 -0.0627 -0.1921
    21BTZ    N3 9169   5.282   3.092   1.445  0.0782 -0.2175 -0.1051
    21BTZ    S3 9170   5.235   3.255   1.500  0.1163 -0.1713 -0.2091
    31IDT   C12 9171   5.341   2.796   1.427 -0.0202  0.2229 -0.2615
    31IDT   C13 9172   5.359   2.661   1.414  0.3144  0.2366  0.0447
    31IDT   C14 9173   5.417   2.624   1.289  0.3442  0.0906  0.1008
    31IDT   C15 9174   5.443   2.731   1.205  0.0330 -0.0353 -0.1615
    31IDT    S4 9175   5.396   2.887   1.279 -0.3248  0.0220 -0.5032
    4IDB    C16 9176   5.495   2.685   1.079 -0.1050 -0.0322  0.1072
    4IDB    C17 9177   5.514   2.543   1.089 -0.4786 -0.1188 -0.3445
    51IDQ   C18 9178   5.485   2.495   1.236  0.5328  0.1118 -0.4413
    4IDB    C19 9179   5.564   2.470   0.983 -0.2555  0.1573 -0.4300
    51IDQ   C20 9180   5.387   2.373   1.227  0.9790  1.0133  0.2421
    51IDQ   C21 9181   5.602   2.453   1.331  0.6253  0.2662 -0.7911
    51IDQ   C22 9182   5.744   2.436   1.283  0.1717 -0.2952  0.4629
    51IDQ   C23 9183   5.233   2.358   1.248 -0.0853  0.0609  0.5703
    51IDQ   C24 9184   5.833   2.380   1.389 -0.2789  0.5238 -0.4952
    51IDQ   C25 9185   5.971   2.365   1.330  0.6008 -0.3565 -0.2326
    51IDQ   C26 9186   6.076   2.268   1.384 -0.3413  0.8785 -0.3868
    51IDQ   C27 9187   6.112   2.274   1.536  0.3063  0.0809 -0.0351
    51IDQ   C28 9188   6.208   2.170   1.587  0.6555  0.1802  0.9593
    51IDQ   C29 9189   6.230   2.194   1.737 -0.2335 -0.7299 -0.1806
    51IDQ   C30 9190   5.153   2.434   1.146  0.0136  0.1475 -0.5076
    51IDQ   C31 9191   5.002   2.429   1.188 -0.8533 -0.1761  0.1101
    51IDQ   C32 9192   4.915   2.471   1.073  0.2622 -0.2498 -0.2198
    51IDQ   C33 9193   4.766   2.484   1.106 -0.2627  0.4516  0.4252
    51IDQ   C34 9194   4.694   2.554   0.989 -0.6716 -0.0060  0.4256
    51IDQ   C35 9195   4.544   2.578   0.992 -0.0277  0.4757  0.4420
    4IDB    C36 9196   5.528   2.754   0.962  0.4982  0.3334  0.4783
    4IDB    C37 9197   5.580   2.677   0.854  0.7185  0.6120  0.3844
    11RH    C38 9198   5.086   3.132   2.459 -0.5549  0.0389  0.1193
    4IDB    C39 9199   5.597   2.539   0.865  0.3476  0.5229 -0.0590
    62IDT   C40 9200   5.631   2.486   0.740  0.0584  0.0883  0.0960
    72IDQ   C41 9201   5.624   2.724   0.713 -0.5188  1.5135  0.2558
    62IDT   C42 9202   5.660   2.586   0.650  0.1290  0.0656  0.0933
    72IDQ   C43 9203   5.497   2.782   0.645 -0.4548  0.0781  0.0419
    72IDQ   C44 9204   5.720   2.843   0.725  0.1149  0.0777  0.0063
    62IDT    S5 9205   5.645   2.323   0.666 -0.2358  0.0832  0.0511
    62IDT   C45 9206   5.691   2.402   0.509 -0.2486  0.0489  0.0300
    62IDT   C46 9207   5.694   2.539   0.519 -0.0447  0.0433  0.0559
    82BTZ   C47 9208   5.713   2.326   0.383 -0.2237 -0.0213  0.0969
    82BTZ   C48 9209   5.770   2.397   0.280 -0.1832  0.0106  0.1415
    82BTZ   C49 9210   5.797   2.337   0.152 -0.1507  0.0557  0.1272
    82BTZ   C50 9211   5.768   2.205   0.126 -0.1584  0.0688  0.0685
    82BTZ   C51 9212   5.680   2.188   0.361 -0.2333 -0.0092  0.0347
    82BTZ   C52 9213   5.708   2.127   0.230 -0.2003  0.0367  0.0202
    92RH    C53 9214   5.782   2.145  -0.008  0.3538 -0.3308  0.0558
    82BTZ    N4 9215   5.624   2.108   0.452 -0.2712 -0.0372 -0.0127
    82BTZ    N5 9216   5.675   1.998   0.217 -0.2114  0.0455 -0.0388
    82BTZ    S6 9217   5.605   1.948   0.374 -0.2662 -0.0055 -0.0792
    92RH    C54 9218   5.821   2.190  -0.128  0.2527 -0.2622  0.0480
    92RH     S7 9219   5.895   2.353  -0.165  0.1044 -0.1927  0.0582
    92RH    C55 9220   5.811   2.110  -0.253  0.2456 -0.2311  0.0288
    92RH     O2 9221   5.765   1.995  -0.261  0.3306 -0.2643  0.0182
    92RH     N6 9222   5.860   2.182  -0.364  0.1280 -0.1578  0.0240
    92RH    C56 9223   5.908   2.309  -0.343  0.0402 -0.1262  0.0370
    92RH    C57 9224   5.867   2.113  -0.492 -0.0549 -0.4185 -0.0405
    92RH    C58 9225   5.745   2.118  -0.581 -0.4380 -0.5521 -0.6985
    92RH     S8 9226   5.972   2.415  -0.458 -0.1059 -0.0402  0.0348
    72IDQ   C59 9227   5.870   2.836   0.753  0.1255  0.6579  0.4055
    72IDQ   C60 9228   5.959   2.788   0.634  0.1008 -0.8819 -0.4755
    72IDQ   C61 9229   6.106   2.812   0.662  0.2593  0.5470  0.3923
    72IDQ   C62 9230   6.182   2.788   0.539 -0.5943 -0.1152  0.1594
    72IDQ   C63 9231   6.308   2.706   0.554 -0.5500 -0.1335 -0.5646
    72IDQ   C64 9232   6.366   2.683   0.417 -0.1205  0.1721 -0.5416
    72IDQ   C65 9233   6.500   2.608   0.428  0.4156 -0.1064  0.5106
    72IDQ   C66 9234   5.490   2.786   0.493  0.6407  0.0859  0.1355
    72IDQ   C67 9235   5.349   2.822   0.433  0.4152 -0.7029  0.2444
    72IDQ   C68 9236   5.347   2.795   0.284  0.2823  0.5953 -0.1066
    72IDQ   C69 9237   5.204   2.805   0.226 -0.5348  0.6603 -0.8107
    72IDQ   C70 9238   5.201   2.784   0.080  0.2032 -0.0335  0.0646
    72IDQ   C71 9239   5.059   2.794   0.029  0.1973 -0.7282 -0.3659
    72IDQ   C72 9240   5.063   2.762  -0.114  0.1463  0.5482  0.3573
    11RH     C1 9241   4.336   2.281   6.034  0.0775  0.0766 -0.0838
    11RH     C2 9242   4.316   2.191   6.150  0.0098  0.0635 -0.1055
    11RH     N1 9243   4.384   2.210   5.922  0.2052  0.1004 -0.0444
    11RH     S1 9244   4.362   2.019   6.104  0.1185  0.0835 -0.0728
    11RH     C3 9245   4.405   2.074   5.934  0.2480  0.1081 -0.0318
    11RH     C4 9246   4.416   2.278   5.793 -0.2061 -0.1926 -0.5622
    11RH     S2 9247   4.462   1.967   5.816  0.3946  0.1354  0.0134
    11RH     O1 9248   4.315   2.403   6.032  0.0304  0.0681 -0.0978
    11RH     C5 9249   4.271   2.233   6.269 -0.1121  0.0407 -0.1433
    21BTZ    C6 9250   4.233   2.162   6.392  0.0375  0.1530 -0.0856
    21BTZ    C7 9251   4.225   2.027   6.411  0.0116  0.1363 -0.2118
    21BTZ    C8 9252   4.211   2.249   6.504 -0.0272  0.0552 -0.0221
    21BTZ    C9 9253   4.195   1.970   6.541 -0.0789  0.0233 -0.2817
    21BTZ   C10 9254   4.173   2.049   6.650 -0.1428 -0.0726 -0.2252
    21BTZ   C11 9255   4.180   2.191   6.635 -0.1190 -0.0596 -0.0930
    21BTZ    N2 9256   4.216   2.382   6.497 -0.0097  0.0606  0.1005
    21BTZ    N3 9257   4.161   2.279   6.734 -0.1752 -0.1465 -0.0275
    21BTZ    S3 9258   4.181   2.441   6.663 -0.1122 -0.0839  0.1312
    31IDT   C12 9259   4.120   1.981   6.770 -0.2145 -0.0185 -0.2035
    31IDT   C13 9260   4.107   1.846   6.790 -0.0086 -0.0358 -0.1802
    31IDT   C14 9261   4.055   1.814   6.920  0.1745 -0.0981 -0.1222
    31IDT   C15 9262   4.029   1.924   6.999  0.1094 -0.1287 -0.1011
    31IDT    S4 9263   4.068   2.078   6.915 -0.1915 -0.0806 -0.1534
    4IDB    C16 9264   3.975   1.882   7.127  0.2244 -0.1966  0.3278
    4IDB    C17 9265   3.967   1.739   7.129  0.1404 -0.1910  0.4456
    51IDQ   C18 9266   4.009   1.683   6.989  0.1501 -0.9407 -0.0774
    4IDB    C19 9267   3.927   1.671   7.243  0.0839 -0.0721  0.4967
    51IDQ   C20 9268   4.132   1.585   7.023 -0.2462  0.5784 -0.4401
    51IDQ   C21 9269   3.900   1.609   6.902 -0.7167 -0.1466 -1.0098
    51IDQ   C22 9270   3.761   1.610   6.945  0.4339 -0.1756  0.0568
    51IDQ   C23 9271   4.281   1.627   7.001  0.0135 -1.2495 -0.1360
    51IDQ   C24 9272   3.668   1.557   6.841  0.0543  0.2128 -0.2131
    51IDQ   C25 9273   3.526   1.569   6.895 -0.1758  0.1063  0.0190
    51IDQ   C26 9274   3.419   1.502   6.804 -0.0446  0.0959  0.0949
    51IDQ   C27 9275   3.453   1.376   6.725  0.3942 -0.1983 -0.2243
    51IDQ   C28 9276   3.342   1.282   6.682 -0.3413  0.2459 -0.0588
    51IDQ   C29 9277   3.215   1.333   6.614  0.3121 -0.0522 -0.3387
    51IDQ   C30 9278   4.328   1.723   7.110 -0.2176 -0.8275  0.4744
    51IDQ   C31 9279   4.476   1.759   7.115  0.5894 -0.0337 -0.0148
    51IDQ   C32 9280   4.568   1.637   7.152  0.4979  0.2109  0.2111
    51IDQ   C33 9281   4.717   1.662   7.158  0.5042 -0.0872  0.7389
    51IDQ   C34 9282   4.766   1.754   7.273 -0.2076 -0.1628  0.4060
    51IDQ   C35 9283   4.910   1.783   7.279 -0.1945  0.5275 -0.9185
    4IDB    C36 9284   3.942   1.958   7.240  0.2525 -0.0823  0.2601
    4IDB    C37 9285   3.900   1.886   7.356  0.1937  0.0383  0.3138
    11RH    C38 9286   4.292   2.338   5.722 -1.2517 -0.3008  0.8847
    4IDB    C39 9287   3.894   1.747   7.356  0.1118  0.0421  0.4291
    62IDT   C40 9288   3.854   1.699   7.484  0.4121 -0.1019 -0.1836
    72IDQ   C41 9289   3.861   1.938   7.495 -0.2106 -0.6500 -0.4313
    62IDT   C42 9290   3.843   1.806   7.570  1.2306 -0.0430 -0.1336
    72IDQ   C43 9291   3.980   2.023   7.563  0.3599  0.0470  0.1835
    72IDQ   C44 9292   3.742   2.041   7.474 -0.0696 -0.3375  0.6413
    62IDT    S5 9293   3.814   1.544   7.565 -0.1608  0.0971 -0.0813
    62IDT   C45 9294   3.782   1.637   7.718  0.7823  0.2573  0.0290
    62IDT   C46 9295   3.802   1.772   7.702  1.4410  0.1602 -0.0134
    82BTZ   C47 9296   3.721   1.578   7.842 -0.0177 -0.0876 -0.0292
    82BTZ   C48 9297   3.670   1.659   7.940  0.2321 -0.1409  0.1454
    82BTZ   C49 9298   3.619   1.605   8.064  0.4432 -0.2159  0.2021
    82BTZ   C50 9299   3.618   1.470   8.088  0.4047 -0.2374  0.0840
    82BTZ   C51 9300   3.723   1.436   7.863 -0.0681 -0.1073 -0.1579
    82BTZ   C52 9301   3.670   1.381   7.988  0.1466 -0.1836 -0.1003
    92RH    C53 9302   3.577   1.410   8.220 -0.1040 -0.1378  0.1621
    82BTZ    N4 9303   3.770   1.348   7.775 -0.3027 -0.0603 -0.3317
    82BTZ    N5 9304   3.675   1.248   8.000  0.0845 -0.1978 -0.2278
    82BTZ    S6 9305   3.748   1.187   7.849 -0.2582 -0.1126 -0.4311
    92RH    C54 9306   3.542   1.460   8.339  0.0184 -0.0609  0.1653
    92RH     S7 9307   3.513   1.637   8.379 -0.0421 -0.0463  0.0564
    92RH    C55 9308   3.522   1.378   8.460  0.2286  0.0273  0.2610
    92RH     O2 9309   3.535   1.254   8.466  0.3151  0.0403  0.3479
    92RH     N6 9310   3.486   1.457   8.571  0.3226  0.0971  0.2420
    92RH    C56 9311   3.475   1.593   8.554  0.2134  0.0756  0.1428
    92RH    C57 9312   3.460   1.395   8.709 -0.2974 -0.0061  0.2254
    92RH    C58 9313   3.591   1.376   8.798 -0.1313  0.4015  0.9846
    92RH     S8 9314   3.434   1.709   8.669  0.2897  0.1456  0.0998
    72IDQ   C59 9315   3.600   1.995   7.477  0.1172  0.0865 -0.3293
    72IDQ   C60 9316   3.492   2.098   7.454 -0.0058 -0.8959 -0.1341
    72IDQ   C61 9317   3.343   2.071   7.480  0.1304 -0.5814 -0.1528
    72IDQ   C62 9318   3.307   2.057   7.630 -0.6178  0.1359 -0.0674
    72IDQ   C63 9319   3.161   2.021   7.631 -0.2414 -0.3497 -0.2924
    72IDQ   C64 9320   3.102   1.985   7.770 -0.6125 -0.0302  0.0059
    72IDQ   C65 9321   2.953   1.995   7.779  0.5933 -0.0526  0.1435
    72IDQ   C66 9322   4.005   2.027   7.716  0.5142  0.3449  0.0235
    72IDQ   C67 9323   3.891   2.081   7.798 -0.3130  0.6480  0.3319
    72IDQ   C68 9324   3.896   2.020   7.944 -0.5108  0.5021  0.5111
    72IDQ   C69 9325   3.778   2.054   8.031  0.1904 -0.3193  0.6830
    72IDQ   C70 9326   3.634   2.010   8.003 -0.7143 -0.2374 -0.1036
    72IDQ   C71 9327   3.528   2.022   8.113 -0.0833 -0.2993 -0.3234
    72IDQ   C72 9328   3.413   1.930   8.092  0.3015 -0.3079 -0.0480
    11RH     C1 9329   5.025   1.422   1.134 -0.4029  0.0909  0.0455
    11RH     C2 9330   4.982   1.497   1.254 -0.2617  0.1369  0.0683
    11RH     N1 9331   5.071   1.509   1.032 -0.4081  0.0455  0.0043
    11RH     S1 9332   5.004   1.677   1.226 -0.1443  0.1176  0.0339
    11RH     C3 9333   5.069   1.644   1.057 -0.2880  0.0496 -0.0088
    11RH     C4 9334   5.132   1.448   0.908  0.2771 -0.9245 -0.1195
    11RH     S2 9335   5.117   1.769   0.953 -0.2660  0.0018 -0.0560
    11RH     O1 9336   5.023   1.298   1.121 -0.5062  0.0910  0.0601
    11RH     C5 9337   4.934   1.438   1.364 -0.2289  0.1848  0.1079
    21BTZ    C6 9338   4.887   1.495   1.493  0.0673 -0.2073  0.0094
    21BTZ    C7 9339   4.882   1.631   1.513  0.0596 -0.1981 -0.0544
    21BTZ    C8 9340   4.849   1.408   1.600  0.1429 -0.1598  0.0742
    21BTZ    C9 9341   4.840   1.687   1.639  0.1253 -0.1421 -0.0578
    21BTZ   C10 9342   4.804   1.608   1.744  0.1985 -0.0954  0.0027
    21BTZ   C11 9343   4.807   1.466   1.728  0.2096 -0.1028  0.0708
    21BTZ    N2 9344   4.850   1.275   1.593  0.1578 -0.1633  0.1395
    21BTZ    N3 9345   4.774   1.379   1.824  0.2784 -0.0606  0.1333
    21BTZ    S3 9346   4.796   1.216   1.753  0.2599 -0.0926  0.2007
    31IDT   C12 9347   4.740   1.678   1.855 -0.5875 -0.8960 -0.4122
    31IDT   C13 9348   4.711   1.811   1.860 -0.3164 -0.8034 -1.0541
    31IDT   C14 9349   4.666   1.853   1.989  0.1960  0.0005 -1.1237
    31IDT   C15 9350   4.661   1.752   2.083  0.3187  0.5249 -0.5367
    31IDT    S4 9351   4.713   1.594   2.014 -0.2101  0.0368  0.1560
    4IDB    C16 9352   4.620   1.803   2.212 -0.0580  0.0202 -0.1455
    4IDB    C17 9353   4.587   1.942   2.203  0.2717  0.1110  0.0203
    51IDQ   C18 9354   4.609   1.983   2.053 -0.0004 -0.0009 -0.4861
    4IDB    C19 9355   4.536   2.011   2.312  0.2254  0.0468  0.0388
    51IDQ   C20 9356   4.717   2.100   2.041 -0.8256  0.1587 -0.2527
    51IDQ   C21 9357   4.484   2.038   1.976  0.4229  0.0318  0.9318
    51IDQ   C22 9358   4.347   2.044   2.042 -0.0793 -0.3982  0.2069
    51IDQ   C23 9359   4.871   2.074   2.011  0.1284 -0.2993  0.9214
    51IDQ   C24 9360   4.250   2.117   1.952 -0.1925  0.3681  0.7192
    51IDQ   C25 9361   4.113   2.147   2.006  0.8208 -0.2466  0.3244
    51IDQ   C26 9362   4.004   2.199   1.905  0.0292  0.1480  0.4777
    51IDQ   C27 9363   4.028   2.337   1.853 -0.1348 -0.0454 -0.7449
    51IDQ   C28 9364   3.940   2.376   1.741  0.2060  0.0858  0.2720
    51IDQ   C29 9365   3.967   2.515   1.684  0.2003 -0.6356  0.7509
    51IDQ   C30 9366   4.960   2.052   2.135 -0.0057  0.1669  0.5802
    51IDQ   C31 9367   5.106   2.065   2.104 -1.1257 -0.4236  0.4897
    51IDQ   C32 9368   5.194   2.032   2.222 -0.1345  0.0701 -0.2953
    51IDQ   C33 9369   5.339   2.011   2.198 -0.8003  0.1616  0.7355
    51IDQ   C34 9370   5.415   1.941   2.305 -0.3962 -0.4958 -0.1940
    51IDQ   C35 9371   5.380   1.798   2.331 -0.3569  0.1221 -0.0459
    4IDB    C36 9372   4.601   1.732   2.331 -0.4383 -0.1362 -0.2944
    4IDB    C37 9373   4.549   1.804   2.442 -0.4801 -0.1997 -0.2729
    11RH    C38 9374   5.035   1.419   0.801  0.2946  0.0509 -0.1399
    4IDB    C39 9375   4.517   1.939   2.432 -0.1549 -0.1095 -0.1101
    62IDT   C40 9376   4.466   1.987   2.557  0.0212 -0.2661  0.1570
    72IDQ   C41 9377   4.521   1.753   2.586 -0.2133 -1.0096 -0.0269
    62IDT   C42 9378   4.475   1.888   2.653 -0.0232 -0.0722  0.3634
    72IDQ   C43 9379   4.658   1.706   2.645  0.6237  0.5972  0.5748
    72IDQ   C44 9380   4.424   1.626   2.576  0.1946 -0.3704 -0.0930
    62IDT    S5 9381   4.411   2.143   2.627  0.3141 -0.0334 -0.1233
    62IDT   C45 9382   4.402   2.062   2.790  0.3633  0.3315  0.0625
    62IDT   C46 9383   4.439   1.930   2.784  0.1701  0.2659  0.3103
    82BTZ   C47 9384   4.356   2.129   2.917  0.3197 -0.0092 -0.1500
    82BTZ   C48 9385   4.309   2.050   3.020  0.3035 -0.0274 -0.1714
    82BTZ   C49 9386   4.276   2.106   3.149  0.2234 -0.0403 -0.1863
    82BTZ   C50 9387   4.289   2.239   3.175  0.1597 -0.0350 -0.1798
    82BTZ   C51 9388   4.372   2.269   2.940  0.2551 -0.0029 -0.1424
    82BTZ   C52 9389   4.338   2.326   3.071  0.1736 -0.0162 -0.1575
    92RH    C53 9390   4.261   2.297   3.308  0.0153 -0.1596  0.0190
    82BTZ    N4 9391   4.416   2.356   2.849  0.2633  0.0144 -0.1220
    82BTZ    N5 9392   4.356   2.457   3.085  0.1163 -0.0093 -0.1493
    82BTZ    S6 9393   4.417   2.516   2.928  0.1653  0.0147 -0.1212
    92RH    C54 9394   4.224   2.250   3.427  0.0004 -0.0847  0.0437
    92RH     S7 9395   4.182   2.077   3.469  0.1828 -0.0939  0.1913
    92RH    C55 9396   4.211   2.336   3.548 -0.1727  0.0207 -0.0483
    92RH     O2 9397   4.233   2.458   3.553 -0.3214  0.0516 -0.1569
    92RH     N6 9398   4.171   2.260   3.660 -0.1492  0.0839  0.0028
    92RH    C56 9399   4.150   2.125   3.644  0.0216  0.0420  0.1245
    92RH    C57 9400   4.163   2.334   3.791 -0.3826  1.1079 -0.2122
    92RH    C58 9401   4.280   2.328   3.887 -0.3624 -0.4459 -0.1065
    92RH     S8 9402   4.101   2.013   3.761  0.0855  0.1003  0.2068
    72IDQ   C59 9403   4.279   1.656   2.558  0.4775 -1.0812 -0.0556
    72IDQ   C60 9404   4.176   1.544   2.551 -0.2424  0.8519  0.0493
    72IDQ   C61 9405   4.043   1.597   2.516  0.1448 -0.0729  0.1422
    72IDQ   C62 9406   3.959   1.622   2.648 -0.0833 -0.1640  0.1407
    72IDQ   C63 9407   3.842   1.723   2.633  0.4979 -0.1178 -0.2083
    72IDQ   C64 9408   3.775   1.729   2.767  0.3739  0.1494 -0.1407
    72IDQ   C65 9409   3.652   1.819   2.747  0.1808  0.1499  0.1655
    72IDQ   C66 9410   4.661   1.634   2.777  0.2471  0.2454  0.4952
    72IDQ   C67 9411   4.789   1.638   2.855 -0.4747 -0.3156  0.0987
    72IDQ   C68 9412   4.756   1.650   2.999 -0.2707 -0.6245  0.1211
    72IDQ   C69 9413   4.870   1.703   3.079 -0.0779 -0.8723  0.0447
    72IDQ   C70 9414   4.846   1.702   3.230 -0.7890 -0.4190  0.1659
    72IDQ   C71 9415   4.982   1.730   3.302  0.2987 -0.1083  0.0646
    72IDQ   C72 9416   4.962   1.762   3.451 -0.3715 -0.5035  0.5271
    11RH     C1 9417   4.880   2.183   3.735 -0.2319  0.0115 -0.0880
    11RH     C2 9418   4.921   2.270   3.623 -0.0275  0.0528  0.0191
    11RH     N1 9419   4.844   2.258   3.849 -0.3985 -0.0318 -0.1115
    11RH     S1 9420   4.910   2.446   3.674 -0.0679  0.0320  0.0820
    11RH     C3 9421   4.851   2.395   3.841 -0.3526 -0.0302 -0.0363
    11RH     C4 9422   4.800   2.180   3.968 -0.5257 -0.5272 -0.5045
    11RH     S2 9423   4.814   2.507   3.962 -0.5209 -0.0764 -0.0445
    11RH     O1 9424   4.876   2.058   3.732 -0.2581  0.0137 -0.1508
    11RH     C5 9425   4.960   2.224   3.504  0.1552  0.0979  0.0607
    21BTZ    C6 9426   5.007   2.294   3.381 -0.0756  0.0339 -0.3189
    21BTZ    C7 9427   5.030   2.429   3.374 -0.0201  0.0265 -0.2750
    21BTZ    C8 9428   5.020   2.215   3.262  0.0002  0.0498 -0.3212
    21BTZ    C9 9429   5.068   2.493   3.251  0.1115  0.0342 -0.2310
    21BTZ   C10 9430   5.082   2.422   3.134  0.1878  0.0493 -0.2313
    21BTZ   C11 9431   5.058   2.280   3.137  0.1341  0.0576 -0.2766
    21BTZ    N2 9432   4.999   2.084   3.257 -0.0428  0.0581 -0.3619
    21BTZ    N3 9433   5.068   2.201   3.030  0.1987  0.0724 -0.2815
    21BTZ    S3 9434   5.029   2.036   3.087  0.0886  0.0768 -0.3446
    31IDT   C12 9435   5.112   2.502   3.014  0.0594 -0.1357  0.3484
    31IDT   C13 9436   5.140   2.636   3.010 -0.4547 -0.0331 -0.0896
    31IDT   C14 9437   5.183   2.680   2.881 -0.9971 -0.2047 -0.3343
    31IDT   C15 9438   5.188   2.580   2.786 -0.9005 -0.4387 -0.0851
    31IDT    S4 9439   5.137   2.421   2.853 -0.1078 -0.4600  0.4840
    4IDB    C16 9440   5.247   2.628   2.666  0.0805 -0.1548 -0.4142
    4IDB    C17 9441   5.271   2.768   2.676  0.0196 -0.1543 -0.2605
    51IDQ   C18 9442   5.226   2.813   2.814 -0.9964 -0.5085  0.0211
    4IDB    C19 9443   5.323   2.839   2.568 -0.0372 -0.0081 -0.1922
    51IDQ   C20 9444   5.116   2.922   2.805  0.8304 -0.4480  0.3165
    51IDQ   C21 9445   5.335   2.883   2.904 -0.8513 -0.4798 -0.4219
    51IDQ   C22 9446   5.476   2.915   2.851 -0.3600 -0.2503 -0.4949
    51IDQ   C23 9447   4.966   2.904   2.824  0.1149 -0.1598 -0.2797
    51IDQ   C24 9448   5.559   2.984   2.965  0.7856  0.1427  0.3658
    51IDQ   C25 9449   5.692   3.024   2.926 -0.4342  0.4921  0.0712
    51IDQ   C26 9450   5.786   3.088   3.025 -0.1737 -0.4592 -0.0011
    51IDQ   C27 9451   5.739   3.219   3.080 -0.1215 -1.2709 -0.4185
    51IDQ   C28 9452   5.795   3.254   3.219 -0.5953 -0.0236  0.1970
    51IDQ   C29 9453   5.948   3.238   3.250  0.2512 -0.6097 -0.2377
    51IDQ   C30 9454   4.888   2.799   2.742  0.1746 -0.6846  0.0923
    51IDQ   C31 9455   4.741   2.835   2.728  0.6343 -0.0146 -0.9092
    51IDQ   C32 9456   4.664   2.710   2.673  0.2466 -0.2762  0.4964
    51IDQ   C33 9457   4.512   2.747   2.661 -0.1558  0.0561 -0.2643
    51IDQ   C34 9458   4.432   2.643   2.586 -0.2054 -0.3132  0.7750
    51IDQ   C35 9459   4.283   2.671   2.551 -0.0367  0.2096  0.0104
    4IDB    C36 9460   5.274   2.557   2.548  0.0848 -0.0083 -0.5011
    4IDB    C37 9461   5.327   2.631   2.439  0.0261  0.1397 -0.4294
    11RH    C38 9462   4.923   2.141   4.059 -0.0378 -0.2864  0.2990
    4IDB    C39 9463   5.350   2.768   2.450 -0.0330  0.1382 -0.2790
    62IDT   C40 9464   5.404   2.814   2.323  0.1730  0.3306 -0.1238
    72IDQ   C41 9465   5.365   2.579   2.305 -0.4039 -0.1434  0.5235
    62IDT   C42 9466   5.411   2.709   2.234  0.2527  0.2860 -0.0653
    72IDQ   C43 9467   5.235   2.521   2.230  0.1825  0.3129 -0.1534
    72IDQ   C44 9468   5.474   2.464   2.334  0.3776 -0.0420  0.3978
    62IDT    S5 9469   5.451   2.970   2.246  0.1020  0.3160 -0.1976
    62IDT   C45 9470   5.479   2.880   2.090  0.1877  0.2471 -0.1427
    62IDT   C46 9471   5.453   2.746   2.102  0.2611  0.2388 -0.0759
    82BTZ   C47 9472   5.512   2.948   1.961  0.3656 -0.1251  0.2518
    82BTZ   C48 9473   5.568   2.873   1.861  0.3618 -0.0672  0.2058
    82BTZ   C49 9474   5.605   2.931   1.734  0.1787 -0.0334  0.1677
    82BTZ   C50 9475   5.585   3.064   1.707 -0.0003 -0.0578  0.1755
    82BTZ   C51 9476   5.489   3.088   1.937  0.1823 -0.1525  0.2619
    82BTZ   C52 9477   5.526   3.147   1.808 -0.0038 -0.1182  0.2231
    92RH    C53 9478   5.613   3.118   1.572  0.1124 -0.1719 -0.1485
    82BTZ    N4 9479   5.435   3.171   2.027  0.1671 -0.2084  0.3051
    82BTZ    N5 9480   5.502   3.277   1.794 -0.1686 -0.1466  0.2352
    82BTZ    S6 9481   5.430   3.332   1.948 -0.0914 -0.2200  0.2980
    92RH    C54 9482   5.668   3.064   1.462  0.0868 -0.1528 -0.1710
    92RH     S7 9483   5.718   2.889   1.439 -0.0403 -0.1773 -0.2613
    92RH    C55 9484   5.699   3.141   1.340  0.1603 -0.1073 -0.1242
    92RH     O2 9485   5.677   3.263   1.323  0.2524 -0.0819 -0.0601
    92RH     N6 9486   5.757   3.060   1.240  0.1128 -0.0956 -0.1618
    92RH    C56 9487   5.777   2.926   1.269  0.0101 -0.1262 -0.2329
    92RH    C57 9488   5.794   3.123   1.113  0.0434  0.1017  0.0795
    92RH    C58 9489   5.684   3.105   0.998  0.2164  0.0907  0.1175
    92RH     S8 9490   5.844   2.808   1.168 -0.0643 -0.1207 -0.2893
    72IDQ   C59 9491   5.619   2.500   2.315  0.2762 -0.1838 -0.0716
    72IDQ   C60 9492   5.707   2.379   2.330  0.4082  0.4987  0.0112
    72IDQ   C61 9493   5.853   2.402   2.323 -0.5125  0.1762 -0.1570
    72IDQ   C62 9494   5.923   2.448   2.192 -0.1904 -0.2492  0.7646
    72IDQ   C63 9495   6.079   2.468   2.207 -0.3686 -0.3942 -0.3077
    72IDQ   C64 9496   6.153   2.513   2.087 -0.4813 -0.5658  0.5375
    72IDQ   C65 9497   6.297   2.561   2.113  0.2647 -0.4196  0.4163
    72IDQ   C66 9498   5.259   2.460   2.093  1.2659  0.1802 -0.0415
    72IDQ   C67 9499   5.133   2.448   2.005  0.4004 -0.2437 -0.6321
    72IDQ   C68 9500   5.156   2.393   1.865 -0.3099 -0.6016 -0.1578
    72IDQ   C69 9501   5.024   2.350   1.796  0.2501 -0.4010 -0.0835
    72IDQ   C70 9502   5.049   2.287   1.658 -0.0004 -0.6438  0.0417
    72IDQ   C71 9503   5.131   2.158   1.657 -0.2354 -0.7993  0.2195
    72IDQ   C72 9504   5.134   2.074   1.536  0.3490  0.5757 -0.0194
    11RH     C1 9505   4.629   3.065   5.357  0.0937  0.0092 -0.0101
    11RH     C2 9506   4.667   2.976   5.245  0.1044  0.0003  0.0004
    11RH     N1 9507   4.594   2.991   5.473 -0.2208  0.0103 -0.1035
    11RH     S1 9508   4.654   2.801   5.298 -0.3001 -0.0060 -0.1131
    11RH     C3 9509   4.599   2.854   5.466 -0.4636  0.0033 -0.1692
    11RH     C4 9510   4.556   3.066   5.597 -0.1426  0.0784 -0.6223
    11RH     S2 9511   4.562   2.743   5.588 -0.8563  0.0030 -0.2842
    11RH     O1 9512   4.627   3.189   5.354  0.3277  0.0149  0.0536
    11RH     C5 9513   4.704   3.020   5.125  0.3735 -0.0025  0.0816
    21BTZ    C6 9514   4.743   2.959   5.000  0.0419  0.0915  0.1768
    21BTZ    C7 9515   4.756   2.824   4.982  0.0008  0.0879  0.1752
    21BTZ    C8 9516   4.772   3.046   4.890  0.0361  0.0824  0.1680
    21BTZ    C9 9517   4.797   2.768   4.856 -0.0477  0.0752  0.1653
    21BTZ   C10 9518   4.825   2.847   4.747 -0.0552  0.0661  0.1569
    21BTZ   C11 9519   4.813   2.989   4.761 -0.0132  0.0694  0.1580
    21BTZ    N2 9520   4.763   3.179   4.895  0.0733  0.0848  0.1686
    21BTZ    N3 9521   4.838   3.077   4.663 -0.0159  0.0615  0.1503
    21BTZ    S3 9522   4.808   3.239   4.732  0.0462  0.0703  0.1556
    31IDT   C12 9523   4.873   2.783   4.626 -0.1349  0.1550 -0.0431
    31IDT   C13 9524   4.901   2.649   4.617 -0.0702  0.1649  0.0151
    31IDT   C14 9525   4.963   2.614   4.493  0.0982  0.1686  0.0982
    31IDT   C15 9526   4.982   2.720   4.407  0.1633  0.1615  0.1035
    31IDT    S4 9527   4.922   2.874   4.477  0.0147  0.1495  0.0029
    4IDB    C16 9528   5.050   2.674   4.289  0.2453  0.3317  0.0202
    4IDB    C17 9529   5.075   2.534   4.296  0.5664  0.4047  0.3490
    51IDQ   C18 9530   5.030   2.483   4.436  0.3516 -0.1362 -0.4036
    4IDB    C19 9531   5.127   2.465   4.187  0.3572  0.1968  0.3806
    51IDQ   C20 9532   4.940   2.356   4.419  0.5688  0.4233  0.6011
    51IDQ   C21 9533   5.157   2.446   4.525 -0.0403  0.5496 -0.6170
    51IDQ   C22 9534   5.306   2.482   4.490 -0.0442 -0.0564  0.0675
    51IDQ   C23 9535   4.786   2.354   4.418  0.6922  0.4076 -0.6848
    51IDQ   C24 9536   5.416   2.417   4.582 -0.5349 -0.6764 -0.3232
    51IDQ   C25 9537   5.408   2.435   4.736  0.0754  0.6024  0.1178
    51IDQ   C26 9538   5.500   2.346   4.820 -0.6377 -0.9212  0.2195
    51IDQ   C27 9539   5.488   2.202   4.792 -0.1900 -0.0155  0.9792
    51IDQ   C28 9540   5.602   2.118   4.860  0.7077 -0.0521  0.7487
    51IDQ   C29 9541   5.565   1.974   4.826  0.2645  0.0118  0.4032
    51IDQ   C30 9542   4.697   2.433   4.322 -0.4664 -0.1312 -0.4532
    51IDQ   C31 9543   4.558   2.396   4.336 -0.3336  0.3951  0.0399
    51IDQ   C32 9544   4.459   2.489   4.261  0.2705  0.0635 -0.2767
    51IDQ   C33 9545   4.311   2.468   4.294  0.5334 -0.2809 -0.1338
    51IDQ   C34 9546   4.201   2.553   4.216  0.1373  0.3315 -0.1670
    51IDQ   C35 9547   4.218   2.704   4.219  0.2770  0.3550 -0.1213
    4IDB    C36 9548   5.076   2.747   4.171 -0.2905  0.0483 -0.2804
    4IDB    C37 9549   5.128   2.674   4.061 -0.4975 -0.1613 -0.2429
    11RH    C38 9550   4.675   3.133   5.671 -0.6234  0.0995  0.0277
    4IDB    C39 9551   5.153   2.537   4.070 -0.1787 -0.0866  0.0800
    62IDT   C40 9552   5.203   2.493   3.942  0.0925  0.0630  0.0740
    72IDQ   C41 9553   5.163   2.728   3.925 -0.6776 -0.6375 -0.4160
    62IDT   C42 9554   5.207   2.599   3.854  0.4786  0.1887  0.2359
    72IDQ   C43 9555   5.030   2.781   3.869  0.8500 -0.1193  0.6274
    72IDQ   C44 9556   5.270   2.845   3.935  0.0946 -0.1378 -0.3899
    62IDT    S5 9557   5.259   2.340   3.865 -0.4848 -0.0332 -0.1652
    62IDT   C45 9558   5.285   2.433   3.711 -0.1579  0.1087 -0.0271
    62IDT   C46 9559   5.253   2.565   3.723  0.3375  0.2148  0.1789
    82BTZ   C47 9560   5.319   2.356   3.582 -0.0197 -0.0884 -0.0399
    82BTZ   C48 9561   5.366   2.429   3.476 -0.1233 -0.0359 -0.0499
    82BTZ   C49 9562   5.393   2.367   3.348 -0.2962  0.0365 -0.1221
    82BTZ   C50 9563   5.373   2.233   3.328 -0.3652  0.0562 -0.1842
    82BTZ   C51 9564   5.297   2.216   3.566 -0.0861 -0.0704 -0.1031
    82BTZ   C52 9565   5.324   2.153   3.436 -0.2619  0.0032 -0.1765
    92RH    C53 9566   5.396   2.167   3.198  0.2295 -0.2484  0.1097
    82BTZ    N4 9567   5.252   2.135   3.662  0.0023 -0.1168 -0.1005
    82BTZ    N5 9568   5.301   2.022   3.428 -0.3147  0.0159 -0.2329
    82BTZ    S6 9569   5.242   1.971   3.589 -0.1384 -0.0674 -0.1936
    92RH    C54 9570   5.437   2.213   3.079  0.1590 -0.2438  0.0875
    92RH     S7 9571   5.501   2.381   3.042  0.0799 -0.2230  0.0439
    92RH    C55 9572   5.435   2.132   2.955  0.1339 -0.2553  0.0955
    92RH     O2 9573   5.397   2.014   2.947  0.1739 -0.2703  0.1229
    92RH     N6 9574   5.483   2.205   2.844  0.0567 -0.2471  0.0674
    92RH    C56 9575   5.523   2.336   2.865  0.0172 -0.2305  0.0381
    92RH    C57 9576   5.508   2.135   2.717  0.2876 -0.4419  0.7996
    92RH    C58 9577   5.383   2.102   2.624 -0.4319  0.1886  0.1098
    92RH     S8 9578   5.583   2.444   2.750 -0.0744 -0.2179  0.0015
    72IDQ   C59 9579   5.415   2.812   3.941  0.0905  0.4231 -0.5225
    72IDQ   C60 9580   5.517   2.925   3.968  0.8844  0.8016 -0.1259
    72IDQ   C61 9581   5.664   2.877   3.987  0.6957  0.5505  0.0238
    72IDQ   C62 9582   5.719   2.799   3.865  0.4523  0.4051 -0.1365
    72IDQ   C63 9583   5.859   2.753   3.886  0.1760  0.5895 -0.4157
    72IDQ   C64 9584   5.925   2.691   3.767  0.0635  0.1115 -0.2958
    72IDQ   C65 9585   6.057   2.620   3.807 -0.2014 -0.4916 -0.3620
    72IDQ   C66 9586   5.026   2.814   3.718 -0.8936  0.3185 -0.8595
    72IDQ   C67 9587   4.887   2.821   3.671  0.1114  0.6805  0.5759
    72IDQ   C68 9588   4.867   2.868   3.524 -0.2207 -0.1736 -0.4633
    72IDQ   C69 9589   4.931   2.784   3.416 -0.3421  0.1369  0.0772
    72IDQ   C70 9590   4.884   2.797   3.267  0.6089 -0.0943 -0.8031
    72IDQ   C71 9591   4.727   2.797   3.251 -0.8403  0.2592  0.2257
    72IDQ   C72 9592   4.683   2.791   3.110  0.2404  0.1978  0.1165
    11RH     C1 9593   4.804   2.325   2.810 -0.0105 -0.1648  0.0600
    11RH     C2 9594   4.762   2.230   2.916 -0.1421 -0.0774  0.0866
    11RH     N1 9595   4.849   2.257   2.695  0.1134 -0.2596  0.1644
    11RH     S1 9596   4.785   2.058   2.858 -0.0941 -0.1257  0.2471
    11RH     C3 9597   4.849   2.119   2.696  0.0973 -0.2589  0.2714
    11RH     C4 9598   4.910   2.333   2.579 -0.1083 -0.1496  0.7520
    11RH     S2 9599   4.897   2.015   2.573  0.2267 -0.3605  0.4077
    11RH     O1 9600   4.801   2.449   2.818 -0.0067 -0.1578 -0.0403
    11RH     C5 9601   4.715   2.269   3.035 -0.2738  0.0208  0.0034
    21BTZ    C6 9602   4.668   2.197   3.153  0.0618  0.0433 -0.0444
    21BTZ    C7 9603   4.658   2.060   3.163  0.1030  0.0466  0.0395
    21BTZ    C8 9604   4.638   2.276   3.268 -0.0722  0.1110 -0.1245
    21BTZ    C9 9605   4.620   1.996   3.286  0.0156  0.1158  0.0489
    21BTZ   C10 9606   4.591   2.067   3.399 -0.1130  0.1818 -0.0255
    21BTZ   C11 9607   4.599   2.210   3.393 -0.1611  0.1813 -0.1148
    21BTZ    N2 9608   4.644   2.410   3.271 -0.1240  0.1150 -0.2097
    21BTZ    N3 9609   4.574   2.291   3.497 -0.2843  0.2419 -0.1924
    21BTZ    S3 9610   4.598   2.458   3.437 -0.2922  0.2109 -0.2829
    31IDT   C12 9611   4.536   1.992   3.514 -0.7181  0.4917 -0.3186
    31IDT   C13 9612   4.492   1.863   3.521 -1.5819  0.7509 -0.7045
    31IDT   C14 9613   4.449   1.826   3.652 -1.4023  0.5168 -0.7108
    31IDT   C15 9614   4.460   1.926   3.746 -0.4030  0.0788 -0.3309
    31IDT    S4 9615   4.527   2.077   3.675  0.3959 -0.0727  0.0681
    4IDB    C16 9616   4.418   1.877   3.875 -0.0918 -0.3165 -0.3430
    4IDB    C17 9617   4.379   1.740   3.867  0.6493 -0.5561  0.0018
    51IDQ   C18 9618   4.390   1.694   3.717 -0.4580 -0.1257 -0.4223
    4IDB    C19 9619   4.334   1.672   3.979  0.6140 -0.3971  0.0840
    51IDQ   C20 9620   4.475   1.562   3.733 -0.4247  0.4875 -0.0148
    51IDQ   C21 9621   4.260   1.653   3.639 -0.3747  0.5143  0.1835
    51IDQ   C22 9622   4.115   1.656   3.691 -0.1058  0.8461 -0.6371
    51IDQ   C23 9623   4.630   1.556   3.733 -0.0797 -0.1213 -0.0854
    51IDQ   C24 9624   4.010   1.651   3.584 -0.2181 -0.1620  0.2486
    51IDQ   C25 9625   3.999   1.529   3.485 -0.1779  0.1397 -0.5732
    51IDQ   C26 9626   3.952   1.399   3.553 -0.4718 -0.0725  0.5385
    51IDQ   C27 9627   3.920   1.277   3.468 -0.1117 -0.2356 -0.2579
    51IDQ   C28 9628   3.877   1.293   3.325  0.6877 -0.1898  0.3615
    51IDQ   C29 9629   3.866   1.172   3.243 -0.1804 -0.0671 -0.2666
    51IDQ   C30 9630   4.706   1.629   3.844 -0.2219 -0.0360 -0.1145
    51IDQ   C31 9631   4.854   1.626   3.822 -0.3087 -0.4468 -0.4939
    51IDQ   C32 9632   4.935   1.710   3.921  0.1353  0.3447 -0.5116
    51IDQ   C33 9633   5.081   1.707   3.883 -0.7489 -0.1010  0.3074
    51IDQ   C34 9634   5.180   1.787   3.961  0.5767 -0.1316 -0.6369
    51IDQ   C35 9635   5.326   1.766   3.932 -0.0906 -0.1994  0.3558
    4IDB    C36 9636   4.411   1.948   3.996 -0.8774  0.0860 -0.6089
    4IDB    C37 9637   4.364   1.877   4.110 -0.9013  0.2434 -0.5199
    11RH    C38 9638   4.804   2.376   2.473 -0.3473  0.1197  0.1756
    4IDB    C39 9639   4.326   1.743   4.100 -0.1718  0.0055 -0.1820
    62IDT   C40 9640   4.276   1.696   4.228  0.2157 -0.0379 -0.0240
    72IDQ   C41 9641   4.334   1.928   4.252  0.0793 -0.3684 -0.4158
    62IDT   C42 9642   4.284   1.798   4.321  0.1729 -0.1933  0.1518
    72IDQ   C43 9643   4.469   1.975   4.316  0.3459  0.9858 -0.0580
    72IDQ   C44 9644   4.241   2.054   4.249 -0.8128  0.4707  0.3416
    62IDT    S5 9645   4.200   1.548   4.297  0.0637 -0.1111 -0.3443
    62IDT   C45 9646   4.183   1.636   4.456 -0.0558 -0.3602 -0.2176
    62IDT   C46 9647   4.232   1.764   4.450  0.0192 -0.3757  0.0427
    82BTZ   C47 9648   4.141   1.572   4.581 -0.2153  0.1330 -0.2453
    82BTZ   C48 9649   4.087   1.649   4.681 -0.2314  0.1892 -0.2977
    82BTZ   C49 9650   4.052   1.594   4.809 -0.1415  0.2853 -0.2314
    82BTZ   C50 9651   4.070   1.462   4.838 -0.0357  0.3251 -0.1124
    82BTZ   C51 9652   4.161   1.432   4.607 -0.1060  0.1714 -0.1210
    82BTZ   C52 9653   4.125   1.376   4.737 -0.0145  0.2691 -0.0536
    92RH    C53 9654   4.038   1.405   4.968 -0.1465 -0.1666 -0.0303
    82BTZ    N4 9655   4.213   1.346   4.518 -0.0800  0.1237 -0.0600
    82BTZ    N5 9656   4.148   1.245   4.753  0.0848  0.2999  0.0619
    82BTZ    S6 9657   4.217   1.187   4.599  0.0657  0.2033  0.0896
    92RH    C54 9658   3.997   1.453   5.086 -0.0827 -0.1665 -0.0079
    92RH     S7 9659   3.953   1.627   5.125 -0.1902 -0.1908 -0.0196
    92RH    C55 9660   3.980   1.368   5.207  0.0913 -0.1461  0.0315
    92RH     O2 9661   4.002   1.246   5.214  0.1962 -0.1270  0.0479
    92RH     N6 9662   3.936   1.445   5.317  0.1251 -0.1509  0.0486
    92RH    C56 9663   3.915   1.580   5.299 -0.0004 -0.1727  0.0279
    92RH    C57 9664   3.933   1.380   5.453  0.0339 -0.6233 -0.6511
    92RH    C58 9665   4.066   1.383   5.526 -0.3625  0.5054 -0.2039
    92RH     S8 9666   3.862   1.692   5.413  0.0076 -0.1828  0.0416
    72IDQ   C59 9667   4.089   2.040   4.237  1.5469  0.2607 -0.4062
    72IDQ   C60 9668   4.009   2.173   4.252  0.7873  0.7046 -0.2282
    72IDQ   C61 9669   3.858   2.165   4.254 -0.2971 -0.5008 -0.4356
    72IDQ   C62 9670   3.797   2.076   4.363  0.0139  0.0798 -0.0385
    72IDQ   C63 9671   3.649   2.093   4.355  0.0889  0.7689  0.3843
    72IDQ   C64 9672   3.596   2.005   4.470  0.8620 -0.5472  0.2801
    72IDQ   C65 9673   3.453   1.957   4.436  0.1400 -0.1498  0.4968
    72IDQ   C66 9674   4.472   2.024   4.459  0.3261  0.3572 -0.6742
    72IDQ   C67 9675   4.606   2.048   4.497 -0.3741  0.4293 -0.5313
    72IDQ   C68 9676   4.597   2.083   4.640  0.1941  0.6166 -0.1585
    72IDQ   C69 9677   4.730   2.098   4.707 -0.1677 -0.5515 -0.3038
    72IDQ   C70 9678   4.700   2.116   4.860  0.0941 -0.4433 -0.0777
    72IDQ   C71 9679   4.779   2.020   4.940 -0.2802 -0.4718  0.2208
    72IDQ   C72 9680   4.778   2.029   5.095  0.5543  0.1312  0.4463
    11RH     C1 9681   4.628   1.379   4.479 -0.3111 -0.1623  0.2317
    11RH     C2 9682   4.573   1.471   4.581 -0.0715  0.0251  0.1928
    11RH     N1 9683   4.669   1.448   4.363 -0.3321 -0.3433  0.1149
    11RH     S1 9684   4.578   1.643   4.518  0.1104 -0.0488  0.0055
    11RH     C3 9685   4.653   1.585   4.360 -0.1389 -0.3238 -0.0125
    11RH     C4 9686   4.720   1.376   4.242 -0.0150 -0.6085 -0.0294
    11RH     S2 9687   4.694   1.690   4.235 -0.1175 -0.5135 -0.1665
    11RH     O1 9688   4.638   1.255   4.491 -0.4756 -0.1646  0.3505
    11RH     C5 9689   4.527   1.431   4.700 -0.0051  0.2166  0.2840
    21BTZ    C6 9690   4.474   1.503   4.817 -0.2192 -0.0764  0.3330
    21BTZ    C7 9691   4.471   1.639   4.834 -0.1909 -0.0887  0.4426
    21BTZ    C8 9692   4.425   1.420   4.924 -0.0730 -0.1567  0.3378
    21BTZ    C9 9693   4.421   1.700   4.954 -0.0191 -0.1798  0.5617
    21BTZ   C10 9694   4.373   1.625   5.058  0.1247 -0.2585  0.5710
    21BTZ   C11 9695   4.374   1.482   5.046  0.1018 -0.2493  0.4588
    21BTZ    N2 9696   4.423   1.286   4.920 -0.0840 -0.1537  0.2376
    21BTZ    N3 9697   4.330   1.398   5.141  0.2313 -0.3207  0.4560
    21BTZ    S3 9698   4.354   1.233   5.076  0.1332 -0.2716  0.2950
    31IDT   C12 9699   4.320   1.691   5.175  0.4140 -0.0869  0.1953
    31IDT   C13 9700   4.272   1.820   5.179 -0.0781 -0.2508 -0.2378
    31IDT   C14 9701   4.227   1.858   5.310 -0.7093 -0.1514 -0.4767
    31IDT   C15 9702   4.241   1.759   5.405 -0.7025  0.0884 -0.2282
    31IDT    S4 9703   4.312   1.609   5.337  0.1111  0.2079  0.3331
    4IDB    C16 9704   4.189   1.804   5.532  0.3425  0.0290  0.3315
    4IDB    C17 9705   4.140   1.937   5.517  0.5252  0.0998  0.3526
    51IDQ   C18 9706   4.172   1.994   5.379  0.1230 -0.0050 -0.1328
    4IDB    C19 9707   4.078   2.002   5.624  0.2424  0.0141  0.2432
    51IDQ   C20 9708   4.264   2.119   5.406 -0.1313  0.0177 -0.0406
    51IDQ   C21 9709   4.058   2.053   5.285  0.2286  0.8250  0.4807
    51IDQ   C22 9710   3.905   2.043   5.323  0.3965 -0.3642  0.6230
    51IDQ   C23 9711   4.416   2.111   5.368  0.4463  0.2322  0.0265
    51IDQ   C24 9712   3.828   2.137   5.234  0.0353 -0.1201  0.2232
    51IDQ   C25 9713   3.677   2.142   5.269  0.6639  0.1439  0.0471
    51IDQ   C26 9714   3.583   2.216   5.168 -0.0093  0.5257  0.1749
    51IDQ   C27 9715   3.623   2.357   5.135  0.7392  0.0623  0.0942
    51IDQ   C28 9716   3.560   2.401   5.004 -0.0218 -0.0940  0.6416
    51IDQ   C29 9717   3.637   2.518   4.952  0.3596 -0.4671  0.2278
    51IDQ   C30 9718   4.499   2.048   5.481 -0.1511  0.1208  0.2237
    51IDQ   C31 9719   4.642   2.013   5.447  0.3628  0.6175 -0.3495
    51IDQ   C32 9720   4.718   1.949   5.566 -0.3787  0.0517 -0.5761
    51IDQ   C33 9721   4.870   1.959   5.553  0.5532  0.0382  0.4154
    51IDQ   C34 9722   4.958   1.886   5.645  0.1880  0.3177  0.2165
    51IDQ   C35 9723   5.107   1.919   5.635  0.3469 -0.2019  0.0990
    4IDB    C36 9724   4.177   1.735   5.653 -0.1273 -0.1290  0.1998
    4IDB    C37 9725   4.114   1.803   5.761 -0.4112 -0.2146  0.0889
    11RH    C38 9726   4.612   1.323   4.152 -0.3630 -0.3929  0.0684
    4IDB    C39 9727   4.066   1.933   5.745 -0.2274 -0.1438  0.1114
    62IDT   C40 9728   4.017   1.986   5.868 -0.3796  0.3042 -0.2868
    72IDQ   C41 9729   4.080   1.753   5.902 -0.5356 -0.5150  0.4311
    62IDT   C42 9730   4.023   1.886   5.962 -0.5335  0.0349 -0.5611
    72IDQ   C43 9731   4.211   1.705   5.976  0.3776  0.3138  0.0655
    72IDQ   C44 9732   3.969   1.644   5.915 -0.2254 -0.4595 -0.1041
    62IDT    S5 9733   3.959   2.141   5.939 -0.1103  0.2112  0.1452
    62IDT   C45 9734   3.946   2.058   6.100 -0.2255 -0.2072 -0.0786
    62IDT   C46 9735   3.983   1.926   6.093 -0.4465 -0.2546 -0.4438
    82BTZ   C47 9736   3.916   2.129   6.224  0.1143 -0.1076 -0.0754
    82BTZ   C48 9737   3.867   2.053   6.327  0.2119 -0.1662 -0.0715
    82BTZ   C49 9738   3.835   2.111   6.455  0.2081 -0.2149 -0.0505
    82BTZ   C50 9739   3.852   2.244   6.480  0.1067 -0.2050 -0.0333
    82BTZ   C51 9740   3.935   2.269   6.245  0.0061 -0.0950 -0.0578
    82BTZ   C52 9741   3.903   2.328   6.376  0.0021 -0.1444 -0.0364
    92RH    C53 9742   3.825   2.304   6.614 -0.0360  0.0718 -0.1452
    82BTZ    N4 9743   3.983   2.353   6.153 -0.0948 -0.0398 -0.0594
    82BTZ    N5 9744   3.924   2.459   6.388 -0.1019 -0.1290 -0.0209
    82BTZ    S6 9745   3.988   2.515   6.230 -0.2013 -0.0490 -0.0331
    92RH    C54 9746   3.783   2.259   6.732 -0.0397  0.0324 -0.1614
    92RH     S7 9747   3.732   2.087   6.773 -0.1822  0.0513 -0.2574
    92RH    C55 9748   3.771   2.344   6.853  0.0753 -0.0349 -0.1019
    92RH     O2 9749   3.798   2.465   6.858  0.1864 -0.0625 -0.0313
    92RH     N6 9750   3.724   2.271   6.964  0.0436 -0.0654 -0.1352
    92RH    C56 9751   3.698   2.137   6.947 -0.0830 -0.0306 -0.2142
    92RH    C57 9752   3.704   2.335   7.096  0.4653  0.1415 -0.2950
    92RH    C58 9753   3.816   2.348   7.200 -0.3569 -0.2729 -0.3348
    92RH     S8 9754   3.642   2.027   7.063 -0.1456 -0.0554 -0.2680
    72IDQ   C59 9755   3.867   1.630   5.803  0.1513 -0.6195 -0.4111
    72IDQ   C60 9756   3.746   1.530   5.833 -0.1445 -0.8337 -0.8088
    72IDQ   C61 9757   3.663   1.554   5.965  0.0699 -0.1212 -0.3290
    72IDQ   C62 9758   3.582   1.688   5.983  0.0957  0.2021  0.6712
    72IDQ   C63 9759   3.507   1.708   6.114  0.2663  0.0957 -0.0564
    72IDQ   C64 9760   3.579   1.699   6.247 -0.1726  0.1900 -0.0584
    72IDQ   C65 9761   3.487   1.753   6.354 -0.2418 -0.4141 -0.3333
    72IDQ   C66 9762   4.200   1.656   6.117 -0.0781 -0.5748 -0.4252
    72IDQ   C67 9763   4.336   1.672   6.193  0.6287 -0.0310  0.5638
    72IDQ   C68 9764   4.343   1.625   6.343  0.0624 -0.1573 -0.3321
    72IDQ   C69 9765   4.486   1.625   6.385 -0.0194  0.3692 -0.0028
    72IDQ   C70 9766   4.501   1.570   6.526 -0.3928 -0.2576 -0.0325
    72IDQ   C71 9767   4.571   1.669   6.620  0.7768 -0.0742  0.3472
    72IDQ   C72 9768   4.630   1.590   6.738 -0.0150  0.3537  0.0944
    11RH     C1 9769   5.277   2.198   0.492  0.3778 -0.0429 -0.1352
    11RH     C2 9770   5.316   2.284   0.378  0.2018  0.0743 -0.1083
    11RH     N1 9771   5.246   2.275   0.606  0.1455 -0.1370 -0.1334
    11RH     S1 9772   5.310   2.461   0.428 -0.2574  0.0529 -0.0825
    11RH     C3 9773   5.256   2.412   0.597 -0.1951 -0.1097 -0.1084
    11RH     C4 9774   5.209   2.215   0.736 -0.5063  0.1092 -0.8406
    11RH     S2 9775   5.225   2.526   0.718 -0.5213 -0.2047 -0.1009
    11RH     O1 9776   5.271   2.074   0.490  0.6890 -0.0588 -0.1568
    11RH     C5 9777   5.350   2.236   0.258  0.3632  0.1779 -0.1044
    21BTZ    C6 9778   5.387   2.299   0.129 -0.6105  0.0653 -0.1726
    21BTZ    C7 9779   5.401   2.433   0.107 -0.4511  0.0426 -0.2148
    21BTZ    C8 9780   5.419   2.208   0.023 -0.2862 -0.0244 -0.0006
    21BTZ    C9 9781   5.446   2.485  -0.020  0.0315 -0.0687 -0.0911
    21BTZ   C10 9782   5.478   2.402  -0.124  0.3539 -0.1570  0.0748
    21BTZ   C11 9783   5.465   2.261  -0.106  0.2043 -0.1375  0.1253
    21BTZ    N2 9784   5.410   2.075   0.032 -0.3996 -0.0128  0.0558
    21BTZ    N3 9785   5.493   2.170  -0.200  0.4854 -0.2167  0.2828
    21BTZ    S3 9786   5.461   2.010  -0.126  0.1271 -0.1488  0.2768
    31IDT   C12 9787   5.524   2.462  -0.254 -0.8597  0.2578 -0.2053
    31IDT   C13 9788   5.578   2.587  -0.264 -0.7522  0.2092 -0.2369
    31IDT   C14 9789   5.621   2.618  -0.397 -0.1922 -0.0789 -0.1254
    31IDT   C15 9790   5.601   2.516  -0.488  0.1302 -0.2512 -0.0085
    31IDT    S4 9791   5.524   2.373  -0.412 -0.2540 -0.0604 -0.0307
    4IDB    C16 9792   5.668   2.547  -0.615 -0.0745 -0.0601 -0.3063
    4IDB    C17 9793   5.731   2.675  -0.602 -0.0120 -0.1023 -0.1860
    51IDQ   C18 9794   5.692   2.736  -0.463  0.2161 -0.5542  0.1103
    4IDB    C19 9795   5.800   2.732  -0.709 -0.0902  0.0195 -0.1727
    51IDQ   C20 9796   5.595   2.863  -0.487 -0.2893 -0.1469 -0.0766
    51IDQ   C21 9797   5.811   2.785  -0.367  0.0587 -0.9355  0.4350
    51IDQ   C22 9798   5.956   2.764  -0.407 -0.3998 -0.6808 -0.2806
    51IDQ   C23 9799   5.449   2.879  -0.449  0.7770 -0.0094  0.2484
    51IDQ   C24 9800   6.073   2.822  -0.314  0.6321  0.5997  0.8330
    51IDQ   C25 9801   6.044   2.812  -0.164  0.4240 -1.0428 -0.4933
    51IDQ   C26 9802   6.033   2.678  -0.091 -0.2350  0.2102 -0.0332
    51IDQ   C27 9803   5.979   2.670   0.053 -0.0194 -0.2245 -0.2732
    51IDQ   C28 9804   5.859   2.758   0.094  1.1379  0.3359 -0.1048
    51IDQ   C29 9805   5.819   2.759   0.247  0.0200 -0.0214 -0.0021
    51IDQ   C30 9806   5.366   2.806  -0.548  0.3499  0.2293 -0.3983
    51IDQ   C31 9807   5.215   2.816  -0.521 -0.3883 -0.5691  0.7007
    51IDQ   C32 9808   5.126   2.719  -0.597 -0.6737  0.3816 -1.1201
    51IDQ   C33 9809   4.986   2.758  -0.573 -0.4007  0.3486  0.8858
    51IDQ   C34 9810   4.886   2.683  -0.663 -0.0852  0.0232  0.2106
    51IDQ   C35 9811   4.741   2.726  -0.640 -0.4049  0.3595  0.3474
    4IDB    C36 9812   5.675   2.475  -0.735 -0.2166  0.1054 -0.4150
    4IDB    C37 9813   5.746   2.534  -0.843 -0.2949  0.2281 -0.3997
    11RH    C38 9814   5.321   2.195   0.838  0.4424  0.0141  0.6020
    4IDB    C39 9815   5.807   2.659  -0.829 -0.2324  0.1849 -0.2814
    62IDT   C40 9816   5.852   2.702  -0.954 -0.9084  0.2742  0.2050
    72IDQ   C41 9817   5.776   2.481  -0.986 -0.3858  0.4037 -0.8647
    62IDT   C42 9818   5.833   2.604  -1.049 -0.8568 -0.0280  0.5009
    72IDQ   C43 9819   5.643   2.435  -1.049 -0.5108 -0.1442 -0.1291
    72IDQ   C44 9820   5.867   2.354  -0.968  0.1992  0.1353 -0.2425
    62IDT    S5 9821   5.927   2.850  -1.023 -0.4724 -0.1022 -0.1408
    62IDT   C45 9822   5.928   2.767  -1.185 -0.2315 -0.6764  0.1468
    62IDT   C46 9823   5.876   2.641  -1.180 -0.4740 -0.5658  0.4685
    82BTZ   C47 9824   5.956   2.847  -1.307  0.0535  0.1859  0.1232
    82BTZ   C48 9825   6.004   2.779  -1.416 -0.0843  0.0881  0.1233
    82BTZ   C49 9826   6.029   2.844  -1.542 -0.2565 -0.0283  0.0284
    82BTZ   C50 9827   6.006   2.978  -1.560 -0.2907 -0.0469 -0.0663
    82BTZ   C51 9828   5.930   2.988  -1.321  0.0243  0.1710  0.0259
    82BTZ   C52 9829   5.955   3.054  -1.449 -0.1508  0.0527 -0.0706
    92RH    C53 9830   6.035   3.050  -1.680 -0.0587 -0.2314  0.2184
    82BTZ    N4 9831   5.883   3.065  -1.223  0.1479  0.2594  0.0161
    82BTZ    N5 9832   5.928   3.185  -1.454 -0.1677  0.0460 -0.1580
    82BTZ    S6 9833   5.868   3.230  -1.292  0.0436  0.1937 -0.1200
    92RH    C54 9834   6.083   3.014  -1.799 -0.0081 -0.1739  0.2216
    92RH     S7 9835   6.151   2.850  -1.846  0.2291 -0.0812  0.2375
    92RH    C55 9836   6.089   3.105  -1.916 -0.1415 -0.1768  0.2122
    92RH     O2 9837   6.051   3.224  -1.917 -0.3128 -0.2317  0.2004
    92RH     N6 9838   6.144   3.041  -2.029 -0.0500 -0.1083  0.2182
    92RH    C56 9839   6.184   2.910  -2.017  0.1407 -0.0508  0.2311
    92RH    C57 9840   6.141   3.114  -2.159 -0.0944  0.4946 -0.0461
    92RH    C58 9841   6.021   3.079  -2.254 -0.1674  0.4346  0.0350
    92RH     S8 9842   6.252   2.811  -2.135  0.2822  0.0356  0.2404
    72IDQ   C59 9843   6.010   2.378  -0.907 -0.5949  0.0744  0.5894
    72IDQ   C60 9844   6.099   2.261  -0.910 -0.1154  0.5764 -0.0751
    72IDQ   C61 9845   6.250   2.278  -0.915 -0.0586 -0.2828  0.1512
    72IDQ   C62 9846   6.307   2.367  -1.024 -0.2476  0.0339  1.2012
    72IDQ   C63 9847   6.453   2.364  -1.049  0.1004  0.5044  0.2979
    72IDQ   C64 9848   6.505   2.485  -1.131 -0.2102 -0.1368  0.6767
    72IDQ   C65 9849   6.639   2.468  -1.193 -0.7970  0.3834 -0.0694
    72IDQ   C66 9850   5.643   2.410  -1.202 -0.2893 -0.0532  0.0314
    72IDQ   C67 9851   5.501   2.388  -1.245  0.1997 -0.5261  0.0465
    72IDQ   C68 9852   5.501   2.357  -1.394  0.3348  0.4219  0.5169
    72IDQ   C69 9853   5.358   2.373  -1.442 -0.2067  0.5880  1.0504
    72IDQ   C70 9854   5.325   2.379  -1.592  0.2175 -0.3427  0.6123
    72IDQ   C71 9855   5.408   2.460  -1.697  0.9766 -0.1224 -0.0491
    72IDQ   C72 9856   5.358   2.463  -1.838 -0.4365  0.2629 -0.0240
    11RH     C1 9857   5.068   4.577   2.112  0.1340  0.1639 -0.0398
    11RH     C2 9858   5.116   4.493   2.000  0.2011  0.2089 -0.0450
    11RH     N1 9859   5.019   4.499   2.219  0.0193  0.1217 -0.1231
    11RH     S1 9860   5.094   4.316   2.042  0.1092  0.1930 -0.1592
    11RH     C3 9861   5.022   4.362   2.206 -0.0132  0.1276 -0.1944
    11RH     C4 9862   4.964   4.558   2.345 -0.3758  0.1542  0.1411
    11RH     S2 9863   4.970   4.246   2.317 -0.1438  0.0838 -0.2999
    11RH     O1 9864   5.069   4.702   2.115  0.1713  0.1622  0.0283
    11RH     C5 9865   5.168   4.543   1.887  0.3117  0.2537  0.0247
    21BTZ    C6 9866   5.215   4.477   1.763  0.2380 -0.0828 -0.1212
    21BTZ    C7 9867   5.214   4.341   1.744  0.4703 -0.0651 -0.2680
    21BTZ    C8 9868   5.257   4.561   1.655  0.0620  0.1080 -0.0408
    21BTZ    C9 9869   5.253   4.282   1.618  0.5411  0.1396 -0.3429
    21BTZ   C10 9870   5.294   4.359   1.512  0.3793  0.3263 -0.2708
    21BTZ   C11 9871   5.297   4.501   1.527  0.1340  0.3160 -0.1169
    21BTZ    N2 9872   5.262   4.694   1.662 -0.1696  0.1113  0.1024
    21BTZ    N3 9873   5.334   4.586   1.431 -0.0397  0.4865 -0.0348
    21BTZ    S3 9874   5.320   4.750   1.502 -0.3083  0.3863  0.1470
    31IDT   C12 9875   5.345   4.291   1.392  0.3798  0.1383  0.3476
    31IDT   C13 9876   5.368   4.156   1.383  0.6559  0.1682  0.5826
    31IDT   C14 9877   5.419   4.116   1.256  0.3918  0.0046  0.5261
    31IDT   C15 9878   5.436   4.220   1.167 -0.0861 -0.1506  0.2483
    31IDT    S4 9879   5.387   4.378   1.237 -0.2402 -0.1014  0.0348
    4IDB    C16 9880   5.485   4.175   1.043  0.2067  0.0453  0.0577
    4IDB    C17 9881   5.516   4.037   1.054 -0.0418 -0.0182 -0.0326
    51IDQ   C18 9882   5.480   3.987   1.196  0.0057 -0.0408  0.6938
    4IDB    C19 9883   5.569   3.967   0.946 -0.0952 -0.0241 -0.0549
    51IDQ   C20 9884   5.379   3.872   1.161  0.0230  0.1921  0.1749
    51IDQ   C21 9885   5.590   3.941   1.291 -0.5543  0.6342 -0.4600
    51IDQ   C22 9886   5.738   3.951   1.250 -0.1378 -0.5006  0.2154
    51IDQ   C23 9887   5.233   3.878   1.189 -0.1156  0.0378  0.1739
    51IDQ   C24 9888   5.829   3.897   1.359  0.5408  0.0325 -0.6673
    51IDQ   C25 9889   5.980   3.926   1.336  0.4313  0.3325  0.1840
    51IDQ   C26 9890   6.065   3.881   1.454  0.1092 -0.0693 -0.2854
    51IDQ   C27 9891   6.076   3.734   1.477 -0.1370  0.3994  0.6835
    51IDQ   C28 9892   6.172   3.701   1.592  0.2041  0.3946  0.8831
    51IDQ   C29 9893   6.198   3.559   1.613 -1.1789  0.5126  0.8951
    51IDQ   C30 9894   5.152   3.969   1.104  0.3533 -0.3183  0.4740
    51IDQ   C31 9895   4.998   3.973   1.131 -0.0068  0.5699 -0.3459
    51IDQ   C32 9896   4.931   4.049   1.016 -0.8112 -0.0306 -0.6760
    51IDQ   C33 9897   4.781   4.035   1.027  0.4434  1.4400  0.0508
    51IDQ   C34 9898   4.686   4.115   0.937 -0.2073  0.8710  0.5163
    51IDQ   C35 9899   4.541   4.094   0.981  0.0011  0.1994  0.2807
    4IDB    C36 9900   5.507   4.246   0.924  0.4044  0.1040  0.1267
    4IDB    C37 9901   5.560   4.173   0.814  0.3463  0.0970  0.1026
    11RH    C38 9902   5.064   4.608   2.450  0.1489 -0.4540 -0.0751
    4IDB    C39 9903   5.590   4.037   0.826  0.1024  0.0346  0.0140
    62IDT   C40 9904   5.639   3.987   0.704  0.2039 -0.2343  0.1285
    72IDQ   C41 9905   5.580   4.217   0.667  0.2158 -0.5516  0.0057
    62IDT   C42 9906   5.631   4.085   0.607  1.0036  0.1123  0.3893
    72IDQ   C43 9907   5.435   4.250   0.601 -0.0119 -0.8353 -0.4414
    72IDQ   C44 9908   5.681   4.344   0.671  0.2361  0.7781  0.0032
    62IDT    S5 9909   5.705   3.833   0.639 -0.3929 -0.3889 -0.1276
    62IDT   C45 9910   5.719   3.913   0.476  0.5144  0.0443  0.1446
    62IDT   C46 9911   5.675   4.043   0.478  1.1801  0.2704  0.3988
    82BTZ   C47 9912   5.755   3.837   0.357  0.2136 -0.2461 -0.1203
    82BTZ   C48 9913   5.818   3.911   0.261  0.1981 -0.2260 -0.1148
    82BTZ   C49 9914   5.852   3.856   0.132  0.1767 -0.1986 -0.1321
    82BTZ   C50 9915   5.823   3.727   0.099  0.1707 -0.1915 -0.1548
    82BTZ   C51 9916   5.722   3.700   0.327  0.2083 -0.2397 -0.1439
    82BTZ   C52 9917   5.757   3.644   0.196  0.1864 -0.2118 -0.1614
    92RH    C53 9918   5.849   3.671  -0.032 -0.3829 -0.2044 -0.3084
    82BTZ    N4 9919   5.661   3.618   0.412  0.2218 -0.2576 -0.1514
    82BTZ    N5 9920   5.723   3.517   0.175  0.1825 -0.2074 -0.1830
    82BTZ    S6 9921   5.644   3.462   0.326  0.2073 -0.2393 -0.1818
    92RH    C54 9922   5.894   3.717  -0.150 -0.1663 -0.0947 -0.1832
    92RH     S7 9923   5.927   3.892  -0.194 -0.0263 -0.0585  0.0602
    92RH    C55 9924   5.925   3.629  -0.265 -0.0017  0.0182 -0.2248
    92RH     O2 9925   5.914   3.506  -0.267 -0.0436  0.0246 -0.3772
    92RH     N6 9926   5.971   3.704  -0.376  0.2145  0.1208 -0.0675
    92RH    C56 9927   5.980   3.841  -0.363  0.2432  0.1038  0.0952
    92RH    C57 9928   5.987   3.641  -0.510 -0.0359  0.1462  0.3060
    92RH    C58 9929   5.854   3.651  -0.584 -0.1964  0.0160 -0.2994
    92RH     S8 9930   6.031   3.952  -0.478  0.4814  0.2100  0.3011
    72IDQ   C59 9931   5.818   4.334   0.730 -0.0983  0.1591  0.0904
    72IDQ   C60 9932   5.892   4.467   0.710  1.0088  0.4243 -0.5602
    72IDQ   C61 9933   6.040   4.441   0.698 -0.0436 -0.3171 -0.1979
    72IDQ   C62 9934   6.097   4.364   0.579 -0.3348 -0.1588  0.0778
    72IDQ   C63 9935   6.248   4.339   0.580  0.4307  0.6005  0.1931
    72IDQ   C64 9936   6.293   4.280   0.442 -0.6106  0.0656 -0.3480
    72IDQ   C65 9937   6.439   4.243   0.453  0.9843  0.2972  0.4017
    72IDQ   C66 9938   5.438   4.284   0.449 -0.1495 -0.2308 -0.1837
    72IDQ   C67 9939   5.315   4.328   0.388 -0.0795 -0.0334 -0.0599
    72IDQ   C68 9940   5.319   4.321   0.234 -0.1836 -0.7422 -0.1413
    72IDQ   C69 9941   5.399   4.422   0.158  0.0783 -0.1164  0.4238
    72IDQ   C70 9942   5.379   4.403   0.008  0.0409  0.3276  0.4721
    72IDQ   C71 9943   5.458   4.494  -0.085 -0.4065 -0.5133 -0.1067
    72IDQ   C72 9944   5.610   4.500  -0.090  0.7496  0.2739  0.2213
    11RH     C1 9945   4.399   3.812   6.092 -0.2697  0.1802 -0.3401
    11RH     C2 9946   4.343   3.720   6.193 -0.1869  0.2585 -0.2229
    11RH     N1 9947   4.448   3.742   5.979 -0.3593  0.0935 -0.3247
    11RH     S1 9948   4.357   3.547   6.135 -0.2327  0.2130 -0.1003
    11RH     C3 9949   4.437   3.605   5.979 -0.3587  0.0927 -0.2097
    11RH     C4 9950   4.513   3.813   5.865 -0.7632 -0.5554  0.0336
    11RH     S2 9951   4.487   3.498   5.858 -0.4548 -0.0006 -0.1673
    11RH     O1 9952   4.404   3.936   6.101 -0.2629  0.1878 -0.4402
    11RH     C5 9953   4.290   3.762   6.309 -0.0939  0.3481 -0.2124
    21BTZ    C6 9954   4.250   3.703   6.438  0.1349  0.0186  0.1496
    21BTZ    C7 9955   4.257   3.569   6.465 -0.0499 -0.0002  0.1066
    21BTZ    C8 9956   4.210   3.793   6.542  0.0665  0.0178  0.1248
    21BTZ    C9 9957   4.225   3.516   6.595 -0.3095 -0.0207  0.0372
    21BTZ   C10 9958   4.187   3.598   6.699 -0.3839 -0.0222  0.0111
    21BTZ   C11 9959   4.178   3.739   6.675 -0.1974 -0.0030  0.0542
    21BTZ    N2 9960   4.200   3.925   6.528  0.2295  0.0350  0.1619
    21BTZ    N3 9961   4.142   3.829   6.767 -0.2465 -0.0025  0.0348
    21BTZ    S3 9962   4.148   3.989   6.687  0.0487  0.0251  0.1071
    31IDT   C12 9963   4.129   3.528   6.819 -0.0107 -0.0232 -0.0680
    31IDT   C13 9964   4.091   3.397   6.826  0.1456 -0.0632  0.0433
    31IDT   C14 9965   4.031   3.363   6.951  0.2813 -0.0550  0.1109
    31IDT   C15 9966   4.023   3.469   7.040  0.2296 -0.0088  0.0517
    31IDT    S4 9967   4.092   3.620   6.971  0.0030  0.0281 -0.0956
    4IDB    C16 9968   3.968   3.424   7.164 -0.4657  0.2009  0.2032
    4IDB    C17 9969   3.930   3.288   7.147 -0.2767  0.1463  0.2094
    51IDQ   C18 9970   3.961   3.242   7.006  0.0384 -0.4891 -0.1263
    4IDB    C19 9971   3.877   3.215   7.253 -0.0108  0.0238  0.2604
    51IDQ   C20 9972   4.062   3.121   7.007  0.0535  0.2923 -0.3317
    51IDQ   C21 9973   3.836   3.213   6.916  0.2522  0.0590 -0.0565
    51IDQ   C22 9974   3.697   3.225   6.973  0.1042 -0.1269  0.5171
    51IDQ   C23 9975   4.218   3.122   6.991  0.1319 -0.0963  0.2035
    51IDQ   C24 9976   3.598   3.203   6.863  0.2586  0.1215  0.3480
    51IDQ   C25 9977   3.464   3.147   6.913  0.2875 -0.0911 -0.0151
    51IDQ   C26 9978   3.372   3.130   6.788  0.4898 -0.4627 -0.7746
    51IDQ   C27 9979   3.412   3.040   6.674 -0.3213  0.2376  0.6219
    51IDQ   C28 9980   3.434   2.893   6.715  0.2279 -0.2331  0.0729
    51IDQ   C29 9981   3.503   2.814   6.610 -1.1195 -0.0758 -0.5261
    51IDQ   C30 9982   4.295   3.179   7.105  0.4367  0.2756 -0.0418
    51IDQ   C31 9983   4.451   3.179   7.070  0.5266 -0.2933 -0.4202
    51IDQ   C32 9984   4.543   3.260   7.167  0.2621 -0.1997  0.3340
    51IDQ   C33 9985   4.681   3.212   7.153 -0.5848 -0.0726 -0.6873
    51IDQ   C34 9986   4.769   3.325   7.209 -0.7100  0.0166  0.0706
    51IDQ   C35 9987   4.911   3.290   7.238  0.1304 -0.1158 -0.2390
    4IDB    C36 9988   3.954   3.489   7.288 -0.3895  0.1327  0.2483
    4IDB    C37 9989   3.899   3.413   7.395 -0.1169  0.0075  0.3002
    11RH    C38 9990   4.417   3.880   5.770 -0.0109 -0.1010  0.0755
    4IDB    C39 9991   3.862   3.280   7.377  0.0653 -0.0445  0.3055
    62IDT   C40 9992   3.807   3.231   7.501  0.1719 -0.2760 -0.0180
    72IDQ   C41 9993   3.868   3.459   7.538  0.3544  0.6144  0.2446
    62IDT   C42 9994   3.822   3.328   7.597  0.6725 -0.3765  0.0068
    72IDQ   C43 9995   4.007   3.507   7.605  0.3551 -0.0060 -0.0007
    72IDQ   C44 9996   3.766   3.571   7.537  0.9373 -0.5249  0.4524
    62IDT    S5 9997   3.751   3.075   7.570 -0.0694 -0.1735  0.0209
    62IDT   C45 9998   3.752   3.153   7.734  0.5495 -0.2771  0.0712
    62IDT   C46 9999   3.791   3.284   7.730  0.8868 -0.3774  0.0573
    82BTZ   C4710000   3.711   3.087   7.861  0.1467  0.1144  0.1952
    82BTZ   C4810001   3.656   3.159   7.963  0.0325  0.0134  0.2056
    82BTZ   C4910002   3.624   3.099   8.090 -0.1776 -0.1300  0.0876
    82BTZ   C5010003   3.648   2.967   8.115 -0.2731 -0.1721 -0.0406
    82BTZ   C5110004   3.738   2.947   7.882  0.0535  0.0756  0.0633
    82BTZ   C5210005   3.706   2.886   8.011 -0.1601 -0.0701 -0.0567
    92RH    C5310006   3.628   2.909   8.243  0.1036 -0.1289 -0.0107
    82BTZ    N410007   3.792   2.866   7.790  0.1489  0.1646  0.0403
    82BTZ    N510008   3.734   2.756   8.024 -0.2365 -0.0983 -0.1761
    82BTZ    S610009   3.804   2.705   7.867 -0.0341  0.0635 -0.1396
    92RH    C5410010   3.580   2.954   8.358  0.0659 -0.1379 -0.0229
    92RH     S710011   3.512   3.122   8.390  0.2843 -0.0584  0.0307
    92RH    C5510012   3.574   2.874   8.483 -0.1670 -0.2166 -0.0838
    92RH     O210013   3.613   2.756   8.494 -0.3512 -0.2822 -0.1300
    92RH     N610014   3.519   2.947   8.589 -0.1561 -0.2084 -0.0836
    92RH    C5610015   3.479   3.077   8.566  0.0575 -0.1329 -0.0300
    92RH    C5710016   3.511   2.885   8.731  0.3428  0.3753  0.0869
    92RH    C5810017   3.636   2.910   8.812  0.0867  0.3388 -0.0871
    92RH     S810018   3.410   3.185   8.676  0.1175 -0.1070 -0.0176
    72IDQ   C5910019   3.621   3.535   7.490 -0.7098  0.2862  0.4439
    72IDQ   C6010020   3.534   3.658   7.499 -0.3728 -0.3486  0.3463
    72IDQ   C6110021   3.389   3.632   7.503  0.0357 -0.3271  0.2552
    72IDQ   C6210022   3.346   3.605   7.645  0.3745 -0.0042 -0.4961
    72IDQ   C6310023   3.196   3.570   7.623 -0.1508  0.5996 -0.0180
    72IDQ   C6410024   3.126   3.519   7.750  0.8007  0.3451  0.1611
    72IDQ   C6510025   2.991   3.462   7.711 -0.0295 -0.1252 -0.0683
    72IDQ   C6610026   4.014   3.523   7.761 -0.1615  0.1652  0.4038
    72IDQ   C6710027   4.146   3.577   7.811 -0.2707  0.1270  0.3264
    72IDQ   C6810028   4.167   3.576   7.960 -0.2797  0.1814 -0.2756
    72IDQ   C6910029   4.295   3.652   7.973 -0.3822  0.0443  0.0925
    72IDQ   C7010030   4.351   3.670   8.119 -0.9184 -0.0182 -0.0740
    72IDQ   C7110031   4.508   3.685   8.137  0.2983 -0.5850 -0.2378
    72IDQ   C7210032   4.572   3.659   8.272  0.2150 -0.2535 -0.2095
    11RH     C110033   5.047   2.888   1.174 -0.4030 -0.0826 -0.3781
    11RH     C210034   4.998   2.974   1.285 -0.2878 -0.1208 -0.2978
    11RH     N110035   5.088   2.965   1.063 -0.0574 -0.0195 -0.2102
    11RH     S110036   5.010   3.150   1.236  0.2673 -0.0712 -0.0067
    11RH     C310037   5.078   3.102   1.071  0.3206 -0.0024 -0.0050
    11RH     C410038   5.151   2.891   0.950  0.4953 -0.2813 -0.3387
    11RH     S210039   5.120   3.215   0.954  0.7769  0.0692  0.2217
    11RH     O110040   5.052   2.764   1.176 -0.7553 -0.1024 -0.5679
    11RH     C510041   4.954   2.926   1.402 -0.5576 -0.1821 -0.4241
    21BTZ    C610042   4.912   2.985   1.527  0.3510  0.3204  0.2128
    21BTZ    C710043   4.890   3.120   1.536  0.3651  0.3176  0.2876
    21BTZ    C810044   4.879   2.902   1.638  0.2384  0.2472  0.1255
    21BTZ    C910045   4.834   3.179   1.655  0.2698  0.2433  0.2804
    21BTZ   C1010046   4.801   3.104   1.764  0.1606  0.1719  0.1984
    21BTZ   C1110047   4.823   2.962   1.759  0.1415  0.1717  0.1181
    21BTZ    N210048   4.896   2.769   1.641  0.2140  0.2423  0.0477
    21BTZ    N310049   4.794   2.878   1.859  0.0392  0.1060  0.0345
    21BTZ    S310050   4.840   2.715   1.802  0.0629  0.1388 -0.0400
    31IDT   C1210051   4.750   3.181   1.886 -0.5445 -0.2758 -0.1859
    31IDT   C1310052   4.717   3.314   1.890 -0.7439 -0.3173 -0.4040
    31IDT   C1410053   4.671   3.356   2.018 -0.3401 -0.0663 -0.3399
    31IDT   C1510054   4.669   3.256   2.113  0.1686  0.1675 -0.0732
    31IDT    S410055   4.725   3.099   2.046  0.1756  0.0875  0.1193
    4IDB    C1610056   4.612   3.307   2.237 -0.4751  0.4285 -0.0320
    4IDB    C1710057   4.576   3.444   2.220 -0.6007  0.4291  0.2323
    51IDQ   C1810058   4.606   3.492   2.068 -0.0920  0.6504 -0.8200
    4IDB    C1910059   4.531   3.520   2.328 -0.5839  0.2060  0.3981
    51IDQ   C2010060   4.698   3.618   2.087 -0.2434 -0.0292 -0.2919
    51IDQ   C2110061   4.481   3.524   1.977 -0.4622 -0.0437 -0.2714
    51IDQ   C2210062   4.341   3.515   2.038 -0.7102  0.6558  0.0116
    51IDQ   C2310063   4.848   3.622   2.062 -0.3805 -0.0485  0.3437
    51IDQ   C2410064   4.232   3.525   1.930  1.0199  0.0898 -0.3078
    51IDQ   C2510065   4.207   3.663   1.869  0.2283  0.8353 -0.4365
    51IDQ   C2610066   4.099   3.656   1.758 -0.0147  0.2029  0.4174
    51IDQ   C2710067   4.068   3.800   1.706 -0.3601 -0.7897  0.1191
    51IDQ   C2810068   4.019   3.906   1.802 -0.0512 -0.2528  0.3355
    51IDQ   C2910069   4.016   4.047   1.744 -0.7086 -0.1297  0.1817
    51IDQ   C3010070   4.930   3.566   2.177 -0.0775  0.0671 -0.4567
    51IDQ   C3110071   5.074   3.564   2.147 -0.2007 -0.5944  0.3882
    51IDQ   C3210072   5.162   3.530   2.266  0.0530 -0.2578  0.5698
    51IDQ   C3310073   5.308   3.555   2.231 -0.7854  0.0748 -0.0894
    51IDQ   C3410074   5.392   3.493   2.344  0.2680  0.0737 -0.1117
    51IDQ   C3510075   5.543   3.477   2.317  0.3672  0.3429  0.0080
    4IDB    C3610076   4.603   3.244   2.362 -0.3309  0.2031 -0.1327
    4IDB    C3710077   4.556   3.323   2.471 -0.3157 -0.0231  0.0395
    11RH    C3810078   5.059   2.820   0.851  0.4669 -0.2154 -0.1159
    4IDB    C3910079   4.521   3.457   2.453 -0.4396 -0.0193  0.2973
    62IDT   C4010080   4.479   3.508   2.578 -0.0817  0.0825 -0.2598
    72IDQ   C4110081   4.539   3.280   2.616 -0.0702 -0.5875  0.8669
    62IDT   C4210082   4.503   3.415   2.677  0.2117 -0.1196 -0.5170
    72IDQ   C4310083   4.674   3.234   2.686  0.5314 -0.0782  0.2498
    72IDQ   C4410084   4.426   3.170   2.631  0.6987 -0.3757 -0.1334
    62IDT    S510085   4.408   3.659   2.644 -0.0669 -0.1232  0.2336
    62IDT   C4510086   4.413   3.584   2.810  0.3555 -0.4893  0.0574
    62IDT   C4610087   4.465   3.457   2.808  0.4592 -0.4432 -0.3380
    82BTZ   C4710088   4.368   3.658   2.929  0.2825 -0.0745  0.2593
    82BTZ   C4810089   4.320   3.588   3.037  0.1938  0.0047  0.2712
    82BTZ   C4910090   4.278   3.654   3.158 -0.0224  0.1060  0.1438
    82BTZ   C5010091   4.286   3.790   3.172 -0.1497  0.1279  0.0046
    82BTZ   C5110092   4.378   3.801   2.939  0.1556 -0.0554  0.1160
    82BTZ   C5210093   4.336   3.868   3.063 -0.0641  0.0474 -0.0136
    92RH    C5310094   4.250   3.856   3.303 -0.2124  0.3568  0.0573
    82BTZ    N410095   4.424   3.880   2.842  0.2241 -0.1264  0.0903
    82BTZ    N510096   4.348   4.001   3.064 -0.1723  0.0594 -0.1434
    82BTZ    S610097   4.415   4.047   2.905  0.0059 -0.0633 -0.1046
    92RH    C5410098   4.218   3.805   3.422 -0.2614  0.0286 -0.0954
    92RH     S710099   4.178   3.630   3.459  0.0168 -0.1322 -0.5393
    92RH    C5510100   4.211   3.885   3.547 -0.5591 -0.2643  0.0793
    92RH     O210101   4.233   4.007   3.555 -0.7943 -0.2415  0.3814
    92RH     N610102   4.176   3.805   3.658 -0.5459 -0.5815 -0.1423
    92RH    C5610103   4.154   3.671   3.637 -0.2737 -0.5785 -0.4730
    92RH    C5710104   4.162   3.871   3.794  0.2866  0.1735  0.2888
    92RH    C5810105   4.281   3.884   3.886 -0.4569  0.4613  0.5390
    92RH     S810106   4.111   3.555   3.751 -0.1978 -0.9180 -0.7856
    72IDQ   C5910107   4.278   3.210   2.617  0.0497 -0.0760  0.4046
    72IDQ   C6010108   4.180   3.092   2.593  0.1716 -0.1685  0.0134
    72IDQ   C6110109   4.029   3.128   2.588 -0.4296 -0.2510  0.1173
    72IDQ   C6210110   3.946   3.154   2.712  0.6415  0.3858  0.7202
    72IDQ   C6310111   3.802   3.218   2.690 -0.5049 -0.3332 -0.1363
    72IDQ   C6410112   3.741   3.261   2.822 -0.0169  0.5238  0.9471
    72IDQ   C6510113   3.599   3.301   2.806  0.1561  0.6333 -0.3310
    72IDQ   C6610114   4.664   3.174   2.833 -0.7490 -0.7985 -0.1479
    72IDQ   C6710115   4.793   3.198   2.916 -0.3297  1.2601  0.2558
    72IDQ   C6810116   4.775   3.163   3.065  0.2832 -0.4982 -0.1661
    72IDQ   C6910117   4.902   3.199   3.140  0.5470  0.2489 -0.3965
    72IDQ   C7010118   4.875   3.203   3.288 -0.8724 -0.1051  0.3713
    72IDQ   C7110119   5.001   3.254   3.362  0.5019  0.0036 -0.3529
    72IDQ   C7210120   4.972   3.280   3.509  0.0090 -0.1622 -0.1241
    11RH     C110121   4.860   3.714   3.744 -0.3098  0.1636 -0.0235
    11RH     C210122   4.900   3.798   3.629 -0.2578  0.2585  0.0627
    11RH     N110123   4.811   3.793   3.851 -0.0632  0.1003  0.1378
    11RH     S110124   4.871   3.975   3.667  0.1118  0.2584  0.3503
    11RH     C310125   4.808   3.930   3.834  0.1799  0.1329  0.3427
    11RH     C410126   4.766   3.722   3.973  0.1725 -0.2146 -0.5681
    11RH     S210127   4.755   4.046   3.945  0.4994  0.0724  0.5623
    11RH     O110128   4.867   3.591   3.750 -0.5383  0.1404 -0.2126
    11RH     C510129   4.949   3.748   3.515 -0.4567  0.3314 -0.0566
    21BTZ    C610130   4.994   3.811   3.393 -0.4745  0.1533 -0.1225
    21BTZ    C710131   4.990   3.945   3.365 -0.4416  0.1342 -0.2219
    21BTZ    C810132   5.043   3.722   3.292 -0.3241  0.0850  0.0101
    21BTZ    C910133   5.034   3.998   3.239 -0.2606  0.0477 -0.1962
    21BTZ   C1010134   5.081   3.917   3.139 -0.1129 -0.0196 -0.0711
    21BTZ   C1110135   5.087   3.776   3.163 -0.1403 -0.0029  0.0363
    21BTZ    N210136   5.051   3.589   3.307 -0.3389  0.0954  0.1151
    21BTZ    N310137   5.132   3.686   3.074 -0.0073 -0.0631  0.1622
    21BTZ    S310138   5.118   3.526   3.153 -0.1137 -0.0087  0.2547
    31IDT   C1210139   5.117   3.988   3.010 -0.1674  0.4082 -0.4645
    31IDT   C1310140   5.125   4.123   2.988  0.0182  0.3786 -0.5862
    31IDT   C1410141   5.178   4.156   2.860  0.3371  0.1926 -0.5054
    31IDT   C1510142   5.210   4.047   2.782  0.3961  0.0795 -0.3222
    31IDT    S410143   5.176   3.892   2.867  0.0498  0.2007 -0.2368
    4IDB    C1610144   5.264   4.095   2.657 -0.1202 -0.0009 -0.1585
    4IDB    C1710145   5.276   4.237   2.659  0.2272 -0.0284 -0.1073
    51IDQ   C1810146   5.217   4.290   2.798 -0.4646  0.3938  0.6193
    4IDB    C1910147   5.328   4.306   2.550  0.2930 -0.1066 -0.1260
    51IDQ   C2010148   5.110   4.392   2.762 -0.7695 -0.0461 -0.0480
    51IDQ   C2110149   5.330   4.353   2.895 -0.2554  0.2592 -0.1984
    51IDQ   C2210150   5.478   4.354   2.858  0.1886  0.3719  0.0732
    51IDQ   C2310151   4.960   4.372   2.786 -0.7277 -0.4090 -0.3661
    51IDQ   C2410152   5.568   4.391   2.986  0.7951 -0.0915  0.3446
    51IDQ   C2510153   5.712   4.363   2.959 -0.1841  0.7871 -0.7621
    51IDQ   C2610154   5.800   4.383   3.087 -0.1348  0.1491 -0.0428
    51IDQ   C2710155   5.784   4.500   3.190 -0.5656  0.1195 -0.3365
    51IDQ   C2810156   5.818   4.642   3.131  0.0653  0.0367 -0.2774
    51IDQ   C2910157   5.778   4.764   3.214 -0.2569  0.5946 -0.2941
    51IDQ   C3010158   4.883   4.302   2.679 -0.1114  0.0505  0.6295
    51IDQ   C3110159   4.746   4.243   2.708  0.1774 -0.8804 -0.8169
    51IDQ   C3210160   4.651   4.253   2.595  0.2263 -0.7269 -0.0536
    51IDQ   C3310161   4.504   4.263   2.642 -0.2906  0.5818 -0.1093
    51IDQ   C3410162   4.411   4.195   2.534  0.5320 -0.1226  0.1413
    51IDQ   C3510163   4.265   4.225   2.577 -0.4263  0.6626 -0.0122
    4IDB    C3610164   5.305   4.021   2.545 -0.4055 -0.0523 -0.2289
    4IDB    C3710165   5.357   4.093   2.435 -0.3332 -0.1322 -0.2470
    11RH    C3810166   4.886   3.700   4.065 -0.0137  0.6564 -0.3820
    4IDB    C3910167   5.368   4.232   2.438  0.0078 -0.1579 -0.1964
    62IDT   C4010168   5.426   4.280   2.313 -0.1501  0.5180 -0.0778
    72IDQ   C4110169   5.395   4.039   2.292  0.4310 -0.7077 -0.2532
    62IDT   C4210170   5.440   4.175   2.224 -0.3852  0.5434 -0.1462
    72IDQ   C4310171   5.264   3.975   2.225  0.8194  0.1075 -0.4590
    72IDQ   C4410172   5.501   3.926   2.307  0.3019  0.3806 -0.0690
    62IDT    S510173   5.457   4.438   2.235 -0.0662  0.5196 -0.0414
    62IDT   C4510174   5.489   4.351   2.079 -0.3677  0.5565 -0.1247
    62IDT   C4610175   5.476   4.215   2.092 -0.5084  0.5653 -0.1729
    82BTZ   C4710176   5.529   4.426   1.956  0.0954  0.0129 -0.1646
    82BTZ   C4810177   5.577   4.353   1.850  0.0604  0.1467 -0.2733
    82BTZ   C4910178   5.617   4.416   1.727 -0.0386  0.2975 -0.2293
    82BTZ   C5010179   5.609   4.552   1.709 -0.1027  0.3141 -0.0768
    82BTZ   C5110180   5.520   4.569   1.943  0.0314  0.0242 -0.0034
    82BTZ   C5210181   5.560   4.632   1.817 -0.0695  0.1773  0.0413
    92RH    C5310182   5.642   4.619   1.580 -0.1391 -0.1558 -0.1985
    82BTZ    N410183   5.475   4.650   2.038  0.0570 -0.0978  0.1131
    82BTZ    N510184   5.548   4.765   1.812 -0.1247  0.1786  0.1937
    82BTZ    S610185   5.483   4.816   1.971 -0.0488 -0.0203  0.2885
    92RH    C5410186   5.682   4.570   1.462 -0.0098 -0.0530 -0.1985
    92RH     S710187   5.733   4.398   1.426  0.2083  0.0227 -0.2517
    92RH    C5510188   5.690   4.652   1.338 -0.0246  0.0172 -0.1535
    92RH     O210189   5.661   4.772   1.329 -0.1554 -0.0103 -0.1115
    92RH     N610190   5.734   4.575   1.228  0.1317  0.1214 -0.1641
    92RH    C5610191   5.763   4.441   1.249  0.2694  0.1433 -0.2120
    92RH    C5710192   5.743   4.632   1.092 -1.3458  0.6533 -0.1312
    92RH    C5810193   5.614   4.611   1.011 -0.6444 -0.3134  0.7261
    92RH     S810194   5.817   4.329   1.137  0.4683  0.2602 -0.2343
    72IDQ   C5910195   5.645   3.965   2.332 -0.2137  0.3221 -0.1294
    72IDQ   C6010196   5.734   3.853   2.375 -0.5884 -0.1657  0.7229
    72IDQ   C6110197   5.887   3.892   2.369  0.2057 -0.1154 -0.2104
    72IDQ   C6210198   5.935   3.936   2.229 -0.8324  0.1602  0.3097
    72IDQ   C6310199   6.078   4.004   2.228 -0.1736 -0.5139  0.2316
    72IDQ   C6410200   6.138   4.007   2.088 -0.4393 -0.1445  0.0092
    72IDQ   C6510201   6.271   4.072   2.110  0.4276 -0.4861 -0.3248
    72IDQ   C6610202   5.278   3.928   2.084  1.3755 -0.2378  0.9508
    72IDQ   C6710203   5.136   3.932   2.026  0.2072 -0.1714  0.4015
    72IDQ   C6810204   5.134   3.909   1.876  0.3405  0.2785 -0.0933
    72IDQ   C6910205   4.994   3.886   1.822  0.3835 -0.4097  0.5298
    72IDQ   C7010206   4.984   3.875   1.666  0.3851  0.0307  0.1163
    72IDQ   C7110207   4.838   3.885   1.628  0.7983 -0.1030 -0.0960
    72IDQ   C7210208   4.813   3.910   1.479 -0.3483 -0.4861 -0.4654
    11RH     C110209   4.652   4.564   5.400  0.3469  0.1601 -0.1062
    11RH     C210210   4.675   4.472   5.286 -0.0821  0.1180 -0.1600
    11RH     N110211   4.614   4.493   5.516  0.5120  0.2280 -0.0090
    11RH     S110212   4.643   4.299   5.338 -0.2404  0.1707 -0.0794
    11RH     C310213   4.602   4.356   5.509  0.2676  0.2457  0.0215
    11RH     C410214   4.574   4.571   5.637 -0.1547 -0.2454  0.5923
    11RH     S210215   4.558   4.249   5.631  0.3891  0.3227  0.1326
    11RH     O110216   4.665   4.687   5.397  0.5438  0.1397 -0.1402
    11RH     C510217   4.712   4.513   5.164 -0.3087  0.0519 -0.2531
    21BTZ    C610218   4.755   4.453   5.038  0.1024  0.4164  0.1581
    21BTZ    C710219   4.758   4.317   5.020 -0.0709  0.4017  0.2327
    21BTZ    C810220   4.794   4.538   4.929  0.1143  0.3080  0.0780
    21BTZ    C910221   4.800   4.258   4.896 -0.2400  0.2807  0.2323
    21BTZ   C1010222   4.839   4.335   4.789 -0.2356  0.1745  0.1574
    21BTZ   C1110223   4.837   4.477   4.803 -0.0576  0.1850  0.0776
    21BTZ    N210224   4.795   4.671   4.934  0.2748  0.3105  0.0010
    21BTZ    N310225   4.872   4.563   4.706 -0.0353  0.0886  0.0004
    21BTZ    S310226   4.852   4.727   4.774  0.2116  0.1522 -0.0765
    31IDT   C1210227   4.887   4.266   4.661 -0.1663 -0.1580  0.0010
    31IDT   C1310228   4.933   4.137   4.655 -0.3974 -0.2322 -0.2229
    31IDT   C1410229   4.978   4.100   4.525 -0.5586 -0.1206 -0.3110
    31IDT   C1510230   4.967   4.201   4.431 -0.4518  0.0392 -0.1552
    31IDT    S410231   4.897   4.351   4.501 -0.1358  0.0611  0.1178
    4IDB    C1610232   5.027   4.157   4.308  0.0852 -0.6384  0.6731
    4IDB    C1710233   5.058   4.018   4.315  0.6207 -0.5380  0.4135
    51IDQ   C1810234   5.039   3.976   4.459 -0.3414 -0.0744 -0.6821
    4IDB    C1910235   5.113   3.951   4.207  0.1979 -0.2806  0.0316
    51IDQ   C2010236   4.931   3.859   4.452 -0.3495 -0.1290  0.3267
    51IDQ   C2110237   5.169   3.939   4.541  0.0624  0.0666 -0.4709
    51IDQ   C2210238   5.306   3.924   4.480  0.0458 -0.1085  0.4955
    51IDQ   C2310239   4.783   3.874   4.482  0.1126 -0.5234  0.1769
    51IDQ   C2410240   5.417   3.868   4.575  0.4239  0.1043 -0.0808
    51IDQ   C2510241   5.389   3.719   4.623  0.3800  0.3948  0.3687
    51IDQ   C2610242   5.514   3.648   4.686  0.0388 -0.8424  0.6038
    51IDQ   C2710243   5.480   3.506   4.716  0.1257  0.2562  0.2891
    51IDQ   C2810244   5.552   3.444   4.834 -0.3965 -0.1257  0.2531
    51IDQ   C2910245   5.708   3.451   4.845 -0.0706  0.1764  0.1006
    51IDQ   C3010246   4.710   3.956   4.389 -0.3739 -0.8632 -0.4122
    51IDQ   C3110247   4.557   3.954   4.413 -1.2889 -0.1887 -0.0075
    51IDQ   C3210248   4.469   4.018   4.303 -0.1536  0.4093 -0.1069
    51IDQ   C3310249   4.319   4.013   4.328  0.4587 -0.6999  0.2234
    51IDQ   C3410250   4.235   4.047   4.208 -0.4693  0.3956 -0.1965
    51IDQ   C3510251   4.090   4.008   4.238  0.1218 -0.3155  0.2697
    4IDB    C3610252   5.051   4.231   4.191 -0.8825 -0.4811  0.5515
    4IDB    C3710253   5.108   4.161   4.081 -1.3024 -0.2187  0.1601
    11RH    C3810254   4.681   4.581   5.750  0.3792 -0.3166 -0.0619
    4IDB    C3910255   5.138   4.025   4.090 -0.7697 -0.1233 -0.0902
    62IDT   C4010256   5.174   3.977   3.961  0.2121 -0.2485 -0.0430
    72IDQ   C4110257   5.160   4.220   3.948  0.2081 -0.3736 -0.1411
    62IDT   C4210258   5.195   4.085   3.878  0.5925 -0.2475  0.0482
    72IDQ   C4310259   5.041   4.299   3.884  0.2715  0.0014 -0.0853
    72IDQ   C4410260   5.274   4.320   3.979 -0.3255 -0.2544 -0.6431
    62IDT    S510261   5.219   3.822   3.882 -0.2244 -0.3300 -0.1334
    62IDT   C4510262   5.265   3.916   3.733  0.1481 -0.3599 -0.0387
    62IDT   C4610263   5.246   4.050   3.749  0.5568 -0.3103  0.0506
    82BTZ   C4710264   5.312   3.848   3.612 -0.2147  0.0030  0.1210
    82BTZ   C4810265   5.356   3.930   3.511  0.0015  0.0758  0.2711
    82BTZ   C4910266   5.403   3.877   3.385  0.3343  0.1634  0.3577
    82BTZ   C5010267   5.407   3.742   3.361  0.4500  0.1782  0.2942
    82BTZ   C5110268   5.315   3.706   3.591 -0.1051  0.0150  0.0492
    82BTZ   C5210269   5.363   3.652   3.464  0.2331  0.1040  0.1374
    92RH    C5310270   5.448   3.684   3.231  0.0311  0.0902  0.2154
    82BTZ    N410271   5.275   3.616   3.682 -0.2928 -0.0507 -0.0961
    82BTZ    N510272   5.362   3.519   3.452  0.3171  0.1100  0.0628
    82BTZ    S610273   5.299   3.456   3.607 -0.0398 -0.0004 -0.1270
    92RH    C5410274   5.481   3.746   3.118 -0.0437  0.0142  0.1518
    92RH     S710275   5.503   3.927   3.093  0.0258 -0.0093  0.0378
    92RH    C5510276   5.506   3.675   2.990 -0.1999 -0.0651  0.1644
    92RH     O210277   5.500   3.552   2.973 -0.2784 -0.0706  0.2341
    92RH     N610278   5.540   3.765   2.886 -0.2507 -0.1358  0.0864
    92RH    C5610279   5.544   3.900   2.915 -0.1546 -0.1228  0.0126
    92RH    C5710280   5.566   3.714   2.748 -0.2602  0.1307 -0.6251
    92RH    C5810281   5.452   3.673   2.665  0.0783  0.2657 -0.0673
    92RH     S810282   5.581   4.027   2.811 -0.1875 -0.1957 -0.0879
    72IDQ   C5910283   5.420   4.284   3.959  0.6788  0.6115  0.0058
    72IDQ   C6010284   5.499   4.379   4.045 -0.9804  0.1010  0.2932
    72IDQ   C6110285   5.651   4.346   4.036  0.1026  0.3512 -0.3154
    72IDQ   C6210286   5.715   4.338   3.897  0.1158 -0.2778 -0.0458
    72IDQ   C6310287   5.854   4.280   3.891  0.1586  0.3694  0.3102
    72IDQ   C6410288   5.912   4.280   3.749 -0.1390  0.0639 -0.1102
    72IDQ   C6510289   6.053   4.235   3.731 -0.0132  0.6148 -0.2523
    72IDQ   C6610290   5.059   4.335   3.742  0.2518  0.0619  0.9614
    72IDQ   C6710291   4.921   4.357   3.675 -0.0691  0.0929 -0.5252
    72IDQ   C6810292   4.921   4.325   3.530  0.1474  0.1076  0.2728
    72IDQ   C6910293   4.785   4.352   3.462  0.2139 -0.6009 -0.8060
    72IDQ   C7010294   4.794   4.296   3.320  0.2006 -0.1004 -0.1017
    72IDQ   C7110295   4.664   4.329   3.244 -0.5785 -0.8033  0.0185
    72IDQ   C7210296   4.678   4.272   3.102  0.0347 -0.2964 -0.1088
    11RH     C110297   4.807   3.817   2.806 -0.4461 -0.0644 -0.2694
    11RH     C210298   4.776   3.724   2.917 -0.2502 -0.0454 -0.1978
    11RH     N110299   4.861   3.749   2.695 -0.2393 -0.0282 -0.1917
    11RH     S110300   4.820   3.553   2.868  0.1930  0.0187 -0.0333
    11RH     C310301   4.877   3.613   2.703  0.0980  0.0175 -0.0668
    11RH     C410302   4.896   3.832   2.584 -0.3074  0.0989 -0.1491
    11RH     S210303   4.939   3.509   2.586  0.3964  0.0665  0.0448
    11RH     O110304   4.789   3.940   2.808 -0.7528 -0.1065 -0.3830
    11RH     C510305   4.724   3.763   3.034 -0.3862 -0.0723 -0.2492
    21BTZ    C610306   4.674   3.703   3.160 -0.1379 -0.2966 -0.1478
    21BTZ    C710307   4.662   3.568   3.179 -0.0349 -0.2836  0.0061
    21BTZ    C810308   4.638   3.792   3.267  0.0021 -0.2092 -0.1726
    21BTZ    C910309   4.615   3.514   3.304  0.2089 -0.1846  0.1426
    21BTZ   C1010310   4.580   3.594   3.409  0.3495 -0.0988  0.1249
    21BTZ   C1110311   4.590   3.736   3.394  0.2499 -0.1085 -0.0339
    21BTZ    N210312   4.645   3.925   3.260 -0.0781 -0.2121 -0.3167
    21BTZ    N310313   4.559   3.824   3.489  0.3690 -0.0306 -0.0665
    21BTZ    S310314   4.589   3.986   3.419  0.1648 -0.0838 -0.2803
    31IDT   C1210315   4.539   3.527   3.536 -0.0907 -0.0132 -0.1276
    31IDT   C1310316   4.494   3.399   3.548 -0.1237  0.0084 -0.0172
    31IDT   C1410317   4.445   3.369   3.679 -0.0316  0.1009  0.0383
    31IDT   C1510318   4.453   3.474   3.768  0.0721  0.1503 -0.0292
    31IDT    S410319   4.523   3.621   3.691  0.0611  0.0828 -0.1698
    4IDB    C1610320   4.389   3.444   3.891  0.0981 -0.0647 -0.5227
    4IDB    C1710321   4.346   3.308   3.886 -0.2036  0.0193 -0.2927
    51IDQ   C1810322   4.388   3.244   3.753 -0.3384 -0.2555  0.0271
    4IDB    C1910323   4.281   3.249   3.994 -0.3141  0.3376 -0.1840
    51IDQ   C2010324   4.496   3.132   3.799  0.3904 -0.1644  0.0265
    51IDQ   C2110325   4.269   3.182   3.670 -0.3602  0.5182 -0.3813
    51IDQ   C2210326   4.127   3.241   3.673  0.0902 -0.2519  0.4271
    51IDQ   C2310327   4.652   3.145   3.797  0.0087  0.3731  1.1296
    51IDQ   C2410328   4.021   3.188   3.580  1.5799  0.8490 -0.1230
    51IDQ   C2510329   4.053   3.170   3.434  0.4133  0.8396 -0.3104
    51IDQ   C2610330   3.957   3.073   3.361  0.1027  0.0121  0.7922
    51IDQ   C2710331   3.966   2.926   3.401 -0.0238 -0.7070  0.8834
    51IDQ   C2810332   3.848   2.850   3.342  0.8964 -0.1406 -0.3823
    51IDQ   C2910333   3.807   2.739   3.436 -0.5845 -0.5190  0.0342
    51IDQ   C3010334   4.717   3.261   3.867  0.1929  0.4651 -0.1500
    51IDQ   C3110335   4.864   3.283   3.859 -0.1098 -0.3762  0.6440
    51IDQ   C3210336   4.946   3.168   3.915  0.0933  0.8209 -0.0040
    51IDQ   C3310337   5.097   3.183   3.908  0.3039  0.3787 -0.5637
    51IDQ   C3410338   5.162   3.316   3.955  0.3922  0.4448  0.3807
    51IDQ   C3510339   5.313   3.310   3.990 -0.2315 -0.1743 -0.3447
    4IDB    C3610340   4.367   3.522   4.006  0.2919  0.1709 -0.6459
    4IDB    C3710341   4.300   3.461   4.115  0.1750  0.4951 -0.5320
    11RH    C3810342   4.791   3.841   2.484  0.6793 -0.4713  0.3567
    4IDB    C3910343   4.259   3.328   4.108 -0.1203  0.5734 -0.3073
    62IDT   C4010344   4.205   3.284   4.235 -0.4332  0.3233  0.1569
    72IDQ   C4110345   4.258   3.518   4.250  0.3700  0.0212  0.1004
    62IDT   C4210346   4.208   3.389   4.324  0.0503  0.1005  0.4110
    72IDQ   C4310347   4.386   3.570   4.325  0.1507  0.7560 -0.2677
    72IDQ   C4410348   4.174   3.645   4.223  0.4893  0.1964  0.3004
    62IDT    S510349   4.152   3.131   4.312 -0.3127  0.1961 -0.0103
    62IDT   C4510350   4.136   3.221   4.469  0.4208 -0.1696  0.2864
    62IDT   C4610351   4.169   3.353   4.457  0.5337 -0.1785  0.4847
    82BTZ   C4710352   4.100   3.150   4.593 -0.1873 -0.1342  0.1742
    82BTZ   C4810353   4.049   3.226   4.695 -0.1383 -0.1226  0.1903
    82BTZ   C4910354   4.022   3.170   4.825 -0.1029 -0.1146  0.2010
    82BTZ   C5010355   4.046   3.038   4.853 -0.1167 -0.1184  0.1955
    82BTZ   C5110356   4.127   3.012   4.617 -0.2036 -0.1386  0.1680
    82BTZ   C5210357   4.100   2.955   4.750 -0.1676 -0.1306  0.1787
    92RH    C5310358   4.020   2.975   4.981 -0.1077 -0.4532  0.0671
    82BTZ    N410359   4.177   2.928   4.526 -0.2505 -0.1498  0.1526
    82BTZ    N510360   4.128   2.825   4.765 -0.1856 -0.1352  0.1720
    82BTZ    S610361   4.192   2.769   4.608 -0.2505 -0.1505  0.1511
    92RH    C5410362   3.977   3.019   5.099 -0.0151 -0.3464  0.0604
    92RH     S710363   3.921   3.190   5.139 -0.0382 -0.3253 -0.0624
    92RH    C5510364   3.969   2.935   5.221  0.1251 -0.2251  0.1552
    92RH     O210365   4.000   2.815   5.227  0.1726 -0.2080  0.2501
    92RH     N610366   3.921   3.007   5.331  0.2008 -0.1283  0.1249
    92RH    C5610367   3.889   3.140   5.314  0.1384 -0.1572  0.0174
    92RH    C5710368   3.930   2.940   5.464 -0.1766  0.2788  0.7390
    92RH    C5810369   4.063   2.925   5.549  1.0326  0.1779 -0.2218
    92RH     S810370   3.830   3.249   5.429  0.2055 -0.0598 -0.0395
    72IDQ   C5910371   4.024   3.624   4.183 -0.1644 -0.1518 -0.5165
    72IDQ   C6010372   3.924   3.575   4.282 -0.3813  0.9057  0.5240
    72IDQ   C6110373   3.775   3.575   4.248  0.5074 -0.3338 -0.2691
    72IDQ   C6210374   3.695   3.514   4.370 -0.7293  0.3191 -0.6380
    72IDQ   C6310375   3.540   3.516   4.364 -0.6433  0.0383  0.0244
    72IDQ   C6410376   3.454   3.471   4.483 -0.5399 -0.2594  0.0305
    72IDQ   C6510377   3.308   3.506   4.468 -0.1497 -0.0987  0.1525
    72IDQ   C6610378   4.388   3.580   4.480 -0.4151  0.1545 -0.8529
    72IDQ   C6710379   4.530   3.585   4.525  0.0010  0.2430 -0.2587
    72IDQ   C6810380   4.526   3.565   4.675  0.5840  0.5756 -0.3110
    72IDQ   C6910381   4.664   3.568   4.742 -0.0439 -0.5795  0.2570
    72IDQ   C7010382   4.665   3.539   4.886 -0.1554  0.0883  0.6821
    72IDQ   C7110383   4.803   3.515   4.944  0.2011  0.1091 -0.1217
    72IDQ   C7210384   4.809   3.507   5.094  0.3143 -0.1997 -0.3054
    11RH     C110385   4.583   2.954   4.447 -0.2015 -0.0294  0.0200
    11RH     C210386   4.529   3.038   4.556 -0.0935 -0.0811  0.1137
    11RH     N110387   4.612   3.032   4.332 -0.1720  0.0495  0.0804
    11RH     S110388   4.519   3.213   4.501  0.0398 -0.0224  0.2752
    11RH     C310389   4.587   3.167   4.336 -0.0533  0.0675  0.2110
    11RH     C410390   4.670   2.965   4.213  0.0537  0.1930  0.0855
    11RH     S210391   4.613   3.281   4.214  0.0051  0.1563  0.3055
    11RH     O110392   4.602   2.832   4.452 -0.3058 -0.0511 -0.0972
    11RH     C510393   4.493   2.990   4.676 -0.0967 -0.1586  0.0813
    21BTZ    C610394   4.450   3.048   4.798 -0.1933 -0.1977 -0.1631
    21BTZ    C710395   4.436   3.183   4.815 -0.1482 -0.1824 -0.2494
    21BTZ    C810396   4.420   2.962   4.909 -0.0588 -0.1063 -0.0538
    21BTZ    C910397   4.391   3.240   4.939  0.0303 -0.0772 -0.2327
    21BTZ   C1010398   4.361   3.162   5.047  0.1632  0.0123 -0.1296
    21BTZ   C1110399   4.374   3.020   5.035  0.1224  0.0005 -0.0367
    21BTZ    N210400   4.430   2.829   4.905 -0.0865 -0.1110  0.0366
    21BTZ    N310401   4.348   2.933   5.134  0.2404  0.0817  0.0674
    21BTZ    S310402   4.381   2.770   5.067  0.1222  0.0237  0.1497
    31IDT   C1210403   4.317   3.229   5.174  0.1458  0.1293  0.0849
    31IDT   C1310404   4.300   3.364   5.190 -0.2234  0.0896  0.0575
    31IDT   C1410405   4.256   3.399   5.321 -0.5348 -0.0191 -0.0160
    31IDT   C1510406   4.239   3.292   5.406 -0.4054 -0.0630 -0.0449
    31IDT    S410407   4.277   3.136   5.325  0.1257  0.0309  0.0191
    4IDB    C1610408   4.191   3.338   5.535  0.0885  0.0454 -0.1337
    4IDB    C1710409   4.178   3.480   5.531 -0.3028  0.0054 -0.3972
    51IDQ   C1810410   4.217   3.531   5.389 -0.4517 -0.6468  0.1652
    4IDB    C1910411   4.129   3.550   5.641 -0.4554  0.0799 -0.5114
    51IDQ   C2010412   4.331   3.647   5.413  0.1943  0.3695 -0.3470
    51IDQ   C2110413   4.105   3.604   5.308 -0.1686  0.2592 -0.1047
    51IDQ   C2210414   3.958   3.613   5.355 -0.5310 -0.2861  0.8837
    51IDQ   C2310415   4.482   3.634   5.401  0.0831 -0.1569  0.3481
    51IDQ   C2410416   3.873   3.634   5.236  0.3340  0.1639 -0.1951
    51IDQ   C2510417   3.765   3.732   5.270 -0.1880  0.2616 -0.0153
    51IDQ   C2610418   3.667   3.755   5.160  0.1966 -0.0418 -0.4728
    51IDQ   C2710419   3.702   3.835   5.032 -0.2998  0.1060 -0.2124
    51IDQ   C2810420   3.759   3.975   5.051 -0.3007  0.5652 -0.4299
    51IDQ   C2910421   3.803   4.034   4.916 -0.4452  0.4555  0.2297
    51IDQ   C3010422   4.553   3.527   5.473 -0.2334  0.0098  0.2697
    51IDQ   C3110423   4.700   3.564   5.467 -0.6410  0.5318 -0.1256
    51IDQ   C3210424   4.790   3.459   5.535  0.4046  0.0483 -0.3730
    51IDQ   C3310425   4.939   3.490   5.532  0.3268  0.5443 -0.1524
    51IDQ   C3410426   5.019   3.391   5.611 -0.0413  0.6779 -0.4158
    51IDQ   C3510427   5.162   3.435   5.599  0.0518  0.1960  0.0202
    4IDB    C3610428   4.155   3.265   5.649  0.3307  0.1609  0.0180
    4IDB    C3710429   4.106   3.338   5.760  0.1698  0.2359 -0.1020
    11RH    C3810430   4.569   2.934   4.100  0.1390  0.4559 -0.5234
    4IDB    C3910431   4.093   3.477   5.755 -0.2132  0.1954 -0.3599
    62IDT   C4010432   4.034   3.525   5.875  0.1095 -0.2621  0.1050
    72IDQ   C4110433   4.034   3.285   5.887 -0.7568 -0.0314 -0.4568
    62IDT   C4210434   4.007   3.418   5.957 -0.4137 -0.2881 -0.0895
    72IDQ   C4310435   4.142   3.210   5.967  0.2684  0.1335  0.2763
    72IDQ   C4410436   3.920   3.180   5.852 -0.3395 -0.6392  0.2448
    62IDT    S510437   4.003   3.682   5.957  0.0334 -0.2786  0.1083
    62IDT   C4510438   3.953   3.590   6.105 -0.7393 -0.3220 -0.1671
    62IDT   C4610439   3.962   3.454   6.088 -0.8942 -0.3219 -0.2435
    82BTZ   C4710440   3.901   3.663   6.226  0.0178 -0.0680  0.1215
    82BTZ   C4810441   3.851   3.586   6.328  0.0030 -0.0108  0.1576
    82BTZ   C4910442   3.825   3.641   6.459 -0.0720  0.0773  0.1062
    82BTZ   C5010443   3.849   3.773   6.488 -0.1318  0.1079  0.0186
    82BTZ   C5110444   3.928   3.802   6.252 -0.0430 -0.0390  0.0302
    82BTZ   C5210445   3.902   3.857   6.385 -0.1191  0.0505 -0.0221
    92RH    C5310446   3.836   3.825   6.616 -0.2005 -0.0679 -0.1370
    82BTZ    N410447   3.977   3.887   6.161 -0.0355 -0.0886 -0.0125
    82BTZ    N510448   3.930   3.987   6.401 -0.1728  0.0728 -0.1067
    82BTZ    S610449   3.992   4.045   6.244 -0.1274 -0.0218 -0.1234
    92RH    C5410450   3.790   3.778   6.733  0.0380 -0.1772 -0.0860
    92RH     S710451   3.709   3.615   6.761  0.0296 -0.1735 -0.0883
    92RH    C5510452   3.797   3.852   6.860  0.3558 -0.3228 -0.0176
    92RH     O210453   3.846   3.966   6.875  0.4380 -0.3604  0.0004
    92RH     N610454   3.741   3.779   6.967  0.5611 -0.4170  0.0263
    92RH    C5610455   3.690   3.654   6.940  0.4467 -0.3645  0.0013
    92RH    C5710456   3.735   3.839   7.102  0.4957  0.4606 -0.0045
    92RH    C5810457   3.869   3.834   7.181 -0.3892  0.2702  0.6860
    92RH     S810458   3.618   3.546   7.048  0.6409 -0.4535  0.0427
    72IDQ   C5910459   3.777   3.238   5.825 -0.2326  0.6354 -0.0463
    72IDQ   C6010460   3.665   3.137   5.783 -0.0619  0.4624  0.1804
    72IDQ   C6110461   3.515   3.175   5.805  0.5262 -0.1860 -0.0816
    72IDQ   C6210462   3.476   3.257   5.927  1.0908 -0.5373 -0.2126
    72IDQ   C6310463   3.485   3.187   6.063  0.0130  0.3943  0.1214
    72IDQ   C6410464   3.417   3.268   6.174 -0.4286  0.6415  0.6843
    72IDQ   C6510465   3.471   3.233   6.309 -0.5641  0.0859  0.1968
    72IDQ   C6610466   4.141   3.186   6.118 -0.0826 -0.1061 -0.0155
    72IDQ   C6710467   4.284   3.163   6.160 -0.0014 -0.4105 -0.0819
    72IDQ   C6810468   4.299   3.174   6.314  0.3184  0.2390 -0.8778
    72IDQ   C6910469   4.447   3.148   6.347  0.0167 -0.2486  0.1786
    72IDQ   C7010470   4.477   3.148   6.494  0.4681 -0.5391  0.3317
    72IDQ   C7110471   4.618   3.110   6.542 -0.1730  0.0789 -0.4839
    72IDQ   C7210472   4.658   2.967   6.509 -0.1566 -0.1563 -0.4514
    11RH     C110473   5.285   3.648   0.484 -0.3587 -0.0045  0.0677
    11RH     C210474   5.329   3.738   0.375 -0.1841 -0.0001  0.1412
    11RH     N110475   5.252   3.721   0.601 -0.2680 -0.0305  0.1101
    11RH     S110476   5.324   3.913   0.432  0.0878 -0.0304  0.2611
    11RH     C310477   5.264   3.858   0.598 -0.0424 -0.0474  0.2085
    11RH     C410478   5.182   3.654   0.716  0.0410  0.1561  0.1207
    11RH     S210479   5.231   3.967   0.722  0.1060 -0.0791  0.2762
    11RH     O110480   5.278   3.525   0.477 -0.5598  0.0122 -0.0202
    11RH     C510481   5.367   3.695   0.254 -0.2256  0.0229  0.1201
    21BTZ    C610482   5.416   3.757   0.131 -0.0796  0.1117  0.2578
    21BTZ    C710483   5.428   3.893   0.116 -0.3322  0.1272  0.1782
    21BTZ    C810484   5.452   3.672   0.022 -0.0294  0.1199  0.2678
    21BTZ    C910485   5.476   3.951  -0.006 -0.5467  0.1514  0.1048
    21BTZ   C1010486   5.512   3.874  -0.114 -0.5083  0.1600  0.1112
    21BTZ   C1110487   5.500   3.731  -0.103 -0.2472  0.1445  0.1932
    21BTZ    N210488   5.444   3.539   0.024  0.2080  0.1065  0.3421
    21BTZ    N310489   5.532   3.646  -0.201 -0.1850  0.1509  0.2077
    21BTZ    S310490   5.500   3.482  -0.136  0.1622  0.1252  0.3195
    31IDT   C1210491   5.566   3.942  -0.231 -0.5613  0.2180 -0.2937
    31IDT   C1310492   5.588   4.077  -0.245 -0.2441  0.1727 -0.2304
    31IDT   C1410493   5.647   4.111  -0.370  0.1909  0.0534 -0.0633
    31IDT   C1510494   5.669   4.003  -0.453  0.2083  0.0067  0.0017
    31IDT    S410495   5.618   3.849  -0.378 -0.3300  0.1117 -0.1453
    4IDB    C1610496   5.706   4.051  -0.588 -0.2286 -0.1873 -0.2162
    4IDB    C1710497   5.713   4.193  -0.587 -0.4172 -0.1779 -0.1192
    51IDQ   C1810498   5.683   4.245  -0.435 -0.0126  0.1881 -0.1628
    4IDB    C1910499   5.757   4.263  -0.699 -0.2833 -0.0551  0.0101
    51IDQ   C2010500   5.565   4.341  -0.477  0.3700 -0.7948 -0.0934
    51IDQ   C2110501   5.794   4.316  -0.349 -0.4130 -0.2132 -0.1015
    51IDQ   C2210502   5.937   4.327  -0.400 -0.2926  0.1249  0.1984
    51IDQ   C2310503   5.420   4.304  -0.446  0.1697 -0.1029  0.1310
    51IDQ   C2410504   6.020   4.398  -0.292  0.0931 -0.2265 -0.4525
    51IDQ   C2510505   6.165   4.433  -0.315 -0.0093  0.3738  0.6692
    51IDQ   C2610506   6.230   4.512  -0.207  0.1602  0.3258 -0.0314
    51IDQ   C2710507   6.168   4.654  -0.184 -0.2275  0.2650  0.5648
    51IDQ   C2810508   6.239   4.745  -0.083  0.0936 -0.0418 -0.5614
    51IDQ   C2910509   6.393   4.751  -0.094  0.0417 -0.8273  0.3019
    51IDQ   C3010510   5.334   4.265  -0.562  0.3570 -0.1298  0.6298
    51IDQ   C3110511   5.181   4.270  -0.542 -0.1166 -0.0204 -0.1875
    51IDQ   C3210512   5.110   4.202  -0.662  0.5175  0.2530  0.3360
    51IDQ   C3310513   4.958   4.204  -0.648  0.1194  0.0577  0.7089
    51IDQ   C3410514   4.872   4.322  -0.649 -0.0066  0.0535 -0.8506
    51IDQ   C3510515   4.724   4.300  -0.667  0.1379 -0.0018  0.6702
    4IDB    C3610516   5.743   3.977  -0.701  0.0974 -0.0731 -0.1843
    4IDB    C3710517   5.789   4.050  -0.814  0.2302  0.0517 -0.0515
    11RH    C3810518   5.273   3.611   0.829 -1.3369  0.1161  0.1408
    4IDB    C3910519   5.795   4.189  -0.812  0.0427  0.0593  0.0422
    62IDT   C4010520   5.843   4.235  -0.937 -0.0702  0.0077 -0.3883
    72IDQ   C4110521   5.825   3.997  -0.957 -0.3673  0.0739  0.2542
    62IDT   C4210522   5.866   4.132  -1.026  0.0488  0.2291 -0.6169
    72IDQ   C4310523   5.698   3.921  -1.018  0.8090 -0.1650  0.1032
    72IDQ   C4410524   5.952   3.903  -0.953 -0.0360 -0.1228 -0.3124
    62IDT    S510525   5.869   4.396  -1.012 -0.0166  0.1998  0.0330
    62IDT   C4510526   5.910   4.312  -1.168  0.1732  0.5883 -0.1300
    62IDT   C4610527   5.903   4.175  -1.157  0.1867  0.5575 -0.4714
    82BTZ   C4710528   5.933   4.385  -1.297  0.1131  0.1514  0.1286
    82BTZ   C4810529   5.982   4.308  -1.400  0.2496  0.1814  0.1698
    82BTZ   C4910530   6.014   4.366  -1.528  0.2482  0.1884  0.1724
    82BTZ   C5010531   5.999   4.499  -1.553  0.1101  0.1651  0.1340
    82BTZ   C5110532   5.915   4.526  -1.318 -0.0345  0.1264  0.0873
    82BTZ   C5210533   5.949   4.584  -1.449 -0.0359  0.1334  0.0900
    92RH    C5310534   6.030   4.561  -1.678  0.0216 -0.0290 -0.0063
    82BTZ    N410535   5.869   4.611  -1.226 -0.1751  0.0964  0.0451
    82BTZ    N510536   5.929   4.715  -1.461 -0.1779  0.1091  0.0499
    82BTZ    S610537   5.866   4.772  -1.304 -0.3185  0.0754  0.0063
    92RH    C5410538   6.071   4.513  -1.796  0.0596 -0.1227  0.0446
    92RH     S710539   6.116   4.340  -1.835  0.0557 -0.1571  0.1921
    92RH    C5510540   6.089   4.598  -1.917  0.1124 -0.2155 -0.0134
    92RH     O210541   6.067   4.720  -1.923  0.1273 -0.2180 -0.1137
    92RH     N610542   6.134   4.522  -2.027  0.1446 -0.3037  0.0604
    92RH    C5610543   6.155   4.387  -2.009  0.1241 -0.2927  0.1701
    92RH    C5710544   6.156   4.586  -2.162  0.4245  0.3477  0.0297
    92RH    C5810545   6.033   4.597  -2.255  0.6295  0.1466  0.3127
    92RH     S810546   6.208   4.275  -2.123  0.1538 -0.3847  0.2741
    72IDQ   C5910547   6.070   3.949  -0.879  0.2322 -0.5214 -0.6327
    72IDQ   C6010548   6.190   3.857  -0.845 -0.3194  0.3603 -1.6208
    72IDQ   C6110549   6.284   3.811  -0.959  0.0829 -0.6021  0.1610
    72IDQ   C6210550   6.343   3.910  -1.055  0.0178  0.0932  0.0104
    72IDQ   C6310551   6.454   3.995  -1.011 -0.2400 -0.2250 -0.0035
    72IDQ   C6410552   6.524   4.068  -1.122  0.0247 -0.0045 -0.7048
    72IDQ   C6510553   6.647   4.154  -1.095  0.6175 -0.1762 -0.7150
    72IDQ   C6610554   5.656   3.938  -1.162  0.0161 -0.2163 -0.0807
    72IDQ   C6710555   5.734   3.860  -1.268  0.0560  0.3688  0.3330
    72IDQ   C6810556   5.679   3.890  -1.410 -0.3906 -0.1608 -0.4451
    72IDQ   C6910557   5.530   3.858  -1.432  0.1159  0.0585  0.3206
    72IDQ   C7010558   5.476   3.925  -1.554 -0.0554 -0.3084 -0.3806
    72IDQ   C7110559   5.342   3.877  -1.600  0.0514 -0.7708  0.2377
    72IDQ   C7210560   5.320   3.920  -1.738  0.2077 -0.2571  0.9371
    11RH     C110561   5.017   6.080   2.115 -0.2049  0.1134 -0.0340
    11RH     C210562   5.076   5.998   2.007 -0.0653  0.0830  0.0646
    11RH     N110563   4.979   6.002   2.226 -0.4309  0.1332 -0.0965
    11RH     S110564   5.077   5.821   2.058 -0.2403  0.0825  0.0687
    11RH     C310565   5.000   5.866   2.219 -0.4894  0.1223 -0.0600
    11RH     C410566   4.925   6.052   2.359 -0.6023  0.0537  0.3348
    11RH     S210567   4.964   5.750   2.337 -0.7451  0.1413 -0.1187
    11RH     O110568   5.002   6.204   2.111 -0.1366  0.1210 -0.0603
    11RH     C510569   5.120   6.048   1.891  0.1547  0.0599  0.1376
    21BTZ    C610570   5.177   5.983   1.774 -0.0590 -0.1798 -0.1091
    21BTZ    C710571   5.201   5.849   1.760 -0.0838 -0.1730 -0.2202
    21BTZ    C810572   5.198   6.069   1.661  0.0380 -0.0781 -0.0134
    21BTZ    C910573   5.247   5.793   1.635 -0.0151 -0.0663 -0.2428
    21BTZ   C1010574   5.269   5.871   1.525  0.0783  0.0334 -0.1543
    21BTZ   C1110575   5.245   6.012   1.535  0.1078  0.0303 -0.0364
    21BTZ    N210576   5.178   6.201   1.663  0.0709 -0.0740  0.0985
    21BTZ    N310577   5.263   6.099   1.434  0.1968  0.1216  0.0571
    21BTZ    S310578   5.219   6.260   1.499  0.1949  0.0716  0.1810
    31IDT   C1210579   5.331   5.805   1.412  0.2561  0.7368  0.1822
    31IDT   C1310580   5.370   5.674   1.402 -0.0738  0.5941  0.7096
    31IDT   C1410581   5.416   5.639   1.272 -0.1549 -0.0490  0.8471
    31IDT   C1510582   5.412   5.742   1.181  0.1120 -0.4001  0.4264
    31IDT    S410583   5.350   5.894   1.254  0.4899  0.0609 -0.1821
    4IDB    C1610584   5.463   5.699   1.052  0.1670  0.4902 -0.4334
    4IDB    C1710585   5.500   5.561   1.064 -0.4050  0.3464 -0.2593
    51IDQ   C1810586   5.469   5.507   1.204 -0.6917  0.0741  0.1451
    4IDB    C1910587   5.552   5.492   0.955 -0.5128  0.0421 -0.1188
    51IDQ   C2010588   5.374   5.388   1.184  0.6263 -0.5584 -0.0340
    51IDQ   C2110589   5.595   5.460   1.292  0.1789  0.1391  0.2852
    51IDQ   C2210590   5.742   5.470   1.261  0.3054 -0.4138  0.0401
    51IDQ   C2310591   5.220   5.391   1.214  0.5371 -0.1811  0.5200
    51IDQ   C2410592   5.852   5.417   1.352 -0.6373 -0.7789 -0.3438
    51IDQ   C2510593   5.850   5.464   1.499  0.8505  1.2436  0.1007
    51IDQ   C2610594   5.954   5.397   1.587 -0.6791  0.3147  0.3022
    51IDQ   C2710595   5.971   5.244   1.591 -0.3514  0.2992 -0.2377
    51IDQ   C2810596   5.848   5.163   1.626 -0.2489 -0.0719  0.5419
    51IDQ   C2910597   5.857   5.012   1.644  0.3520  0.3892  0.9230
    51IDQ   C3010598   5.131   5.485   1.129 -0.5013 -0.1303 -0.2499
    51IDQ   C3110599   4.989   5.437   1.147 -0.7917  0.1355  0.3394
    51IDQ   C3210600   4.901   5.515   1.051  0.7734  0.1703 -0.3139
    51IDQ   C3310601   4.753   5.501   1.078 -0.5261  0.2120 -0.3354
    51IDQ   C3410602   4.677   5.584   0.978 -0.0923  0.2040  0.0005
    51IDQ   C3510603   4.529   5.542   0.993  0.1633  0.3299  0.2482
    4IDB    C3610604   5.479   5.768   0.931  0.6372  0.3288 -0.4682
    4IDB    C3710605   5.533   5.695   0.821  0.5186  0.0179 -0.3230
    11RH    C3810606   5.039   6.112   2.444  0.1893 -0.4621  0.5277
    4IDB    C3910607   5.568   5.561   0.834 -0.0429 -0.1192 -0.1535
    62IDT   C4010608   5.618   5.507   0.712  0.0625 -0.3352 -0.3076
    72IDQ   C4110609   5.574   5.741   0.682  0.0974  0.0703  0.3385
    62IDT   C4210610   5.609   5.605   0.615  0.3785 -0.3409 -0.3438
    72IDQ   C4310611   5.448   5.808   0.613  0.6935  0.4382 -0.2116
    72IDQ   C4410612   5.674   5.859   0.704  0.5219 -0.7633  0.0087
    62IDT    S510613   5.687   5.354   0.647  0.0217 -0.4267 -0.1374
    62IDT   C4510614   5.701   5.435   0.485  0.4550 -0.4700 -0.1234
    62IDT   C4610615   5.656   5.564   0.487  0.6008 -0.4171 -0.2397
    82BTZ   C4710616   5.731   5.362   0.360 -0.3296 -0.0735 -0.2601
    82BTZ   C4810617   5.784   5.434   0.256 -0.1147 -0.1721 -0.2220
    82BTZ   C4910618   5.823   5.372   0.132  0.1335 -0.2887 -0.0852
    82BTZ   C5010619   5.811   5.237   0.112  0.1664 -0.3069  0.0132
    82BTZ   C5110620   5.716   5.220   0.343 -0.3049 -0.0875 -0.1607
    82BTZ   C5210621   5.756   5.157   0.218 -0.0528 -0.2061 -0.0217
    92RH    C5310622   5.835   5.165  -0.015 -0.2131 -0.1302 -0.4541
    82BTZ    N410623   5.666   5.139   0.437 -0.4998  0.0019 -0.1856
    82BTZ    N510624   5.739   5.024   0.210 -0.0451 -0.2122  0.0651
    82BTZ    S610625   5.669   4.974   0.367 -0.3667 -0.0634 -0.0291
    92RH    C5410626   5.869   5.210  -0.136 -0.0740 -0.0260 -0.3775
    92RH     S710627   5.928   5.378  -0.179  0.3776 -0.1101 -0.0994
    92RH    C5510628   5.864   5.126  -0.259 -0.2729  0.1805 -0.5116
    92RH     O210629   5.828   5.007  -0.263 -0.5851  0.2798 -0.7068
    92RH     N610630   5.905   5.198  -0.373 -0.0614  0.2541 -0.3895
    92RH    C5610631   5.943   5.330  -0.357  0.2820  0.1318 -0.1739
    92RH    C5710632   5.905   5.133  -0.507 -0.5045 -0.4202 -1.3125
    92RH    C5810633   5.767   5.124  -0.569  0.0278  0.5504 -0.1031
    92RH     S810634   5.995   5.437  -0.475  0.5865  0.1831  0.0060
    72IDQ   C5910635   5.819   5.832   0.659  0.2924  0.2244  0.1862
    72IDQ   C6010636   5.906   5.954   0.652  0.1047 -0.6384  0.1265
    72IDQ   C6110637   6.050   5.934   0.618 -0.7023  0.0060  0.0762
    72IDQ   C6210638   6.089   5.882   0.479 -0.0649  0.0489  0.0291
    72IDQ   C6310639   6.233   5.830   0.444  0.1904 -0.1109 -0.0032
    72IDQ   C6410640   6.295   5.724   0.538  0.2742  0.4192  0.1248
    72IDQ   C6510641   6.446   5.705   0.511 -0.1154  0.5337 -0.2073
    72IDQ   C6610642   5.460   5.844   0.462  0.4210  0.7038 -0.4764
    72IDQ   C6710643   5.325   5.848   0.390 -0.2644 -0.2718 -0.4405
    72IDQ   C6810644   5.338   5.822   0.242  1.1720 -0.1541  0.0426
    72IDQ   C6910645   5.206   5.842   0.167  0.5039  0.1735  0.0967
    72IDQ   C7010646   5.215   5.803   0.015 -0.5553  0.6905 -0.4932
    72IDQ   C7110647   5.089   5.822  -0.056  0.3653 -0.3226  0.0009
    72IDQ   C7210648   5.107   5.788  -0.198 -0.3066  0.3353  0.6529
    11RH     C110649   4.388   5.353   6.074 -0.1366 -0.0314 -0.0582
    11RH     C210650   4.358   5.264   6.188 -0.0583 -0.0267 -0.0334
    11RH     N110651   4.436   5.280   5.963 -0.2242 -0.0372 -0.0923
    11RH     S110652   4.394   5.090   6.142 -0.1051 -0.0304 -0.0568
    11RH     C310653   4.448   5.144   5.974 -0.2258 -0.0378 -0.0981
    11RH     C410654   4.485   5.350   5.846  0.7358 -0.3800  0.0217
    11RH     S210655   4.502   5.035   5.857 -0.3202 -0.0441 -0.1361
    11RH     O110656   4.374   5.476   6.073 -0.1280 -0.0304 -0.0503
    11RH     C510657   4.311   5.307   6.306  0.0320 -0.0209  0.0006
    21BTZ    C610658   4.264   5.236   6.429 -0.1978 -0.0840 -0.0026
    21BTZ    C710659   4.263   5.100   6.448 -0.2111 -0.0846 -0.0079
    21BTZ    C810660   4.225   5.321   6.537 -0.1628 -0.0833  0.0093
    21BTZ    C910661   4.224   5.042   6.574 -0.1905 -0.0846 -0.0017
    21BTZ   C1010662   4.186   5.119   6.680 -0.1569 -0.0841  0.0100
    21BTZ   C1110663   4.186   5.262   6.665 -0.1421 -0.0833  0.0156
    21BTZ    N210664   4.223   5.455   6.531 -0.1472 -0.0827  0.0153
    21BTZ    N310665   4.151   5.347   6.762 -0.1094 -0.0827  0.0268
    21BTZ    S310666   4.168   5.511   6.692 -0.1043 -0.0821  0.0297
    31IDT   C1210667   4.127   5.047   6.801 -0.3919 -0.1768  0.1459
    31IDT   C1310668   4.099   4.913   6.807 -0.2439 -0.1973  0.3858
    31IDT   C1410669   4.033   4.876   6.929 -0.0761 -0.0771  0.5136
    31IDT   C1510670   4.011   4.982   7.015 -0.0949  0.0359  0.3723
    31IDT    S410671   4.073   5.137   6.949 -0.3287 -0.0016  0.0636
    4IDB    C1610672   3.964   4.937   7.138 -0.0833 -0.2027 -0.4234
    4IDB    C1710673   3.923   4.801   7.127 -0.5282 -0.0929 -0.1947
    51IDQ   C1810674   3.969   4.753   6.983  0.6599 -0.0063  0.4657
    4IDB    C1910675   3.877   4.731   7.237 -0.0941  0.0387  0.0767
    51IDQ   C2010676   4.056   4.628   7.009 -0.2798  0.2711 -0.2727
    51IDQ   C2110677   3.846   4.704   6.882 -0.5168  0.6440  0.3380
    51IDQ   C2210678   3.704   4.718   6.934 -0.0578  0.4892  0.7755
    51IDQ   C2310679   4.213   4.635   7.004  0.1533 -0.1071  0.0700
    51IDQ   C2410680   3.609   4.631   6.859 -0.0712 -0.5690  0.2191
    51IDQ   C2510681   3.462   4.627   6.909 -0.1709  0.0742 -0.2517
    51IDQ   C2610682   3.380   4.531   6.831 -0.3517  0.7033 -0.0742
    51IDQ   C2710683   3.351   4.552   6.686  0.1556  0.1870  0.4601
    51IDQ   C2810684   3.320   4.417   6.620  0.3808 -0.3992 -0.0852
    51IDQ   C2910685   3.239   4.430   6.492  0.0362 -0.1872 -0.0126
    51IDQ   C3010686   4.268   4.717   7.116 -0.1565  0.4474 -0.0909
    51IDQ   C3110687   4.413   4.744   7.106 -1.2463 -0.2662 -0.2341
    51IDQ   C3210688   4.478   4.805   7.230 -0.3330 -0.1968 -0.3953
    51IDQ   C3310689   4.625   4.831   7.216 -0.5891  0.2294  0.8434
    51IDQ   C3410690   4.699   4.912   7.321 -0.5178 -0.0102 -0.1790
    51IDQ   C3510691   4.853   4.932   7.288  0.1064  0.1374 -0.2654
    4IDB    C3610692   3.959   5.005   7.261  0.8041 -0.1816 -0.3815
    4IDB    C3710693   3.911   4.931   7.373  1.2370 -0.0464 -0.1027
    11RH    C3810694   4.377   5.376   5.744  0.6856 -0.3425 -0.0746
    4IDB    C3910695   3.871   4.798   7.360  0.7933  0.0599  0.1186
    62IDT   C4010696   3.819   4.754   7.486  0.1801  0.1160 -0.1387
    72IDQ   C4110697   3.884   4.983   7.518  0.3006  0.1821 -0.9536
    62IDT   C4210698   3.837   4.851   7.582  0.4473  0.0570 -0.1267
    72IDQ   C4310699   4.021   5.028   7.580 -0.7606  0.1447 -0.2331
    72IDQ   C4410700   3.775   5.105   7.525 -0.1107 -0.0343  0.8221
    62IDT    S510701   3.758   4.600   7.557 -0.0370  0.2075 -0.1269
    62IDT   C4510702   3.760   4.680   7.720  0.2594  0.1587 -0.1052
    62IDT   C4610703   3.803   4.810   7.715  0.4925  0.0811 -0.1077
    82BTZ   C4710704   3.732   4.610   7.851  0.3736  0.0030  0.0000
    82BTZ   C4810705   3.678   4.683   7.953  0.2657  0.0385 -0.0811
    82BTZ   C4910706   3.646   4.623   8.080 -0.0001  0.0517 -0.1401
    82BTZ   C5010707   3.668   4.489   8.105 -0.1579  0.0294 -0.1179
    82BTZ   C5110708   3.757   4.470   7.871  0.2164 -0.0216  0.0263
    82BTZ   C5210709   3.724   4.409   8.000 -0.0539 -0.0081 -0.0337
    92RH    C5310710   3.644   4.427   8.230 -0.1785 -0.3840 -0.1377
    82BTZ    N410711   3.809   4.389   7.778  0.2995 -0.0566  0.1036
    82BTZ    N510712   3.750   4.278   8.011 -0.1880 -0.0323 -0.0046
    82BTZ    S610713   3.819   4.227   7.854  0.0301 -0.0747  0.1029
    92RH    C5410714   3.597   4.468   8.349 -0.0509 -0.2379 -0.1364
    92RH     S710715   3.544   4.638   8.393  0.4121 -0.0878 -0.1542
    92RH    C5510716   3.579   4.378   8.465 -0.2736 -0.1737 -0.1197
    92RH     O210717   3.605   4.256   8.467 -0.5985 -0.2457 -0.1052
    92RH     N610718   3.527   4.447   8.577 -0.0704 -0.0168 -0.1221
    92RH    C5610719   3.501   4.582   8.564  0.2886  0.0526 -0.1388
    92RH    C5710720   3.509   4.374   8.709  0.1578 -0.4073  0.1962
    92RH    C5810721   3.643   4.377   8.786  0.2695 -0.1001  0.3291
    92RH     S810722   3.440   4.687   8.680  0.5883  0.2366 -0.1451
    72IDQ   C5910723   3.632   5.074   7.508 -0.4699  0.9757 -0.3210
    72IDQ   C6010724   3.543   5.200   7.493 -0.7554  0.4369  0.7367
    72IDQ   C6110725   3.389   5.172   7.485 -0.8855 -0.1860  0.0134
    72IDQ   C6210726   3.324   5.117   7.614  0.6454  0.2148  0.3554
    72IDQ   C6310727   3.170   5.112   7.596 -0.2793 -0.2602 -0.1121
    72IDQ   C6410728   3.112   5.042   7.717 -0.6659  0.3550 -0.1137
    72IDQ   C6510729   2.961   5.022   7.729 -0.0667 -0.0092 -0.2664
    72IDQ   C6610730   4.015   5.070   7.729  0.0475  0.0489 -0.5238
    72IDQ   C6710731   4.141   5.088   7.804 -0.2838 -0.1991 -0.4060
    72IDQ   C6810732   4.126   5.058   7.960  0.6765 -0.6388  0.1032
    72IDQ   C6910733   4.249   5.064   8.044  0.1541  0.0868 -0.5079
    72IDQ   C7010734   4.216   5.022   8.179  0.2741 -0.8907 -0.9742
    72IDQ   C7110735   4.337   5.031   8.273 -0.3344 -0.2155  0.8217
    72IDQ   C7210736   4.291   4.992   8.412 -0.6761  0.0044 -0.2356
    11RH     C110737   5.048   4.420   1.206 -0.0868 -0.0272  0.1179
    11RH     C210738   5.009   4.514   1.314 -0.0381 -0.0390  0.1456
    11RH     N110739   5.085   4.489   1.089 -0.2018 -0.0165  0.0877
    11RH     S110740   5.024   4.687   1.254 -0.1468 -0.0349  0.1302
    11RH     C310741   5.080   4.627   1.090 -0.2512 -0.0180  0.0879
    11RH     C410742   5.142   4.409   0.977  0.4691 -0.0623 -0.8028
    11RH     S210743   5.119   4.732   0.964 -0.3858 -0.0068  0.0556
    11RH     O110744   5.049   4.296   1.215 -0.0349 -0.0267  0.1202
    11RH     C510745   4.969   4.474   1.436  0.0693 -0.0507  0.1768
    21BTZ    C610746   4.918   4.541   1.556 -0.2436  0.0803  0.0314
    21BTZ    C710747   4.895   4.675   1.571 -0.0114  0.1107  0.1185
    21BTZ    C810748   4.885   4.453   1.665 -0.1422  0.0983  0.0761
    21BTZ    C910749   4.840   4.730   1.692  0.3299  0.1601  0.2530
    21BTZ   C1010750   4.808   4.651   1.799  0.4383  0.1789  0.3002
    21BTZ   C1110751   4.829   4.510   1.789  0.2046  0.1484  0.2128
    21BTZ    N210752   4.903   4.321   1.663 -0.3451  0.0721  0.0006
    21BTZ    N310753   4.802   4.422   1.886  0.2804  0.1626  0.2472
    21BTZ    S310754   4.847   4.261   1.822 -0.0965  0.1114  0.1033
    31IDT   C1210755   4.756   4.721   1.918 -0.7593 -0.0355 -0.1912
    31IDT   C1310756   4.724   4.854   1.925 -1.1351 -0.1177 -0.3031
    31IDT   C1410757   4.677   4.893   2.054 -0.9005 -0.0683 -0.2314
    31IDT   C1510758   4.673   4.790   2.146 -0.3458  0.0517 -0.0648
    31IDT    S410759   4.729   4.634   2.075 -0.0750  0.1119  0.0150
    4IDB    C1610760   4.618   4.831   2.270  0.1642 -0.0664 -0.3480
    4IDB    C1710761   4.577   4.967   2.260  0.5735  0.0702 -0.2026
    51IDQ   C1810762   4.615   5.020   2.119  0.2247 -0.1207  0.2502
    4IDB    C1910763   4.517   5.032   2.367  0.4708  0.0379 -0.2408
    51IDQ   C2010764   4.706   5.152   2.150  0.6074  0.1059  0.0382
    51IDQ   C2110765   4.504   5.061   2.016  0.9437  0.0524 -0.5536
    51IDQ   C2210766   4.362   5.027   2.057  0.1449  0.3137  0.3915
    51IDQ   C2310767   4.852   5.160   2.138  0.0199  0.1770  0.4852
    51IDQ   C2410768   4.248   5.063   1.956 -0.0478  0.3351  1.0774
    51IDQ   C2510769   4.225   5.199   1.899 -0.5077  0.3746 -0.3807
    51IDQ   C2610770   4.129   5.193   1.783  0.0959 -0.3442 -0.3155
    51IDQ   C2710771   4.111   5.316   1.693 -0.5306  0.1268 -0.1799
    51IDQ   C2810772   4.061   5.441   1.772  0.1107  0.7707  0.2149
    51IDQ   C2910773   4.049   5.547   1.670 -0.2695 -0.4132 -0.6966
    51IDQ   C3010774   4.913   5.077   2.244  0.5772  0.0035 -0.6462
    51IDQ   C3110775   5.061   5.078   2.232 -0.4198 -0.1717 -0.3472
    51IDQ   C3210776   5.153   4.979   2.309  0.3360  0.3484 -0.3408
    51IDQ   C3310777   5.290   5.007   2.272 -0.1555  0.0338 -0.0430
    51IDQ   C3410778   5.391   4.907   2.333  0.2551 -0.5393 -0.1388
    51IDQ   C3510779   5.526   4.973   2.366  0.6261 -0.1468 -0.5547
    4IDB    C3610780   4.598   4.758   2.389 -0.3538 -0.2378 -0.5336
    4IDB    C3710781   4.536   4.826   2.497 -0.4514 -0.2687 -0.5699
    11RH    C3810782   5.046   4.358   0.861  0.7286 -0.2185 -0.4283
    4IDB    C3910783   4.497   4.960   2.485 -0.0471 -0.1336 -0.4263
    62IDT   C4010784   4.445   5.004   2.612  0.3135 -0.3484  0.2447
    72IDQ   C4110785   4.519   4.780   2.646  0.1316 -0.0082  0.1433
    62IDT   C4210786   4.461   4.908   2.710  0.5633 -0.0082  0.5404
    72IDQ   C4310787   4.663   4.759   2.700 -0.3575  0.9397 -0.5511
    72IDQ   C4410788   4.443   4.638   2.641 -0.2705  0.2128 -0.8356
    62IDT    S510789   4.368   5.154   2.676 -0.2204 -0.4019 -0.2483
    62IDT   C4510790   4.362   5.075   2.840 -0.0704  0.0611 -0.0173
    62IDT   C4610791   4.415   4.948   2.839  0.3467  0.2238  0.3927
    82BTZ   C4710792   4.326   5.154   2.959  0.0256  0.1928 -0.1029
    82BTZ   C4810793   4.280   5.079   3.065  0.1295  0.0517 -0.1562
    82BTZ   C4910794   4.261   5.137   3.195  0.1442 -0.0939 -0.0895
    82BTZ   C5010795   4.288   5.269   3.221  0.0550 -0.0982  0.0304
    82BTZ   C5110796   4.356   5.292   2.981 -0.0705  0.1944  0.0226
    82BTZ   C5210797   4.336   5.351   3.114 -0.0556  0.0464  0.0904
    92RH    C5310798   4.265   5.329   3.355 -0.3864  0.1416 -0.1306
    82BTZ    N410799   4.401   5.375   2.886 -0.1761  0.3242  0.0846
    82BTZ    N510800   4.366   5.480   3.126 -0.1489  0.0572  0.2069
    82BTZ    S610801   4.422   5.534   2.965 -0.2625  0.2614  0.2353
    92RH    C5410802   4.229   5.284   3.475 -0.2226  0.1258 -0.0867
    92RH     S710803   4.162   5.118   3.515 -0.0708  0.0852 -0.0018
    92RH    C5510804   4.237   5.366   3.599 -0.1367  0.1388 -0.1011
    92RH     O210805   4.278   5.483   3.606 -0.2047  0.1657 -0.1543
    92RH     N610806   4.192   5.293   3.712  0.0359  0.1168 -0.0461
    92RH    C5610807   4.149   5.164   3.693  0.0986  0.0876  0.0106
    92RH    C5710808   4.184   5.364   3.847  0.6661  0.0482  0.0576
    92RH    C5810809   4.310   5.344   3.933  0.3298  0.1274 -0.1203
    92RH     S810810   4.091   5.057   3.810  0.2983  0.0573  0.0825
    72IDQ   C5910811   4.289   4.612   2.613 -0.9528 -0.3205 -0.3882
    72IDQ   C6010812   4.202   4.671   2.717 -0.0602  0.3613 -0.3354
    72IDQ   C6110813   4.057   4.676   2.678  0.3581  0.4921 -0.7717
    72IDQ   C6210814   3.956   4.717   2.789  0.0644 -0.4894  0.5393
    72IDQ   C6310815   3.818   4.772   2.739 -0.1408  0.0366 -0.3828
    72IDQ   C6410816   3.717   4.809   2.848 -0.0285  0.3163  0.1283
    72IDQ   C6510817   3.612   4.881   2.782  0.1083  0.2197 -0.2046
    72IDQ   C6610818   4.686   4.722   2.844 -0.4161 -0.0768 -0.0631
    72IDQ   C6710819   4.834   4.711   2.877  0.3334  0.1204  0.5981
    72IDQ   C6810820   4.857   4.663   3.018  0.3337 -0.5772  0.0554
    72IDQ   C6910821   5.003   4.657   3.063 -0.0705 -0.6728  0.5575
    72IDQ   C7010822   5.025   4.627   3.207 -0.1342  0.9194 -1.1389
    72IDQ   C7110823   4.948   4.718   3.305  0.4632  0.1329 -0.4374
    72IDQ   C7210824   4.990   4.694   3.454 -0.0361 -0.6844  0.9732
    11RH     C110825   4.852   5.166   3.743 -0.1006 -0.4269 -0.0624
    11RH     C210826   4.900   5.256   3.634 -0.1014 -0.3792 -0.0237
    11RH     N110827   4.800   5.240   3.851  0.0161 -0.4710  0.0244
    11RH     S110828   4.873   5.431   3.682  0.0511 -0.3955  0.1243
    11RH     C310829   4.800   5.378   3.843  0.1087 -0.4643  0.1280
    11RH     C410830   4.755   5.163   3.978 -0.0379  0.0549 -0.1602
    11RH     S210831   4.744   5.488   3.957  0.2549 -0.5100  0.2446
    11RH     O110832   4.856   5.042   3.741 -0.1892 -0.4289 -0.1583
    11RH     C510833   4.954   5.211   3.521 -0.2005 -0.3321 -0.0896
    21BTZ    C610834   5.008   5.282   3.401 -0.0275 -0.0020  0.0935
    21BTZ    C710835   5.020   5.418   3.395  0.0435 -0.0076  0.1087
    21BTZ    C810836   5.040   5.204   3.285 -0.1518  0.0001  0.0576
    21BTZ    C910837   5.064   5.485   3.275 -0.0033 -0.0113  0.0895
    21BTZ   C1010838   5.095   5.415   3.161 -0.1213 -0.0093  0.0552
    21BTZ   C1110839   5.084   5.272   3.163 -0.1996 -0.0036  0.0381
    21BTZ    N210840   5.032   5.071   3.279 -0.2300  0.0055  0.0399
    21BTZ    N310841   5.112   5.193   3.059 -0.3160 -0.0012  0.0048
    21BTZ    S310842   5.082   5.026   3.113 -0.3707  0.0059 -0.0033
    31IDT   C1210843   5.143   5.499   3.042 -0.3050 -0.4945 -0.2595
    31IDT   C1310844   5.171   5.633   3.038 -0.7170 -0.4014 -0.0946
    31IDT   C1410845   5.217   5.677   2.910 -0.6418 -0.1452  0.0190
    31IDT   C1510846   5.225   5.577   2.816 -0.1730 -0.0418 -0.0582
    31IDT    S410847   5.174   5.418   2.882  0.2131 -0.2627 -0.2829
    4IDB    C1610848   5.278   5.629   2.691  0.4148 -0.2778 -0.1369
    4IDB    C1710849   5.302   5.769   2.703  0.0644 -0.2199 -0.0826
    51IDQ   C1810850   5.273   5.813   2.854  0.9997 -0.2506  1.6748
    4IDB    C1910851   5.348   5.843   2.594 -0.0517 -0.0767 -0.0351
    51IDQ   C2010852   5.163   5.928   2.834  0.1215 -0.1727 -0.0902
    51IDQ   C2110853   5.393   5.861   2.937 -0.1244 -0.6868 -0.3123
    51IDQ   C2210854   5.535   5.865   2.880 -0.2686 -0.5907 -0.1522
    51IDQ   C2310855   5.013   5.901   2.830  0.1908 -0.5938 -0.1929
    51IDQ   C2410856   5.629   5.886   2.996 -0.3079  0.5805  0.2119
    51IDQ   C2510857   5.767   5.901   2.937 -0.3647  0.2303  0.0798
    51IDQ   C2610858   5.884   5.880   3.031 -0.4820 -0.6145 -0.2379
    51IDQ   C2710859   5.894   5.975   3.149 -0.9876 -0.8159 -0.7833
    51IDQ   C2810860   5.919   6.137   3.135  0.4507  0.2937 -0.1561
    51IDQ   C2910861   5.943   6.202   3.271  0.2084 -0.4037 -0.3712
    51IDQ   C3010862   4.971   5.825   2.703 -0.5035 -0.0307 -0.5507
    51IDQ   C3110863   4.817   5.852   2.686  0.6324  0.1101  0.6221
    51IDQ   C3210864   4.725   5.732   2.641 -0.1447 -0.4866 -0.1947
    51IDQ   C3310865   4.574   5.774   2.665  0.0717  0.4813 -0.0430
    51IDQ   C3410866   4.498   5.654   2.608  0.2711 -0.0372 -0.1727
    51IDQ   C3510867   4.346   5.661   2.610  0.3525 -0.0996  0.2840
    4IDB    C3610868   5.300   5.561   2.570  0.6526 -0.1924 -0.1439
    4IDB    C3710869   5.346   5.638   2.460  0.5293 -0.0464 -0.0948
    11RH    C3810870   4.867   5.116   4.074 -0.0862 -0.4765  0.0376
    4IDB    C3910871   5.369   5.775   2.473  0.1859  0.0087 -0.0421
    62IDT   C4010872   5.419   5.823   2.347 -0.5247  0.3020  0.0176
    72IDQ   C4110873   5.374   5.588   2.316 -0.0696 -0.4640 -0.2297
    62IDT   C4210874   5.407   5.723   2.252 -0.5710  0.2354  0.0935
    72IDQ   C4310875   5.246   5.506   2.250 -0.3372  0.4659  0.3626
    72IDQ   C4410876   5.493   5.484   2.320  0.2650 -0.0168  0.1769
    62IDT    S510877   5.479   5.976   2.275 -0.0543  0.1018 -0.0234
    62IDT   C4510878   5.485   5.893   2.114  0.0601 -0.0699  0.0689
    62IDT   C4610879   5.445   5.763   2.121 -0.2406  0.0252  0.1227
    82BTZ   C4710880   5.512   5.963   1.988  0.1369  0.1462  0.4324
    82BTZ   C4810881   5.563   5.882   1.890  0.1053  0.0931  0.4596
    82BTZ   C4910882   5.596   5.932   1.759  0.0184  0.0120  0.4064
    82BTZ   C5010883   5.577   6.064   1.726 -0.0364 -0.0160  0.3262
    82BTZ   C5110884   5.490   6.102   1.958  0.0821  0.1197  0.3488
    82BTZ   C5210885   5.523   6.153   1.824 -0.0061  0.0372  0.2948
    92RH    C5310886   5.603   6.125   1.591 -0.0225  0.3060 -0.3798
    82BTZ    N410887   5.440   6.191   2.044  0.1057  0.1658  0.3152
    82BTZ    N510888   5.501   6.283   1.804 -0.0534  0.0170  0.2178
    82BTZ    S610889   5.434   6.347   1.957  0.0142  0.1041  0.2110
    92RH    C5410890   5.645   6.074   1.475 -0.0252  0.1885 -0.3301
    92RH     S710891   5.713   5.906   1.446  0.0702  0.1938 -0.1414
    92RH    C5510892   5.644   6.150   1.347 -0.1085  0.0307 -0.4243
    92RH     O210893   5.605   6.267   1.333 -0.1843 -0.0107 -0.5575
    92RH     N610894   5.695   6.073   1.241 -0.0915 -0.0702 -0.3433
    92RH    C5610895   5.736   5.944   1.267 -0.0049 -0.0128 -0.1959
    92RH    C5710896   5.706   6.132   1.101  0.1489  0.0297  0.1459
    92RH    C5810897   5.580   6.127   1.014  0.6025  0.5705 -0.5631
    92RH     S810898   5.800   5.832   1.158  0.0330 -0.1079 -0.0756
    72IDQ   C5910899   5.635   5.514   2.375  0.4191 -0.4155  0.5676
    72IDQ   C6010900   5.718   5.387   2.338  0.1600 -0.3079  0.6100
    72IDQ   C6110901   5.870   5.383   2.355 -0.1995  0.7195 -0.5488
    72IDQ   C6210902   5.939   5.492   2.268 -0.4667  0.2111 -0.1195
    72IDQ   C6310903   6.078   5.459   2.228 -0.2672  0.1147  0.5669
    72IDQ   C6410904   6.135   5.572   2.142  0.4982 -0.8479  0.0739
    72IDQ   C6510905   6.283   5.577   2.118 -0.5816  1.1269 -0.4966
    72IDQ   C6610906   5.221   5.510   2.101 -0.0190  0.0552  0.0827
    72IDQ   C6710907   5.112   5.413   2.041 -0.8221  0.2848 -0.6377
    72IDQ   C6810908   5.086   5.451   1.896 -0.1396 -0.0005 -0.2212
    72IDQ   C6910909   4.980   5.369   1.834  0.1728 -0.2889  0.1991
    72IDQ   C7010910   4.908   5.419   1.709 -1.0137  0.1269 -0.0319
    72IDQ   C7110911   5.011   5.459   1.594 -0.0394 -0.6323 -1.1951
    72IDQ   C7210912   4.952   5.546   1.488  0.1711 -0.2285 -0.4166
    11RH     C110913   4.626   6.083   5.389 -0.4666  0.0259  0.0428
    11RH     C210914   4.675   6.002   5.275 -0.2906  0.1075  0.0612
    11RH     N110915   4.594   6.001   5.500 -0.3006 -0.0209  0.0571
    11RH     S110916   4.677   5.824   5.321  0.0815  0.1175  0.0959
    11RH     C310917   4.611   5.865   5.488 -0.0134  0.0132  0.0844
    11RH     C410918   4.512   6.057   5.615 -0.0199  0.5072  0.8169
    11RH     S210919   4.581   5.747   5.605  0.2298 -0.0291  0.1060
    11RH     O110920   4.613   6.206   5.390 -0.7268  0.0006  0.0180
    11RH     C510921   4.713   6.055   5.158 -0.3959  0.1638  0.0526
    21BTZ    C610922   4.761   5.994   5.035 -0.2899  0.3224 -0.1339
    21BTZ    C710923   4.785   5.860   5.025 -0.2642  0.3144  0.0277
    21BTZ    C810924   4.791   6.078   4.923 -0.1656  0.2130 -0.1831
    21BTZ    C910925   4.838   5.801   4.905 -0.1158  0.1997  0.1483
    21BTZ   C1010926   4.867   5.876   4.795  0.0065  0.0930  0.1070
    21BTZ   C1110927   4.845   6.018   4.800 -0.0147  0.0964 -0.0606
    21BTZ    N210928   4.772   6.210   4.920 -0.1765  0.2091 -0.3366
    21BTZ    N310929   4.869   6.102   4.699  0.0956 -0.0012 -0.1156
    21BTZ    S310930   4.824   6.265   4.758  0.0095  0.0528 -0.3311
    31IDT   C1210931   4.919   5.802   4.676  0.0829 -0.2856  0.3059
    31IDT   C1310932   4.959   5.671   4.672  0.2289 -0.2400  0.2631
    31IDT   C1410933   4.988   5.626   4.539  0.3209 -0.1521  0.2528
    31IDT   C1510934   4.970   5.722   4.442  0.2460 -0.1305  0.2879
    31IDT    S410935   4.915   5.879   4.511  0.0513 -0.2203  0.3371
    4IDB    C1610936   5.016   5.678   4.313 -0.3663 -0.1993  0.0531
    4IDB    C1710937   5.057   5.542   4.328 -0.2445 -0.1546  0.1308
    51IDQ   C1810938   5.032   5.498   4.471  0.2269  0.4967  0.0909
    4IDB    C1910939   5.106   5.470   4.219 -0.1257 -0.1552  0.1843
    51IDQ   C2010940   4.919   5.381   4.461 -0.4971  0.2061  0.2563
    51IDQ   C2110941   5.157   5.441   4.546 -0.0456 -0.1987  0.5566
    51IDQ   C2210942   5.299   5.429   4.492 -0.2018 -0.0441  0.7281
    51IDQ   C2310943   4.769   5.395   4.483  0.8000 -0.2188  0.1709
    51IDQ   C2410944   5.398   5.382   4.597  0.1123 -0.6434 -0.2359
    51IDQ   C2510945   5.544   5.366   4.547  0.1592 -0.3090  0.0588
    51IDQ   C2610946   5.645   5.333   4.650  0.3404 -0.6817  0.4775
    51IDQ   C2710947   5.633   5.189   4.706 -0.4913 -0.2886  0.7119
    51IDQ   C2810948   5.740   5.171   4.812 -0.1438  0.0791  0.3322
    51IDQ   C2910949   5.746   5.028   4.872 -0.2937 -0.2732 -0.5927
    51IDQ   C3010950   4.698   5.486   4.384 -0.4537 -0.0084 -0.2157
    51IDQ   C3110951   4.546   5.480   4.401 -0.1118  0.8079  0.3151
    51IDQ   C3210952   4.461   5.552   4.296 -0.3107 -0.3946  0.3727
    51IDQ   C3310953   4.317   5.514   4.317  0.3740  0.1108  0.5597
    51IDQ   C3410954   4.232   5.566   4.202 -0.1093 -0.5307  0.7333
    51IDQ   C3510955   4.085   5.539   4.224  0.1399  0.5185 -0.4457
    4IDB    C3610956   5.024   5.743   4.189 -0.3701 -0.2450  0.0287
    4IDB    C3710957   5.074   5.668   4.079 -0.2477 -0.2450  0.0843
    11RH    C3810958   4.591   6.124   5.718 -0.5372 -0.1051  0.1334
    4IDB    C3910959   5.114   5.535   4.095 -0.1293 -0.2010  0.1598
    62IDT   C4010960   5.170   5.486   3.969  0.4473  0.1523  0.0946
    72IDQ   C4110961   5.104   5.720   3.937 -0.0156  0.6569  0.3603
    62IDT   C4210962   5.168   5.590   3.878  0.3439  0.1549  0.0998
    72IDQ   C4310963   4.970   5.750   3.864  0.1003  0.1733 -0.2170
    72IDQ   C4410964   5.196   5.848   3.934 -0.1167  0.2924 -0.8627
    62IDT    S510965   5.246   5.338   3.901  0.2470  0.1119 -0.0403
    62IDT   C4510966   5.271   5.429   3.745  0.0232  0.0998 -0.0847
    62IDT   C4610967   5.225   5.557   3.751  0.1038  0.1251 -0.0016
    82BTZ   C4710968   5.320   5.364   3.621 -0.0901  0.1609 -0.1531
    82BTZ   C4810969   5.376   5.444   3.524  0.0175  0.0834 -0.1559
    82BTZ   C4910970   5.417   5.391   3.397  0.1212 -0.0117 -0.0832
    82BTZ   C5010971   5.403   5.258   3.366  0.1173 -0.0291 -0.0079
    82BTZ   C5110972   5.303   5.224   3.593 -0.0988  0.1466 -0.0756
    82BTZ   C5210973   5.346   5.170   3.463  0.0064  0.0498 -0.0017
    92RH    C5310974   5.439   5.205   3.239 -0.2082 -0.1431 -0.0323
    82BTZ    N410975   5.251   5.136   3.679 -0.1986  0.2164 -0.0650
    82BTZ    N510976   5.327   5.040   3.445 -0.0086  0.0421  0.0683
    82BTZ    S610977   5.253   4.978   3.595 -0.1614  0.1605  0.0421
    92RH    C5410978   5.484   5.260   3.125 -0.1204 -0.1907 -0.0211
    92RH     S710979   5.518   5.438   3.096 -0.2101 -0.1872 -0.1052
    92RH    C5510980   5.513   5.183   3.002  0.0697 -0.2556  0.0642
    92RH     O210981   5.500   5.060   2.990  0.1682 -0.2735  0.1341
    92RH     N610982   5.558   5.266   2.898  0.1279 -0.2963  0.0570
    92RH    C5610983   5.569   5.401   2.922  0.0079 -0.2717 -0.0236
    92RH    C5710984   5.577   5.213   2.763  0.3894 -0.0602 -0.2012
    92RH    C5810985   5.446   5.192   2.685  0.0925  0.2525  0.1183
    92RH     S810986   5.620   5.522   2.816  0.0434 -0.3098 -0.0495
    72IDQ   C5910987   5.347   5.817   3.954 -0.0133  0.2011  0.5560
    72IDQ   C6010988   5.418   5.948   3.951 -0.3073  0.6073  0.4340
    72IDQ   C6110989   5.575   5.935   3.974  0.2788 -0.4445  0.5012
    72IDQ   C6210990   5.665   5.841   3.886 -0.0359  0.0056 -0.4356
    72IDQ   C6310991   5.815   5.866   3.874  0.2295  0.2412 -0.0502
    72IDQ   C6410992   5.872   5.739   3.822 -0.1392 -0.3229  0.0706
    72IDQ   C6510993   6.012   5.765   3.773 -0.9290  0.3657 -0.3113
    72IDQ   C6610994   4.960   5.814   3.719  0.3060  0.3172 -0.5295
    72IDQ   C6710995   4.816   5.791   3.663 -1.2667 -0.5060 -0.5944
    72IDQ   C6810996   4.788   5.856   3.529 -0.0031 -0.0261 -0.0020
    72IDQ   C6910997   4.851   5.778   3.417 -0.5103  0.5172 -0.3994
    72IDQ   C7010998   4.766   5.785   3.297  0.5987 -0.6476 -0.1764
    72IDQ   C7110999   4.823   5.684   3.191  0.3866 -1.2655  0.1182
    72IDQ   C7211000   4.745   5.692   3.056 -0.2084  0.5576 -0.3131
    11RH     C111001   4.778   5.338   2.836  0.1545 -0.1328 -0.1163
    11RH     C211002   4.753   5.243   2.948  0.1316 -0.1451 -0.1317
    11RH     N111003   4.816   5.269   2.718  0.1763 -0.1201 -0.1166
    11RH     S111004   4.781   5.071   2.891  0.1401 -0.1390 -0.1456
    11RH     C311005   4.824   5.132   2.722  0.1737 -0.1208 -0.1304
    11RH     C411006   4.859   5.343   2.600  0.7738  0.1572  0.5063
    11RH     S211007   4.867   5.028   2.597  0.1965 -0.1072 -0.1341
    11RH     O111008   4.768   5.461   2.842  0.1551 -0.1335 -0.1044
    11RH     C511009   4.716   5.282   3.070  0.1084 -0.1582 -0.1345
    21BTZ    C611010   4.692   5.220   3.190 -0.0677 -0.2920  0.1185
    21BTZ    C711011   4.688   5.084   3.207 -0.2959 -0.2747  0.2111
    21BTZ    C811012   4.652   5.304   3.299  0.0023 -0.1507  0.0365
    21BTZ    C911013   4.644   5.024   3.330 -0.4658 -0.1189  0.2277
    21BTZ   C1011014   4.605   5.100   3.437 -0.4071  0.0193  0.1517
    21BTZ   C1111015   4.607   5.243   3.425 -0.1705  0.0076  0.0533
    21BTZ    N211016   4.651   5.437   3.296  0.2191 -0.1521 -0.0570
    21BTZ    N311017   4.571   5.327   3.522 -0.0925  0.1334 -0.0266
    21BTZ    S311018   4.593   5.492   3.456  0.2115  0.0532 -0.1290
    31IDT   C1211019   4.562   5.022   3.556  0.4885 -0.3081  0.1326
    31IDT   C1311020   4.536   4.887   3.561  0.4448 -0.2985  0.1714
    31IDT   C1411021   4.485   4.845   3.687  0.1162 -0.1886  0.0764
    31IDT   C1511022   4.471   4.946   3.780 -0.0922 -0.1141 -0.0351
    31IDT    S411023   4.523   5.105   3.713  0.1137 -0.1778 -0.0285
    4IDB    C1611024   4.414   4.896   3.898 -0.0801  0.4098  0.4114
    4IDB    C1711025   4.389   4.756   3.888 -0.3204  0.4792  0.0010
    51IDQ   C1811026   4.437   4.707   3.750  0.4668 -0.7383  0.0978
    4IDB    C1911027   4.339   4.684   3.995 -0.4156  0.2450 -0.1984
    51IDQ   C2011028   4.552   4.599   3.772  0.2136 -0.2895  0.1929
    51IDQ   C2111029   4.329   4.641   3.656 -0.0043  0.2309 -0.4610
    51IDQ   C2211030   4.183   4.649   3.688  0.1863  0.8344 -0.0511
    51IDQ   C2311031   4.705   4.630   3.748  0.2478  0.0106 -0.3977
    51IDQ   C2411032   4.088   4.570   3.603  0.1558  0.1469  0.5199
    51IDQ   C2511033   4.089   4.593   3.453  0.0851  0.2719 -0.0621
    51IDQ   C2611034   4.061   4.735   3.400  0.5549  0.1828  0.3482
    51IDQ   C2711035   4.049   4.740   3.243  0.0026 -0.2071 -0.4754
    51IDQ   C2811036   3.918   4.684   3.182 -0.0872 -0.0300 -0.2087
    51IDQ   C2911037   3.795   4.764   3.227  0.8463 -0.8191  0.2797
    51IDQ   C3011038   4.767   4.676   3.878 -0.2361  0.4893  0.1412
    51IDQ   C3111039   4.899   4.730   3.841 -0.1464 -0.1573  0.3378
    51IDQ   C3211040   4.990   4.757   3.961  0.1556  0.5718  0.2677
    51IDQ   C3311041   5.129   4.793   3.907  0.3977  0.2129  0.0035
    51IDQ   C3411042   5.231   4.849   4.009  0.1225 -0.0335  0.2551
    51IDQ   C3511043   5.358   4.903   3.947 -0.5102  0.0349  0.6070
    4IDB    C3611044   4.388   4.966   4.017  0.0674  0.1035  0.6258
    4IDB    C3711045   4.336   4.891   4.126 -0.0329 -0.1329  0.4172
    11RH    C3811046   4.755   5.355   2.486  0.5489 -0.2317 -0.4004
    4IDB    C3911047   4.312   4.754   4.114 -0.2680 -0.0614  0.0162
    62IDT   C4011048   4.264   4.700   4.239  0.1315 -0.0124 -0.1439
    72IDQ   C4111049   4.286   4.940   4.262  0.1769 -0.6060  0.2889
    62IDT   C4211050   4.256   4.804   4.329  0.4234  0.1583 -0.3082
    72IDQ   C4311051   4.402   5.013   4.334 -0.2740  0.1568 -0.4646
    72IDQ   C4411052   4.180   5.056   4.247  0.0236  0.3670 -0.0293
    62IDT    S511053   4.221   4.543   4.314 -0.1453  0.2010  0.1527
    62IDT   C4511054   4.192   4.630   4.470  0.1635  0.5254  0.0330
    62IDT   C4611055   4.214   4.765   4.460  0.4419  0.4627 -0.2085
    82BTZ   C4711056   4.152   4.562   4.595 -0.0310 -0.1877 -0.1609
    82BTZ   C4811057   4.091   4.642   4.689 -0.1361 -0.1765 -0.2385
    82BTZ   C4911058   4.046   4.590   4.815 -0.3271 -0.1725 -0.3042
    82BTZ   C5011059   4.061   4.458   4.849 -0.4126 -0.1796 -0.2920
    82BTZ   C5111060   4.170   4.423   4.626 -0.1142 -0.1957 -0.1451
    82BTZ   C5211061   4.124   4.370   4.754 -0.3083 -0.1916 -0.2118
    92RH    C5311062   4.032   4.406   4.983 -0.3594  0.1070  0.0802
    82BTZ    N411063   4.228   4.335   4.543 -0.0261 -0.2068 -0.0721
    82BTZ    N511064   4.145   4.240   4.775 -0.3761 -0.1992 -0.1924
    82BTZ    S611065   4.226   4.178   4.628 -0.1909 -0.2126 -0.0858
    92RH    C5411066   3.999   4.456   5.102 -0.1653  0.2350  0.0802
    92RH     S711067   3.971   4.632   5.144  0.1051  0.3023 -0.0149
    92RH    C5511068   3.981   4.372   5.224 -0.1400  0.3452  0.1602
    92RH     O211069   3.994   4.249   5.229 -0.2920  0.3326  0.2352
    92RH     N611070   3.948   4.451   5.336  0.0824  0.4698  0.1411
    92RH    C5611071   3.936   4.587   5.319  0.2384  0.4728  0.0557
    92RH    C5711072   3.921   4.381   5.464 -0.1619 -0.0489  0.0817
    92RH    C5811073   4.047   4.382   5.555  0.7239 -0.2575 -0.0506
    92RH     S811074   3.897   4.703   5.436  0.5126  0.6070  0.0159
    72IDQ   C5911075   4.036   5.008   4.231  0.4112  0.0777 -0.5938
    72IDQ   C6011076   3.947   5.123   4.193  0.6079  0.4858  0.2868
    72IDQ   C6111077   3.796   5.091   4.198 -0.4844 -0.0729  0.7049
    72IDQ   C6211078   3.736   5.102   4.341  0.0065 -0.4479  0.0098
    72IDQ   C6311079   3.607   5.013   4.349  0.3594 -0.5179  0.7336
    72IDQ   C6411080   3.549   5.011   4.492  0.0940  0.5803  0.0683
    72IDQ   C6511081   3.404   4.968   4.488 -0.1405  0.3068 -0.2171
    72IDQ   C6611082   4.385   5.047   4.483 -0.3489 -0.3998 -0.4784
    72IDQ   C6711083   4.523   5.078   4.555 -0.6259 -0.6680  0.4462
    72IDQ   C6811084   4.514   5.079   4.707 -0.1038 -0.0377  0.2517
    72IDQ   C6911085   4.653   5.077   4.778  0.3727  0.1912  0.2884
    72IDQ   C7011086   4.630   5.038   4.922 -0.0181  0.7351 -0.0192
    72IDQ   C7111087   4.764   5.056   4.992 -0.8399 -0.0248 -0.1479
    72IDQ   C7211088   4.757   5.021   5.142 -0.0427  0.7343  0.0703
    11RH     C111089   4.581   4.435   4.459 -0.1756  0.0424 -0.0693
    11RH     C211090   4.550   4.535   4.564 -0.1262  0.0557 -0.0672
    11RH     N111091   4.622   4.496   4.339 -0.0616  0.0230 -0.0407
    11RH     S111092   4.576   4.704   4.497  0.0669  0.0419 -0.0279
    11RH     C311093   4.627   4.634   4.335  0.0730  0.0192 -0.0160
    11RH     C411094   4.670   4.414   4.222 -0.0083  0.2966  0.0908
    11RH     S211095   4.672   4.731   4.205  0.2260 -0.0026  0.0203
    11RH     O111096   4.574   4.311   4.473 -0.3004  0.0471 -0.0929
    11RH     C511097   4.508   4.503   4.687 -0.2132  0.0750 -0.0909
    21BTZ    C611098   4.462   4.561   4.810 -0.3670 -0.0368 -0.0043
    21BTZ    C711099   4.450   4.696   4.828 -0.2680 -0.0336  0.0402
    21BTZ    C811100   4.430   4.474   4.919 -0.2695 -0.0411  0.0212
    21BTZ    C911101   4.406   4.752   4.954 -0.0697 -0.0349  0.1113
    21BTZ   C1011102   4.374   4.672   5.061  0.0294 -0.0391  0.1383
    21BTZ   C1111103   4.385   4.530   5.046 -0.0681 -0.0424  0.0936
    21BTZ    N211104   4.438   4.340   4.913 -0.3506 -0.0445 -0.0172
    21BTZ    N311105   4.357   4.442   5.143  0.0131 -0.0467  0.1135
    21BTZ    S311106   4.387   4.280   5.073 -0.1688 -0.0494  0.0392
    31IDT   C1211107   4.336   4.739   5.185  0.3383 -0.3078  0.0360
    31IDT   C1311108   4.323   4.875   5.201  0.9973 -0.2213 -0.1007
    31IDT   C1411109   4.291   4.912   5.335  1.1115  0.0665 -0.1519
    31IDT   C1511110   4.279   4.806   5.422  0.5420  0.2005 -0.0548
    31IDT    S411111   4.308   4.648   5.340 -0.1901 -0.0288  0.1104
    4IDB    C1611112   4.240   4.853   5.553 -0.2970  0.2591  0.0701
    4IDB    C1711113   4.216   4.994   5.543 -0.0901  0.3076  0.2502
    51IDQ   C1811114   4.255   5.043   5.400  0.6253 -0.1335 -0.4844
    4IDB    C1911115   4.166   5.066   5.651  0.1001  0.2597  0.3707
    51IDQ   C2011116   4.368   5.161   5.421  0.5712  0.5033  0.3694
    51IDQ   C2111117   4.136   5.110   5.313  0.1592  0.1096  0.2349
    51IDQ   C2211118   3.988   5.114   5.346 -0.3787  0.1187  0.1453
    51IDQ   C2311119   4.516   5.128   5.401 -0.1086  0.1707  0.4294
    51IDQ   C2411120   3.917   5.205   5.251 -0.3717 -0.1401 -0.0324
    51IDQ   C2511121   3.767   5.221   5.275  0.2939  0.9934  0.2821
    51IDQ   C2611122   3.681   5.280   5.159  0.3585 -0.2549 -0.0832
    51IDQ   C2711123   3.720   5.418   5.089  0.3265  0.0457 -0.1059
    51IDQ   C2811124   3.636   5.489   4.981  0.2541  0.0286  0.0702
    51IDQ   C2911125   3.490   5.518   5.019 -0.2747  0.5976 -0.2578
    51IDQ   C3011126   4.586   5.081   5.531 -0.5730 -0.4907 -0.5197
    51IDQ   C3111127   4.736   5.043   5.519 -0.2114 -0.4165  0.1919
    51IDQ   C3211128   4.783   4.945   5.632  0.2418 -0.0472  0.0237
    51IDQ   C3311129   4.936   4.914   5.638  0.0184 -1.2194 -0.4890
    51IDQ   C3411130   5.036   5.034   5.641 -0.6259 -0.7696  0.4589
    51IDQ   C3511131   5.182   4.979   5.640  0.2717 -0.9318 -0.2461
    4IDB    C3611132   4.213   4.784   5.672 -0.3147  0.1616  0.0092
    4IDB    C3711133   4.162   4.859   5.781 -0.1185  0.1138  0.1342
    11RH    C3811134   4.559   4.362   4.131 -0.1033 -0.1669 -0.1590
    4IDB    C3911135   4.140   4.996   5.770  0.0823  0.1623  0.3099
    62IDT   C4011136   4.079   5.040   5.889 -0.0619 -0.0684 -0.2652
    72IDQ   C4111137   4.121   4.808   5.917  0.0114 -0.2151 -0.7211
    62IDT   C4211138   4.075   4.939   5.983  0.0165 -0.0640 -0.2571
    72IDQ   C4311139   4.251   4.764   6.005  0.2116 -0.5391  0.3547
    72IDQ   C4411140   3.997   4.704   5.923  0.0116  0.1573  0.7761
    62IDT    S511141   4.029   5.198   5.959 -0.0629 -0.0770 -0.2461
    62IDT   C4511142   4.004   5.115   6.119  0.0484 -0.0742 -0.2272
    62IDT   C4611143   4.033   4.981   6.113  0.0788 -0.0672 -0.2356
    82BTZ   C4711144   3.946   5.184   6.240  0.2908 -0.0793 -0.0651
    82BTZ   C4811145   3.902   5.103   6.341  0.5321 -0.1687 -0.0294
    82BTZ   C4911146   3.852   5.156   6.465  0.6685 -0.2738  0.0719
    82BTZ   C5011147   3.846   5.291   6.488  0.5633 -0.2891  0.1373
    82BTZ   C5111148   3.942   5.326   6.259  0.1725 -0.0912  0.0005
    82BTZ   C5211149   3.891   5.380   6.385  0.3110 -0.1979  0.1034
    92RH    C5311150   3.803   5.351   6.618  0.1847  0.1917  0.2391
    82BTZ    N411151   3.983   5.415   6.168 -0.0615 -0.0104 -0.0256
    82BTZ    N511152   3.891   5.514   6.396  0.1885 -0.2028  0.1600
    82BTZ    S611153   3.957   5.576   6.242 -0.1157 -0.0682  0.0825
    92RH    C5411154   3.763   5.297   6.733  0.1512  0.0678  0.1704
    92RH     S711155   3.732   5.120   6.767  0.0649  0.0400 -0.0504
    92RH    C5511156   3.737   5.377   6.856  0.1799 -0.0703  0.2667
    92RH     O211157   3.749   5.500   6.866  0.2373 -0.0879  0.4192
    92RH     N611158   3.696   5.295   6.963  0.1333 -0.1834  0.1628
    92RH    C5611159   3.686   5.159   6.941  0.0709 -0.1526 -0.0049
    92RH    C5711160   3.673   5.361   7.098  0.0984  1.1336  0.2021
    92RH    C5811161   3.775   5.342   7.213  0.2743  0.2390 -0.1079
    92RH     S811162   3.640   5.040   7.052  0.0070 -0.2669 -0.1544
    72IDQ   C5911163   3.856   4.738   5.871 -0.3164  0.0437  0.5636
    72IDQ   C6011164   3.745   4.640   5.910  0.0771 -0.4668  0.3732
    72IDQ   C6111165   3.596   4.673   5.886  0.1644  0.0530  0.0204
    72IDQ   C6211166   3.533   4.811   5.946 -0.2853 -0.5269 -0.1549
    72IDQ   C6311167   3.383   4.824   5.932  0.1728 -0.3123  0.0565
    72IDQ   C6411168   3.314   4.765   6.054  0.2277  0.1875 -0.7202
    72IDQ   C6511169   3.165   4.798   6.056 -0.4842  0.1446 -0.2741
    72IDQ   C6611170   4.267   4.659   6.108 -0.0041  0.0515 -0.7636
    72IDQ   C6711171   4.154   4.655   6.214  0.0291  0.5922 -0.5656
    72IDQ   C6811172   4.173   4.550   6.325  0.1782  0.4912  0.6837
    72IDQ   C6911173   4.062   4.549   6.424  0.2145 -0.2429  0.3301
    72IDQ   C7011174   4.047   4.426   6.513  0.3194  0.7497 -1.0164
    72IDQ   C7111175   3.901   4.421   6.565 -0.5303  0.1003  0.1494
    72IDQ   C7211176   3.859   4.299   6.644 -0.1780 -0.9057 -0.0116
    11RH     C111177   5.296   5.213   0.496 -0.0443  0.0689  0.0437
    11RH     C211178   5.333   5.297   0.378  0.1409 -0.0212  0.0362
    11RH     N111179   5.261   5.293   0.607 -0.0725  0.1558 -0.0273
    11RH     S111180   5.318   5.474   0.422  0.2659  0.0140 -0.0637
    11RH     C311181   5.265   5.430   0.593  0.0675  0.1459 -0.0908
    11RH     C411182   5.204   5.225   0.721  0.1824  0.3407 -0.4704
    11RH     S211183   5.227   5.547   0.709  0.0690  0.2369 -0.1813
    11RH     O111184   5.296   5.089   0.499 -0.1625  0.0702  0.1040
    11RH     C511185   5.370   5.246   0.260  0.2024 -0.1129  0.0950
    21BTZ    C611186   5.411   5.307   0.134 -0.1454  0.1412 -0.0298
    21BTZ    C711187   5.422   5.443   0.114 -0.1677  0.1469 -0.0031
    21BTZ    C811188   5.442   5.219   0.025 -0.1084  0.1669 -0.0403
    21BTZ    C911189   5.464   5.497  -0.013 -0.1550  0.1781  0.0145
    21BTZ   C1011190   5.494   5.417  -0.120 -0.1198  0.2034  0.0054
    21BTZ   C1111191   5.484   5.275  -0.104 -0.0956  0.1986 -0.0224
    21BTZ    N211192   5.434   5.086   0.032 -0.0840  0.1643 -0.0659
    21BTZ    N311193   5.511   5.186  -0.200 -0.0606  0.2214 -0.0336
    21BTZ    S311194   5.482   5.024  -0.129 -0.0424  0.2027 -0.0683
    31IDT   C1211195   5.539   5.478  -0.249  0.4292  0.2350 -0.0543
    31IDT   C1311196   5.570   5.611  -0.260  0.3167  0.2306 -0.4541
    31IDT   C1411197   5.625   5.645  -0.387 -0.1100 -0.0228 -0.7104
    31IDT   C1511198   5.636   5.539  -0.474 -0.3250 -0.2129 -0.5081
    31IDT    S411199   5.578   5.385  -0.401 -0.0008 -0.0844  0.0276
    4IDB    C1611200   5.696   5.587  -0.597  0.5701 -0.2173  0.0459
    4IDB    C1711201   5.727   5.726  -0.587 -0.1824 -0.0178 -0.2466
    51IDQ   C1811202   5.691   5.776  -0.446  0.4686  0.4228  0.2625
    4IDB    C1911203   5.781   5.796  -0.694 -0.3697  0.0028 -0.3287
    51IDQ   C2011204   5.589   5.897  -0.467 -0.1866  0.4486 -0.4022
    51IDQ   C2111205   5.807   5.827  -0.350 -0.3183  0.3760 -0.7371
    51IDQ   C2211206   5.958   5.841  -0.398 -0.1858  0.2061 -0.3989
    51IDQ   C2311207   5.445   5.880  -0.459  0.5342  0.3015  0.4188
    51IDQ   C2411208   6.064   5.854  -0.288 -0.1172  0.2929 -0.0030
    51IDQ   C2511209   6.030   5.951  -0.175 -0.0683 -0.4056 -0.3086
    51IDQ   C2611210   6.027   6.099  -0.219  0.7820 -0.0682  0.4991
    51IDQ   C2711211   6.162   6.161  -0.257  0.1772 -0.1828  0.0404
    51IDQ   C2811212   6.277   6.177  -0.152 -0.1809  0.1253 -0.4627
    51IDQ   C2911213   6.251   6.249  -0.022 -0.1136  0.4403  0.0748
    51IDQ   C3011214   5.363   5.804  -0.567 -0.3601  0.6479  0.2674
    51IDQ   C3111215   5.213   5.834  -0.567 -0.1290  0.0619  0.5056
    51IDQ   C3211216   5.122   5.746  -0.650 -0.0077 -0.3645  0.0354
    51IDQ   C3311217   4.978   5.798  -0.625  0.2183 -0.6124  0.4719
    51IDQ   C3411218   4.889   5.690  -0.674 -0.0096 -0.1590  0.5377
    51IDQ   C3511219   4.746   5.738  -0.697  0.4685  0.0030 -0.7285
    4IDB    C3611220   5.719   5.516  -0.716  1.1429 -0.3988  0.2593
    4IDB    C3711221   5.774   5.589  -0.825  0.9408 -0.3747  0.1715
    11RH    C3811222   5.291   5.173   0.836  0.4997  0.6132  0.0784
    4IDB    C3911223   5.804   5.725  -0.813  0.2031 -0.1785 -0.1153
    62IDT   C4011224   5.845   5.784  -0.941 -0.3053  0.1092  0.0349
    72IDQ   C4111225   5.810   5.543  -0.971  0.1099 -0.6999  0.1800
    62IDT   C4211226   5.855   5.677  -1.028  0.2372  0.0361  0.1843
    72IDQ   C4311227   5.678   5.492  -1.041 -0.1366 -0.3526 -0.6046
    72IDQ   C4411228   5.906   5.421  -0.964 -0.7106  0.1518  0.1023
    62IDT    S511229   5.890   5.939  -1.021 -0.4714  0.1394 -0.0017
    62IDT   C4511230   5.923   5.846  -1.174  0.2359  0.0470  0.1963
    62IDT   C4611231   5.899   5.712  -1.159  0.5440  0.0007  0.2757
    82BTZ   C4711232   5.963   5.910  -1.303  0.5032 -0.0393 -0.1116
    82BTZ   C4811233   6.022   5.827  -1.396  0.5437  0.0496 -0.1657
    82BTZ   C4911234   6.063   5.875  -1.525  0.2865  0.0975 -0.2303
    82BTZ   C5011235   6.045   6.006  -1.562 -0.0109  0.0569 -0.2408
    82BTZ   C5111236   5.943   6.047  -1.337  0.1959 -0.0848 -0.1203
    82BTZ   C5211237   5.985   6.097  -1.469 -0.0657 -0.0360 -0.1860
    92RH    C5311238   6.068   6.047  -1.699 -0.0461  0.2035  0.0874
    82BTZ    N411239   5.888   6.138  -1.256  0.1268 -0.1713 -0.0715
    82BTZ    N511240   5.963   6.226  -1.493 -0.3448 -0.0831 -0.1898
    82BTZ    S611241   5.886   6.292  -1.346 -0.2840 -0.1941 -0.1082
    92RH    C5411242   6.113   5.997  -1.815 -0.0148  0.2375  0.0848
    92RH     S711243   6.162   5.824  -1.848  0.1402  0.2806  0.0889
    92RH    C5511244   6.129   6.078  -1.938 -0.1045  0.2455  0.0780
    92RH     O211245   6.105   6.199  -1.948 -0.2172  0.2223  0.0739
    92RH     N611246   6.178   6.000  -2.045 -0.0464  0.2837  0.0765
    92RH    C5611247   6.203   5.866  -2.022  0.0789  0.3071  0.0813
    92RH    C5711248   6.198   6.063  -2.175  0.4550  0.1863  0.4560
    92RH    C5811249   6.081   6.050  -2.271  0.1756  0.5027 -0.3196
    92RH     S811250   6.260   5.752  -2.132  0.1696  0.3535  0.0806
    72IDQ   C5911251   6.055   5.441  -0.977  0.0380  0.2889 -0.1266
    72IDQ   C6011252   6.143   5.317  -0.972 -0.3841 -0.1328  0.0949
    72IDQ   C6111253   6.295   5.357  -0.956  0.2212 -0.3216 -0.5406
    72IDQ   C6211254   6.368   5.389  -1.082 -0.4254 -0.1152 -0.0449
    72IDQ   C6311255   6.514   5.427  -1.044  0.6337  0.0490  0.6361
    72IDQ   C6411256   6.578   5.493  -1.163  0.1617 -0.4889  0.0684
    72IDQ   C6511257   6.711   5.562  -1.131  0.3988  0.3884 -0.3337
    72IDQ   C6611258   5.681   5.470  -1.189  0.0492  0.1135 -0.0405
    72IDQ   C6711259   5.551   5.418  -1.255 -0.9468 -0.0766  0.1654
    72IDQ   C6811260   5.581   5.429  -1.401  0.1802  0.2974 -0.4451
    72IDQ   C6911261   5.472   5.377  -1.485  0.4474  0.3767  0.2032
    72IDQ   C7011262   5.333   5.447  -1.480 -0.8082 -0.0953  0.3852
    72IDQ   C7111263   5.221   5.407  -1.574  0.0971  0.8607 -0.3923
    72IDQ   C7211264   5.184   5.259  -1.565  0.2552  0.2398  0.0472
   6.09216   6.09047   6.54354   0.00000   0.00000   0.00000   0.00000  -0.86276   0.00000
